Generated by trjconv : CNT in water t= 248.00000
33518
    1C        C    1   2.843   2.767   4.746
    1C        C    2   2.895   2.714   4.866
    1C        C    3   2.834   2.769   4.980
    1C        C    4   2.853   2.774   4.258
    1C        C    5   2.906   2.725   4.380
    1C        C    6   2.849   2.770   4.502
    1C        C    7   3.008   2.632   4.624
    1C        C    8   2.895   2.717   4.624
    1C        C    9   3.071   2.595   4.745
    1C        C   10   3.006   2.627   4.866
    1C        C   11   3.182   2.490   4.974
    1C        C   12   3.059   2.558   4.975
    1C        C   13   2.846   2.765   3.770
    1C        C   14   2.901   2.717   3.890
    1C        C   15   2.852   2.770   4.011
    1C        C   16   3.015   2.640   4.136
    1C        C   17   2.903   2.725   4.135
    1C        C   18   3.076   2.603   4.258
    1C        C   19   3.021   2.644   4.381
    1C        C   20   3.206   2.544   4.503
    1C        C   21   3.078   2.603   4.504
    1C        C   22   3.277   2.532   4.624
    1C        C   23   3.201   2.538   4.744
    1C        C   24   3.412   2.477   4.864
    1C        C   25   3.270   2.498   4.861
    1C        C   26   3.489   2.477   4.981
    1C        C   27   2.848   2.766   3.279
    1C        C   28   2.899   2.720   3.403
    1C        C   29   2.849   2.771   3.525
    1C        C   30   3.014   2.638   3.645
    1C        C   31   2.898   2.718   3.647
    1C        C   32   3.076   2.603   3.767
    1C        C   33   3.016   2.634   3.891
    1C        C   34   3.205   2.544   4.016
    1C        C   35   3.075   2.601   4.015
    1C        C   36   3.274   2.523   4.138
    1C        C   37   3.206   2.546   4.259
    1C        C   38   3.414   2.506   4.381
    1C        C   39   3.274   2.523   4.381
    1C        C   40   3.486   2.498   4.502
    1C        C   41   3.416   2.507   4.624
    1C        C   42   3.629   2.484   4.743
    1C        C   43   3.487   2.479   4.743
    1C        C   44   3.706   2.482   4.862
    1C        C   45   3.628   2.475   4.978
    1C        C   46   2.834   2.752   2.791
    1C        C   47   2.891   2.710   2.914
    1C        C   48   2.841   2.760   3.037
    1C        C   49   3.017   2.637   3.159
    1C        C   50   2.901   2.717   3.157
    1C        C   51   3.078   2.604   3.282
    1C        C   52   3.013   2.636   3.403
    1C        C   53   3.203   2.540   3.525
    1C        C   54   3.073   2.595   3.524
    1C        C   55   3.273   2.527   3.647
    1C        C   56   3.206   2.548   3.770
    1C        C   57   3.411   2.505   3.893
    1C        C   58   3.271   2.523   3.893
    1C        C   59   3.483   2.503   4.014
    1C        C   60   3.413   2.502   4.137
    1C        C   61   3.625   2.497   4.258
    1C        C   62   3.484   2.494   4.259
    1C        C   63   3.698   2.511   4.378
    1C        C   64   3.627   2.505   4.501
    1C        C   65   3.834   2.547   4.618
    1C        C   66   3.699   2.506   4.622
    1C        C   67   3.903   2.566   4.740
    1C        C   68   3.841   2.522   4.859
    1C        C   69   4.049   2.585   4.975
    1C        C   70   3.921   2.527   4.974
    1C        C   71   2.822   2.734   2.305
    1C        C   72   2.880   2.693   2.427
    1C        C   73   2.828   2.743   2.549
    1C        C   74   3.004   2.625   2.670
    1C        C   75   2.882   2.696   2.671
    1C        C   76   3.068   2.593   2.792
    1C        C   77   3.007   2.630   2.914
    1C        C   78   3.207   2.554   3.035
    1C        C   79   3.073   2.600   3.035
    1C        C   80   3.274   2.528   3.157
    1C        C   81   3.207   2.545   3.280
    1C        C   82   3.411   2.491   3.401
    1C        C   83   3.272   2.520   3.403
    1C        C   84   3.479   2.489   3.525
    1C        C   85   3.412   2.502   3.649
    1C        C   86   3.623   2.494   3.769
    1C        C   87   3.482   2.494   3.771
    1C        C   88   3.694   2.503   3.891
    1C        C   89   3.625   2.502   4.014
    1C        C   90   3.833   2.539   4.133
    1C        C   91   3.696   2.506   4.136
    1C        C   92   3.903   2.566   4.253
    1C        C   93   3.835   2.544   4.375
    1C        C   94   4.028   2.634   4.496
    1C        C   95   3.902   2.570   4.496
    1C        C   96   4.092   2.666   4.618
    1C        C   97   4.033   2.622   4.738
    1C        C   98   4.189   2.764   4.857
    1C        C   99   4.101   2.652   4.860
    1C        C  100   4.216   2.838   4.973
    1C        C  101   2.816   2.729   2.069
    1C        C  102   2.986   2.587   2.190
    1C        C  103   2.874   2.677   2.185
    1C        C  104   3.058   2.567   2.311
    1C        C  105   2.994   2.610   2.430
    1C        C  106   3.196   2.531   2.549
    1C        C  107   3.066   2.587   2.550
    1C        C  108   3.266   2.513   2.670
    1C        C  109   3.199   2.539   2.792
    1C        C  110   3.409   2.494   2.914
    1C        C  111   3.271   2.525   2.912
    1C        C  112   3.481   2.486   3.035
    1C        C  113   3.412   2.499   3.158
    1C        C  114   3.624   2.495   3.278
    1C        C  115   3.483   2.490   3.279
    1C        C  116   3.691   2.509   3.402
    1C        C  117   3.619   2.501   3.523
    1C        C  118   3.827   2.545   3.644
    1C        C  119   3.690   2.511   3.645
    1C        C  120   3.894   2.569   3.766
    1C        C  121   3.829   2.543   3.889
    1C        C  122   4.018   2.643   4.009
    1C        C  123   3.895   2.573   4.011
    1C        C  124   4.085   2.673   4.130
    1C        C  125   4.027   2.633   4.252
    1C        C  126   4.193   2.767   4.375
    1C        C  127   4.085   2.676   4.373
    1C        C  128   4.244   2.818   4.496
    1C        C  129   4.195   2.764   4.617
    1C        C  130   4.332   2.930   4.738
    1C        C  131   4.246   2.817   4.737
    1C        C  132   4.361   2.998   4.858
    1C        C  133   4.285   2.959   4.969
    1C        C  134   3.167   2.462   2.082
    1C        C  135   3.033   2.503   2.085
    1C        C  136   3.257   2.480   2.189
    1C        C  137   3.191   2.518   2.308
    1C        C  138   3.403   2.481   2.427
    1C        C  139   3.264   2.504   2.428
    1C        C  140   3.477   2.485   2.548
    1C        C  141   3.405   2.489   2.669
    1C        C  142   3.618   2.496   2.788
    1C        C  143   3.477   2.489   2.791
    1C        C  144   3.690   2.503   2.910
    1C        C  145   3.622   2.493   3.034
    1C        C  146   3.830   2.538   3.154
    1C        C  147   3.694   2.501   3.155
    1C        C  148   3.896   2.559   3.278
    1C        C  149   3.829   2.537   3.401
    1C        C  150   4.020   2.633   3.520
    1C        C  151   3.895   2.567   3.522
    1C        C  152   4.077   2.673   3.643
    1C        C  153   4.017   2.638   3.766
    1C        C  154   4.192   2.763   3.885
    1C        C  155   4.078   2.679   3.887
    1C        C  156   4.249   2.807   4.007
    1C        C  157   4.198   2.758   4.129
    1C        C  158   4.336   2.919   4.252
    1C        C  159   4.244   2.812   4.251
    1C        C  160   4.376   2.983   4.371
    1C        C  161   4.337   2.925   4.494
    1C        C  162   4.436   3.114   4.615
    1C        C  163   4.372   2.988   4.616
    1C        C  164   4.469   3.180   4.735
    1C        C  165   4.434   3.118   4.857
    1C        C  166   4.512   3.321   4.972
    1C        C  167   4.472   3.188   4.972
    1C        C  168   3.473   2.437   2.072
    1C        C  169   3.396   2.459   2.187
    1C        C  170   3.615   2.465   2.307
    1C        C  171   3.473   2.463   2.306
    1C        C  172   3.691   2.482   2.425
    1C        C  173   3.619   2.485   2.547
    1C        C  174   3.827   2.536   2.665
    1C        C  175   3.691   2.499   2.667
    1C        C  176   3.896   2.559   2.787
    1C        C  177   3.826   2.539   2.908
    1C        C  178   4.022   2.621   3.031
    1C        C  179   3.893   2.564   3.030
    1C        C  180   4.081   2.660   3.153
    1C        C  181   4.019   2.629   3.276
    1C        C  182   4.197   2.747   3.394
    1C        C  183   4.082   2.665   3.397
    1C        C  184   4.245   2.797   3.517
    1C        C  185   4.194   2.752   3.641
    1C        C  186   4.334   2.915   3.763
    1C        C  187   4.243   2.807   3.761
    1C        C  188   4.378   2.973   3.885
    1C        C  189   4.337   2.917   4.008
    1C        C  190   4.446   3.100   4.123
    1C        C  191   4.380   2.975   4.130
    1C        C  192   4.468   3.168   4.245
    1C        C  193   4.439   3.110   4.371
    1C        C  194   4.503   3.313   4.491
    1C        C  195   4.466   3.177   4.492
    1C        C  196   4.523   3.384   4.611
    1C        C  197   4.507   3.317   4.734
    1C        C  198   4.548   3.535   4.851
    1C        C  199   4.528   3.393   4.853
    1C        C  200   4.583   3.619   4.961
    1C        C  201   3.612   2.418   2.072
    1C        C  202   3.824   2.509   2.183
    1C        C  203   3.687   2.465   2.185
    1C        C  204   3.896   2.537   2.303
    1C        C  205   3.828   2.516   2.425
    1C        C  206   4.023   2.614   2.540
    1C        C  207   3.898   2.547   2.544
    1C        C  208   4.081   2.656   2.662
    1C        C  209   4.024   2.619   2.785
    1C        C  210   4.194   2.744   2.905
    1C        C  211   4.081   2.658   2.908
    1C        C  212   4.246   2.794   3.026
    1C        C  213   4.195   2.744   3.147
    1C        C  214   4.329   2.908   3.273
    1C        C  215   4.247   2.793   3.269
    1C        C  216   4.370   2.968   3.395
    1C        C  217   4.331   2.909   3.517
    1C        C  218   4.428   3.099   3.636
    1C        C  219   4.373   2.969   3.638
    1C        C  220   4.457   3.167   3.757
    1C        C  221   4.442   3.099   3.880
    1C        C  222   4.503   3.303   4.003
    1C        C  223   4.471   3.165   4.001
    1C        C  224   4.513   3.375   4.124
    1C        C  225   4.506   3.304   4.246
    1C        C  226   4.514   3.520   4.363
    1C        C  227   4.513   3.379   4.366
    1C        C  228   4.516   3.593   4.484
    1C        C  229   4.523   3.526   4.608
    1C        C  230   4.502   3.741   4.724
    1C        C  231   4.529   3.602   4.727
    1C        C  232   4.491   3.817   4.843
    1C        C  233   4.550   3.755   4.954
    1C        C  234   4.015   2.611   2.062
    1C        C  235   3.897   2.538   2.067
    1C        C  236   4.085   2.646   2.178
    1C        C  237   4.020   2.606   2.297
    1C        C  238   4.201   2.727   2.418
    1C        C  239   4.081   2.650   2.417
    1C        C  240   4.249   2.783   2.538
    1C        C  241   4.195   2.740   2.661
    1C        C  242   4.337   2.899   2.784
    1C        C  243   4.246   2.791   2.782
    1C        C  244   4.377   2.960   2.905
    1C        C  245   4.333   2.906   3.028
    1C        C  246   4.436   3.090   3.147
    1C        C  247   4.373   2.963   3.151
    1C        C  248   4.456   3.157   3.270
    1C        C  249   4.431   3.095   3.394
    1C        C  250   4.495   3.301   3.512
    1C        C  251   4.457   3.164   3.515
    1C        C  252   4.504   3.371   3.634
    1C        C  253   4.494   3.303   3.758
    1C        C  254   4.514   3.514   3.878
    1C        C  255   4.509   3.372   3.880
    1C        C  256   4.508   3.587   3.999
    1C        C  257   4.509   3.516   4.122
    1C        C  258   4.485   3.731   4.239
    1C        C  259   4.507   3.591   4.241
    1C        C  260   4.463   3.799   4.361
    1C        C  261   4.482   3.731   4.482
    1C        C  262   4.418   3.936   4.601
    1C        C  263   4.471   3.805   4.602
    1C        C  264   4.397   4.010   4.719
    1C        C  265   4.429   3.944   4.840
    1C        C  266   4.315   4.130   4.955
    1C        C  267   4.390   4.013   4.956
    1C        C  268   4.264   2.773   2.062
    1C        C  269   4.201   2.727   2.178
    1C        C  270   4.350   2.883   2.296
    1C        C  271   4.261   2.772   2.298
    1C        C  272   4.384   2.948   2.417
    1C        C  273   4.339   2.893   2.539
    1C        C  274   4.445   3.078   2.659
    1C        C  275   4.378   2.954   2.660
    1C        C  276   4.473   3.146   2.779
    1C        C  277   4.450   3.081   2.902
    1C        C  278   4.505   3.287   3.022
    1C        C  279   4.469   3.150   3.024
    1C        C  280   4.505   3.362   3.142
    1C        C  281   4.492   3.294   3.265
    1C        C  282   4.507   3.506   3.389
    1C        C  283   4.502   3.365   3.387
    1C        C  284   4.504   3.579   3.509
    1C        C  285   4.511   3.512   3.634
    1C        C  286   4.486   3.722   3.751
    1C        C  287   4.512   3.583   3.756
    1C        C  288   4.466   3.792   3.872
    1C        C  289   4.487   3.726   3.995
    1C        C  290   4.419   3.929   4.115
    1C        C  291   4.471   3.798   4.116
    1C        C  292   4.389   3.996   4.236
    1C        C  293   4.419   3.934   4.359
    1C        C  294   4.317   4.123   4.475
    1C        C  295   4.387   4.001   4.479
    1C        C  296   4.278   4.185   4.596
    1C        C  297   4.327   4.134   4.718
    1C        C  298   4.197   4.313   4.833
    1C        C  299   4.280   4.196   4.837
    1C        C  300   4.172   4.405   4.940
    1C        C  301   4.351   2.881   2.060
    1C        C  302   4.469   3.067   2.177
    1C        C  303   4.396   2.944   2.177
    1C        C  304   4.481   3.140   2.298
    1C        C  305   4.443   3.076   2.418
    1C        C  306   4.505   3.283   2.536
    1C        C  307   4.473   3.146   2.538
    1C        C  308   4.514   3.356   2.657
    1C        C  309   4.506   3.284   2.778
    1C        C  310   4.514   3.496   2.899
    1C        C  311   4.516   3.355   2.899
    1C        C  312   4.508   3.570   3.019
    1C        C  313   4.508   3.503   3.144
    1C        C  314   4.483   3.714   3.262
    1C        C  315   4.509   3.575   3.266
    1C        C  316   4.468   3.786   3.382
    1C        C  317   4.482   3.719   3.505
    1C        C  318   4.420   3.922   3.626
    1C        C  319   4.467   3.789   3.627
    1C        C  320   4.385   3.987   3.747
    1C        C  321   4.416   3.925   3.870
    1C        C  322   4.314   4.112   3.990
    1C        C  323   4.384   3.989   3.991
    1C        C  324   4.276   4.173   4.111
    1C        C  325   4.321   4.120   4.234
    1C        C  326   4.189   4.291   4.350
    1C        C  327   4.282   4.185   4.353
    1C        C  328   4.132   4.335   4.472
    1C        C  329   4.184   4.289   4.595
    1C        C  330   4.021   4.437   4.713
    1C        C  331   4.137   4.356   4.711
    1C        C  332   3.969   4.495   4.831
    1C        C  333   4.054   4.480   4.941
    1C        C  334   4.547   3.262   2.064
    1C        C  335   4.532   3.123   2.061
    1C        C  336   4.534   3.348   2.174
    1C        C  337   4.514   3.279   2.296
    1C        C  338   4.528   3.495   2.410
    1C        C  339   4.521   3.354   2.415
    1C        C  340   4.522   3.567   2.531
    1C        C  341   4.515   3.497   2.653
    1C        C  342   4.486   3.706   2.777
    1C        C  343   4.509   3.566   2.776
    1C        C  344   4.470   3.779   2.897
    1C        C  345   4.489   3.710   3.018
    1C        C  346   4.423   3.915   3.136
    1C        C  347   4.468   3.781   3.138
    1C        C  348   4.389   3.979   3.257
    1C        C  349   4.418   3.919   3.382
    1C        C  350   4.316   4.105   3.501
    1C        C  351   4.388   3.984   3.504
    1C        C  352   4.273   4.167   3.621
    1C        C  353   4.310   4.107   3.743
    1C        C  354   4.179   4.271   3.867
    1C        C  355   4.269   4.163   3.866
    1C        C  356   4.125   4.324   3.986
    1C        C  357   4.176   4.274   4.108
    1C        C  358   4.013   4.409   4.229
    1C        C  359   4.132   4.334   4.228
    1C        C  360   3.954   4.452   4.349
    1C        C  361   4.020   4.420   4.470
    1C        C  362   3.828   4.517   4.594
    1C        C  363   3.960   4.467   4.589
    1C        C  364   3.761   4.553   4.713
    1C        C  365   3.838   4.548   4.831
    1C        C  366   3.626   4.588   4.949
    1C        C  367   3.765   4.577   4.947
    1C        C  368   4.499   3.561   2.051
    1C        C  369   4.516   3.488   2.169
    1C        C  370   4.500   3.705   2.288
    1C        C  371   4.512   3.564   2.288
    1C        C  372   4.477   3.773   2.409
    1C        C  373   4.491   3.705   2.533
    1C        C  374   4.418   3.906   2.647
    1C        C  375   4.467   3.773   2.654
    1C        C  376   4.391   3.973   2.768
    1C        C  377   4.419   3.911   2.892
    1C        C  378   4.317   4.098   3.010
    1C        C  379   4.391   3.977   3.013
    1C        C  380   4.274   4.154   3.132
    1C        C  381   4.314   4.098   3.256
    1C        C  382   4.175   4.260   3.375
    1C        C  383   4.271   4.157   3.377
    1C        C  384   4.126   4.314   3.496
    1C        C  385   4.175   4.268   3.621
    1C        C  386   4.007   4.394   3.739
    1C        C  387   4.126   4.318   3.744
    1C        C  388   3.943   4.428   3.860
    1C        C  389   4.007   4.401   3.983
    1C        C  390   3.818   4.494   4.106
    1C        C  391   3.947   4.437   4.107
    1C        C  392   3.753   4.517   4.229
    1C        C  393   3.823   4.506   4.351
    1C        C  394   3.617   4.552   4.472
    1C        C  395   3.756   4.528   4.473
    1C        C  396   3.546   4.567   4.593
    1C        C  397   3.621   4.569   4.713
    1C        C  398   3.410   4.547   4.837
    1C        C  399   3.548   4.574   4.834
    1C        C  400   3.341   4.509   4.953
    1C        C  401   4.495   3.700   2.050
    1C        C  402   4.448   3.911   2.164
    1C        C  403   4.493   3.777   2.167
    1C        C  404   4.403   3.973   2.283
    1C        C  405   4.432   3.906   2.404
    1C        C  406   4.326   4.093   2.521
    1C        C  407   4.400   3.973   2.524
    1C        C  408   4.279   4.150   2.642
    1C        C  409   4.317   4.094   2.765
    1C        C  410   4.176   4.253   2.884
    1C        C  411   4.273   4.151   2.887
    1C        C  412   4.128   4.302   3.008
    1C        C  413   4.178   4.258   3.133
    1C        C  414   4.001   4.380   3.250
    1C        C  415   4.120   4.305   3.253
    1C        C  416   3.943   4.419   3.373
    1C        C  417   4.011   4.396   3.495
    1C        C  418   3.814   4.477   3.617
    1C        C  419   3.947   4.429   3.616
    1C        C  420   3.747   4.505   3.738
    1C        C  421   3.815   4.487   3.860
    1C        C  422   3.612   4.541   3.985
    1C        C  423   3.751   4.514   3.983
    1C        C  424   3.543   4.544   4.108
    1C        C  425   3.614   4.543   4.231
    1C        C  426   3.402   4.550   4.355
    1C        C  427   3.543   4.557   4.352
    1C        C  428   3.331   4.541   4.477
    1C        C  429   3.405   4.552   4.597
    1C        C  430   3.194   4.512   4.722
    1C        C  431   3.334   4.537   4.718
    1C        C  432   3.123   4.491   4.843
    1C        C  433   3.203   4.493   4.957
    1C        C  434   4.388   4.123   2.053
    1C        C  435   4.441   3.993   2.051
    1C        C  436   4.302   4.164   2.161
    1C        C  437   4.330   4.095   2.282
    1C        C  438   4.176   4.248   2.400
    1C        C  439   4.276   4.148   2.401
    1C        C  440   4.122   4.296   2.521
    1C        C  441   4.173   4.243   2.642
    1C        C  442   4.004   4.377   2.765
    1C        C  443   4.120   4.297   2.761
    1C        C  444   3.945   4.413   2.888
    1C        C  445   4.011   4.380   3.008
    1C        C  446   3.812   4.471   3.128
    1C        C  447   3.941   4.415   3.126
    1C        C  448   3.747   4.495   3.252
    1C        C  449   3.814   4.475   3.375
    1C        C  450   3.606   4.525   3.495
    1C        C  451   3.745   4.500   3.496
    1C        C  452   3.539   4.538   3.618
    1C        C  453   3.609   4.537   3.741
    1C        C  454   3.399   4.533   3.867
    1C        C  455   3.540   4.544   3.864
    1C        C  456   3.329   4.528   3.990
    1C        C  457   3.402   4.536   4.110
    1C        C  458   3.196   4.500   4.235
    1C        C  459   3.333   4.532   4.233
    1C        C  460   3.127   4.482   4.357
    1C        C  461   3.194   4.506   4.479
    1C        C  462   2.996   4.428   4.600
    1C        C  463   3.127   4.483   4.601
    1C        C  464   2.929   4.397   4.720
    1C        C  465   2.990   4.437   4.842
    1C        C  466   2.799   4.337   4.954
    1C        C  467   2.906   4.427   4.958
    1C        C  468   4.124   4.283   2.036
    1C        C  469   4.186   4.246   2.157
    1C        C  470   4.007   4.371   2.276
    1C        C  471   4.127   4.296   2.276
    1C        C  472   3.939   4.401   2.396
    1C        C  473   4.002   4.371   2.519
    1C        C  474   3.813   4.464   2.641
    1C        C  475   3.944   4.410   2.641
    1C        C  476   3.745   4.490   2.762
    1C        C  477   3.815   4.470   2.883
    1C        C  478   3.607   4.513   3.005
    1C        C  479   3.746   4.489   3.004
    1C        C  480   3.536   4.524   3.127
    1C        C  481   3.608   4.517   3.249
    1C        C  482   3.396   4.521   3.376
    1C        C  483   3.537   4.522   3.371
    1C        C  484   3.328   4.513   3.500
    1C        C  485   3.398   4.530   3.621
    1C        C  486   3.192   4.488   3.743
    1C        C  487   3.330   4.519   3.744
    1C        C  488   3.127   4.466   3.867
    1C        C  489   3.193   4.492   3.989
    1C        C  490   3.003   4.408   4.115
    1C        C  491   3.128   4.474   4.114
    1C        C  492   2.940   4.377   4.238
    1C        C  493   3.000   4.420   4.358
    1C        C  494   2.827   4.297   4.479
    1C        C  495   2.935   4.389   4.480
    1C        C  496   2.772   4.250   4.600
    1C        C  497   2.815   4.312   4.720
    1C        C  498   2.660   4.164   4.841
    1C        C  499   2.751   4.272   4.839
    1C        C  500   2.598   4.116   4.957
    1C        C  501   4.006   4.356   2.038
    1C        C  502   3.816   4.464   2.152
    1C        C  503   3.942   4.400   2.154
    1C        C  504   3.744   4.477   2.273
    1C        C  505   3.808   4.455   2.397
    1C        C  506   3.603   4.502   2.518
    1C        C  507   3.743   4.480   2.520
    1C        C  508   3.531   4.512   2.639
    1C        C  509   3.605   4.510   2.760
    1C        C  510   3.395   4.527   2.887
    1C        C  511   3.536   4.523   2.883
    1C        C  512   3.325   4.519   3.009
    1C        C  513   3.395   4.522   3.132
    1C        C  514   3.187   4.485   3.253
    1C        C  515   3.325   4.517   3.255
    1C        C  516   3.121   4.463   3.376
    1C        C  517   3.190   4.485   3.498
    1C        C  518   2.997   4.405   3.626
    1C        C  519   3.124   4.467   3.621
    1C        C  520   2.936   4.371   3.748
    1C        C  521   3.001   4.403   3.870
    1C        C  522   2.830   4.283   3.994
    1C        C  523   2.945   4.365   3.994
    1C        C  524   2.782   4.234   4.117
    1C        C  525   2.831   4.287   4.238
    1C        C  526   2.691   4.129   4.363
    1C        C  527   2.778   4.239   4.360
    1C        C  528   2.644   4.073   4.484
    1C        C  529   2.688   4.137   4.602
    1C        C  530   2.582   3.957   4.729
    1C        C  531   2.639   4.087   4.725
    1C        C  532   2.536   3.899   4.850
    1C        C  533   2.534   3.991   4.960
    1C        C  534   3.618   4.557   2.041
    1C        C  535   3.753   4.519   2.039
    1C        C  536   3.535   4.527   2.153
    1C        C  537   3.605   4.507   2.275
    1C        C  538   3.391   4.516   2.396
    1C        C  539   3.533   4.511   2.396
    1C        C  540   3.321   4.507   2.518
    1C        C  541   3.390   4.509   2.641
    1C        C  542   3.187   4.479   2.765
    1C        C  543   3.324   4.513   2.766
    1C        C  544   3.121   4.457   2.888
    1C        C  545   3.189   4.482   3.009
    1C        C  546   2.994   4.399   3.133
    1C        C  547   3.119   4.463   3.131
    1C        C  548   2.937   4.361   3.257
    1C        C  549   2.995   4.401   3.379
    1C        C  550   2.828   4.275   3.502
    1C        C  551   2.938   4.365   3.504
    1C        C  552   2.775   4.232   3.626
    1C        C  553   2.825   4.284   3.747
    1C        C  554   2.692   4.123   3.871
    1C        C  555   2.780   4.233   3.871
    1C        C  556   2.654   4.065   3.994
    1C        C  557   2.694   4.124   4.116
    1C        C  558   2.590   3.943   4.242
    1C        C  559   2.655   4.069   4.240
    1C        C  560   2.564   3.877   4.364
    1C        C  561   2.578   3.948   4.486
    1C        C  562   2.525   3.747   4.611
    1C        C  563   2.562   3.883   4.610
    1C        C  564   2.517   3.678   4.735
    1C        C  565   2.517   3.757   4.853
    1C        C  566   2.535   3.545   4.977
    1C        C  567   2.521   3.684   4.972
    1C        C  568   3.325   4.467   2.040
    1C        C  569   3.394   4.510   2.155
    1C        C  570   3.183   4.470   2.282
    1C        C  571   3.318   4.512   2.275
    1C        C  572   3.113   4.450   2.404
    1C        C  573   3.182   4.480   2.523
    1C        C  574   2.987   4.399   2.645
    1C        C  575   3.115   4.458   2.645
    1C        C  576   2.931   4.357   2.768
    1C        C  577   2.995   4.392   2.889
    1C        C  578   2.822   4.272   3.014
    1C        C  579   2.934   4.358   3.011
    1C        C  580   2.775   4.219   3.136
    1C        C  581   2.829   4.270   3.257
    1C        C  582   2.689   4.115   3.382
    1C        C  583   2.778   4.225   3.380
    1C        C  584   2.654   4.055   3.505
    1C        C  585   2.693   4.117   3.626
    1C        C  586   2.589   3.936   3.752
    1C        C  587   2.650   4.064   3.749
    1C        C  588   2.564   3.873   3.876
    1C        C  589   2.595   3.937   3.997
    1C        C  590   2.532   3.738   4.122
    1C        C  591   2.565   3.875   4.121
    1C        C  592   2.522   3.672   4.247
    1C        C  593   2.528   3.741   4.370
    1C        C  594   2.508   3.530   4.494
    1C        C  595   2.515   3.671   4.492
    1C        C  596   2.518   3.462   4.617
    1C        C  597   2.520   3.536   4.737
    1C        C  598   2.531   3.327   4.860
    1C        C  599   2.533   3.468   4.860
    1C        C  600   2.536   3.249   4.976
    1C        C  601   3.191   4.434   2.043
    1C        C  602   2.980   4.397   2.162
    1C        C  603   3.115   4.443   2.160
    1C        C  604   2.917   4.358   2.284
    1C        C  605   2.987   4.388   2.403
    1C        C  606   2.816   4.267   2.526
    1C        C  607   2.922   4.360   2.525
    1C        C  608   2.765   4.221   2.650
    1C        C  609   2.816   4.274   2.770
    1C        C  610   2.681   4.112   2.893
    1C        C  611   2.767   4.224   2.893
    1C        C  612   2.648   4.050   3.015
    1C        C  613   2.691   4.106   3.138
    1C        C  614   2.585   3.926   3.263
    1C        C  615   2.648   4.052   3.262
    1C        C  616   2.564   3.862   3.387
    1C        C  617   2.592   3.928   3.509
    1C        C  618   2.524   3.730   3.636
    1C        C  619   2.565   3.865   3.633
    1C        C  620   2.513   3.663   3.760
    1C        C  621   2.525   3.737   3.880
    1C        C  622   2.509   3.525   4.008
    1C        C  623   2.518   3.666   4.002
    1C        C  624   2.510   3.455   4.131
    1C        C  625   2.512   3.531   4.250
    1C        C  626   2.534   3.320   4.376
    1C        C  627   2.507   3.459   4.372
    1C        C  628   2.554   3.251   4.497
    1C        C  629   2.533   3.321   4.618
    1C        C  630   2.601   3.121   4.741
    1C        C  631   2.549   3.253   4.741
    1C        C  632   2.619   3.049   4.862
    1C        C  633   2.561   3.111   4.977
    1C        C  634   2.779   4.305   2.052
    1C        C  635   2.888   4.393   2.053
    1C        C  636   2.743   4.231   2.165
    1C        C  637   2.802   4.274   2.285
    1C        C  638   2.667   4.110   2.409
    1C        C  639   2.756   4.220   2.407
    1C        C  640   2.631   4.049   2.531
    1C        C  641   2.678   4.109   2.650
    1C        C  642   2.580   3.923   2.774
    1C        C  643   2.642   4.049   2.773
    1C        C  644   2.559   3.857   2.898
    1C        C  645   2.585   3.924   3.020
    1C        C  646   2.520   3.722   3.146
    1C        C  647   2.558   3.858   3.142
    1C        C  648   2.511   3.655   3.270
    1C        C  649   2.524   3.726   3.391
    1C        C  650   2.506   3.517   3.516
    1C        C  651   2.511   3.658   3.514
    1C        C  652   2.516   3.451   3.641
    1C        C  653   2.507   3.522   3.763
    1C        C  654   2.532   3.315   3.886
    1C        C  655   2.506   3.453   3.886
    1C        C  656   2.551   3.247   4.008
    1C        C  657   2.535   3.316   4.131
    1C        C  658   2.608   3.120   4.254
    1C        C  659   2.552   3.250   4.255
    1C        C  660   2.644   3.059   4.376
    1C        C  661   2.607   3.120   4.498
    1C        C  662   2.712   2.937   4.620
    1C        C  663   2.638   3.057   4.620
    1C        C  664   2.753   2.877   4.741
    1C        C  665   2.702   2.932   4.862
    1C        C  666   2.738   2.869   4.982
    1C        C  667   2.682   4.025   2.050
    1C        C  668   2.682   4.103   2.166
    1C        C  669   2.580   3.916   2.288
    1C        C  670   2.636   4.046   2.287
    1C        C  671   2.556   3.849   2.411
    1C        C  672   2.575   3.919   2.532
    1C        C  673   2.513   3.718   2.658
    1C        C  674   2.549   3.854   2.655
    1C        C  675   2.508   3.648   2.780
    1C        C  676   2.529   3.719   2.901
    1C        C  677   2.504   3.511   3.029
    1C        C  678   2.510   3.652   3.024
    1C        C  679   2.503   3.440   3.151
    1C        C  680   2.497   3.515   3.272
    1C        C  681   2.530   3.307   3.396
    1C        C  682   2.502   3.445   3.394
    1C        C  683   2.550   3.243   3.520
    1C        C  684   2.537   3.311   3.643
    1C        C  685   2.605   3.111   3.768
    1C        C  686   2.556   3.244   3.766
    1C        C  687   2.638   3.050   3.890
    1C        C  688   2.601   3.115   4.011
    1C        C  689   2.718   2.937   4.134
    1C        C  690   2.639   3.055   4.133
    1C        C  691   2.762   2.882   4.256
    1C        C  692   2.722   2.941   4.378
    1C        C  693   2.761   2.880   4.500
    1C        C  694   2.631   3.894   2.057
    1C        C  695   2.527   3.703   2.173
    1C        C  696   2.575   3.836   2.172
    1C        C  697   2.504   3.638   2.296
    1C        C  698   2.521   3.712   2.415
    1C        C  699   2.484   3.504   2.539
    1C        C  700   2.498   3.645   2.537
    1C        C  701   2.487   3.439   2.664
    1C        C  702   2.495   3.507   2.787
    1C        C  703   2.517   3.295   2.908
    1C        C  704   2.498   3.436   2.909
    1C        C  705   2.539   3.229   3.030
    1C        C  706   2.529   3.301   3.151
    1C        C  707   2.598   3.103   3.276
    1C        C  708   2.550   3.236   3.275
    1C        C  709   2.628   3.043   3.401
    1C        C  710   2.599   3.110   3.522
    1C        C  711   2.712   2.931   3.647
    1C        C  712   2.634   3.049   3.644
    1C        C  713   2.756   2.874   3.768
    1C        C  714   2.719   2.934   3.891
    1C        C  715   2.759   2.877   4.013
    1C        C  716   2.447   3.497   2.056
    1C        C  717   2.490   3.630   2.060
    1C        C  718   2.459   3.424   2.179
    1C        C  719   2.477   3.498   2.299
    1C        C  720   2.511   3.289   2.425
    1C        C  721   2.481   3.427   2.421
    1C        C  722   2.532   3.223   2.549
    1C        C  723   2.513   3.300   2.666
    1C        C  724   2.582   3.095   2.789
    1C        C  725   2.526   3.225   2.785
    1C        C  726   2.609   3.028   2.910
    1C        C  727   2.578   3.093   3.032
    1C        C  728   2.708   2.925   3.157
    1C        C  729   2.624   3.038   3.154
    1C        C  730   2.756   2.873   3.279
    1C        C  731   2.712   2.930   3.401
    1C        C  732   2.750   2.872   3.524
    1C        C  733   2.487   3.195   2.075
    1C        C  734   2.482   3.283   2.184
    1C        C  735   2.583   3.091   2.306
    1C        C  736   2.514   3.215   2.305
    1C        C  737   2.614   3.025   2.427
    1C        C  738   2.590   3.094   2.547
    1C        C  739   2.704   2.916   2.669
    1C        C  740   2.627   3.034   2.670
    1C        C  741   2.744   2.861   2.793
    1C        C  742   2.696   2.917   2.914
    1C        C  743   2.744   2.863   3.035
    1C        C  744   2.548   3.071   2.070
    1C        C  745   2.687   2.902   2.187
    1C        C  746   2.608   3.020   2.186
    1C        C  747   2.731   2.842   2.307
    1C        C  748   2.686   2.903   2.427
    1C        C  749   2.737   2.851   2.548
    1C        C  750   2.740   2.846   2.071
    1C        C  751   3.671   2.332   1.967
    1C        O  752   3.652   2.208   1.966
    1C        O  753   3.681   2.382   1.836
    1C        C  754   4.630   3.060   1.969
    1C        O  755   4.598   3.043   1.848
    1C        O  756   4.768   3.059   1.992
    1C        C  757   4.454   4.236   1.984
    1C        O  758   4.499   4.338   2.042
    1C        O  759   4.435   4.261   1.848
    1C        C  760   3.584   4.678   1.963
    1C        O  761   3.657   4.781   1.972
    1C        O  762   3.561   4.650   1.828
    1C        C  763   2.863   4.520   1.980
    1C        O  764   2.888   4.521   1.856
    1C        O  765   2.764   4.607   2.026
    1C        C  766   2.362   3.460   1.941
    1C        O  767   2.410   3.423   1.830
    1C        O  768   2.223   3.452   1.953
    1C        C  769   4.701   3.591   5.047
    1C        O  770   4.720   3.606   5.171
    1C        O  771   4.830   3.589   4.993
    1C        C  772   4.286   4.461   5.015
    1C        O  773   4.304   4.421   5.134
    1C        O  774   4.333   4.590   4.986
    1C        C  775   4.148   2.540   5.076
    1C        O  776   4.232   2.451   5.046
    1C        O  777   4.094   2.508   5.201
    1C        C  778   2.900   4.530   5.064
    1C        O  779   2.803   4.611   5.069
    1C        O  780   2.942   4.495   5.192
    1C        C  781   2.473   3.038   5.072
    1C        O  782   2.402   2.937   5.045
    1C        O  783   2.451   3.068   5.206
    1C        C  784   2.438   3.994   5.072
    1C        O  785   2.317   3.962   5.055
    1C        O  786   2.463   3.996   5.210
    1C        C  787   2.952   2.434   1.983
    1C        O  788   2.934   2.463   1.861
    1C        O  789   2.909   2.305   2.011
    1C        C  790   3.198   2.388   5.080
    1C        O  791   3.158   2.270   5.060
    1C        O  792   3.249   2.416   5.207
    1C        H  793   4.234   3.037   5.023
    1C        H  794   4.199   2.794   5.069
    1C        H  795   4.501   3.126   5.055
    1C        H  796   4.555   3.363   5.060
    1C        H  797   4.604   3.823   5.017
    1C        H  798   4.457   4.007   5.039
    1C        H  799   4.320   4.194   5.041
    1C        H  800   4.006   4.483   5.036
    1C        H  801   3.818   4.626   5.026
    1C        H  802   3.592   4.661   5.019
    1C        H  803   3.401   4.452   5.021
    1C        H  804   3.164   4.443   5.043
    1C        H  805   3.885   2.485   5.065
    1C        H  806   3.680   2.476   5.072
    1C        H  807   3.037   2.596   5.073
    1C        H  808   3.445   2.514   5.072
    1C        H  809   2.843   2.716   5.072
    1C        H  810   2.739   2.930   5.071
    1C        H  811   2.473   3.285   5.055
    1C        H  812   2.578   3.501   5.064
    1C        H  813   2.496   3.736   5.061
    1C        H  814   2.568   4.186   5.033
    1C        H  815   2.742   4.328   5.044
    1C        H  816   2.744   2.900   1.979
    1C        H  817   2.823   2.678   1.975
    1C        H  818   3.206   2.432   1.987
    1C        H  819   3.443   2.505   1.996
    1C        H  820   3.883   2.474   1.982
    1C        H  821   4.036   2.664   1.971
    1C        H  822   4.216   2.751   1.969
    1C        H  823   4.353   2.927   1.963
    1C        H  824   4.552   3.313   1.970
    1C        H  825   4.486   3.507   1.960
    1C        H  826   4.502   3.743   1.952
    1C        H  827   3.811   4.545   1.954
    1C        H  828   3.981   4.400   1.943
    1C        H  829   4.165   4.254   1.941
    1C        H  830   4.516   3.981   1.976
    1C        H  831   2.635   3.840   1.965
    1C        H  832   2.677   4.071   1.954
    1C        H  833   2.709   4.306   1.971
    1C        H  834   3.375   4.478   1.946
    1C        H  835   3.161   4.356   1.976
    1C        H  836   2.526   3.010   1.984
    1C        H  837   2.410   3.209   2.001
    1C        H  838   2.471   3.692   1.974
    2V3OU   H29  839   2.801   3.545   2.464
    2V3OU   C27  840   2.785   3.503   2.567
    2V3OU   H27  841   2.726   3.567   2.636
    2V3OU   H28  842   2.737   3.402   2.554
    2V3OU   O11  843   2.910   3.470   2.627
    2V3OU   C15  844   2.924   3.389   2.738
    2V3OU   C13  845   3.048   3.369   2.801
    2V3OU   C14  846   3.075   3.266   2.892
    2V3OU   C16  847   2.971   3.184   2.934
    2V3OU    H6  848   2.988   3.101   3.003
    2V3OU   C12  849   3.210   3.228   2.939
    2V3OU    O2  850   3.235   3.123   3.001
    2V3OU   C10  851   3.323   3.308   2.889
    2V3OU    C8  852   3.455   3.269   2.910
    2V3OU   O10  853   3.490   3.151   2.968
    2V3OU   H26  854   3.408   3.112   3.001
    2V3OU    C6  855   3.563   3.346   2.857
    2V3OU    C5  856   3.535   3.464   2.789
    2V3OU    C4  857   3.701   3.291   2.859
    2V3OU    H4  858   3.722   3.230   2.952
    2V3OU    H5  859   3.711   3.224   2.768
    2V3OU    C2  860   3.814   3.394   2.865
    2V3OU    O6  861   3.798   3.476   2.981
    2V3OU   H21  862   3.771   3.558   2.938
    2V3OU    C3  863   3.778   3.488   2.750
    2V3OU    H2  864   3.858   3.566   2.744
    2V3OU    H3  865   3.783   3.431   2.653
    2V3OU   C25  866   3.950   3.326   2.848
    2V3OU    O7  867   4.000   3.294   2.741
    2V3OU   C26  868   4.025   3.285   2.974
    2V3OU   H22  869   4.063   3.378   3.024
    2V3OU   H23  870   4.117   3.228   2.946
    2V3OU    O8  871   3.959   3.208   3.071
    2V3OU   H24  872   3.924   3.267   3.140
    2V3OU    C1  873   3.645   3.561   2.760
    2V3OU    H1  874   3.622   3.613   2.662
    2V3OU    O3  875   3.660   3.655   2.868
    2V3OU   C19  876   3.622   3.791   2.848
    2V3OU    H9  877   3.525   3.800   2.791
    2V3OU    O4  878   3.719   3.844   2.760
    2V3OU   C20  879   3.841   3.869   2.831
    2V3OU   H10  880   3.891   3.768   2.836
    2V3OU   C24  881   3.610   3.853   2.988
    2V3OU   H16  882   3.543   3.790   3.053
    2V3OU   H17  883   3.564   3.955   2.987
    2V3OU   C23  884   3.744   3.874   3.059
    2V3OU   H15  885   3.788   3.773   3.084
    2V3OU    N1  886   3.731   3.951   3.181
    2V3OU   H19  887   3.810   3.925   3.237
    2V3OU   H20  888   3.656   3.925   3.241
    2V3OU   C21  889   3.841   3.949   2.962
    2V3OU   H11  890   3.944   3.927   3.002
    2V3OU    O5  891   3.820   4.089   2.963
    2V3OU   H18  892   3.777   4.099   3.049
    2V3OU   C22  893   3.911   3.944   2.719
    2V3OU   H12  894   3.867   4.045   2.700
    2V3OU   H13  895   3.900   3.884   2.625
    2V3OU   H14  896   4.020   3.956   2.742
    2V3OU   C11  897   3.157   3.468   2.789
    2V3OU    O1  898   3.136   3.583   2.747
    2V3OU    C9  899   3.297   3.428   2.818
    2V3OU    C7  900   3.400   3.507   2.770
    2V3OU    O9  901   3.388   3.614   2.683
    2V3OU   H25  902   3.292   3.626   2.692
    2V3OU   C17  903   2.818   3.309   2.787
    2V3OU    H7  904   2.719   3.351   2.771
    2V3OU   C18  905   2.846   3.209   2.879
    2V3OU    H8  906   2.774   3.168   2.952
    3SOL     OW  907   2.417   5.482   0.228
    3SOL    HW1  908   2.458   5.506   0.140
    3SOL    HW2  909   2.375   5.564   0.268
    4SOL     OW  910   6.855   6.903   2.271
    4SOL    HW1  911   6.814   6.859   2.191
    4SOL    HW2  912   6.899   6.988   2.243
    5SOL     OW  913   4.110   1.801   2.739
    5SOL    HW1  914   4.138   1.811   2.644
    5SOL    HW2  915   4.011   1.803   2.745
    6SOL     OW  916   4.013   1.196   1.823
    6SOL    HW1  917   4.113   1.193   1.834
    6SOL    HW2  918   3.987   1.147   1.740
    7SOL     OW  919   0.062   3.937   3.026
    7SOL    HW1  920   0.151   3.932   2.980
    7SOL    HW2  921   7.008   3.931   2.957
    8SOL     OW  922   3.521   0.912   0.179
    8SOL    HW1  923   3.446   0.846   0.180
    8SOL    HW2  924   3.609   0.863   0.179
    9SOL     OW  925   4.922   0.796   6.079
    9SOL    HW1  926   4.839   0.756   6.040
    9SOL    HW2  927   5.002   0.763   6.029
   10SOL     OW  928   1.723   5.071   5.919
   10SOL    HW1  929   1.674   5.010   5.981
   10SOL    HW2  930   1.702   5.045   5.824
   11SOL     OW  931   2.663   0.659   5.897
   11SOL    HW1  932   2.733   0.601   5.937
   11SOL    HW2  933   2.707   0.728   5.838
   12SOL     OW  934   3.467   5.545   3.529
   12SOL    HW1  935   3.542   5.603   3.497
   12SOL    HW2  936   3.390   5.603   3.556
   13SOL     OW  937   4.049   6.377   3.874
   13SOL    HW1  938   4.147   6.358   3.868
   13SOL    HW2  939   4.004   6.305   3.927
   14SOL     OW  940   3.606   5.695   5.832
   14SOL    HW1  941   3.646   5.639   5.760
   14SOL    HW2  942   3.509   5.712   5.813
   15SOL     OW  943   0.453   6.635   2.093
   15SOL    HW1  944   0.483   6.707   2.156
   15SOL    HW2  945   0.533   6.586   2.058
   16SOL     OW  946   5.566   2.752   5.936
   16SOL    HW1  947   5.644   2.769   5.996
   16SOL    HW2  948   5.550   2.653   5.929
   17SOL     OW  949   5.511   6.723   6.270
   17SOL    HW1  950   5.484   6.767   6.356
   17SOL    HW2  951   5.488   6.626   6.274
   18SOL     OW  952   3.193   0.868   5.292
   18SOL    HW1  953   3.102   0.874   5.251
   18SOL    HW2  954   3.192   0.796   5.362
   19SOL     OW  955   0.185   1.385   2.953
   19SOL    HW1  956   0.173   1.383   3.052
   19SOL    HW2  957   0.247   1.311   2.925
   20SOL     OW  958   5.676   1.483   4.064
   20SOL    HW1  959   5.700   1.566   4.012
   20SOL    HW2  960   5.618   1.425   4.008
   21SOL     OW  961   3.442   1.552   2.636
   21SOL    HW1  962   3.364   1.614   2.645
   21SOL    HW2  963   3.429   1.473   2.695
   22SOL     OW  964   1.714   6.630   6.573
   22SOL    HW1  965   1.788   6.563   6.569
   22SOL    HW2  966   1.744   6.708   6.628
   23SOL     OW  967   5.456   5.748   3.188
   23SOL    HW1  968   5.416   5.661   3.157
   23SOL    HW2  969   5.383   5.815   3.201
   24SOL     OW  970   4.355   0.209   3.665
   24SOL    HW1  971   4.319   0.215   3.758
   24SOL    HW2  972   4.289   0.161   3.607
   25SOL     OW  973   3.549   0.555   4.423
   25SOL    HW1  974   3.514   0.520   4.510
   25SOL    HW2  975   3.605   0.636   4.440
   26SOL     OW  976   7.010   0.519   0.604
   26SOL    HW1  977   0.046   0.457   0.547
   26SOL    HW2  978   6.979   0.470   0.686
   27SOL     OW  979   1.400   2.508   2.853
   27SOL    HW1  980   1.368   2.583   2.912
   27SOL    HW2  981   1.477   2.540   2.798
   28SOL     OW  982   2.978   1.644   6.221
   28SOL    HW1  983   3.024   1.678   6.139
   28SOL    HW2  984   2.891   1.602   6.196
   29SOL     OW  985   6.398   1.973   1.862
   29SOL    HW1  986   6.384   1.989   1.959
   29SOL    HW2  987   6.445   2.052   1.822
   30SOL     OW  988   4.281   1.023   3.694
   30SOL    HW1  989   4.346   1.099   3.689
   30SOL    HW2  990   4.222   1.035   3.774
   31SOL     OW  991   0.871   2.928   6.300
   31SOL    HW1  992   0.936   2.991   6.344
   31SOL    HW2  993   0.888   2.835   6.331
   32SOL     OW  994   0.276   1.966   2.674
   32SOL    HW1  995   0.238   1.877   2.699
   32SOL    HW2  996   0.216   2.011   2.608
   33SOL     OW  997   1.429   4.790   5.643
   33SOL    HW1  998   1.366   4.713   5.640
   33SOL    HW2  999   1.426   4.839   5.555
   34SOL     OW 1000   2.976   0.135   4.446
   34SOL    HW1 1001   3.033   0.055   4.464
   34SOL    HW2 1002   2.952   0.138   4.349
   35SOL     OW 1003   4.009   3.247   6.582
   35SOL    HW1 1004   4.070   3.231   6.504
   35SOL    HW2 1005   3.945   3.170   6.590
   36SOL     OW 1006   5.912   1.213   4.841
   36SOL    HW1 1007   5.869   1.204   4.751
   36SOL    HW2 1008   6.004   1.176   4.837
   37SOL     OW 1009   1.320   1.899   0.328
   37SOL    HW1 1010   1.246   1.885   0.263
   37SOL    HW2 1011   1.396   1.838   0.306
   38SOL     OW 1012   0.833   4.959   2.104
   38SOL    HW1 1013   0.885   4.942   2.020
   38SOL    HW2 1014   0.883   5.024   2.161
   39SOL     OW 1015   6.919   4.383   6.628
   39SOL    HW1 1016   6.874   4.335   6.553
   39SOL    HW2 1017   6.868   4.367   6.713
   40SOL     OW 1018   4.803   1.671   0.534
   40SOL    HW1 1019   4.898   1.657   0.507
   40SOL    HW2 1020   4.747   1.596   0.500
   41SOL     OW 1021   6.783   5.058   3.447
   41SOL    HW1 1022   6.876   5.094   3.437
   41SOL    HW2 1023   6.758   5.056   3.544
   42SOL     OW 1024   2.865   4.850   4.731
   42SOL    HW1 1025   2.860   4.898   4.818
   42SOL    HW2 1026   2.826   4.758   4.741
   43SOL     OW 1027   5.151   6.731   5.410
   43SOL    HW1 1028   5.202   6.813   5.438
   43SOL    HW2 1029   5.214   6.664   5.371
   44SOL     OW 1030   4.072   1.516   6.332
   44SOL    HW1 1031   4.098   1.600   6.284
   44SOL    HW2 1032   4.114   1.438   6.286
   45SOL     OW 1033   4.481   6.192   1.842
   45SOL    HW1 1034   4.548   6.198   1.916
   45SOL    HW2 1035   4.482   6.100   1.803
   46SOL     OW 1036   0.280   3.326   2.920
   46SOL    HW1 1037   0.208   3.279   2.972
   46SOL    HW2 1038   0.256   3.328   2.823
   47SOL     OW 1039   4.732   3.809   0.952
   47SOL    HW1 1040   4.646   3.825   1.001
   47SOL    HW2 1041   4.797   3.881   0.974
   48SOL     OW 1042   6.693   3.304   5.897
   48SOL    HW1 1043   6.657   3.322   5.806
   48SOL    HW2 1044   6.784   3.262   5.889
   49SOL     OW 1045   5.070   3.672   1.382
   49SOL    HW1 1046   5.136   3.602   1.356
   49SOL    HW2 1047   5.108   3.763   1.364
   50SOL     OW 1048   5.465   1.179   5.291
   50SOL    HW1 1049   5.448   1.104   5.227
   50SOL    HW2 1050   5.446   1.267   5.246
   51SOL     OW 1051   2.470   6.637   3.421
   51SOL    HW1 1052   2.488   6.570   3.348
   51SOL    HW2 1053   2.405   6.598   3.486
   52SOL     OW 1054   6.250   3.378   2.945
   52SOL    HW1 1055   6.268   3.282   2.965
   52SOL    HW2 1056   6.266   3.396   2.848
   53SOL     OW 1057   4.440   5.957   3.699
   53SOL    HW1 1058   4.412   5.908   3.781
   53SOL    HW2 1059   4.418   6.054   3.710
   54SOL     OW 1060   4.240   5.021   1.080
   54SOL    HW1 1061   4.204   5.098   1.027
   54SOL    HW2 1062   4.168   4.984   1.138
   55SOL     OW 1063   2.028   2.827   6.370
   55SOL    HW1 1064   2.044   2.912   6.420
   55SOL    HW2 1065   1.963   2.844   6.296
   56SOL     OW 1066   7.003   0.895   1.175
   56SOL    HW1 1067   0.023   0.836   1.247
   56SOL    HW2 1068   0.051   0.964   1.148
   57SOL     OW 1069   4.823   0.865   1.390
   57SOL    HW1 1070   4.748   0.855   1.325
   57SOL    HW2 1071   4.863   0.775   1.409
   58SOL     OW 1072   0.453   6.334   5.864
   58SOL    HW1 1073   0.397   6.406   5.822
   58SOL    HW2 1074   0.474   6.359   5.958
   59SOL     OW 1075   1.020   2.225   5.791
   59SOL    HW1 1076   1.030   2.262   5.699
   59SOL    HW2 1077   1.045   2.128   5.790
   60SOL     OW 1078   5.397   2.798   4.628
   60SOL    HW1 1079   5.323   2.790   4.695
   60SOL    HW2 1080   5.467   2.861   4.662
   61SOL     OW 1081   6.624   2.346   4.718
   61SOL    HW1 1082   6.668   2.415   4.660
   61SOL    HW2 1083   6.690   2.275   4.741
   62SOL     OW 1084   1.204   1.239   1.565
   62SOL    HW1 1085   1.233   1.190   1.648
   62SOL    HW2 1086   1.239   1.332   1.567
   63SOL     OW 1087   5.534   1.193   3.310
   63SOL    HW1 1088   5.453   1.151   3.268
   63SOL    HW2 1089   5.505   1.264   3.373
   64SOL     OW 1090   0.540   3.042   5.540
   64SOL    HW1 1091   0.462   3.010   5.595
   64SOL    HW2 1092   0.517   3.130   5.498
   65SOL     OW 1093   0.833   5.073   6.633
   65SOL    HW1 1094   0.793   4.981   6.641
   65SOL    HW2 1095   0.760   5.140   6.622
   66SOL     OW 1096   4.523   0.852   5.348
   66SOL    HW1 1097   4.449   0.915   5.325
   66SOL    HW2 1098   4.610   0.901   5.348
   67SOL     OW 1099   6.340   3.538   5.998
   67SOL    HW1 1100   6.300   3.481   6.070
   67SOL    HW2 1101   6.316   3.500   5.909
   68SOL     OW 1102   6.277   0.857   6.789
   68SOL    HW1 1103   6.221   0.936   6.765
   68SOL    HW2 1104   6.243   0.817   6.874
   69SOL     OW 1105   1.020   3.586   6.384
   69SOL    HW1 1106   1.011   3.675   6.338
   69SOL    HW2 1107   0.984   3.592   6.477
   70SOL     OW 1108   5.638   4.229   5.073
   70SOL    HW1 1109   5.632   4.297   5.146
   70SOL    HW2 1110   5.620   4.272   4.985
   71SOL     OW 1111   4.103   1.763   3.924
   71SOL    HW1 1112   4.059   1.674   3.936
   71SOL    HW2 1113   4.174   1.775   3.993
   72SOL     OW 1114   1.532   0.512   3.993
   72SOL    HW1 1115   1.569   0.422   3.969
   72SOL    HW2 1116   1.533   0.523   4.092
   73SOL     OW 1117   3.751   0.571   1.549
   73SOL    HW1 1118   3.799   0.543   1.632
   73SOL    HW2 1119   3.764   0.670   1.536
   74SOL     OW 1120   3.803   0.796   0.148
   74SOL    HW1 1121   3.902   0.806   0.150
   74SOL    HW2 1122   3.776   0.739   0.071
   75SOL     OW 1123   4.508   0.613   1.034
   75SOL    HW1 1124   4.457   0.532   1.004
   75SOL    HW2 1125   4.604   0.602   1.010
   76SOL     OW 1126   3.083   3.289   1.646
   76SOL    HW1 1127   3.102   3.212   1.707
   76SOL    HW2 1128   2.987   3.315   1.656
   77SOL     OW 1129   0.981   0.114   3.625
   77SOL    HW1 1130   0.930   0.139   3.707
   77SOL    HW2 1131   1.047   0.043   3.647
   78SOL     OW 1132   5.580   1.447   0.012
   78SOL    HW1 1133   5.650   1.380   0.036
   78SOL    HW2 1134   5.524   1.412   6.955
   79SOL     OW 1135   2.837   5.720   1.204
   79SOL    HW1 1136   2.888   5.729   1.290
   79SOL    HW2 1137   2.879   5.649   1.148
   80SOL     OW 1138   4.515   1.292   4.041
   80SOL    HW1 1139   4.554   1.334   4.123
   80SOL    HW2 1140   4.578   1.301   3.965
   81SOL     OW 1141   2.385   0.217   2.181
   81SOL    HW1 1142   2.459   0.282   2.166
   81SOL    HW2 1143   2.385   0.149   2.107
   82SOL     OW 1144   5.693   4.987   0.552
   82SOL    HW1 1145   5.707   4.924   0.476
   82SOL    HW2 1146   5.781   5.019   0.586
   83SOL     OW 1147   0.440   0.433   6.841
   83SOL    HW1 1148   0.445   0.338   6.872
   83SOL    HW2 1149   0.510   0.486   6.888
   84SOL     OW 1150   6.172   2.794   3.129
   84SOL    HW1 1151   6.237   2.768   3.201
   84SOL    HW2 1152   6.090   2.832   3.170
   85SOL     OW 1153   1.759   1.379   3.888
   85SOL    HW1 1154   1.753   1.475   3.859
   85SOL    HW2 1155   1.839   1.336   3.846
   86SOL     OW 1156   0.713   1.374   6.328
   86SOL    HW1 1157   0.616   1.348   6.332
   86SOL    HW2 1158   0.728   1.435   6.250
   87SOL     OW 1159   5.163   4.680   1.065
   87SOL    HW1 1160   5.229   4.751   1.041
   87SOL    HW2 1161   5.175   4.602   1.004
   88SOL     OW 1162   3.522   1.870   5.954
   88SOL    HW1 1163   3.507   1.771   5.942
   88SOL    HW2 1164   3.501   1.895   6.048
   89SOL     OW 1165   2.564   2.712   6.519
   89SOL    HW1 1166   2.498   2.695   6.446
   89SOL    HW2 1167   2.609   2.626   6.544
   90SOL     OW 1168   4.311   5.015   2.152
   90SOL    HW1 1169   4.229   4.960   2.139
   90SOL    HW2 1170   4.342   5.052   2.065
   91SOL     OW 1171   6.385   3.779   5.920
   91SOL    HW1 1172   6.400   3.689   5.960
   91SOL    HW2 1173   6.307   3.776   5.858
   92SOL     OW 1174   4.501   4.503   0.820
   92SOL    HW1 1175   4.406   4.519   0.850
   92SOL    HW2 1176   4.501   4.478   0.723
   93SOL     OW 1177   3.208   3.324   0.661
   93SOL    HW1 1178   3.296   3.351   0.701
   93SOL    HW2 1179   3.203   3.224   0.656
   94SOL     OW 1180   2.229   6.076   6.285
   94SOL    HW1 1181   2.291   6.000   6.305
   94SOL    HW2 1182   2.205   6.075   6.188
   95SOL     OW 1183   0.859   6.788   2.705
   95SOL    HW1 1184   0.911   6.755   2.627
   95SOL    HW2 1185   0.899   6.752   2.790
   96SOL     OW 1186   3.495   0.053   4.741
   96SOL    HW1 1187   3.466   0.027   4.833
   96SOL    HW2 1188   3.526   6.990   4.692
   97SOL     OW 1189   2.430   3.410   6.285
   97SOL    HW1 1190   2.335   3.418   6.315
   97SOL    HW2 1191   2.434   3.353   6.203
   98SOL     OW 1192   0.804   3.425   0.887
   98SOL    HW1 1193   0.904   3.433   0.895
   98SOL    HW2 1194   0.761   3.463   0.969
   99SOL     OW 1195   3.853   2.393   1.269
   99SOL    HW1 1196   3.912   2.469   1.242
   99SOL    HW2 1197   3.790   2.424   1.340
  100SOL     OW 1198   0.764   6.335   4.779
  100SOL    HW1 1199   0.816   6.269   4.724
  100SOL    HW2 1200   0.826   6.387   4.837
  101SOL     OW 1201   1.819   4.839   2.383
  101SOL    HW1 1202   1.817   4.877   2.290
  101SOL    HW2 1203   1.755   4.890   2.441
  102SOL     OW 1204   3.655   5.346   1.596
  102SOL    HW1 1205   3.680   5.251   1.576
  102SOL    HW2 1206   3.579   5.347   1.661
  103SOL     OW 1207   2.402   2.201   1.764
  103SOL    HW1 1208   2.467   2.126   1.763
  103SOL    HW2 1209   2.375   2.224   1.671
  104SOL     OW 1210   1.421   5.923   2.788
  104SOL    HW1 1211   1.409   6.010   2.837
  104SOL    HW2 1212   1.339   5.904   2.735
  105SOL     OW 1213   6.843   1.148   5.925
  105SOL    HW1 1214   6.785   1.093   5.984
  105SOL    HW2 1215   6.786   1.212   5.873
  106SOL     OW 1216   3.814   6.417   4.456
  106SOL    HW1 1217   3.889   6.399   4.519
  106SOL    HW2 1218   3.759   6.333   4.445
  107SOL     OW 1219   0.743   1.046   0.812
  107SOL    HW1 1220   0.657   0.996   0.801
  107SOL    HW2 1221   0.810   0.987   0.858
  108SOL     OW 1222   3.253   6.838   5.623
  108SOL    HW1 1223   3.318   6.807   5.693
  108SOL    HW2 1224   3.283   6.805   5.534
  109SOL     OW 1225   1.103   1.238   2.367
  109SOL    HW1 1226   1.156   1.160   2.402
  109SOL    HW2 1227   1.012   1.207   2.341
  110SOL     OW 1228   3.141   5.288   4.230
  110SOL    HW1 1229   3.109   5.376   4.267
  110SOL    HW2 1230   3.093   5.213   4.277
  111SOL     OW 1231   1.591   1.337   4.099
  111SOL    HW1 1232   1.664   1.302   4.158
  111SOL    HW2 1233   1.624   1.342   4.005
  112SOL     OW 1234   3.197   5.652   6.620
  112SOL    HW1 1235   3.261   5.575   6.616
  112SOL    HW2 1236   3.118   5.633   6.563
  113SOL     OW 1237   0.912   5.358   2.451
  113SOL    HW1 1238   0.941   5.441   2.498
  113SOL    HW2 1239   0.850   5.306   2.510
  114SOL     OW 1240   1.213   6.902   2.297
  114SOL    HW1 1241   1.259   6.849   2.225
  114SOL    HW2 1242   1.116   6.878   2.299
  115SOL     OW 1243   5.021   1.076   3.308
  115SOL    HW1 1244   5.002   1.029   3.221
  115SOL    HW2 1245   5.030   1.009   3.381
  116SOL     OW 1246   6.309   5.853   1.841
  116SOL    HW1 1247   6.294   5.898   1.930
  116SOL    HW2 1248   6.356   5.917   1.780
  117SOL     OW 1249   1.639   1.533   0.980
  117SOL    HW1 1250   1.595   1.618   0.950
  117SOL    HW2 1251   1.569   1.463   0.994
  118SOL     OW 1252   1.516   0.696   2.198
  118SOL    HW1 1253   1.607   0.693   2.240
  118SOL    HW2 1254   1.499   0.788   2.163
  119SOL     OW 1255   0.642   0.559   0.055
  119SOL    HW1 1256   0.574   0.554   0.127
  119SOL    HW2 1257   0.711   0.488   0.069
  120SOL     OW 1258   5.770   0.500   6.397
  120SOL    HW1 1259   5.696   0.433   6.401
  120SOL    HW2 1260   5.775   0.538   6.304
  121SOL     OW 1261   1.824   3.089   6.734
  121SOL    HW1 1262   1.910   3.061   6.776
  121SOL    HW2 1263   1.748   3.042   6.779
  122SOL     OW 1264   1.270   3.626   6.725
  122SOL    HW1 1265   1.296   3.551   6.665
  122SOL    HW2 1266   1.349   3.686   6.740
  123SOL     OW 1267   0.869   1.341   2.667
  123SOL    HW1 1268   0.851   1.244   2.681
  123SOL    HW2 1269   0.801   1.395   2.717
  124SOL     OW 1270   3.496   2.653   1.056
  124SOL    HW1 1271   3.562   2.634   0.983
  124SOL    HW2 1272   3.491   2.575   1.118
  125SOL     OW 1273   3.473   2.132   0.351
  125SOL    HW1 1274   3.557   2.128   0.296
  125SOL    HW2 1275   3.437   2.225   0.350
  126SOL     OW 1276   2.452   4.004   0.992
  126SOL    HW1 1277   2.401   3.987   0.908
  126SOL    HW2 1278   2.517   3.929   1.007
  127SOL     OW 1279   0.904   4.633   6.939
  127SOL    HW1 1280   0.988   4.643   6.992
  127SOL    HW2 1281   0.845   4.566   6.983
  128SOL     OW 1282   5.179   2.089   1.377
  128SOL    HW1 1283   5.150   2.042   1.294
  128SOL    HW2 1284   5.213   2.181   1.353
  129SOL     OW 1285   3.341   3.730   6.309
  129SOL    HW1 1286   3.406   3.804   6.292
  129SOL    HW2 1287   3.260   3.766   6.354
  130SOL     OW 1288   1.397   1.914   4.180
  130SOL    HW1 1289   1.432   1.955   4.265
  130SOL    HW2 1290   1.304   1.946   4.163
  131SOL     OW 1291   4.869   0.283   3.471
  131SOL    HW1 1292   4.843   0.282   3.375
  131SOL    HW2 1293   4.790   0.261   3.528
  132SOL     OW 1294   3.170   3.082   1.785
  132SOL    HW1 1295   3.145   2.985   1.794
  132SOL    HW2 1296   3.267   3.089   1.761
  133SOL     OW 1297   5.365   1.033   4.443
  133SOL    HW1 1298   5.426   0.965   4.403
  133SOL    HW2 1299   5.347   1.105   4.376
  134SOL     OW 1300   6.747   1.125   2.292
  134SOL    HW1 1301   6.703   1.036   2.306
  134SOL    HW2 1302   6.691   1.196   2.334
  135SOL     OW 1303   5.548   4.127   3.564
  135SOL    HW1 1304   5.525   4.046   3.617
  135SOL    HW2 1305   5.640   4.117   3.525
  136SOL     OW 1306   2.086   5.433   5.312
  136SOL    HW1 1307   1.989   5.454   5.297
  136SOL    HW2 1308   2.104   5.430   5.410
  137SOL     OW 1309   5.403   1.510   2.780
  137SOL    HW1 1310   5.376   1.424   2.824
  137SOL    HW2 1311   5.355   1.586   2.823
  138SOL     OW 1312   1.273   3.705   2.957
  138SOL    HW1 1313   1.365   3.670   2.935
  138SOL    HW2 1314   1.230   3.644   3.023
  139SOL     OW 1315   1.436   0.132   5.142
  139SOL    HW1 1316   1.535   0.125   5.155
  139SOL    HW2 1317   1.389   0.093   5.221
  140SOL     OW 1318   1.280   6.567   3.866
  140SOL    HW1 1319   1.230   6.580   3.780
  140SOL    HW2 1320   1.215   6.569   3.942
  141SOL     OW 1321   0.066   2.749   5.174
  141SOL    HW1 1322   0.151   2.698   5.189
  141SOL    HW2 1323   0.081   2.819   5.105
  142SOL     OW 1324   1.271   4.318   1.168
  142SOL    HW1 1325   1.229   4.291   1.255
  142SOL    HW2 1326   1.364   4.281   1.164
  143SOL     OW 1327   5.765   4.294   0.416
  143SOL    HW1 1328   5.702   4.371   0.429
  143SOL    HW2 1329   5.775   4.275   0.318
  144SOL     OW 1330   1.219   4.599   5.635
  144SOL    HW1 1331   1.279   4.519   5.622
  144SOL    HW2 1332   1.184   4.599   5.729
  145SOL     OW 1333   0.747   5.287   0.948
  145SOL    HW1 1334   0.707   5.278   1.039
  145SOL    HW2 1335   0.740   5.382   0.917
  146SOL     OW 1336   4.695   0.733   5.981
  146SOL    HW1 1337   4.614   0.790   5.996
  146SOL    HW2 1338   4.673   0.660   5.917
  147SOL     OW 1339   5.359   2.639   6.281
  147SOL    HW1 1340   5.309   2.709   6.331
  147SOL    HW2 1341   5.294   2.581   6.232
  148SOL     OW 1342   0.047   5.411   0.653
  148SOL    HW1 1343   0.065   5.487   0.715
  148SOL    HW2 1344   0.034   5.446   0.560
  149SOL     OW 1345   3.668   2.081   3.870
  149SOL    HW1 1346   3.581   2.117   3.905
  149SOL    HW2 1347   3.744   2.126   3.918
  150SOL     OW 1348   5.784   6.841   0.661
  150SOL    HW1 1349   5.846   6.906   0.617
  150SOL    HW2 1350   5.692   6.853   0.625
  151SOL     OW 1351   3.262   1.586   1.702
  151SOL    HW1 1352   3.330   1.565   1.632
  151SOL    HW2 1353   3.306   1.588   1.792
  152SOL     OW 1354   0.017   0.920   1.515
  152SOL    HW1 1355   7.007   0.891   1.606
  152SOL    HW2 1356   7.001   1.012   1.496
  153SOL     OW 1357   2.916   0.620   3.365
  153SOL    HW1 1358   2.946   0.594   3.273
  153SOL    HW2 1359   2.947   0.553   3.431
  154SOL     OW 1360   0.772   3.476   1.499
  154SOL    HW1 1361   0.770   3.558   1.556
  154SOL    HW2 1362   0.785   3.395   1.556
  155SOL     OW 1363   0.787   1.621   5.119
  155SOL    HW1 1364   0.736   1.576   5.193
  155SOL    HW2 1365   0.775   1.720   5.126
  156SOL     OW 1366   0.019   0.618   1.108
  156SOL    HW1 1367   0.071   0.618   1.193
  156SOL    HW2 1368   6.989   0.705   1.099
  157SOL     OW 1369   5.333   2.825   1.378
  157SOL    HW1 1370   5.400   2.892   1.411
  157SOL    HW2 1371   5.252   2.872   1.345
  158SOL     OW 1372   1.793   3.523   1.779
  158SOL    HW1 1373   1.711   3.502   1.727
  158SOL    HW2 1374   1.798   3.462   1.858
  159SOL     OW 1375   4.659   4.722   2.502
  159SOL    HW1 1376   4.585   4.670   2.459
  159SOL    HW2 1377   4.654   4.710   2.602
  160SOL     OW 1378   5.684   6.190   0.616
  160SOL    HW1 1379   5.765   6.237   0.652
  160SOL    HW2 1380   5.603   6.246   0.633
  161SOL     OW 1381   1.626   6.393   3.210
  161SOL    HW1 1382   1.700   6.458   3.228
  161SOL    HW2 1383   1.665   6.304   3.188
  162SOL     OW 1384   3.632   6.588   0.186
  162SOL    HW1 1385   3.627   6.687   0.169
  162SOL    HW2 1386   3.630   6.572   0.285
  163SOL     OW 1387   6.174   5.247   1.821
  163SOL    HW1 1388   6.143   5.287   1.907
  163SOL    HW2 1389   6.257   5.294   1.790
  164SOL     OW 1390   0.759   4.756   2.242
  164SOL    HW1 1391   0.688   4.750   2.313
  164SOL    HW2 1392   0.747   4.840   2.190
  165SOL     OW 1393   4.525   3.690   1.421
  165SOL    HW1 1394   4.559   3.784   1.429
  165SOL    HW2 1395   4.581   3.641   1.354
  166SOL     OW 1396   1.401   3.597   2.088
  166SOL    HW1 1397   1.320   3.638   2.129
  166SOL    HW2 1398   1.448   3.665   2.031
  167SOL     OW 1399   4.581   3.539   6.788
  167SOL    HW1 1400   4.534   3.612   6.839
  167SOL    HW2 1401   4.670   3.573   6.756
  168SOL     OW 1402   3.314   3.004   1.170
  168SOL    HW1 1403   3.255   2.945   1.115
  168SOL    HW2 1404   3.371   2.947   1.230
  169SOL     OW 1405   5.688   1.845   1.847
  169SOL    HW1 1406   5.588   1.838   1.838
  169SOL    HW2 1407   5.710   1.885   1.936
  170SOL     OW 1408   0.346   6.951   2.606
  170SOL    HW1 1409   0.304   6.970   2.695
  170SOL    HW2 1410   0.428   6.896   2.619
  171SOL     OW 1411   2.092   4.035   6.689
  171SOL    HW1 1412   2.034   4.113   6.712
  171SOL    HW2 1413   2.131   4.048   6.598
  172SOL     OW 1414   6.240   1.330   2.774
  172SOL    HW1 1415   6.307   1.378   2.831
  172SOL    HW2 1416   6.284   1.302   2.688
  173SOL     OW 1417   6.816   1.116   4.125
  173SOL    HW1 1418   6.746   1.159   4.068
  173SOL    HW2 1419   6.903   1.163   4.114
  174SOL     OW 1420   3.884   5.587   3.691
  174SOL    HW1 1421   3.957   5.594   3.623
  174SOL    HW2 1422   3.865   5.491   3.709
  175SOL     OW 1423   2.928   0.070   1.742
  175SOL    HW1 1424   2.920   0.166   1.769
  175SOL    HW2 1425   2.997   0.063   1.669
  176SOL     OW 1426   6.585   4.245   1.013
  176SOL    HW1 1427   6.614   4.319   0.953
  176SOL    HW2 1428   6.631   4.161   0.986
  177SOL     OW 1429   5.879   2.904   3.486
  177SOL    HW1 1430   5.876   3.003   3.470
  177SOL    HW2 1431   5.834   2.857   3.410
  178SOL     OW 1432   3.229   4.051   6.249
  178SOL    HW1 1433   3.321   4.016   6.234
  178SOL    HW2 1434   3.179   3.991   6.311
  179SOL     OW 1435   4.556   1.412   5.992
  179SOL    HW1 1436   4.468   1.423   5.945
  179SOL    HW2 1437   4.589   1.502   6.021
  180SOL     OW 1438   2.184   6.635   0.267
  180SOL    HW1 1439   2.264   6.684   0.232
  180SOL    HW2 1440   2.114   6.701   0.293
  181SOL     OW 1441   3.664   3.609   5.765
  181SOL    HW1 1442   3.715   3.529   5.734
  181SOL    HW2 1443   3.627   3.592   5.856
  182SOL     OW 1444   3.622   1.905   5.317
  182SOL    HW1 1445   3.629   1.988   5.261
  182SOL    HW2 1446   3.542   1.912   5.376
  183SOL     OW 1447   3.616   2.109   3.221
  183SOL    HW1 1448   3.546   2.118   3.292
  183SOL    HW2 1449   3.675   2.030   3.242
  184SOL     OW 1450   0.934   6.574   4.470
  184SOL    HW1 1451   0.849   6.568   4.522
  184SOL    HW2 1452   0.914   6.561   4.373
  185SOL     OW 1453   0.612   0.641   5.821
  185SOL    HW1 1454   0.609   0.645   5.920
  185SOL    HW2 1455   0.615   0.546   5.791
  186SOL     OW 1456   6.062   0.778   4.105
  186SOL    HW1 1457   6.000   0.708   4.070
  186SOL    HW2 1458   6.111   0.742   4.184
  187SOL     OW 1459   5.121   6.687   2.440
  187SOL    HW1 1460   5.159   6.684   2.348
  187SOL    HW2 1461   5.025   6.713   2.436
  188SOL     OW 1462   0.886   3.165   3.080
  188SOL    HW1 1463   0.940   3.233   3.031
  188SOL    HW2 1464   0.826   3.117   3.016
  189SOL     OW 1465   2.612   5.326   1.084
  189SOL    HW1 1466   2.553   5.275   1.021
  189SOL    HW2 1467   2.566   5.409   1.114
  190SOL     OW 1468   5.300   3.097   5.563
  190SOL    HW1 1469   5.275   3.075   5.657
  190SOL    HW2 1470   5.218   3.122   5.511
  191SOL     OW 1471   6.028   0.395   6.430
  191SOL    HW1 1472   5.947   0.453   6.425
  191SOL    HW2 1473   6.027   0.331   6.353
  192SOL     OW 1474   0.721   5.099   1.820
  192SOL    HW1 1475   0.625   5.124   1.809
  192SOL    HW2 1476   0.755   5.136   1.906
  193SOL     OW 1477   4.507   3.654   5.352
  193SOL    HW1 1478   4.426   3.612   5.312
  193SOL    HW2 1479   4.585   3.640   5.292
  194SOL     OW 1480   3.981   0.802   2.911
  194SOL    HW1 1481   4.014   0.864   2.983
  194SOL    HW2 1482   4.058   0.771   2.856
  195SOL     OW 1483   1.728   0.082   4.164
  195SOL    HW1 1484   1.795   0.009   4.148
  195SOL    HW2 1485   1.749   0.129   4.250
  196SOL     OW 1486   3.292   0.587   0.681
  196SOL    HW1 1487   3.298   0.543   0.771
  196SOL    HW2 1488   3.217   0.546   0.629
  197SOL     OW 1489   2.451   0.359   1.345
  197SOL    HW1 1490   2.499   0.271   1.352
  197SOL    HW2 1491   2.414   0.369   1.252
  198SOL     OW 1492   5.258   0.102   1.489
  198SOL    HW1 1493   5.291   0.167   1.558
  198SOL    HW2 1494   5.306   0.118   1.403
  199SOL     OW 1495   6.634   1.402   3.297
  199SOL    HW1 1496   6.538   1.373   3.290
  199SOL    HW2 1497   6.649   1.447   3.384
  200SOL     OW 1498   1.153   4.634   1.785
  200SOL    HW1 1499   1.196   4.602   1.869
  200SOL    HW2 1500   1.077   4.575   1.761
  201SOL     OW 1501   6.565   6.655   6.111
  201SOL    HW1 1502   6.514   6.696   6.036
  201SOL    HW2 1503   6.609   6.727   6.165
  202SOL     OW 1504   4.932   0.486   6.184
  202SOL    HW1 1505   5.032   0.486   6.180
  202SOL    HW2 1506   4.897   0.399   6.152
  203SOL     OW 1507   4.443   2.426   4.498
  203SOL    HW1 1508   4.412   2.332   4.511
  203SOL    HW2 1509   4.498   2.454   4.577
  204SOL     OW 1510   0.570   0.924   6.602
  204SOL    HW1 1511   0.545   0.828   6.614
  204SOL    HW2 1512   0.504   0.969   6.542
  205SOL     OW 1513   0.577   1.259   3.039
  205SOL    HW1 1514   0.542   1.320   3.110
  205SOL    HW2 1515   0.650   1.202   3.076
  206SOL     OW 1516   6.922   5.070   1.400
  206SOL    HW1 1517   6.970   4.994   1.355
  206SOL    HW2 1518   6.865   5.034   1.474
  207SOL     OW 1519   5.367   1.025   3.695
  207SOL    HW1 1520   5.407   0.975   3.617
  207SOL    HW2 1521   5.377   0.970   3.778
  208SOL     OW 1522   5.797   2.419   5.133
  208SOL    HW1 1523   5.713   2.370   5.157
  208SOL    HW2 1524   5.777   2.484   5.060
  209SOL     OW 1525   0.340   4.539   4.187
  209SOL    HW1 1526   0.242   4.545   4.170
  209SOL    HW2 1527   0.362   4.588   4.272
  210SOL     OW 1528   3.811   1.487   0.606
  210SOL    HW1 1529   3.738   1.485   0.538
  210SOL    HW2 1530   3.798   1.566   0.666
  211SOL     OW 1531   2.573   6.047   3.350
  211SOL    HW1 1532   2.473   6.054   3.349
  211SOL    HW2 1533   2.611   6.091   3.269
  212SOL     OW 1534   1.211   4.169   1.601
  212SOL    HW1 1535   1.142   4.157   1.672
  212SOL    HW2 1536   1.167   4.191   1.515
  213SOL     OW 1537   3.077   0.669   6.886
  213SOL    HW1 1538   3.116   0.760   6.875
  213SOL    HW2 1539   3.091   0.616   6.802
  214SOL     OW 1540   4.663   5.314   1.440
  214SOL    HW1 1541   4.713   5.375   1.501
  214SOL    HW2 1542   4.614   5.245   1.493
  215SOL     OW 1543   2.144   3.862   0.835
  215SOL    HW1 1544   2.225   3.822   0.792
  215SOL    HW2 1545   2.116   3.806   0.913
  216SOL     OW 1546   2.177   5.840   4.141
  216SOL    HW1 1547   2.186   5.741   4.151
  216SOL    HW2 1548   2.259   5.884   4.177
  217SOL     OW 1549   1.969   2.591   3.972
  217SOL    HW1 1550   1.959   2.550   3.881
  217SOL    HW2 1551   1.991   2.520   4.038
  218SOL     OW 1552   0.937   3.055   4.280
  218SOL    HW1 1553   0.940   3.154   4.268
  218SOL    HW2 1554   0.844   3.022   4.265
  219SOL     OW 1555   4.440   6.465   5.846
  219SOL    HW1 1556   4.482   6.475   5.936
  219SOL    HW2 1557   4.383   6.383   5.844
  220SOL     OW 1558   3.756   6.866   0.810
  220SOL    HW1 1559   3.687   6.810   0.765
  220SOL    HW2 1560   3.818   6.905   0.742
  221SOL     OW 1561   6.337   2.893   1.328
  221SOL    HW1 1562   6.332   2.870   1.425
  221SOL    HW2 1563   6.389   2.823   1.280
  222SOL     OW 1564   2.835   4.722   5.295
  222SOL    HW1 1565   2.823   4.659   5.218
  222SOL    HW2 1566   2.891   4.679   5.365
  223SOL     OW 1567   5.637   2.554   0.740
  223SOL    HW1 1568   5.588   2.491   0.800
  223SOL    HW2 1569   5.698   2.503   0.680
  224SOL     OW 1570   2.048   2.306   4.825
  224SOL    HW1 1571   2.037   2.267   4.733
  224SOL    HW2 1572   2.060   2.405   4.818
  225SOL     OW 1573   4.490   2.551   6.271
  225SOL    HW1 1574   4.433   2.547   6.189
  225SOL    HW2 1575   4.555   2.626   6.263
  226SOL     OW 1576   1.048   0.954   6.293
  226SOL    HW1 1577   1.081   0.912   6.209
  226SOL    HW2 1578   0.951   0.935   6.304
  227SOL     OW 1579   1.387   3.204   3.272
  227SOL    HW1 1580   1.365   3.108   3.294
  227SOL    HW2 1581   1.332   3.264   3.329
  228SOL     OW 1582   2.949   6.138   3.733
  228SOL    HW1 1583   3.033   6.085   3.745
  228SOL    HW2 1584   2.951   6.185   3.645
  229SOL     OW 1585   4.688   5.898   6.680
  229SOL    HW1 1586   4.759   5.836   6.711
  229SOL    HW2 1587   4.727   5.967   6.620
  230SOL     OW 1588   3.199   4.956   3.619
  230SOL    HW1 1589   3.166   4.876   3.569
  230SOL    HW2 1590   3.121   5.007   3.657
  231SOL     OW 1591   6.076   1.865   0.038
  231SOL    HW1 1592   6.038   1.773   0.040
  231SOL    HW2 1593   6.065   1.904   6.966
  232SOL     OW 1594   1.026   3.736   6.759
  232SOL    HW1 1595   1.112   3.690   6.740
  232SOL    HW2 1596   0.973   3.745   6.674
  233SOL     OW 1597   2.203   2.232   3.779
  233SOL    HW1 1598   2.105   2.221   3.759
  233SOL    HW2 1599   2.221   2.206   3.873
  234SOL     OW 1600   4.253   0.188   5.145
  234SOL    HW1 1601   4.285   0.124   5.215
  234SOL    HW2 1602   4.162   0.222   5.170
  235SOL     OW 1603   3.657   3.157   1.760
  235SOL    HW1 1604   3.710   3.220   1.704
  235SOL    HW2 1605   3.718   3.092   1.805
  236SOL     OW 1606   4.457   3.212   0.094
  236SOL    HW1 1607   4.394   3.288   0.080
  236SOL    HW2 1608   4.549   3.237   0.064
  237SOL     OW 1609   5.863   5.072   1.858
  237SOL    HW1 1610   5.869   5.170   1.838
  237SOL    HW2 1611   5.955   5.032   1.854
  238SOL     OW 1612   5.099   2.001   0.444
  238SOL    HW1 1613   5.007   1.991   0.407
  238SOL    HW2 1614   5.117   2.098   0.462
  239SOL     OW 1615   0.381   5.463   5.796
  239SOL    HW1 1616   0.378   5.365   5.817
  239SOL    HW2 1617   0.297   5.489   5.748
  240SOL     OW 1618   0.225   2.744   3.740
  240SOL    HW1 1619   0.202   2.709   3.831
  240SOL    HW2 1620   0.253   2.668   3.682
  241SOL     OW 1621   1.642   0.452   5.014
  241SOL    HW1 1622   1.545   0.463   5.035
  241SOL    HW2 1623   1.655   0.363   4.969
  242SOL     OW 1624   3.330   3.420   5.370
  242SOL    HW1 1625   3.302   3.362   5.446
  242SOL    HW2 1626   3.303   3.515   5.388
  243SOL     OW 1627   4.343   0.303   5.877
  243SOL    HW1 1628   4.311   0.382   5.825
  243SOL    HW2 1629   4.359   0.329   5.972
  244SOL     OW 1630   5.672   2.239   4.699
  244SOL    HW1 1631   5.715   2.163   4.649
  244SOL    HW2 1632   5.720   2.324   4.676
  245SOL     OW 1633   6.398   3.425   4.505
  245SOL    HW1 1634   6.326   3.480   4.463
  245SOL    HW2 1635   6.470   3.408   4.438
  246SOL     OW 1636   4.772   2.323   3.320
  246SOL    HW1 1637   4.754   2.377   3.238
  246SOL    HW2 1638   4.686   2.289   3.357
  247SOL     OW 1639   3.000   1.898   1.805
  247SOL    HW1 1640   3.069   1.874   1.736
  247SOL    HW2 1641   3.025   1.983   1.850
  248SOL     OW 1642   3.370   2.116   2.671
  248SOL    HW1 1643   3.364   2.108   2.572
  248SOL    HW2 1644   3.435   2.048   2.706
  249SOL     OW 1645   3.778   0.197   5.570
  249SOL    HW1 1646   3.724   0.269   5.524
  249SOL    HW2 1647   3.827   0.144   5.501
  250SOL     OW 1648   5.073   2.687   0.770
  250SOL    HW1 1649   4.984   2.702   0.811
  250SOL    HW2 1650   5.117   2.608   0.814
  251SOL     OW 1651   4.611   3.929   5.352
  251SOL    HW1 1652   4.552   3.858   5.389
  251SOL    HW2 1653   4.626   3.913   5.255
  252SOL     OW 1654   6.515   0.046   6.777
  252SOL    HW1 1655   6.575   6.987   6.762
  252SOL    HW2 1656   6.490   0.086   6.689
  253SOL     OW 1657   2.355   4.493   6.730
  253SOL    HW1 1658   2.453   4.478   6.718
  253SOL    HW2 1659   2.320   4.431   6.801
  254SOL     OW 1660   4.887   3.131   3.155
  254SOL    HW1 1661   4.896   3.071   3.076
  254SOL    HW2 1662   4.875   3.075   3.238
  255SOL     OW 1663   1.916   3.150   4.735
  255SOL    HW1 1664   1.974   3.229   4.753
  255SOL    HW2 1665   1.898   3.101   4.820
  256SOL     OW 1666   6.731   4.182   6.484
  256SOL    HW1 1667   6.806   4.174   6.551
  256SOL    HW2 1668   6.704   4.092   6.453
  257SOL     OW 1669   4.919   6.754   3.779
  257SOL    HW1 1670   4.988   6.733   3.848
  257SOL    HW2 1671   4.862   6.830   3.810
  258SOL     OW 1672   0.932   4.916   4.855
  258SOL    HW1 1673   0.965   5.010   4.848
  258SOL    HW2 1674   0.861   4.901   4.786
  259SOL     OW 1675   1.484   1.725   2.438
  259SOL    HW1 1676   1.517   1.637   2.473
  259SOL    HW2 1677   1.483   1.792   2.513
  260SOL     OW 1678   4.696   0.905   0.808
  260SOL    HW1 1679   4.706   0.944   0.716
  260SOL    HW2 1680   4.634   0.961   0.862
  261SOL     OW 1681   6.270   3.709   0.094
  261SOL    HW1 1682   6.348   3.678   0.040
  261SOL    HW2 1683   6.293   3.795   0.140
  262SOL     OW 1684   6.678   4.389   0.780
  262SOL    HW1 1685   6.704   4.313   0.720
  262SOL    HW2 1686   6.595   4.432   0.744
  263SOL     OW 1687   0.601   1.204   3.625
  263SOL    HW1 1688   0.522   1.241   3.674
  263SOL    HW2 1689   0.583   1.207   3.527
  264SOL     OW 1690   4.788   3.072   6.087
  264SOL    HW1 1691   4.735   3.156   6.075
  264SOL    HW2 1692   4.801   3.055   6.185
  265SOL     OW 1693   4.474   5.413   3.011
  265SOL    HW1 1694   4.493   5.355   2.932
  265SOL    HW2 1695   4.555   5.467   3.033
  266SOL     OW 1696   3.569   3.119   5.673
  266SOL    HW1 1697   3.531   3.188   5.736
  266SOL    HW2 1698   3.657   3.151   5.640
  267SOL     OW 1699   6.776   2.286   6.246
  267SOL    HW1 1700   6.868   2.284   6.206
  267SOL    HW2 1701   6.712   2.323   6.179
  268SOL     OW 1702   4.056   0.439   4.756
  268SOL    HW1 1703   4.094   0.522   4.797
  268SOL    HW2 1704   4.064   0.363   4.821
  269SOL     OW 1705   1.619   3.201   1.059
  269SOL    HW1 1706   1.543   3.204   1.124
  269SOL    HW2 1707   1.674   3.284   1.069
  270SOL     OW 1708   0.147   0.592   0.235
  270SOL    HW1 1709   0.185   0.626   0.321
  270SOL    HW2 1710   0.135   0.668   0.172
  271SOL     OW 1711   1.590   1.747   0.766
  271SOL    HW1 1712   1.643   1.677   0.720
  271SOL    HW2 1713   1.502   1.759   0.719
  272SOL     OW 1714   3.169   4.901   4.272
  272SOL    HW1 1715   3.206   4.938   4.187
  272SOL    HW2 1716   3.097   4.961   4.306
  273SOL     OW 1717   1.855   4.477   5.089
  273SOL    HW1 1718   1.929   4.449   5.028
  273SOL    HW2 1719   1.866   4.433   5.178
  274SOL     OW 1720   4.890   2.103   3.502
  274SOL    HW1 1721   4.838   2.127   3.584
  274SOL    HW2 1722   4.863   2.013   3.469
  275SOL     OW 1723   6.141   4.529   5.697
  275SOL    HW1 1724   6.122   4.591   5.622
  275SOL    HW2 1725   6.240   4.520   5.709
  276SOL     OW 1726   6.920   5.271   2.563
  276SOL    HW1 1727   6.972   5.346   2.603
  276SOL    HW2 1728   6.835   5.259   2.614
  277SOL     OW 1729   1.844   4.025   0.580
  277SOL    HW1 1730   1.824   3.930   0.605
  277SOL    HW2 1731   1.922   4.027   0.516
  278SOL     OW 1732   6.957   5.334   1.474
  278SOL    HW1 1733   6.942   5.243   1.436
  278SOL    HW2 1734   6.928   5.335   1.570
  279SOL     OW 1735   6.303   2.929   4.739
  279SOL    HW1 1736   6.213   2.890   4.761
  279SOL    HW2 1737   6.293   2.998   4.667
  280SOL     OW 1738   2.292   6.640   3.119
  280SOL    HW1 1739   2.226   6.698   3.071
  280SOL    HW2 1740   2.384   6.655   3.081
  281SOL     OW 1741   3.362   4.960   2.257
  281SOL    HW1 1742   3.287   4.895   2.247
  281SOL    HW2 1743   3.351   5.009   2.343
  282SOL     OW 1744   3.558   1.427   5.206
  282SOL    HW1 1745   3.511   1.496   5.261
  282SOL    HW2 1746   3.656   1.444   5.207
  283SOL     OW 1747   6.882   1.269   5.475
  283SOL    HW1 1748   6.794   1.233   5.443
  283SOL    HW2 1749   6.866   1.343   5.540
  284SOL     OW 1750   0.799   4.467   4.491
  284SOL    HW1 1751   0.818   4.502   4.582
  284SOL    HW2 1752   0.884   4.429   4.452
  285SOL     OW 1753   5.816   5.208   5.859
  285SOL    HW1 1754   5.851   5.204   5.952
  285SOL    HW2 1755   5.869   5.146   5.801
  286SOL     OW 1756   3.237   5.627   5.005
  286SOL    HW1 1757   3.261   5.535   5.037
  286SOL    HW2 1758   3.305   5.692   5.040
  287SOL     OW 1759   0.576   4.615   0.019
  287SOL    HW1 1760   0.551   4.551   6.965
  287SOL    HW2 1761   0.565   4.709   7.005
  288SOL     OW 1762   4.270   1.994   6.206
  288SOL    HW1 1763   4.177   2.002   6.171
  288SOL    HW2 1764   4.302   2.084   6.238
  289SOL     OW 1765   6.969   5.213   5.087
  289SOL    HW1 1766   6.884   5.209   5.035
  289SOL    HW2 1767   6.974   5.135   5.149
  290SOL     OW 1768   5.626   1.444   4.340
  290SOL    HW1 1769   5.691   1.369   4.357
  290SOL    HW2 1770   5.633   1.473   4.245
  291SOL     OW 1771   2.347   1.788   4.812
  291SOL    HW1 1772   2.316   1.829   4.726
  291SOL    HW2 1773   2.323   1.849   4.888
  292SOL     OW 1774   2.041   1.929   2.859
  292SOL    HW1 1775   2.109   1.864   2.895
  292SOL    HW2 1776   2.078   2.022   2.865
  293SOL     OW 1777   4.893   4.956   1.837
  293SOL    HW1 1778   4.958   4.927   1.766
  293SOL    HW2 1779   4.814   4.894   1.837
  294SOL     OW 1780   6.477   5.555   6.146
  294SOL    HW1 1781   6.382   5.523   6.144
  294SOL    HW2 1782   6.478   5.655   6.142
  295SOL     OW 1783   3.441   1.735   4.460
  295SOL    HW1 1784   3.541   1.730   4.460
  295SOL    HW2 1785   3.408   1.746   4.367
  296SOL     OW 1786   5.774   1.960   2.081
  296SOL    HW1 1787   5.801   1.964   2.177
  296SOL    HW2 1788   5.826   2.028   2.029
  297SOL     OW 1789   3.006   4.793   3.048
  297SOL    HW1 1790   2.911   4.805   3.077
  297SOL    HW2 1791   3.009   4.745   2.961
  298SOL     OW 1792   3.315   5.767   0.741
  298SOL    HW1 1793   3.383   5.714   0.792
  298SOL    HW2 1794   3.303   5.856   0.785
  299SOL     OW 1795   3.700   3.683   6.185
  299SOL    HW1 1796   3.701   3.775   6.146
  299SOL    HW2 1797   3.768   3.676   6.258
  300SOL     OW 1798   5.665   0.762   2.047
  300SOL    HW1 1799   5.668   0.677   2.100
  300SOL    HW2 1800   5.747   0.816   2.066
  301SOL     OW 1801   5.580   3.352   0.834
  301SOL    HW1 1802   5.637   3.295   0.774
  301SOL    HW2 1803   5.484   3.326   0.822
  302SOL     OW 1804   0.565   1.088   3.352
  302SOL    HW1 1805   0.586   1.172   3.301
  302SOL    HW2 1806   0.644   1.027   3.349
  303SOL     OW 1807   6.511   6.692   1.880
  303SOL    HW1 1808   6.449   6.763   1.912
  303SOL    HW2 1809   6.483   6.662   1.789
  304SOL     OW 1810   1.874   0.258   5.378
  304SOL    HW1 1811   1.947   0.298   5.323
  304SOL    HW2 1812   1.904   0.170   5.414
  305SOL     OW 1813   0.785   3.369   0.382
  305SOL    HW1 1814   0.686   3.359   0.371
  305SOL    HW2 1815   0.808   3.371   0.479
  306SOL     OW 1816   2.004   0.236   3.914
  306SOL    HW1 1817   1.919   0.212   3.868
  306SOL    HW2 1818   2.024   0.333   3.900
  307SOL     OW 1819   4.863   5.963   0.016
  307SOL    HW1 1820   4.912   5.912   0.087
  307SOL    HW2 1821   4.912   5.955   6.948
  308SOL     OW 1822   6.253   3.198   4.531
  308SOL    HW1 1823   6.167   3.230   4.570
  308SOL    HW2 1824   6.319   3.273   4.529
  309SOL     OW 1825   2.608   5.764   0.021
  309SOL    HW1 1826   2.562   5.685   6.999
  309SOL    HW2 1827   2.700   5.739   0.049
  310SOL     OW 1828   6.085   6.611   5.255
  310SOL    HW1 1829   6.089   6.658   5.167
  310SOL    HW2 1830   6.053   6.674   5.326
  311SOL     OW 1831   4.614   4.716   2.777
  311SOL    HW1 1832   4.659   4.782   2.838
  311SOL    HW2 1833   4.521   4.698   2.810
  312SOL     OW 1834   4.342   1.252   4.730
  312SOL    HW1 1835   4.287   1.335   4.720
  312SOL    HW2 1836   4.285   1.177   4.764
  313SOL     OW 1837   2.981   3.903   2.369
  313SOL    HW1 1838   2.955   3.841   2.444
  313SOL    HW2 1839   2.906   3.909   2.303
  314SOL     OW 1840   3.124   5.445   6.897
  314SOL    HW1 1841   3.127   5.447   6.997
  314SOL    HW2 1842   3.196   5.384   6.863
  315SOL     OW 1843   1.286   2.572   4.001
  315SOL    HW1 1844   1.287   2.483   3.955
  315SOL    HW2 1845   1.295   2.645   3.933
  316SOL     OW 1846   3.304   1.813   4.178
  316SOL    HW1 1847   3.400   1.835   4.161
  316SOL    HW2 1848   3.293   1.713   4.178
  317SOL     OW 1849   0.187   1.275   0.729
  317SOL    HW1 1850   0.232   1.335   0.795
  317SOL    HW2 1851   0.160   1.329   0.649
  318SOL     OW 1852   1.146   5.713   6.750
  318SOL    HW1 1853   1.118   5.704   6.654
  318SOL    HW2 1854   1.192   5.800   6.764
  319SOL     OW 1855   6.415   0.937   3.284
  319SOL    HW1 1856   6.392   0.881   3.204
  319SOL    HW2 1857   6.362   1.021   3.282
  320SOL     OW 1858   6.302   2.442   1.248
  320SOL    HW1 1859   6.235   2.504   1.205
  320SOL    HW2 1860   6.359   2.401   1.177
  321SOL     OW 1861   4.028   1.874   6.960
  321SOL    HW1 1862   4.104   1.930   6.993
  321SOL    HW2 1863   4.064   1.797   6.907
  322SOL     OW 1864   3.907   3.044   4.334
  322SOL    HW1 1865   3.857   2.978   4.277
  322SOL    HW2 1866   3.904   3.015   4.430
  323SOL     OW 1867   1.207   2.893   6.526
  323SOL    HW1 1868   1.157   2.961   6.473
  323SOL    HW2 1869   1.193   2.802   6.486
  324SOL     OW 1870   2.615   1.556   4.986
  324SOL    HW1 1871   2.708   1.524   5.007
  324SOL    HW2 1872   2.614   1.602   4.898
  325SOL     OW 1873   0.909   3.048   2.243
  325SOL    HW1 1874   0.945   3.081   2.156
  325SOL    HW2 1875   0.810   3.060   2.245
  326SOL     OW 1876   1.248   4.892   6.843
  326SOL    HW1 1877   1.235   4.946   6.926
  326SOL    HW2 1878   1.295   4.807   6.866
  327SOL     OW 1879   1.645   5.069   3.608
  327SOL    HW1 1880   1.598   4.994   3.561
  327SOL    HW2 1881   1.580   5.144   3.623
  328SOL     OW 1882   1.661   5.511   2.107
  328SOL    HW1 1883   1.723   5.468   2.042
  328SOL    HW2 1884   1.591   5.444   2.135
  329SOL     OW 1885   4.079   3.691   4.432
  329SOL    HW1 1886   4.097   3.601   4.474
  329SOL    HW2 1887   4.102   3.763   4.497
  330SOL     OW 1888   3.888   6.905   1.696
  330SOL    HW1 1889   3.975   6.923   1.742
  330SOL    HW2 1890   3.868   6.807   1.701
  331SOL     OW 1891   3.545   4.825   0.751
  331SOL    HW1 1892   3.576   4.889   0.821
  331SOL    HW2 1893   3.494   4.874   0.681
  332SOL     OW 1894   4.458   1.699   5.194
  332SOL    HW1 1895   4.385   1.635   5.170
  332SOL    HW2 1896   4.545   1.664   5.160
  333SOL     OW 1897   2.862   0.486   6.002
  333SOL    HW1 1898   2.835   0.396   5.968
  333SOL    HW2 1899   2.900   0.541   5.927
  334SOL     OW 1900   3.101   0.423   1.615
  334SOL    HW1 1901   3.199   0.441   1.617
  334SOL    HW2 1902   3.078   0.358   1.687
  335SOL     OW 1903   3.918   0.012   5.413
  335SOL    HW1 1904   3.901   6.951   5.471
  335SOL    HW2 1905   3.938   7.001   5.320
  336SOL     OW 1906   1.688   0.680   3.330
  336SOL    HW1 1907   1.697   0.673   3.230
  336SOL    HW2 1908   1.766   0.731   3.367
  337SOL     OW 1909   0.453   2.820   0.040
  337SOL    HW1 1910   0.410   2.784   0.124
  337SOL    HW2 1911   0.531   2.876   0.065
  338SOL     OW 1912   2.601   2.204   1.391
  338SOL    HW1 1913   2.666   2.213   1.467
  338SOL    HW2 1914   2.592   2.107   1.367
  339SOL     OW 1915   2.860   6.405   3.879
  339SOL    HW1 1916   2.821   6.314   3.870
  339SOL    HW2 1917   2.948   6.409   3.832
  340SOL     OW 1918   4.743   4.492   5.345
  340SOL    HW1 1919   4.700   4.430   5.279
  340SOL    HW2 1920   4.680   4.508   5.421
  341SOL     OW 1921   6.614   0.688   4.722
  341SOL    HW1 1922   6.589   0.689   4.818
  341SOL    HW2 1923   6.608   0.781   4.685
  342SOL     OW 1924   5.780   3.371   6.914
  342SOL    HW1 1925   5.728   3.339   6.994
  342SOL    HW2 1926   5.852   3.305   6.892
  343SOL     OW 1927   2.299   5.681   0.360
  343SOL    HW1 1928   2.253   5.766   0.334
  343SOL    HW2 1929   2.232   5.617   0.398
  344SOL     OW 1930   1.297   4.570   2.009
  344SOL    HW1 1931   1.311   4.493   2.070
  344SOL    HW2 1932   1.308   4.656   2.059
  345SOL     OW 1933   4.979   1.134   3.629
  345SOL    HW1 1934   5.038   1.054   3.636
  345SOL    HW2 1935   4.886   1.106   3.605
  346SOL     OW 1936   2.200   0.790   2.844
  346SOL    HW1 1937   2.200   0.776   2.943
  346SOL    HW2 1938   2.258   0.722   2.800
  347SOL     OW 1939   3.361   5.305   6.338
  347SOL    HW1 1940   3.414   5.221   6.339
  347SOL    HW2 1941   3.364   5.346   6.247
  348SOL     OW 1942   5.481   3.761   2.181
  348SOL    HW1 1943   5.525   3.760   2.270
  348SOL    HW2 1944   5.492   3.672   2.137
  349SOL     OW 1945   0.006   5.201   1.020
  349SOL    HW1 1946   6.951   5.137   1.039
  349SOL    HW2 1947   0.069   5.160   0.954
  350SOL     OW 1948   3.681   3.523   1.072
  350SOL    HW1 1949   3.600   3.550   1.020
  350SOL    HW2 1950   3.682   3.569   1.160
  351SOL     OW 1951   2.045   2.966   1.003
  351SOL    HW1 1952   1.980   2.961   0.927
  351SOL    HW2 1953   2.116   2.897   0.991
  352SOL     OW 1954   2.917   1.237   4.625
  352SOL    HW1 1955   2.994   1.300   4.616
  352SOL    HW2 1956   2.834   1.280   4.588
  353SOL     OW 1957   2.327   6.679   0.669
  353SOL    HW1 1958   2.366   6.745   0.733
  353SOL    HW2 1959   2.360   6.587   0.690
  354SOL     OW 1960   3.571   2.662   0.505
  354SOL    HW1 1961   3.587   2.677   0.407
  354SOL    HW2 1962   3.638   2.714   0.557
  355SOL     OW 1963   1.164   3.841   2.729
  355SOL    HW1 1964   1.108   3.919   2.756
  355SOL    HW2 1965   1.211   3.803   2.809
  356SOL     OW 1966   3.052   0.257   5.616
  356SOL    HW1 1967   3.106   0.263   5.699
  356SOL    HW2 1968   3.017   0.348   5.592
  357SOL     OW 1969   0.524   6.703   5.291
  357SOL    HW1 1970   0.490   6.751   5.210
  357SOL    HW2 1971   0.525   6.605   5.274
  358SOL     OW 1972   4.316   0.381   1.130
  358SOL    HW1 1973   4.305   0.477   1.158
  358SOL    HW2 1974   4.237   0.328   1.162
  359SOL     OW 1975   1.720   2.892   2.167
  359SOL    HW1 1976   1.664   2.876   2.249
  359SOL    HW2 1977   1.775   2.811   2.148
  360SOL     OW 1978   0.802   5.437   6.783
  360SOL    HW1 1979   0.768   5.343   6.786
  360SOL    HW2 1980   0.863   5.449   6.705
  361SOL     OW 1981   5.705   5.747   2.820
  361SOL    HW1 1982   5.653   5.789   2.746
  361SOL    HW2 1983   5.678   5.787   2.907
  362SOL     OW 1984   3.906   3.781   1.737
  362SOL    HW1 1985   3.875   3.837   1.814
  362SOL    HW2 1986   3.827   3.742   1.691
  363SOL     OW 1987   5.447   4.714   3.623
  363SOL    HW1 1988   5.518   4.784   3.628
  363SOL    HW2 1989   5.475   4.642   3.560
  364SOL     OW 1990   5.792   5.549   6.111
  364SOL    HW1 1991   5.731   5.481   6.151
  364SOL    HW2 1992   5.744   5.637   6.105
  365SOL     OW 1993   5.534   5.913   2.188
  365SOL    HW1 1994   5.477   5.988   2.154
  365SOL    HW2 1995   5.480   5.857   2.251
  366SOL     OW 1996   6.635   1.085   6.123
  366SOL    HW1 1997   6.653   1.061   6.218
  366SOL    HW2 1998   6.639   1.185   6.113
  367SOL     OW 1999   4.480   2.933   1.271
  367SOL    HW1 2000   4.481   2.994   1.192
  367SOL    HW2 2001   4.564   2.945   1.323
  368SOL     OW 2002   0.207   3.738   4.792
  368SOL    HW1 2003   0.239   3.726   4.886
  368SOL    HW2 2004   0.165   3.829   4.782
  369SOL     OW 2005   6.455   5.730   1.441
  369SOL    HW1 2006   6.503   5.654   1.398
  369SOL    HW2 2007   6.486   5.739   1.536
  370SOL     OW 2008   2.464   1.387   5.885
  370SOL    HW1 2009   2.484   1.389   5.787
  370SOL    HW2 2010   2.469   1.480   5.922
  371SOL     OW 2011   2.364   3.878   6.342
  371SOL    HW1 2012   2.424   3.806   6.308
  371SOL    HW2 2013   2.306   3.911   6.268
  372SOL     OW 2014   1.303   6.378   6.401
  372SOL    HW1 2015   1.255   6.359   6.315
  372SOL    HW2 2016   1.349   6.294   6.431
  373SOL     OW 2017   6.938   6.525   4.527
  373SOL    HW1 2018   6.970   6.546   4.434
  373SOL    HW2 2019   6.851   6.477   4.521
  374SOL     OW 2020   2.677   1.712   3.012
  374SOL    HW1 2021   2.746   1.744   2.948
  374SOL    HW2 2022   2.648   1.787   3.071
  375SOL     OW 2023   0.893   4.757   3.827
  375SOL    HW1 2024   0.915   4.785   3.734
  375SOL    HW2 2025   0.795   4.737   3.833
  376SOL     OW 2026   2.158   1.540   4.792
  376SOL    HW1 2027   2.229   1.610   4.799
  376SOL    HW2 2028   2.074   1.580   4.756
  377SOL     OW 2029   0.707   1.993   1.351
  377SOL    HW1 2030   0.763   1.988   1.268
  377SOL    HW2 2031   0.757   1.953   1.428
  378SOL     OW 2032   3.369   2.283   5.683
  378SOL    HW1 2033   3.468   2.294   5.676
  378SOL    HW2 2034   3.326   2.307   5.596
  379SOL     OW 2035   6.042   4.046   0.755
  379SOL    HW1 2036   5.961   4.100   0.778
  379SOL    HW2 2037   6.115   4.107   0.725
  380SOL     OW 2038   2.744   0.926   1.136
  380SOL    HW1 2039   2.757   1.024   1.126
  380SOL    HW2 2040   2.811   0.877   1.080
  381SOL     OW 2041   1.605   4.246   2.711
  381SOL    HW1 2042   1.660   4.171   2.673
  381SOL    HW2 2043   1.523   4.209   2.754
  382SOL     OW 2044   5.504   6.380   6.008
  382SOL    HW1 2045   5.420   6.429   5.990
  382SOL    HW2 2046   5.501   6.291   5.962
  383SOL     OW 2047   4.901   3.305   5.801
  383SOL    HW1 2048   4.925   3.208   5.801
  383SOL    HW2 2049   4.807   3.317   5.832
  384SOL     OW 2050   6.594   5.582   4.532
  384SOL    HW1 2051   6.528   5.625   4.471
  384SOL    HW2 2052   6.686   5.595   4.496
  385SOL     OW 2053   4.135   5.866   5.447
  385SOL    HW1 2054   4.072   5.944   5.445
  385SOL    HW2 2055   4.190   5.866   5.364
  386SOL     OW 2056   2.503   6.432   5.450
  386SOL    HW1 2057   2.464   6.461   5.537
  386SOL    HW2 2058   2.466   6.342   5.425
  387SOL     OW 2059   1.002   6.426   3.396
  387SOL    HW1 2060   0.962   6.361   3.331
  387SOL    HW2 2061   0.936   6.499   3.415
  388SOL     OW 2062   1.470   1.854   3.930
  388SOL    HW1 2063   1.424   1.890   4.011
  388SOL    HW2 2064   1.519   1.929   3.884
  389SOL     OW 2065   4.144   4.742   1.365
  389SOL    HW1 2066   4.155   4.657   1.313
  389SOL    HW2 2067   4.095   4.809   1.309
  390SOL     OW 2068   3.020   1.260   0.211
  390SOL    HW1 2069   3.087   1.318   0.164
  390SOL    HW2 2070   3.068   1.188   0.261
  391SOL     OW 2071   1.902   3.471   5.454
  391SOL    HW1 2072   1.847   3.457   5.536
  391SOL    HW2 2073   1.984   3.415   5.459
  392SOL     OW 2074   1.967   4.277   1.598
  392SOL    HW1 2075   1.984   4.343   1.671
  392SOL    HW2 2076   1.869   4.273   1.578
  393SOL     OW 2077   1.402   4.670   6.947
  393SOL    HW1 2078   1.485   4.667   7.004
  393SOL    HW2 2079   1.427   4.657   6.851
  394SOL     OW 2080   6.958   2.965   0.425
  394SOL    HW1 2081   6.985   2.888   0.367
  394SOL    HW2 2082   7.008   3.047   0.398
  395SOL     OW 2083   4.912   4.501   3.449
  395SOL    HW1 2084   4.859   4.419   3.427
  395SOL    HW2 2085   4.970   4.525   3.372
  396SOL     OW 2086   3.166   3.169   2.253
  396SOL    HW1 2087   3.206   3.084   2.218
  396SOL    HW2 2088   3.097   3.203   2.189
  397SOL     OW 2089   5.804   1.189   6.336
  397SOL    HW1 2090   5.720   1.138   6.324
  397SOL    HW2 2091   5.791   1.261   6.404
  398SOL     OW 2092   1.447   0.076   3.489
  398SOL    HW1 2093   1.493   0.095   3.575
  398SOL    HW2 2094   1.360   0.125   3.485
  399SOL     OW 2095   5.243   6.561   4.138
  399SOL    HW1 2096   5.175   6.491   4.118
  399SOL    HW2 2097   5.270   6.605   4.052
  400SOL     OW 2098   6.641   6.683   5.642
  400SOL    HW1 2099   6.680   6.595   5.671
  400SOL    HW2 2100   6.644   6.748   5.718
  401SOL     OW 2101   5.140   0.223   6.375
  401SOL    HW1 2102   5.199   0.143   6.361
  401SOL    HW2 2103   5.048   0.203   6.340
  402SOL     OW 2104   6.781   1.018   3.780
  402SOL    HW1 2105   6.681   1.014   3.780
  402SOL    HW2 2106   6.813   1.037   3.687
  403SOL     OW 2107   4.157   1.000   5.302
  403SOL    HW1 2108   4.066   0.982   5.341
  403SOL    HW2 2109   4.225   0.996   5.374
  404SOL     OW 2110   1.190   4.849   4.249
  404SOL    HW1 2111   1.245   4.932   4.239
  404SOL    HW2 2112   1.094   4.873   4.255
  405SOL     OW 2113   2.052   3.051   3.249
  405SOL    HW1 2114   2.108   2.997   3.187
  405SOL    HW2 2115   2.055   3.147   3.221
  406SOL     OW 2116   0.426   3.970   4.676
  406SOL    HW1 2117   0.477   3.966   4.763
  406SOL    HW2 2118   0.479   3.925   4.605
  407SOL     OW 2119   1.361   2.491   5.134
  407SOL    HW1 2120   1.439   2.455   5.083
  407SOL    HW2 2121   1.288   2.515   5.071
  408SOL     OW 2122   3.419   2.115   3.395
  408SOL    HW1 2123   3.392   2.065   3.477
  408SOL    HW2 2124   3.340   2.164   3.359
  409SOL     OW 2125   6.419   3.127   1.566
  409SOL    HW1 2126   6.516   3.150   1.556
  409SOL    HW2 2127   6.406   3.074   1.650
  410SOL     OW 2128   0.751   1.621   1.366
  410SOL    HW1 2129   0.757   1.528   1.330
  410SOL    HW2 2130   0.680   1.672   1.317
  411SOL     OW 2131   6.330   0.840   1.648
  411SOL    HW1 2132   6.284   0.822   1.561
  411SOL    HW2 2133   6.280   0.794   1.722
  412SOL     OW 2134   3.485   5.031   2.507
  412SOL    HW1 2135   3.543   5.023   2.588
  412SOL    HW2 2136   3.389   5.023   2.534
  413SOL     OW 2137   5.675   4.118   1.618
  413SOL    HW1 2138   5.597   4.178   1.636
  413SOL    HW2 2139   5.731   4.158   1.545
  414SOL     OW 2140   3.528   6.081   3.897
  414SOL    HW1 2141   3.528   5.986   3.928
  414SOL    HW2 2142   3.471   6.090   3.816
  415SOL     OW 2143   0.145   0.493   6.794
  415SOL    HW1 2144   0.102   0.427   6.854
  415SOL    HW2 2145   0.237   0.515   6.829
  416SOL     OW 2146   4.972   5.269   5.504
  416SOL    HW1 2147   4.944   5.220   5.587
  416SOL    HW2 2148   4.901   5.335   5.479
  417SOL     OW 2149   2.266   0.021   5.557
  417SOL    HW1 2150   2.321   0.044   5.476
  417SOL    HW2 2151   2.307   6.961   5.603
  418SOL     OW 2152   3.258   6.559   6.904
  418SOL    HW1 2153   3.249   6.532   7.000
  418SOL    HW2 2154   3.354   6.555   6.878
  419SOL     OW 2155   1.169   6.915   2.910
  419SOL    HW1 2156   1.232   6.883   2.981
  419SOL    HW2 2157   1.220   6.968   2.841
  420SOL     OW 2158   5.713   1.424   6.504
  420SOL    HW1 2159   5.635   1.404   6.564
  420SOL    HW2 2160   5.679   1.452   6.414
  421SOL     OW 2161   5.660   3.953   4.397
  421SOL    HW1 2162   5.637   3.869   4.347
  421SOL    HW2 2163   5.732   4.002   4.349
  422SOL     OW 2164   4.864   3.285   0.978
  422SOL    HW1 2165   4.865   3.380   0.945
  422SOL    HW2 2166   4.843   3.285   1.076
  423SOL     OW 2167   1.339   2.366   6.937
  423SOL    HW1 2168   1.356   2.314   6.854
  423SOL    HW2 2169   1.383   2.321   7.015
  424SOL     OW 2170   1.893   4.632   2.208
  424SOL    HW1 2171   1.855   4.704   2.265
  424SOL    HW2 2172   1.859   4.543   2.238
  425SOL     OW 2173   5.209   1.516   3.958
  425SOL    HW1 2174   5.199   1.611   3.929
  425SOL    HW2 2175   5.278   1.472   3.901
  426SOL     OW 2176   2.490   2.085   4.730
  426SOL    HW1 2177   2.485   2.184   4.738
  426SOL    HW2 2178   2.402   2.045   4.756
  427SOL     OW 2179   6.419   6.730   3.766
  427SOL    HW1 2180   6.332   6.702   3.809
  427SOL    HW2 2181   6.419   6.830   3.754
  428SOL     OW 2182   3.959   0.478   3.405
  428SOL    HW1 2183   4.046   0.459   3.451
  428SOL    HW2 2184   3.937   0.575   3.413
  429SOL     OW 2185   0.291   4.765   3.682
  429SOL    HW1 2186   0.345   4.849   3.678
  429SOL    HW2 2187   0.350   4.687   3.661
  430SOL     OW 2188   1.203   6.449   4.519
  430SOL    HW1 2189   1.114   6.487   4.496
  430SOL    HW2 2190   1.218   6.455   4.618
  431SOL     OW 2191   2.756   0.642   0.722
  431SOL    HW1 2192   2.708   0.592   0.650
  431SOL    HW2 2193   2.728   0.608   0.812
  432SOL     OW 2194   6.303   2.375   0.778
  432SOL    HW1 2195   6.366   2.442   0.740
  432SOL    HW2 2196   6.211   2.391   0.742
  433SOL     OW 2197   2.101   6.648   5.755
  433SOL    HW1 2198   2.128   6.661   5.659
  433SOL    HW2 2199   2.144   6.718   5.812
  434SOL     OW 2200   4.382   6.228   3.662
  434SOL    HW1 2201   4.407   6.313   3.708
  434SOL    HW2 2202   4.421   6.228   3.569
  435SOL     OW 2203   3.850   1.930   5.520
  435SOL    HW1 2204   3.775   1.931   5.454
  435SOL    HW2 2205   3.885   2.023   5.531
  436SOL     OW 2206   2.765   5.580   1.864
  436SOL    HW1 2207   2.805   5.489   1.878
  436SOL    HW2 2208   2.777   5.635   1.946
  437SOL     OW 2209   0.718   1.092   6.294
  437SOL    HW1 2210   0.620   1.099   6.275
  437SOL    HW2 2211   0.757   1.183   6.302
  438SOL     OW 2212   1.344   3.969   4.065
  438SOL    HW1 2213   1.276   3.990   4.135
  438SOL    HW2 2214   1.372   3.874   4.073
  439SOL     OW 2215   5.712   6.414   2.254
  439SOL    HW1 2216   5.634   6.465   2.215
  439SOL    HW2 2217   5.729   6.333   2.197
  440SOL     OW 2218   2.807   1.440   5.911
  440SOL    HW1 2219   2.768   1.381   5.841
  440SOL    HW2 2220   2.833   1.528   5.870
  441SOL     OW 2221   6.558   3.300   3.685
  441SOL    HW1 2222   6.515   3.281   3.596
  441SOL    HW2 2223   6.635   3.239   3.699
  442SOL     OW 2224   4.840   5.549   5.735
  442SOL    HW1 2225   4.792   5.496   5.805
  442SOL    HW2 2226   4.839   5.499   5.649
  443SOL     OW 2227   5.706   3.710   4.235
  443SOL    HW1 2228   5.705   3.743   4.141
  443SOL    HW2 2229   5.800   3.706   4.268
  444SOL     OW 2230   4.902   0.198   5.905
  444SOL    HW1 2231   4.933   0.283   5.860
  444SOL    HW2 2232   4.970   0.127   5.891
  445SOL     OW 2233   2.438   6.197   2.966
  445SOL    HW1 2234   2.431   6.112   2.914
  445SOL    HW2 2235   2.363   6.258   2.941
  446SOL     OW 2236   4.316   6.042   2.416
  446SOL    HW1 2237   4.374   6.123   2.424
  446SOL    HW2 2238   4.373   5.960   2.414
  447SOL     OW 2239   6.393   4.023   5.082
  447SOL    HW1 2240   6.421   3.946   5.139
  447SOL    HW2 2241   6.297   4.044   5.100
  448SOL     OW 2242   2.601   0.992   2.812
  448SOL    HW1 2243   2.678   0.946   2.767
  448SOL    HW2 2244   2.538   1.027   2.743
  449SOL     OW 2245   3.299   1.535   4.129
  449SOL    HW1 2246   3.285   1.488   4.041
  449SOL    HW2 2247   3.390   1.512   4.164
  450SOL     OW 2248   1.666   4.646   3.676
  450SOL    HW1 2249   1.608   4.573   3.640
  450SOL    HW2 2250   1.636   4.669   3.769
  451SOL     OW 2251   2.051   2.440   4.508
  451SOL    HW1 2252   1.971   2.488   4.543
  451SOL    HW2 2253   2.104   2.502   4.451
  452SOL     OW 2254   4.379   6.597   1.787
  452SOL    HW1 2255   4.405   6.691   1.811
  452SOL    HW2 2256   4.456   6.551   1.743
  453SOL     OW 2257   3.443   6.630   6.590
  453SOL    HW1 2258   3.522   6.625   6.529
  453SOL    HW2 2259   3.360   6.607   6.540
  454SOL     OW 2260   0.161   3.504   6.635
  454SOL    HW1 2261   0.233   3.573   6.622
  454SOL    HW2 2262   0.132   3.506   6.731
  455SOL     OW 2263   5.461   2.756   4.990
  455SOL    HW1 2264   5.498   2.663   4.984
  455SOL    HW2 2265   5.511   2.815   4.927
  456SOL     OW 2266   1.300   0.572   4.338
  456SOL    HW1 2267   1.269   0.494   4.393
  456SOL    HW2 2268   1.288   0.656   4.390
  457SOL     OW 2269   2.224   3.959   4.299
  457SOL    HW1 2270   2.156   4.026   4.330
  457SOL    HW2 2271   2.193   3.918   4.213
  458SOL     OW 2272   2.980   0.288   3.066
  458SOL    HW1 2273   2.988   0.248   3.157
  458SOL    HW2 2274   3.001   0.386   3.071
  459SOL     OW 2275   1.642   0.355   5.489
  459SOL    HW1 2276   1.718   0.308   5.445
  459SOL    HW2 2277   1.610   0.429   5.429
  460SOL     OW 2278   1.251   0.234   4.899
  460SOL    HW1 2279   1.307   0.298   4.952
  460SOL    HW2 2280   1.310   0.163   4.859
  461SOL     OW 2281   6.378   4.479   6.105
  461SOL    HW1 2282   6.293   4.477   6.052
  461SOL    HW2 2283   6.391   4.390   6.149
  462SOL     OW 2284   4.121   3.621   5.513
  462SOL    HW1 2285   4.057   3.695   5.533
  462SOL    HW2 2286   4.071   3.535   5.506
  463SOL     OW 2287   0.441   0.553   3.776
  463SOL    HW1 2288   0.430   0.578   3.872
  463SOL    HW2 2289   0.354   0.521   3.740
  464SOL     OW 2290   2.850   0.860   5.737
  464SOL    HW1 2291   2.839   0.861   5.637
  464SOL    HW2 2292   2.938   0.818   5.759
  465SOL     OW 2293   0.310   2.403   0.100
  465SOL    HW1 2294   0.275   2.473   0.037
  465SOL    HW2 2295   0.328   2.319   0.048
  466SOL     OW 2296   2.578   6.458   4.233
  466SOL    HW1 2297   2.529   6.394   4.174
  466SOL    HW2 2298   2.670   6.473   4.196
  467SOL     OW 2299   1.676   1.414   2.203
  467SOL    HW1 2300   1.691   1.512   2.207
  467SOL    HW2 2301   1.701   1.372   2.291
  468SOL     OW 2302   3.938   5.621   5.068
  468SOL    HW1 2303   3.983   5.710   5.076
  468SOL    HW2 2304   4.002   5.549   5.095
  469SOL     OW 2305   2.960   3.674   5.940
  469SOL    HW1 2306   3.034   3.737   5.964
  469SOL    HW2 2307   2.968   3.647   5.844
  470SOL     OW 2308   3.614   6.104   1.442
  470SOL    HW1 2309   3.625   6.016   1.396
  470SOL    HW2 2310   3.564   6.090   1.528
  471SOL     OW 2311   2.721   2.355   4.087
  471SOL    HW1 2312   2.752   2.371   4.181
  471SOL    HW2 2313   2.636   2.405   4.071
  472SOL     OW 2314   5.738   4.391   0.007
  472SOL    HW1 2315   5.648   4.372   6.988
  472SOL    HW2 2316   5.728   4.441   0.093
  473SOL     OW 2317   1.107   1.838   1.930
  473SOL    HW1 2318   1.205   1.822   1.928
  473SOL    HW2 2319   1.072   1.848   1.837
  474SOL     OW 2320   5.308   5.559   5.133
  474SOL    HW1 2321   5.245   5.491   5.171
  474SOL    HW2 2322   5.370   5.591   5.205
  475SOL     OW 2323   6.223   3.007   0.444
  475SOL    HW1 2324   6.168   2.971   0.369
  475SOL    HW2 2325   6.204   2.957   0.528
  476SOL     OW 2326   0.036   3.827   2.126
  476SOL    HW1 2327   0.113   3.789   2.075
  476SOL    HW2 2328   0.040   3.926   2.123
  477SOL     OW 2329   2.631   5.780   3.334
  477SOL    HW1 2330   2.582   5.754   3.417
  477SOL    HW2 2331   2.621   5.878   3.319
  478SOL     OW 2332   3.741   6.341   3.420
  478SOL    HW1 2333   3.658   6.359   3.369
  478SOL    HW2 2334   3.821   6.357   3.361
  479SOL     OW 2335   3.812   3.143   5.036
  479SOL    HW1 2336   3.873   3.175   4.964
  479SOL    HW2 2337   3.724   3.116   4.997
  480SOL     OW 2338   2.874   0.262   1.433
  480SOL    HW1 2339   2.809   0.309   1.493
  480SOL    HW2 2340   2.967   0.275   1.468
  481SOL     OW 2341   0.825   6.564   1.692
  481SOL    HW1 2342   0.766   6.533   1.617
  481SOL    HW2 2343   0.861   6.655   1.671
  482SOL     OW 2344   4.602   5.123   2.466
  482SOL    HW1 2345   4.666   5.057   2.506
  482SOL    HW2 2346   4.525   5.074   2.425
  483SOL     OW 2347   6.876   2.163   2.849
  483SOL    HW1 2348   6.927   2.082   2.879
  483SOL    HW2 2349   6.787   2.165   2.895
  484SOL     OW 2350   1.523   4.271   4.612
  484SOL    HW1 2351   1.586   4.342   4.580
  484SOL    HW2 2352   1.576   4.189   4.637
  485SOL     OW 2353   4.800   4.959   2.536
  485SOL    HW1 2354   4.897   4.935   2.530
  485SOL    HW2 2355   4.745   4.875   2.539
  486SOL     OW 2356   5.944   1.331   6.904
  486SOL    HW1 2357   5.879   1.274   6.954
  486SOL    HW2 2358   5.935   1.313   6.806
  487SOL     OW 2359   1.015   0.972   3.009
  487SOL    HW1 2360   1.070   0.934   2.935
  487SOL    HW2 2361   1.027   0.917   3.091
  488SOL     OW 2362   0.676   6.482   2.029
  488SOL    HW1 2363   0.755   6.538   2.055
  488SOL    HW2 2364   0.708   6.401   1.979
  489SOL     OW 2365   5.903   5.976   5.475
  489SOL    HW1 2366   5.909   5.924   5.560
  489SOL    HW2 2367   5.971   5.942   5.410
  490SOL     OW 2368   1.582   5.948   3.601
  490SOL    HW1 2369   1.616   5.946   3.507
  490SOL    HW2 2370   1.545   6.039   3.621
  491SOL     OW 2371   1.354   3.595   0.982
  491SOL    HW1 2372   1.365   3.533   0.904
  491SOL    HW2 2373   1.443   3.634   1.006
  492SOL     OW 2374   1.399   0.932   5.707
  492SOL    HW1 2375   1.451   0.907   5.789
  492SOL    HW2 2376   1.408   1.030   5.691
  493SOL     OW 2377   2.721   0.276   5.639
  493SOL    HW1 2378   2.793   0.345   5.627
  493SOL    HW2 2379   2.632   0.317   5.620
  494SOL     OW 2380   1.552   1.026   6.714
  494SOL    HW1 2381   1.532   0.965   6.791
  494SOL    HW2 2382   1.641   1.002   6.675
  495SOL     OW 2383   3.501   6.415   4.055
  495SOL    HW1 2384   3.517   6.462   4.142
  495SOL    HW2 2385   3.588   6.380   4.019
  496SOL     OW 2386   6.708   2.143   2.027
  496SOL    HW1 2387   6.609   2.153   2.029
  496SOL    HW2 2388   6.740   2.108   2.116
  497SOL     OW 2389   3.338   1.459   4.500
  497SOL    HW1 2390   3.357   1.557   4.510
  497SOL    HW2 2391   3.261   1.447   4.439
  498SOL     OW 2392   0.994   4.488   2.285
  498SOL    HW1 2393   1.039   4.572   2.254
  498SOL    HW2 2394   0.942   4.507   2.369
  499SOL     OW 2395   1.794   5.323   4.809
  499SOL    HW1 2396   1.741   5.361   4.885
  499SOL    HW2 2397   1.750   5.349   4.722
  500SOL     OW 2398   5.429   2.705   6.842
  500SOL    HW1 2399   5.486   2.622   6.846
  500SOL    HW2 2400   5.485   2.785   6.864
  501SOL     OW 2401   4.272   7.008   1.251
  501SOL    HW1 2402   4.197   6.943   1.261
  501SOL    HW2 2403   4.326   6.985   1.171
  502SOL     OW 2404   0.589   4.653   6.521
  502SOL    HW1 2405   0.514   4.587   6.526
  502SOL    HW2 2406   0.604   4.679   6.425
  503SOL     OW 2407   1.676   5.125   6.324
  503SOL    HW1 2408   1.655   5.063   6.249
  503SOL    HW2 2409   1.641   5.216   6.303
  504SOL     OW 2410   1.239   5.493   1.701
  504SOL    HW1 2411   1.226   5.590   1.717
  504SOL    HW2 2412   1.228   5.473   1.604
  505SOL     OW 2413   4.249   6.585   4.564
  505SOL    HW1 2414   4.166   6.626   4.527
  505SOL    HW2 2415   4.319   6.579   4.492
  506SOL     OW 2416   2.897   6.116   2.181
  506SOL    HW1 2417   2.913   6.017   2.185
  506SOL    HW2 2418   2.951   6.161   2.252
  507SOL     OW 2419   3.744   6.441   2.785
  507SOL    HW1 2420   3.754   6.488   2.872
  507SOL    HW2 2421   3.834   6.433   2.740
  508SOL     OW 2422   0.255   2.647   2.542
  508SOL    HW1 2423   0.314   2.672   2.466
  508SOL    HW2 2424   0.291   2.565   2.588
  509SOL     OW 2425   3.475   1.314   0.757
  509SOL    HW1 2426   3.465   1.249   0.682
  509SOL    HW2 2427   3.476   1.264   0.844
  510SOL     OW 2428   6.718   4.336   6.178
  510SOL    HW1 2429   6.655   4.368   6.248
  510SOL    HW2 2430   6.760   4.250   6.207
  511SOL     OW 2431   0.637   2.605   6.965
  511SOL    HW1 2432   0.561   2.665   6.992
  511SOL    HW2 2433   0.720   2.659   6.953
  512SOL     OW 2434   6.401   2.546   6.832
  512SOL    HW1 2435   6.382   2.477   6.901
  512SOL    HW2 2436   6.455   2.620   6.873
  513SOL     OW 2437   5.294   6.760   2.952
  513SOL    HW1 2438   5.348   6.781   2.871
  513SOL    HW2 2439   5.197   6.777   2.934
  514SOL     OW 2440   6.604   0.402   4.243
  514SOL    HW1 2441   6.560   0.350   4.316
  514SOL    HW2 2442   6.622   0.495   4.275
  515SOL     OW 2443   2.013   0.450   0.236
  515SOL    HW1 2444   2.053   0.529   0.281
  515SOL    HW2 2445   1.960   0.396   0.302
  516SOL     OW 2446   2.548   4.893   2.465
  516SOL    HW1 2447   2.548   4.988   2.435
  516SOL    HW2 2448   2.510   4.887   2.557
  517SOL     OW 2449   3.351   4.609   1.677
  517SOL    HW1 2450   3.414   4.614   1.755
  517SOL    HW2 2451   3.260   4.639   1.707
  518SOL     OW 2452   2.756   1.954   3.421
  518SOL    HW1 2453   2.741   1.980   3.517
  518SOL    HW2 2454   2.851   1.923   3.409
  519SOL     OW 2455   0.149   6.407   3.218
  519SOL    HW1 2456   0.186   6.500   3.222
  519SOL    HW2 2457   0.073   6.404   3.153
  520SOL     OW 2458   0.033   3.457   6.902
  520SOL    HW1 2459   0.055   3.361   6.886
  520SOL    HW2 2460   6.963   3.478   6.863
  521SOL     OW 2461   5.438   5.341   5.025
  521SOL    HW1 2462   5.536   5.354   5.042
  521SOL    HW2 2463   5.389   5.423   5.056
  522SOL     OW 2464   4.103   3.624   2.956
  522SOL    HW1 2465   4.193   3.669   2.962
  522SOL    HW2 2466   4.055   3.636   3.043
  523SOL     OW 2467   6.983   5.673   1.692
  523SOL    HW1 2468   7.003   5.580   1.721
  523SOL    HW2 2469   0.001   5.688   1.600
  524SOL     OW 2470   1.645   2.860   2.437
  524SOL    HW1 2471   1.742   2.883   2.430
  524SOL    HW2 2472   1.594   2.939   2.470
  525SOL     OW 2473   1.778   3.864   5.865
  525SOL    HW1 2474   1.780   3.956   5.903
  525SOL    HW2 2475   1.868   3.842   5.827
  526SOL     OW 2476   3.096   6.424   3.713
  526SOL    HW1 2477   3.146   6.504   3.747
  526SOL    HW2 2478   3.142   6.340   3.743
  527SOL     OW 2479   0.022   2.052   0.956
  527SOL    HW1 2480   0.057   2.041   1.049
  527SOL    HW2 2481   0.065   2.132   0.914
  528SOL     OW 2482   1.880   2.869   3.971
  528SOL    HW1 2483   1.861   2.771   3.964
  528SOL    HW2 2484   1.879   2.896   4.068
  529SOL     OW 2485   1.640   6.729   5.082
  529SOL    HW1 2486   1.648   6.746   4.984
  529SOL    HW2 2487   1.732   6.716   5.120
  530SOL     OW 2488   4.113   3.544   2.696
  530SOL    HW1 2489   4.085   3.448   2.702
  530SOL    HW2 2490   4.130   3.579   2.788
  531SOL     OW 2491   1.323   1.065   2.901
  531SOL    HW1 2492   1.274   1.152   2.909
  531SOL    HW2 2493   1.258   0.991   2.882
  532SOL     OW 2494   1.334   3.235   0.564
  532SOL    HW1 2495   1.291   3.216   0.475
  532SOL    HW2 2496   1.402   3.307   0.552
  533SOL     OW 2497   4.650   6.820   3.402
  533SOL    HW1 2498   4.676   6.884   3.474
  533SOL    HW2 2499   4.571   6.856   3.352
  534SOL     OW 2500   5.885   5.809   2.452
  534SOL    HW1 2501   5.979   5.814   2.418
  534SOL    HW2 2502   5.882   5.752   2.533
  535SOL     OW 2503   0.044   4.238   2.720
  535SOL    HW1 2504   0.142   4.224   2.705
  535SOL    HW2 2505   7.011   4.192   2.648
  536SOL     OW 2506   5.964   4.458   2.222
  536SOL    HW1 2507   6.049   4.414   2.193
  536SOL    HW2 2508   5.958   4.549   2.180
  537SOL     OW 2509   3.692   0.256   4.454
  537SOL    HW1 2510   3.749   0.309   4.516
  537SOL    HW2 2511   3.603   0.301   4.443
  538SOL     OW 2512   0.749   4.408   3.870
  538SOL    HW1 2513   0.677   4.458   3.821
  538SOL    HW2 2514   0.714   4.375   3.957
  539SOL     OW 2515   1.927   4.931   1.893
  539SOL    HW1 2516   2.017   4.924   1.849
  539SOL    HW2 2517   1.879   5.011   1.859
  540SOL     OW 2518   1.575   1.314   3.234
  540SOL    HW1 2519   1.516   1.320   3.154
  540SOL    HW2 2520   1.577   1.220   3.267
  541SOL     OW 2521   4.964   5.535   3.653
  541SOL    HW1 2522   5.050   5.509   3.609
  541SOL    HW2 2523   4.984   5.593   3.732
  542SOL     OW 2524   4.274   6.423   0.034
  542SOL    HW1 2525   4.310   6.447   0.123
  542SOL    HW2 2526   4.332   6.462   6.981
  543SOL     OW 2527   6.121   3.875   3.839
  543SOL    HW1 2528   6.037   3.929   3.847
  543SOL    HW2 2529   6.099   3.785   3.801
  544SOL     OW 2530   0.751   5.118   6.911
  544SOL    HW1 2531   0.781   5.098   6.818
  544SOL    HW2 2532   0.825   5.098   6.976
  545SOL     OW 2533   3.668   0.857   1.628
  545SOL    HW1 2534   3.694   0.947   1.592
  545SOL    HW2 2535   3.569   0.854   1.643
  546SOL     OW 2536   1.361   3.936   1.493
  546SOL    HW1 2537   1.402   3.990   1.419
  546SOL    HW2 2538   1.265   3.920   1.474
  547SOL     OW 2539   3.209   2.380   1.165
  547SOL    HW1 2540   3.110   2.380   1.155
  547SOL    HW2 2541   3.239   2.291   1.201
  548SOL     OW 2542   3.344   3.394   1.676
  548SOL    HW1 2543   3.381   3.301   1.670
  548SOL    HW2 2544   3.244   3.390   1.672
  549SOL     OW 2545   5.440   2.309   1.604
  549SOL    HW1 2546   5.381   2.381   1.569
  549SOL    HW2 2547   5.442   2.313   1.704
  550SOL     OW 2548   1.186   5.480   3.445
  550SOL    HW1 2549   1.138   5.567   3.459
  550SOL    HW2 2550   1.131   5.406   3.482
  551SOL     OW 2551   0.369   0.011   1.550
  551SOL    HW1 2552   0.458   0.051   1.528
  551SOL    HW2 2553   0.299   0.082   1.550
  552SOL     OW 2554   5.922   4.167   6.673
  552SOL    HW1 2555   5.939   4.242   6.737
  552SOL    HW2 2556   5.826   4.166   6.646
  553SOL     OW 2557   2.529   6.722   4.203
  553SOL    HW1 2558   2.518   6.623   4.211
  553SOL    HW2 2559   2.609   6.751   4.256
  554SOL     OW 2560   5.934   0.016   0.524
  554SOL    HW1 2561   6.021   0.043   0.483
  554SOL    HW2 2562   5.861   0.030   0.458
  555SOL     OW 2563   3.071   4.996   5.101
  555SOL    HW1 2564   2.985   4.991   5.051
  555SOL    HW2 2565   3.109   4.905   5.113
  556SOL     OW 2566   4.910   1.804   3.948
  556SOL    HW1 2567   4.981   1.749   3.904
  556SOL    HW2 2568   4.852   1.845   3.877
  557SOL     OW 2569   6.477   5.339   0.356
  557SOL    HW1 2570   6.459   5.437   0.357
  557SOL    HW2 2571   6.391   5.289   0.363
  558SOL     OW 2572   3.587   3.113   3.587
  558SOL    HW1 2573   3.660   3.051   3.616
  558SOL    HW2 2574   3.503   3.061   3.571
  559SOL     OW 2575   6.855   5.654   5.704
  559SOL    HW1 2576   6.759   5.625   5.708
  559SOL    HW2 2577   6.900   5.632   5.791
  560SOL     OW 2578   6.217   3.676   4.007
  560SOL    HW1 2579   6.202   3.731   3.926
  560SOL    HW2 2580   6.137   3.683   4.067
  561SOL     OW 2581   0.436   1.831   1.028
  561SOL    HW1 2582   0.443   1.792   0.936
  561SOL    HW2 2583   0.437   1.931   1.022
  562SOL     OW 2584   4.295   0.474   6.092
  562SOL    HW1 2585   4.262   0.454   6.184
  562SOL    HW2 2586   4.391   0.501   6.096
  563SOL     OW 2587   2.919   1.125   3.770
  563SOL    HW1 2588   2.965   1.089   3.852
  563SOL    HW2 2589   2.846   1.188   3.798
  564SOL     OW 2590   1.010   3.236   6.889
  564SOL    HW1 2591   1.073   3.267   6.818
  564SOL    HW2 2592   0.946   3.170   6.849
  565SOL     OW 2593   3.362   3.824   4.516
  565SOL    HW1 2594   3.426   3.897   4.492
  565SOL    HW2 2595   3.316   3.847   4.602
  566SOL     OW 2596   0.773   3.595   3.296
  566SOL    HW1 2597   0.694   3.617   3.354
  566SOL    HW2 2598   0.802   3.502   3.314
  567SOL     OW 2599   3.036   2.815   1.199
  567SOL    HW1 2600   3.112   2.784   1.142
  567SOL    HW2 2601   3.070   2.882   1.265
  568SOL     OW 2602   4.337   0.076   0.171
  568SOL    HW1 2603   4.406   0.060   0.100
  568SOL    HW2 2604   4.353   0.014   0.247
  569SOL     OW 2605   1.132   3.449   0.285
  569SOL    HW1 2606   1.059   3.455   0.217
  569SOL    HW2 2607   1.217   3.422   0.240
  570SOL     OW 2608   3.564   0.168   6.405
  570SOL    HW1 2609   3.474   0.177   6.447
  570SOL    HW2 2610   3.590   0.072   6.402
  571SOL     OW 2611   3.207   4.971   3.134
  571SOL    HW1 2612   3.180   5.068   3.128
  571SOL    HW2 2613   3.127   4.913   3.120
  572SOL     OW 2614   2.693   5.326   4.932
  572SOL    HW1 2615   2.659   5.235   4.908
  572SOL    HW2 2616   2.790   5.333   4.908
  573SOL     OW 2617   5.769   1.016   5.856
  573SOL    HW1 2618   5.676   0.983   5.837
  573SOL    HW2 2619   5.807   1.057   5.774
  574SOL     OW 2620   3.751   1.235   4.536
  574SOL    HW1 2621   3.658   1.265   4.513
  574SOL    HW2 2622   3.812   1.255   4.459
  575SOL     OW 2623   4.767   3.400   1.646
  575SOL    HW1 2624   4.788   3.450   1.562
  575SOL    HW2 2625   4.764   3.302   1.627
  576SOL     OW 2626   1.512   2.824   3.036
  576SOL    HW1 2627   1.512   2.803   3.133
  576SOL    HW2 2628   1.430   2.785   2.993
  577SOL     OW 2629   1.633   0.993   2.406
  577SOL    HW1 2630   1.604   1.002   2.501
  577SOL    HW2 2631   1.561   1.027   2.346
  578SOL     OW 2632   6.630   5.072   4.582
  578SOL    HW1 2633   6.718   5.046   4.543
  578SOL    HW2 2634   6.599   5.158   4.540
  579SOL     OW 2635   1.864   3.218   3.844
  579SOL    HW1 2636   1.892   3.284   3.775
  579SOL    HW2 2637   1.779   3.174   3.817
  580SOL     OW 2638   4.486   4.988   5.326
  580SOL    HW1 2639   4.476   4.892   5.352
  580SOL    HW2 2640   4.404   5.019   5.278
  581SOL     OW 2641   1.628   2.694   1.942
  581SOL    HW1 2642   1.713   2.690   1.993
  581SOL    HW2 2643   1.631   2.771   1.878
  582SOL     OW 2644   5.110   5.789   2.751
  582SOL    HW1 2645   5.016   5.753   2.746
  582SOL    HW2 2646   5.121   5.862   2.684
  583SOL     OW 2647   2.650   6.624   4.981
  583SOL    HW1 2648   2.601   6.548   4.939
  583SOL    HW2 2649   2.687   6.683   4.909
  584SOL     OW 2650   2.956   6.117   6.895
  584SOL    HW1 2651   2.989   6.036   6.846
  584SOL    HW2 2652   3.011   6.196   6.868
  585SOL     OW 2653   4.179   1.497   6.635
  585SOL    HW1 2654   4.240   1.426   6.671
  585SOL    HW2 2655   4.157   1.562   6.708
  586SOL     OW 2656   3.256   0.021   6.292
  586SOL    HW1 2657   3.281   0.109   6.333
  586SOL    HW2 2658   3.230   6.976   6.363
  587SOL     OW 2659   4.636   2.416   4.317
  587SOL    HW1 2660   4.580   2.439   4.397
  587SOL    HW2 2661   4.613   2.324   4.287
  588SOL     OW 2662   2.542   4.878   1.647
  588SOL    HW1 2663   2.448   4.893   1.675
  588SOL    HW2 2664   2.571   4.951   1.585
  589SOL     OW 2665   3.685   5.055   1.620
  589SOL    HW1 2666   3.689   5.119   1.696
  589SOL    HW2 2667   3.653   4.966   1.652
  590SOL     OW 2668   5.538   2.563   1.764
  590SOL    HW1 2669   5.491   2.500   1.825
  590SOL    HW2 2670   5.475   2.592   1.692
  591SOL     OW 2671   3.655   5.787   3.441
  591SOL    HW1 2672   3.697   5.877   3.449
  591SOL    HW2 2673   3.585   5.788   3.370
  592SOL     OW 2674   4.501   1.128   1.224
  592SOL    HW1 2675   4.592   1.170   1.217
  592SOL    HW2 2676   4.495   1.077   1.309
  593SOL     OW 2677   4.461   2.488   3.983
  593SOL    HW1 2678   4.533   2.553   3.956
  593SOL    HW2 2679   4.450   2.490   4.082
  594SOL     OW 2680   5.466   0.727   0.652
  594SOL    HW1 2681   5.460   0.627   0.652
  594SOL    HW2 2682   5.497   0.758   0.742
  595SOL     OW 2683   5.762   0.344   3.341
  595SOL    HW1 2684   5.860   0.331   3.327
  595SOL    HW2 2685   5.711   0.275   3.290
  596SOL     OW 2686   0.333   5.033   3.535
  596SOL    HW1 2687   0.285   4.986   3.461
  596SOL    HW2 2688   0.266   5.078   3.594
  597SOL     OW 2689   2.170   0.399   6.733
  597SOL    HW1 2690   2.098   0.331   6.721
  597SOL    HW2 2691   2.251   0.371   6.682
  598SOL     OW 2692   4.031   3.929   4.602
  598SOL    HW1 2693   3.987   4.018   4.594
  598SOL    HW2 2694   4.017   3.892   4.694
  599SOL     OW 2695   2.738   6.098   2.848
  599SOL    HW1 2696   2.751   6.183   2.797
  599SOL    HW2 2697   2.643   6.070   2.841
  600SOL     OW 2698   5.982   1.729   6.743
  600SOL    HW1 2699   6.020   1.677   6.666
  600SOL    HW2 2700   5.913   1.793   6.709
  601SOL     OW 2701   1.324   0.982   3.897
  601SOL    HW1 2702   1.366   0.892   3.887
  601SOL    HW2 2703   1.318   1.006   3.994
  602SOL     OW 2704   1.092   0.938   6.702
  602SOL    HW1 2705   1.124   0.942   6.608
  602SOL    HW2 2706   1.083   1.031   6.739
  603SOL     OW 2707   3.017   2.981   5.326
  603SOL    HW1 2708   3.074   2.914   5.277
  603SOL    HW2 2709   2.943   2.933   5.373
  604SOL     OW 2710   0.670   1.705   1.620
  604SOL    HW1 2711   0.711   1.658   1.542
  604SOL    HW2 2712   0.584   1.660   1.644
  605SOL     OW 2713   6.607   5.136   6.955
  605SOL    HW1 2714   6.685   5.095   6.907
  605SOL    HW2 2715   6.608   5.235   6.943
  606SOL     OW 2716   5.069   6.228   5.650
  606SOL    HW1 2717   4.999   6.174   5.603
  606SOL    HW2 2718   5.141   6.167   5.685
  607SOL     OW 2719   6.216   4.867   5.488
  607SOL    HW1 2720   6.304   4.875   5.534
  607SOL    HW2 2721   6.200   4.948   5.432
  608SOL     OW 2722   3.983   6.491   6.487
  608SOL    HW1 2723   4.071   6.448   6.467
  608SOL    HW2 2724   3.927   6.428   6.540
  609SOL     OW 2725   3.937   3.160   2.521
  609SOL    HW1 2726   3.957   3.192   2.614
  609SOL    HW2 2727   3.887   3.073   2.526
  610SOL     OW 2728   6.161   3.465   0.967
  610SOL    HW1 2729   6.216   3.430   1.043
  610SOL    HW2 2730   6.148   3.564   0.980
  611SOL     OW 2731   4.801   0.055   1.845
  611SOL    HW1 2732   4.851   0.080   1.928
  611SOL    HW2 2733   4.704   0.078   1.856
  612SOL     OW 2734   3.880   5.836   4.500
  612SOL    HW1 2735   3.799   5.885   4.530
  612SOL    HW2 2736   3.878   5.827   4.400
  613SOL     OW 2737   4.985   5.383   5.054
  613SOL    HW1 2738   4.991   5.445   4.976
  613SOL    HW2 2739   5.073   5.336   5.066
  614SOL     OW 2740   5.088   5.169   6.527
  614SOL    HW1 2741   4.989   5.172   6.512
  614SOL    HW2 2742   5.114   5.243   6.589
  615SOL     OW 2743   6.980   2.212   1.766
  615SOL    HW1 2744   6.896   2.159   1.757
  615SOL    HW2 2745   0.029   2.159   1.816
  616SOL     OW 2746   0.523   3.424   2.636
  616SOL    HW1 2747   0.431   3.386   2.638
  616SOL    HW2 2748   0.561   3.424   2.729
  617SOL     OW 2749   0.276   4.583   6.168
  617SOL    HW1 2750   0.331   4.500   6.169
  617SOL    HW2 2751   0.191   4.567   6.117
  618SOL     OW 2752   6.992   2.703   0.783
  618SOL    HW1 2753   6.923   2.751   0.728
  618SOL    HW2 2754   0.062   2.709   0.738
  619SOL     OW 2755   4.111   1.442   0.025
  619SOL    HW1 2756   4.096   1.365   0.088
  619SOL    HW2 2757   4.032   1.503   0.027
  620SOL     OW 2758   4.168   2.449   1.746
  620SOL    HW1 2759   4.201   2.416   1.835
  620SOL    HW2 2760   4.072   2.423   1.734
  621SOL     OW 2761   2.588   6.659   6.535
  621SOL    HW1 2762   2.496   6.685   6.564
  621SOL    HW2 2763   2.624   6.588   6.595
  622SOL     OW 2764   1.235   0.794   6.440
  622SOL    HW1 2765   1.301   0.869   6.428
  622SOL    HW2 2766   1.167   0.799   6.367
  623SOL     OW 2767   0.704   5.292   5.901
  623SOL    HW1 2768   0.733   5.358   5.831
  623SOL    HW2 2769   0.739   5.320   5.990
  624SOL     OW 2770   6.902   2.436   0.788
  624SOL    HW1 2771   6.938   2.529   0.791
  624SOL    HW2 2772   6.977   2.371   0.801
  625SOL     OW 2773   2.116   1.123   1.643
  625SOL    HW1 2774   2.184   1.169   1.587
  625SOL    HW2 2775   2.025   1.154   1.617
  626SOL     OW 2776   2.250   5.804   3.487
  626SOL    HW1 2777   2.261   5.738   3.412
  626SOL    HW2 2778   2.274   5.895   3.455
  627SOL     OW 2779   4.962   6.655   0.290
  627SOL    HW1 2780   4.876   6.691   0.326
  627SOL    HW2 2781   4.955   6.645   0.191
  628SOL     OW 2782   6.170   5.746   6.033
  628SOL    HW1 2783   6.105   5.689   5.983
  628SOL    HW2 2784   6.142   5.751   6.129
  629SOL     OW 2785   0.019   6.827   0.197
  629SOL    HW1 2786   0.055   6.886   0.270
  629SOL    HW2 2787   0.077   6.835   0.116
  630SOL     OW 2788   6.760   1.888   2.375
  630SOL    HW1 2789   6.697   1.961   2.402
  630SOL    HW2 2790   6.852   1.926   2.362
  631SOL     OW 2791   3.272   6.643   5.395
  631SOL    HW1 2792   3.315   6.553   5.403
  631SOL    HW2 2793   3.319   6.696   5.325
  632SOL     OW 2794   2.583   1.452   0.382
  632SOL    HW1 2795   2.641   1.533   0.382
  632SOL    HW2 2796   2.489   1.478   0.403
  633SOL     OW 2797   4.920   4.439   6.945
  633SOL    HW1 2798   4.900   4.380   6.867
  633SOL    HW2 2799   4.861   4.413   0.003
  634SOL     OW 2800   4.690   4.399   1.834
  634SOL    HW1 2801   4.605   4.348   1.841
  634SOL    HW2 2802   4.696   4.465   1.909
  635SOL     OW 2803   4.555   4.936   0.768
  635SOL    HW1 2804   4.565   4.998   0.846
  635SOL    HW2 2805   4.470   4.885   0.777
  636SOL     OW 2806   4.232   5.520   6.275
  636SOL    HW1 2807   4.273   5.475   6.355
  636SOL    HW2 2808   4.188   5.605   6.304
  637SOL     OW 2809   6.414   3.595   2.157
  637SOL    HW1 2810   6.493   3.597   2.096
  637SOL    HW2 2811   6.435   3.540   2.238
  638SOL     OW 2812   5.581   2.045   2.755
  638SOL    HW1 2813   5.505   2.019   2.695
  638SOL    HW2 2814   5.547   2.101   2.830
  639SOL     OW 2815   5.513   3.999   2.712
  639SOL    HW1 2816   5.421   4.019   2.745
  639SOL    HW2 2817   5.520   4.022   2.615
  640SOL     OW 2818   0.577   5.040   4.025
  640SOL    HW1 2819   0.645   5.062   4.094
  640SOL    HW2 2820   0.492   5.010   4.071
  641SOL     OW 2821   0.143   6.209   4.502
  641SOL    HW1 2822   0.113   6.126   4.454
  641SOL    HW2 2823   0.115   6.290   4.450
  642SOL     OW 2824   0.267   3.294   4.730
  642SOL    HW1 2825   0.238   3.302   4.825
  642SOL    HW2 2826   0.284   3.385   4.692
  643SOL     OW 2827   4.757   5.272   5.108
  643SOL    HW1 2828   4.756   5.173   5.126
  643SOL    HW2 2829   4.849   5.299   5.077
  644SOL     OW 2830   1.470   6.025   4.537
  644SOL    HW1 2831   1.523   5.992   4.616
  644SOL    HW2 2832   1.387   6.070   4.569
  645SOL     OW 2833   5.186   1.593   4.724
  645SOL    HW1 2834   5.270   1.584   4.778
  645SOL    HW2 2835   5.139   1.505   4.719
  646SOL     OW 2836   3.321   1.527   3.688
  646SOL    HW1 2837   3.386   1.571   3.750
  646SOL    HW2 2838   3.368   1.456   3.636
  647SOL     OW 2839   5.355   1.948   5.044
  647SOL    HW1 2840   5.270   1.900   5.065
  647SOL    HW2 2841   5.400   1.976   5.129
  648SOL     OW 2842   6.853   4.023   3.910
  648SOL    HW1 2843   6.899   4.111   3.894
  648SOL    HW2 2844   6.800   4.028   3.995
  649SOL     OW 2845   3.700   3.726   0.434
  649SOL    HW1 2846   3.783   3.708   0.487
  649SOL    HW2 2847   3.633   3.772   0.492
  650SOL     OW 2848   5.873   4.824   0.765
  650SOL    HW1 2849   5.969   4.799   0.783
  650SOL    HW2 2850   5.822   4.742   0.737
  651SOL     OW 2851   6.653   6.645   6.616
  651SOL    HW1 2852   6.680   6.577   6.685
  651SOL    HW2 2853   6.721   6.647   6.543
  652SOL     OW 2854   5.253   6.429   3.867
  652SOL    HW1 2855   5.323   6.387   3.809
  652SOL    HW2 2856   5.166   6.432   3.818
  653SOL     OW 2857   3.188   6.448   4.694
  653SOL    HW1 2858   3.234   6.362   4.674
  653SOL    HW2 2859   3.184   6.505   4.612
  654SOL     OW 2860   0.337   4.012   5.524
  654SOL    HW1 2861   0.279   4.055   5.594
  654SOL    HW2 2862   0.351   3.916   5.548
  655SOL     OW 2863   1.051   6.452   1.987
  655SOL    HW1 2864   0.984   6.401   1.934
  655SOL    HW2 2865   1.141   6.408   1.978
  656SOL     OW 2866   1.761   5.975   1.906
  656SOL    HW1 2867   1.788   6.025   1.823
  656SOL    HW2 2868   1.804   5.885   1.905
  657SOL     OW 2869   1.431   2.247   1.950
  657SOL    HW1 2870   1.420   2.235   2.049
  657SOL    HW2 2871   1.369   2.185   1.902
  658SOL     OW 2872   2.785   3.506   6.150
  658SOL    HW1 2873   2.842   3.479   6.072
  658SOL    HW2 2874   2.743   3.424   6.190
  659SOL     OW 2875   2.289   6.016   6.013
  659SOL    HW1 2876   2.255   5.958   5.939
  659SOL    HW2 2877   2.388   6.012   6.016
  660SOL     OW 2878   4.933   4.327   2.030
  660SOL    HW1 2879   4.906   4.341   1.934
  660SOL    HW2 2880   4.911   4.408   2.083
  661SOL     OW 2881   4.191   5.892   3.482
  661SOL    HW1 2882   4.139   5.891   3.567
  661SOL    HW2 2883   4.281   5.932   3.498
  662SOL     OW 2884   3.848   0.630   5.590
  662SOL    HW1 2885   3.824   0.544   5.546
  662SOL    HW2 2886   3.794   0.642   5.673
  663SOL     OW 2887   2.395   4.230   6.190
  663SOL    HW1 2888   2.494   4.242   6.199
  663SOL    HW2 2889   2.376   4.176   6.109
  664SOL     OW 2890   6.943   5.737   6.193
  664SOL    HW1 2891   6.913   5.832   6.177
  664SOL    HW2 2892   6.866   5.684   6.228
  665SOL     OW 2893   4.991   5.398   1.911
  665SOL    HW1 2894   5.069   5.391   1.848
  665SOL    HW2 2895   4.928   5.322   1.894
  666SOL     OW 2896   5.431   2.013   2.520
  666SOL    HW1 2897   5.338   2.050   2.529
  666SOL    HW2 2898   5.444   1.977   2.428
  667SOL     OW 2899   1.508   4.887   3.411
  667SOL    HW1 2900   1.454   4.802   3.407
  667SOL    HW2 2901   1.540   4.910   3.319
  668SOL     OW 2902   4.929   6.469   5.754
  668SOL    HW1 2903   4.860   6.420   5.702
  668SOL    HW2 2904   5.016   6.419   5.750
  669SOL     OW 2905   4.224   0.681   2.841
  669SOL    HW1 2906   4.242   0.601   2.783
  669SOL    HW2 2907   4.198   0.650   2.932
  670SOL     OW 2908   3.300   2.531   1.631
  670SOL    HW1 2909   3.310   2.622   1.673
  670SOL    HW2 2910   3.373   2.471   1.663
  671SOL     OW 2911   2.138   6.852   0.565
  671SOL    HW1 2912   2.186   6.775   0.608
  671SOL    HW2 2913   2.101   6.822   0.477
  672SOL     OW 2914   0.336   5.584   2.113
  672SOL    HW1 2915   0.341   5.487   2.092
  672SOL    HW2 2916   0.428   5.621   2.124
  673SOL     OW 2917   6.964   6.815   1.478
  673SOL    HW1 2918   6.980   6.913   1.490
  673SOL    HW2 2919   6.897   6.801   1.406
  674SOL     OW 2920   1.271   1.603   5.206
  674SOL    HW1 2921   1.189   1.551   5.183
  674SOL    HW2 2922   1.348   1.540   5.220
  675SOL     OW 2923   0.474   1.003   2.731
  675SOL    HW1 2924   0.563   1.024   2.692
  675SOL    HW2 2925   0.450   1.072   2.799
  676SOL     OW 2926   3.278   5.756   2.445
  676SOL    HW1 2927   3.357   5.755   2.507
  676SOL    HW2 2928   3.215   5.828   2.474
  677SOL     OW 2929   5.395   1.747   0.652
  677SOL    HW1 2930   5.431   1.783   0.739
  677SOL    HW2 2931   5.344   1.819   0.605
  678SOL     OW 2932   2.540   0.383   5.239
  678SOL    HW1 2933   2.617   0.325   5.267
  678SOL    HW2 2934   2.490   0.338   5.165
  679SOL     OW 2935   4.504   2.265   3.401
  679SOL    HW1 2936   4.487   2.230   3.309
  679SOL    HW2 2937   4.439   2.224   3.465
  680SOL     OW 2938   5.507   5.324   5.394
  680SOL    HW1 2939   5.542   5.394   5.457
  680SOL    HW2 2940   5.408   5.323   5.397
  681SOL     OW 2941   4.925   4.586   1.730
  681SOL    HW1 2942   4.904   4.488   1.721
  681SOL    HW2 2943   5.005   4.608   1.675
  682SOL     OW 2944   6.521   1.153   1.407
  682SOL    HW1 2945   6.579   1.167   1.327
  682SOL    HW2 2946   6.464   1.072   1.393
  683SOL     OW 2947   4.839   3.268   0.428
  683SOL    HW1 2948   4.845   3.174   0.394
  683SOL    HW2 2949   4.763   3.275   0.493
  684SOL     OW 2950   6.516   0.969   0.575
  684SOL    HW1 2951   6.514   0.998   0.479
  684SOL    HW2 2952   6.611   0.958   0.604
  685SOL     OW 2953   4.246   1.481   3.573
  685SOL    HW1 2954   4.162   1.508   3.525
  685SOL    HW2 2955   4.231   1.488   3.672
  686SOL     OW 2956   5.158   2.596   3.902
  686SOL    HW1 2957   5.075   2.594   3.958
  686SOL    HW2 2958   5.226   2.533   3.938
  687SOL     OW 2959   0.273   2.197   4.825
  687SOL    HW1 2960   0.294   2.157   4.914
  687SOL    HW2 2961   0.228   2.285   4.837
  688SOL     OW 2962   0.091   1.503   0.189
  688SOL    HW1 2963   0.135   1.494   0.100
  688SOL    HW2 2964   7.017   1.537   0.176
  689SOL     OW 2965   0.894   5.041   6.225
  689SOL    HW1 2966   0.796   5.022   6.232
  689SOL    HW2 2967   0.946   4.958   6.243
  690SOL     OW 2968   0.377   3.756   2.705
  690SOL    HW1 2969   0.382   3.711   2.794
  690SOL    HW2 2970   0.298   3.817   2.703
  691SOL     OW 2971   2.557   0.374   0.649
  691SOL    HW1 2972   2.551   0.443   0.577
  691SOL    HW2 2973   2.595   0.289   0.610
  692SOL     OW 2974   3.715   0.830   3.679
  692SOL    HW1 2975   3.690   0.746   3.631
  692SOL    HW2 2976   3.771   0.808   3.759
  693SOL     OW 2977   5.650   0.554   4.148
  693SOL    HW1 2978   5.741   0.560   4.106
  693SOL    HW2 2979   5.634   0.461   4.180
  694SOL     OW 2980   4.419   6.488   3.766
  694SOL    HW1 2981   4.419   6.550   3.844
  694SOL    HW2 2982   4.454   6.536   3.685
  695SOL     OW 2983   4.862   6.500   4.254
  695SOL    HW1 2984   4.869   6.454   4.165
  695SOL    HW2 2985   4.769   6.491   4.289
  696SOL     OW 2986   4.742   4.717   3.187
  696SOL    HW1 2987   4.796   4.632   3.181
  696SOL    HW2 2988   4.755   4.770   3.103
  697SOL     OW 2989   1.254   3.915   3.603
  697SOL    HW1 2990   1.202   3.993   3.568
  697SOL    HW2 2991   1.214   3.885   3.689
  698SOL     OW 2992   4.369   6.580   1.014
  698SOL    HW1 2993   4.413   6.493   1.038
  698SOL    HW2 2994   4.275   6.563   0.987
  699SOL     OW 2995   2.091   3.757   6.752
  699SOL    HW1 2996   2.008   3.717   6.789
  699SOL    HW2 2997   2.078   3.855   6.737
  700SOL     OW 2998   2.646   0.662   2.046
  700SOL    HW1 2999   2.720   0.704   2.099
  700SOL    HW2 3000   2.655   0.688   1.950
  701SOL     OW 3001   6.585   3.755   6.592
  701SOL    HW1 3002   6.666   3.705   6.562
  701SOL    HW2 3003   6.562   3.826   6.526
  702SOL     OW 3004   1.655   6.447   5.015
  702SOL    HW1 3005   1.635   6.545   5.024
  702SOL    HW2 3006   1.667   6.408   5.106
  703SOL     OW 3007   3.601   3.179   6.687
  703SOL    HW1 3008   3.551   3.207   6.605
  703SOL    HW2 3009   3.593   3.249   6.757
  704SOL     OW 3010   1.582   2.739   0.195
  704SOL    HW1 3011   1.584   2.698   0.104
  704SOL    HW2 3012   1.487   2.742   0.228
  705SOL     OW 3013   5.940   5.023   2.946
  705SOL    HW1 3014   5.961   5.089   2.874
  705SOL    HW2 3015   5.926   5.071   3.032
  706SOL     OW 3016   4.414   2.367   5.380
  706SOL    HW1 3017   4.443   2.462   5.374
  706SOL    HW2 3018   4.426   2.335   5.474
  707SOL     OW 3019   4.202   4.701   3.122
  707SOL    HW1 3020   4.291   4.659   3.101
  707SOL    HW2 3021   4.185   4.697   3.220
  708SOL     OW 3022   3.644   0.369   2.172
  708SOL    HW1 3023   3.731   0.397   2.133
  708SOL    HW2 3024   3.659   0.319   2.257
  709SOL     OW 3025   0.378   5.613   0.729
  709SOL    HW1 3026   0.404   5.652   0.817
  709SOL    HW2 3027   0.366   5.686   0.662
  710SOL     OW 3028   3.355   2.575   1.362
  710SOL    HW1 3029   3.315   2.510   1.297
  710SOL    HW2 3030   3.323   2.552   1.454
  711SOL     OW 3031   7.000   3.098   5.783
  711SOL    HW1 3032   6.988   3.141   5.872
  711SOL    HW2 3033   6.925   3.126   5.722
  712SOL     OW 3034   4.135   1.985   1.156
  712SOL    HW1 3035   4.214   1.992   1.217
  712SOL    HW2 3036   4.056   2.030   1.198
  713SOL     OW 3037   3.969   2.712   6.312
  713SOL    HW1 3038   3.944   2.727   6.217
  713SOL    HW2 3039   3.906   2.762   6.372
  714SOL     OW 3040   0.294   4.414   3.422
  714SOL    HW1 3041   0.211   4.436   3.372
  714SOL    HW2 3042   0.355   4.360   3.363
  715SOL     OW 3043   4.924   6.231   6.838
  715SOL    HW1 3044   4.827   6.207   6.845
  715SOL    HW2 3045   4.975   6.154   6.800
  716SOL     OW 3046   0.517   0.927   2.321
  716SOL    HW1 3047   0.522   0.919   2.222
  716SOL    HW2 3048   0.422   0.916   2.351
  717SOL     OW 3049   6.577   4.364   3.790
  717SOL    HW1 3050   6.574   4.310   3.873
  717SOL    HW2 3051   6.673   4.380   3.765
  718SOL     OW 3052   4.357   3.451   6.122
  718SOL    HW1 3053   4.351   3.394   6.040
  718SOL    HW2 3054   4.377   3.545   6.096
  719SOL     OW 3055   6.765   0.676   2.762
  719SOL    HW1 3056   6.690   0.622   2.800
  719SOL    HW2 3057   6.851   0.628   2.775
  720SOL     OW 3058   2.293   0.477   5.991
  720SOL    HW1 3059   2.329   0.388   5.966
  720SOL    HW2 3060   2.205   0.467   6.036
  721SOL     OW 3061   2.735   2.004   2.512
  721SOL    HW1 3062   2.678   1.987   2.593
  721SOL    HW2 3063   2.765   1.917   2.474
  722SOL     OW 3064   2.721   0.576   5.243
  722SOL    HW1 3065   2.648   0.509   5.227
  722SOL    HW2 3066   2.713   0.651   5.178
  723SOL     OW 3067   1.313   4.749   3.725
  723SOL    HW1 3068   1.310   4.708   3.634
  723SOL    HW2 3069   1.397   4.721   3.771
  724SOL     OW 3070   1.150   2.012   4.043
  724SOL    HW1 3071   1.126   2.097   3.997
  724SOL    HW2 3072   1.090   1.998   4.122
  725SOL     OW 3073   1.965   5.316   1.995
  725SOL    HW1 3074   1.918   5.319   2.084
  725SOL    HW2 3075   1.926   5.243   1.940
  726SOL     OW 3076   3.644   4.333   1.325
  726SOL    HW1 3077   3.681   4.307   1.236
  726SOL    HW2 3078   3.618   4.430   1.324
  727SOL     OW 3079   6.393   4.415   5.677
  727SOL    HW1 3080   6.416   4.321   5.703
  727SOL    HW2 3081   6.447   4.441   5.597
  728SOL     OW 3082   6.129   2.699   3.396
  728SOL    HW1 3083   6.124   2.601   3.417
  728SOL    HW2 3084   6.052   2.746   3.438
  729SOL     OW 3085   0.405   2.014   1.383
  729SOL    HW1 3086   0.400   2.068   1.467
  729SOL    HW2 3087   0.500   2.006   1.355
  730SOL     OW 3088   6.488   6.869   4.189
  730SOL    HW1 3089   6.406   6.916   4.155
  730SOL    HW2 3090   6.544   6.839   4.113
  731SOL     OW 3091   4.496   5.114   6.717
  731SOL    HW1 3092   4.557   5.192   6.706
  731SOL    HW2 3093   4.445   5.099   6.632
  732SOL     OW 3094   5.331   2.676   1.648
  732SOL    HW1 3095   5.354   2.702   1.555
  732SOL    HW2 3096   5.240   2.711   1.671
  733SOL     OW 3097   5.398   0.380   4.519
  733SOL    HW1 3098   5.319   0.325   4.548
  733SOL    HW2 3099   5.392   0.471   4.562
  734SOL     OW 3100   6.065   4.556   2.932
  734SOL    HW1 3101   6.100   4.649   2.922
  734SOL    HW2 3102   6.111   4.510   3.008
  735SOL     OW 3103   4.118   1.701   0.206
  735SOL    HW1 3104   4.149   1.726   0.297
  735SOL    HW2 3105   4.022   1.729   0.195
  736SOL     OW 3106   0.173   2.127   3.640
  736SOL    HW1 3107   0.204   2.203   3.698
  736SOL    HW2 3108   0.251   2.087   3.593
  737SOL     OW 3109   5.462   2.030   5.298
  737SOL    HW1 3110   5.533   1.972   5.339
  737SOL    HW2 3111   5.416   2.082   5.370
  738SOL     OW 3112   2.702   3.792   1.329
  738SOL    HW1 3113   2.670   3.770   1.237
  738SOL    HW2 3114   2.789   3.746   1.346
  739SOL     OW 3115   5.326   0.855   4.751
  739SOL    HW1 3116   5.267   0.811   4.819
  739SOL    HW2 3117   5.333   0.953   4.771
  740SOL     OW 3118   6.028   1.437   1.552
  740SOL    HW1 3119   6.066   1.473   1.466
  740SOL    HW2 3120   5.936   1.474   1.566
  741SOL     OW 3121   1.881   0.131   3.143
  741SOL    HW1 3122   1.853   0.212   3.194
  741SOL    HW2 3123   1.980   0.132   3.130
  742SOL     OW 3124   2.415   6.583   2.143
  742SOL    HW1 3125   2.430   6.637   2.225
  742SOL    HW2 3126   2.317   6.580   2.122
  743SOL     OW 3127   1.048   5.297   3.597
  743SOL    HW1 3128   1.029   5.346   3.682
  743SOL    HW2 3129   1.034   5.199   3.611
  744SOL     OW 3130   5.910   0.436   1.383
  744SOL    HW1 3131   5.886   0.418   1.288
  744SOL    HW2 3132   5.883   0.530   1.407
  745SOL     OW 3133   1.579   5.418   4.968
  745SOL    HW1 3134   1.562   5.508   5.008
  745SOL    HW2 3135   1.514   5.401   4.894
  746SOL     OW 3136   6.341   4.349   6.441
  746SOL    HW1 3137   6.297   4.438   6.456
  746SOL    HW2 3138   6.440   4.363   6.430
  747SOL     OW 3139   3.623   6.633   4.252
  747SOL    HW1 3140   3.712   6.678   4.249
  747SOL    HW2 3141   3.631   6.545   4.298
  748SOL     OW 3142   4.003   5.117   2.384
  748SOL    HW1 3143   3.958   5.041   2.338
  748SOL    HW2 3144   4.064   5.082   2.455
  749SOL     OW 3145   5.883   3.480   4.129
  749SOL    HW1 3146   5.785   3.463   4.144
  749SOL    HW2 3147   5.902   3.482   4.031
  750SOL     OW 3148   2.568   1.220   1.350
  750SOL    HW1 3149   2.469   1.228   1.336
  750SOL    HW2 3150   2.589   1.128   1.381
  751SOL     OW 3151   4.642   1.658   6.829
  751SOL    HW1 3152   4.641   1.728   6.757
  751SOL    HW2 3153   4.672   1.571   6.790
  752SOL     OW 3154   3.032   1.666   1.407
  752SOL    HW1 3155   2.958   1.721   1.446
  752SOL    HW2 3156   3.118   1.717   1.412
  753SOL     OW 3157   0.989   3.669   5.979
  753SOL    HW1 3158   0.997   3.704   6.072
  753SOL    HW2 3159   1.073   3.689   5.929
  754SOL     OW 3160   4.764   2.071   5.630
  754SOL    HW1 3161   4.764   2.025   5.542
  754SOL    HW2 3162   4.689   2.036   5.686
  755SOL     OW 3163   1.689   4.560   4.767
  755SOL    HW1 3164   1.688   4.568   4.668
  755SOL    HW2 3165   1.783   4.555   4.800
  756SOL     OW 3166   2.935   6.235   6.257
  756SOL    HW1 3167   2.996   6.302   6.215
  756SOL    HW2 3168   2.922   6.257   6.353
  757SOL     OW 3169   0.350   6.961   3.993
  757SOL    HW1 3170   0.434   7.001   3.957
  757SOL    HW2 3171   0.311   0.002   4.063
  758SOL     OW 3172   3.793   0.756   3.241
  758SOL    HW1 3173   3.693   0.755   3.250
  758SOL    HW2 3174   3.825   0.667   3.211
  759SOL     OW 3175   0.822   2.595   2.042
  759SOL    HW1 3176   0.782   2.528   1.979
  759SOL    HW2 3177   0.768   2.599   2.126
  760SOL     OW 3178   6.582   6.572   4.004
  760SOL    HW1 3179   6.489   6.548   3.975
  760SOL    HW2 3180   6.607   6.661   3.966
  761SOL     OW 3181   5.676   3.811   6.049
  761SOL    HW1 3182   5.746   3.867   6.093
  761SOL    HW2 3183   5.687   3.716   6.078
  762SOL     OW 3184   2.582   0.255   4.849
  762SOL    HW1 3185   2.590   0.354   4.853
  762SOL    HW2 3186   2.545   0.227   4.761
  763SOL     OW 3187   3.551   5.614   6.410
  763SOL    HW1 3188   3.614   5.550   6.366
  763SOL    HW2 3189   3.517   5.680   6.344
  764SOL     OW 3190   5.546   0.887   5.745
  764SOL    HW1 3191   5.506   0.890   5.654
  764SOL    HW2 3192   5.529   0.798   5.786
  765SOL     OW 3193   1.468   5.710   1.139
  765SOL    HW1 3194   1.475   5.791   1.198
  765SOL    HW2 3195   1.559   5.679   1.114
  766SOL     OW 3196   2.615   2.009   6.000
  766SOL    HW1 3197   2.689   1.942   6.010
  766SOL    HW2 3198   2.621   2.051   5.909
  767SOL     OW 3199   6.330   5.975   3.457
  767SOL    HW1 3200   6.332   5.992   3.556
  767SOL    HW2 3201   6.419   5.996   3.418
  768SOL     OW 3202   2.082   5.367   2.625
  768SOL    HW1 3203   2.000   5.310   2.630
  768SOL    HW2 3204   2.079   5.424   2.543
  769SOL     OW 3205   2.519   1.023   5.419
  769SOL    HW1 3206   2.576   1.036   5.500
  769SOL    HW2 3207   2.482   0.930   5.419
  770SOL     OW 3208   1.906   5.210   3.503
  770SOL    HW1 3209   1.837   5.146   3.470
  770SOL    HW2 3210   1.868   5.265   3.578
  771SOL     OW 3211   1.283   5.218   2.729
  771SOL    HW1 3212   1.203   5.159   2.722
  771SOL    HW2 3213   1.272   5.280   2.806
  772SOL     OW 3214   5.632   5.015   6.100
  772SOL    HW1 3215   5.594   4.984   6.013
  772SOL    HW2 3216   5.605   5.109   6.117
  773SOL     OW 3217   0.020   4.223   3.876
  773SOL    HW1 3218   0.061   4.143   3.832
  773SOL    HW2 3219   0.080   4.255   3.950
  774SOL     OW 3220   1.893   1.224   1.514
  774SOL    HW1 3221   1.906   1.320   1.536
  774SOL    HW2 3222   1.822   1.214   1.444
  775SOL     OW 3223   2.404   2.241   4.236
  775SOL    HW1 3224   2.423   2.235   4.334
  775SOL    HW2 3225   2.488   2.220   4.185
  776SOL     OW 3226   0.213   0.201   5.210
  776SOL    HW1 3227   0.305   0.187   5.174
  776SOL    HW2 3228   0.156   0.123   5.184
  777SOL     OW 3229   1.524   4.905   1.114
  777SOL    HW1 3230   1.515   4.944   1.205
  777SOL    HW2 3231   1.619   4.908   1.085
  778SOL     OW 3232   2.519   0.441   1.826
  778SOL    HW1 3233   2.457   0.443   1.748
  778SOL    HW2 3234   2.491   0.508   1.894
  779SOL     OW 3235   6.845   2.566   2.558
  779SOL    HW1 3236   6.898   2.555   2.642
  779SOL    HW2 3237   6.807   2.658   2.555
  780SOL     OW 3238   0.767   2.745   4.278
  780SOL    HW1 3239   0.798   2.700   4.194
  780SOL    HW2 3240   0.725   2.833   4.255
  781SOL     OW 3241   6.069   6.734   0.629
  781SOL    HW1 3242   5.976   6.770   0.635
  781SOL    HW2 3243   6.067   6.635   0.638
  782SOL     OW 3244   1.235   3.522   6.002
  782SOL    HW1 3245   1.327   3.554   6.025
  782SOL    HW2 3246   1.199   3.466   6.078
  783SOL     OW 3247   5.187   4.876   1.888
  783SOL    HW1 3248   5.214   4.948   1.825
  783SOL    HW2 3249   5.253   4.801   1.885
  784SOL     OW 3250   4.286   4.988   0.450
  784SOL    HW1 3251   4.219   4.915   0.439
  784SOL    HW2 3252   4.367   4.952   0.495
  785SOL     OW 3253   0.469   2.068   3.211
  785SOL    HW1 3254   0.444   1.971   3.207
  785SOL    HW2 3255   0.385   2.124   3.210
  786SOL     OW 3256   0.826   6.913   3.347
  786SOL    HW1 3257   0.845   7.004   3.310
  786SOL    HW2 3258   0.776   6.923   3.433
  787SOL     OW 3259   1.355   0.445   0.116
  787SOL    HW1 3260   1.435   0.469   0.171
  787SOL    HW2 3261   1.385   0.411   0.026
  788SOL     OW 3262   4.028   1.281   0.452
  788SOL    HW1 3263   3.962   1.334   0.506
  788SOL    HW2 3264   4.002   1.282   0.356
  789SOL     OW 3265   4.170   4.425   1.617
  789SOL    HW1 3266   4.248   4.451   1.675
  789SOL    HW2 3267   4.168   4.485   1.536
  790SOL     OW 3268   1.707   1.678   2.824
  790SOL    HW1 3269   1.740   1.687   2.918
  790SOL    HW2 3270   1.646   1.600   2.817
  791SOL     OW 3271   1.548   5.940   4.779
  791SOL    HW1 3272   1.638   5.970   4.809
  791SOL    HW2 3273   1.479   6.008   4.807
  792SOL     OW 3274   0.702   0.745   1.655
  792SOL    HW1 3275   0.779   0.774   1.599
  792SOL    HW2 3276   0.621   0.732   1.598
  793SOL     OW 3277   5.297   5.370   4.326
  793SOL    HW1 3278   5.390   5.375   4.291
  793SOL    HW2 3279   5.287   5.290   4.386
  794SOL     OW 3280   2.750   3.846   5.933
  794SOL    HW1 3281   2.669   3.808   5.977
  794SOL    HW2 3282   2.814   3.772   5.911
  795SOL     OW 3283   4.094   0.089   4.757
  795SOL    HW1 3284   4.136   0.053   4.673
  795SOL    HW2 3285   4.005   0.129   4.734
  796SOL     OW 3286   1.164   2.217   6.368
  796SOL    HW1 3287   1.136   2.312   6.355
  796SOL    HW2 3288   1.257   2.205   6.335
  797SOL     OW 3289   5.267   0.876   1.210
  797SOL    HW1 3290   5.179   0.843   1.175
  797SOL    HW2 3291   5.282   0.970   1.177
  798SOL     OW 3292   3.419   6.471   1.973
  798SOL    HW1 3293   3.498   6.431   2.019
  798SOL    HW2 3294   3.386   6.550   2.025
  799SOL     OW 3295   7.013   6.944   6.138
  799SOL    HW1 3296   0.013   0.015   6.100
  799SOL    HW2 3297   0.078   6.905   6.175
  800SOL     OW 3298   5.597   1.274   2.279
  800SOL    HW1 3299   5.617   1.208   2.206
  800SOL    HW2 3300   5.605   1.228   2.367
  801SOL     OW 3301   2.306   4.350   4.482
  801SOL    HW1 3302   2.265   4.323   4.569
  801SOL    HW2 3303   2.318   4.269   4.425
  802SOL     OW 3304   2.897   1.643   0.989
  802SOL    HW1 3305   2.821   1.621   0.928
  802SOL    HW2 3306   2.954   1.714   0.947
  803SOL     OW 3307   1.514   0.371   5.964
  803SOL    HW1 3308   1.476   0.303   5.901
  803SOL    HW2 3309   1.458   0.453   5.961
  804SOL     OW 3310   5.854   6.761   0.918
  804SOL    HW1 3311   5.826   6.778   0.823
  804SOL    HW2 3312   5.929   6.696   0.920
  805SOL     OW 3313   2.665   1.208   4.220
  805SOL    HW1 3314   2.677   1.158   4.305
  805SOL    HW2 3315   2.659   1.306   4.239
  806SOL     OW 3316   5.453   0.955   5.131
  806SOL    HW1 3317   5.355   0.943   5.116
  806SOL    HW2 3318   5.496   0.985   5.046
  807SOL     OW 3319   0.385   0.552   5.074
  807SOL    HW1 3320   0.421   0.463   5.099
  807SOL    HW2 3321   0.285   0.549   5.075
  808SOL     OW 3322   3.823   4.358   6.502
  808SOL    HW1 3323   3.763   4.305   6.442
  808SOL    HW2 3324   3.848   4.302   6.581
  809SOL     OW 3325   0.790   5.082   0.750
  809SOL    HW1 3326   0.749   5.120   0.668
  809SOL    HW2 3327   0.777   5.145   0.827
  810SOL     OW 3328   3.707   4.293   0.332
  810SOL    HW1 3329   3.804   4.276   0.345
  810SOL    HW2 3330   3.664   4.213   0.289
  811SOL     OW 3331   5.439   6.218   5.327
  811SOL    HW1 3332   5.355   6.272   5.331
  811SOL    HW2 3333   5.416   6.122   5.312
  812SOL     OW 3334   0.018   0.659   2.902
  812SOL    HW1 3335   6.988   0.630   2.984
  812SOL    HW2 3336   0.002   0.757   2.887
  813SOL     OW 3337   3.959   6.589   4.201
  813SOL    HW1 3338   3.899   6.647   4.146
  813SOL    HW2 3339   3.937   6.493   4.185
  814SOL     OW 3340   6.355   5.908   2.744
  814SOL    HW1 3341   6.272   5.963   2.744
  814SOL    HW2 3342   6.336   5.820   2.700
  815SOL     OW 3343   6.711   3.601   3.584
  815SOL    HW1 3344   6.639   3.651   3.632
  815SOL    HW2 3345   6.743   3.654   3.506
  816SOL     OW 3346   6.024   5.784   0.679
  816SOL    HW1 3347   6.117   5.748   0.678
  816SOL    HW2 3348   5.981   5.762   0.767
  817SOL     OW 3349   1.437   5.600   1.417
  817SOL    HW1 3350   1.364   5.538   1.445
  817SOL    HW2 3351   1.427   5.624   1.321
  818SOL     OW 3352   6.050   2.341   3.440
  818SOL    HW1 3353   6.123   2.286   3.480
  818SOL    HW2 3354   6.004   2.393   3.511
  819SOL     OW 3355   6.020   3.003   1.626
  819SOL    HW1 3356   6.081   3.054   1.688
  819SOL    HW2 3357   5.926   3.029   1.644
  820SOL     OW 3358   3.149   2.170   4.765
  820SOL    HW1 3359   3.151   2.223   4.850
  820SOL    HW2 3360   3.108   2.081   4.782
  821SOL     OW 3361   6.668   4.062   6.964
  821SOL    HW1 3362   6.640   4.122   0.020
  821SOL    HW2 3363   6.591   4.051   6.900
  822SOL     OW 3364   0.492   3.665   3.345
  822SOL    HW1 3365   0.410   3.684   3.290
  822SOL    HW2 3366   0.465   3.645   3.439
  823SOL     OW 3367   6.273   4.170   6.216
  823SOL    HW1 3368   6.273   4.082   6.264
  823SOL    HW2 3369   6.264   4.244   6.283
  824SOL     OW 3370   4.146   1.022   6.163
  824SOL    HW1 3371   4.233   0.976   6.181
  824SOL    HW2 3372   4.079   0.994   6.232
  825SOL     OW 3373   0.036   5.863   1.440
  825SOL    HW1 3374   0.040   5.768   1.409
  825SOL    HW2 3375   6.962   5.883   1.471
  826SOL     OW 3376   3.491   2.012   5.706
  826SOL    HW1 3377   3.474   1.962   5.791
  826SOL    HW2 3378   3.543   2.095   5.726
  827SOL     OW 3379   2.528   4.366   5.289
  827SOL    HW1 3380   2.539   4.447   5.231
  827SOL    HW2 3381   2.445   4.317   5.262
  828SOL     OW 3382   5.241   6.356   6.316
  828SOL    HW1 3383   5.340   6.366   6.315
  828SOL    HW2 3384   5.207   6.346   6.223
  829SOL     OW 3385   4.019   3.641   2.125
  829SOL    HW1 3386   4.073   3.606   2.202
  829SOL    HW2 3387   4.065   3.719   2.083
  830SOL     OW 3388   5.331   5.245   6.868
  830SOL    HW1 3389   5.375   5.217   6.953
  830SOL    HW2 3390   5.391   5.224   6.791
  831SOL     OW 3391   6.079   6.784   6.987
  831SOL    HW1 3392   6.124   6.696   7.002
  831SOL    HW2 3393   6.116   6.827   6.905
  832SOL     OW 3394   4.218   1.252   2.421
  832SOL    HW1 3395   4.184   1.312   2.493
  832SOL    HW2 3396   4.144   1.194   2.388
  833SOL     OW 3397   1.634   3.434   6.472
  833SOL    HW1 3398   1.642   3.511   6.409
  833SOL    HW2 3399   1.718   3.380   6.469
  834SOL     OW 3400   4.491   3.925   1.036
  834SOL    HW1 3401   4.433   3.944   0.957
  834SOL    HW2 3402   4.464   3.983   1.113
  835SOL     OW 3403   3.281   0.534   5.712
  835SOL    HW1 3404   3.327   0.585   5.785
  835SOL    HW2 3405   3.331   0.451   5.692
  836SOL     OW 3406   3.771   0.131   4.854
  836SOL    HW1 3407   3.738   0.225   4.866
  836SOL    HW2 3408   3.693   0.069   4.846
  837SOL     OW 3409   6.726   0.097   0.958
  837SOL    HW1 3410   6.781   0.154   1.020
  837SOL    HW2 3411   6.716   0.143   0.870
  838SOL     OW 3412   2.295   0.363   4.455
  838SOL    HW1 3413   2.297   0.298   4.531
  838SOL    HW2 3414   2.340   0.322   4.375
  839SOL     OW 3415   1.757   1.666   1.850
  839SOL    HW1 3416   1.843   1.645   1.803
  839SOL    HW2 3417   1.714   1.581   1.879
  840SOL     OW 3418   6.112   6.160   6.748
  840SOL    HW1 3419   6.122   6.157   6.848
  840SOL    HW2 3420   6.103   6.255   6.718
  841SOL     OW 3421   3.192   5.099   6.027
  841SOL    HW1 3422   3.274   5.107   6.083
  841SOL    HW2 3423   3.180   5.183   5.974
  842SOL     OW 3424   3.604   0.221   5.251
  842SOL    HW1 3425   3.673   0.170   5.200
  842SOL    HW2 3426   3.513   0.198   5.217
  843SOL     OW 3427   0.810   1.433   1.687
  843SOL    HW1 3428   0.714   1.460   1.701
  843SOL    HW2 3429   0.821   1.399   1.594
  844SOL     OW 3430   6.214   7.012   0.115
  844SOL    HW1 3431   6.195   6.925   0.068
  844SOL    HW2 3432   6.221   0.066   0.048
  845SOL     OW 3433   4.860   3.618   3.637
  845SOL    HW1 3434   4.827   3.524   3.633
  845SOL    HW2 3435   4.879   3.643   3.732
  846SOL     OW 3436   2.199   1.146   5.700
  846SOL    HW1 3437   2.295   1.125   5.718
  846SOL    HW2 3438   2.146   1.134   5.783
  847SOL     OW 3439   1.658   3.700   1.068
  847SOL    HW1 3440   1.693   3.780   1.020
  847SOL    HW2 3441   1.694   3.698   1.161
  848SOL     OW 3442   6.963   6.715   5.970
  848SOL    HW1 3443   7.010   6.630   5.992
  848SOL    HW2 3444   6.970   6.778   6.048
  849SOL     OW 3445   6.419   4.059   6.811
  849SOL    HW1 3446   6.343   4.064   6.876
  849SOL    HW2 3447   6.384   4.070   6.718
  850SOL     OW 3448   4.981   1.207   4.597
  850SOL    HW1 3449   4.992   1.286   4.657
  850SOL    HW2 3450   4.945   1.236   4.509
  851SOL     OW 3451   0.135   2.758   1.151
  851SOL    HW1 3452   0.139   2.825   1.077
  851SOL    HW2 3453   0.094   2.673   1.116
  852SOL     OW 3454   1.085   3.946   0.677
  852SOL    HW1 3455   1.047   3.855   0.691
  852SOL    HW2 3456   1.054   3.982   0.590
  853SOL     OW 3457   0.931   4.823   1.105
  853SOL    HW1 3458   1.021   4.817   1.148
  853SOL    HW2 3459   0.908   4.920   1.092
  854SOL     OW 3460   5.099   5.254   0.602
  854SOL    HW1 3461   5.074   5.182   0.537
  854SOL    HW2 3462   5.076   5.223   0.695
  855SOL     OW 3463   6.791   0.308   1.732
  855SOL    HW1 3464   6.868   0.372   1.732
  855SOL    HW2 3465   6.707   0.358   1.752
  856SOL     OW 3466   1.149   1.943   6.979
  856SOL    HW1 3467   1.127   2.010   0.031
  856SOL    HW2 3468   1.065   1.912   6.934
  857SOL     OW 3469   6.070   4.908   1.834
  857SOL    HW1 3470   6.106   4.948   1.750
  857SOL    HW2 3471   6.067   4.808   1.826
  858SOL     OW 3472   2.953   4.074   1.132
  858SOL    HW1 3473   3.003   4.159   1.147
  858SOL    HW2 3474   2.855   4.089   1.145
  859SOL     OW 3475   5.889   0.008   5.031
  859SOL    HW1 3476   5.848   7.008   4.942
  859SOL    HW2 3477   5.843   6.972   5.101
  860SOL     OW 3478   6.452   2.830   0.464
  860SOL    HW1 3479   6.365   2.780   0.461
  860SOL    HW2 3480   6.476   2.847   0.560
  861SOL     OW 3481   2.480   5.116   4.112
  861SOL    HW1 3482   2.557   5.061   4.078
  861SOL    HW2 3483   2.506   5.162   4.197
  862SOL     OW 3484   1.135   4.140   3.506
  862SOL    HW1 3485   1.136   4.234   3.538
  862SOL    HW2 3486   1.049   4.120   3.460
  863SOL     OW 3487   5.900   0.863   6.945
  863SOL    HW1 3488   5.880   0.898   6.853
  863SOL    HW2 3489   5.956   0.781   6.938
  864SOL     OW 3490   3.991   5.516   3.997
  864SOL    HW1 3491   3.932   5.486   3.922
  864SOL    HW2 3492   4.037   5.601   3.971
  865SOL     OW 3493   1.391   6.581   6.177
  865SOL    HW1 3494   1.472   6.599   6.233
  865SOL    HW2 3495   1.367   6.484   6.184
  866SOL     OW 3496   2.312   1.202   1.176
  866SOL    HW1 3497   2.307   1.203   1.076
  866SOL    HW2 3498   2.281   1.114   1.210
  867SOL     OW 3499   5.118   3.784   0.288
  867SOL    HW1 3500   5.084   3.703   0.240
  867SOL    HW2 3501   5.215   3.798   0.267
  868SOL     OW 3502   6.296   1.263   0.861
  868SOL    HW1 3503   6.241   1.181   0.847
  868SOL    HW2 3504   6.297   1.286   0.959
  869SOL     OW 3505   0.149   4.383   2.936
  869SOL    HW1 3506   0.202   4.451   2.886
  869SOL    HW2 3507   0.108   4.317   2.872
  870SOL     OW 3508   3.817   3.442   0.019
  870SOL    HW1 3509   3.889   3.500   7.000
  870SOL    HW2 3510   3.790   3.477   0.109
  871SOL     OW 3511   4.788   2.394   2.769
  871SOL    HW1 3512   4.756   2.480   2.728
  871SOL    HW2 3513   4.715   2.354   2.824
  872SOL     OW 3514   5.718   3.301   3.741
  872SOL    HW1 3515   5.655   3.226   3.759
  872SOL    HW2 3516   5.770   3.281   3.658
  873SOL     OW 3517   5.917   6.390   5.399
  873SOL    HW1 3518   5.928   6.467   5.335
  873SOL    HW2 3519   5.824   6.355   5.393
  874SOL     OW 3520   0.266   3.718   6.333
  874SOL    HW1 3521   0.210   3.752   6.409
  874SOL    HW2 3522   0.314   3.635   6.361
  875SOL     OW 3523   5.231   4.517   0.490
  875SOL    HW1 3524   5.176   4.498   0.409
  875SOL    HW2 3525   5.172   4.547   0.565
  876SOL     OW 3526   1.063   4.756   2.253
  876SOL    HW1 3527   0.981   4.800   2.216
  876SOL    HW2 3528   1.144   4.787   2.203
  877SOL     OW 3529   3.600   4.696   5.768
  877SOL    HW1 3530   3.601   4.680   5.866
  877SOL    HW2 3531   3.686   4.664   5.728
  878SOL     OW 3532   4.107   5.937   4.608
  878SOL    HW1 3533   4.022   5.896   4.576
  878SOL    HW2 3534   4.149   5.989   4.534
  879SOL     OW 3535   4.142   1.692   1.300
  879SOL    HW1 3536   4.128   1.784   1.336
  879SOL    HW2 3537   4.058   1.639   1.310
  880SOL     OW 3538   2.878   3.842   4.859
  880SOL    HW1 3539   2.925   3.816   4.774
  880SOL    HW2 3540   2.809   3.911   4.838
  881SOL     OW 3541   5.859   3.469   5.827
  881SOL    HW1 3542   5.911   3.548   5.794
  881SOL    HW2 3543   5.762   3.494   5.833
  882SOL     OW 3544   1.065   2.561   4.165
  882SOL    HW1 3545   1.073   2.635   4.233
  882SOL    HW2 3546   1.144   2.565   4.104
  883SOL     OW 3547   3.762   0.688   0.416
  883SOL    HW1 3548   3.780   0.746   0.336
  883SOL    HW2 3549   3.812   0.602   0.408
  884SOL     OW 3550   6.934   4.235   6.992
  884SOL    HW1 3551   6.911   4.331   6.973
  884SOL    HW2 3552   6.876   4.176   6.936
  885SOL     OW 3553   4.264   6.706   5.371
  885SOL    HW1 3554   4.221   6.632   5.319
  885SOL    HW2 3555   4.194   6.759   5.418
  886SOL     OW 3556   4.344   0.489   0.675
  886SOL    HW1 3557   4.340   0.577   0.723
  886SOL    HW2 3558   4.309   0.417   0.734
  887SOL     OW 3559   4.001   5.847   3.678
  887SOL    HW1 3560   3.965   5.757   3.706
  887SOL    HW2 3561   3.926   5.913   3.675
  888SOL     OW 3562   6.782   6.128   3.527
  888SOL    HW1 3563   6.876   6.096   3.511
  888SOL    HW2 3564   6.720   6.086   3.461
  889SOL     OW 3565   6.777   1.356   6.480
  889SOL    HW1 3566   6.759   1.431   6.544
  889SOL    HW2 3567   6.777   1.392   6.386
  890SOL     OW 3568   3.060   5.189   2.828
  890SOL    HW1 3569   3.050   5.244   2.911
  890SOL    HW2 3570   2.985   5.124   2.821
  891SOL     OW 3571   6.395   3.355   0.807
  891SOL    HW1 3572   6.362   3.424   0.871
  891SOL    HW2 3573   6.409   3.396   0.717
  892SOL     OW 3574   3.507   3.116   4.964
  892SOL    HW1 3575   3.479   3.161   5.049
  892SOL    HW2 3576   3.442   3.044   4.941
  893SOL     OW 3577   1.874   6.649   2.572
  893SOL    HW1 3578   1.780   6.680   2.585
  893SOL    HW2 3579   1.913   6.696   2.492
  894SOL     OW 3580   1.296   2.746   2.905
  894SOL    HW1 3581   1.295   2.753   2.805
  894SOL    HW2 3582   1.211   2.704   2.937
  895SOL     OW 3583   1.148   5.154   4.023
  895SOL    HW1 3584   1.087   5.076   4.011
  895SOL    HW2 3585   1.094   5.238   4.031
  896SOL     OW 3586   6.096   5.288   1.161
  896SOL    HW1 3587   6.047   5.244   1.236
  896SOL    HW2 3588   6.036   5.353   1.115
  897SOL     OW 3589   3.910   0.363   6.597
  897SOL    HW1 3590   3.867   0.448   6.567
  897SOL    HW2 3591   3.891   0.348   6.694
  898SOL     OW 3592   4.082   6.240   2.339
  898SOL    HW1 3593   4.133   6.173   2.284
  898SOL    HW2 3594   4.005   6.275   2.286
  899SOL     OW 3595   0.240   5.991   0.165
  899SOL    HW1 3596   0.285   6.007   0.252
  899SOL    HW2 3597   0.156   5.939   0.179
  900SOL     OW 3598   4.828   6.349   6.534
  900SOL    HW1 3599   4.903   6.378   6.594
  900SOL    HW2 3600   4.858   6.355   6.439
  901SOL     OW 3601   0.998   0.963   4.041
  901SOL    HW1 3602   1.014   1.036   3.975
  901SOL    HW2 3603   1.080   0.951   4.098
  902SOL     OW 3604   1.156   3.009   1.148
  902SOL    HW1 3605   1.238   3.067   1.149
  902SOL    HW2 3606   1.144   2.966   1.237
  903SOL     OW 3607   0.543   3.470   0.106
  903SOL    HW1 3608   0.593   3.388   0.134
  903SOL    HW2 3609   0.446   3.448   0.096
  904SOL     OW 3610   2.192   2.996   2.659
  904SOL    HW1 3611   2.250   2.933   2.607
  904SOL    HW2 3612   2.111   3.020   2.605
  905SOL     OW 3613   5.150   4.430   5.974
  905SOL    HW1 3614   5.082   4.371   5.931
  905SOL    HW2 3615   5.242   4.401   5.946
  906SOL     OW 3616   0.688   2.378   6.785
  906SOL    HW1 3617   0.657   2.445   6.852
  906SOL    HW2 3618   0.650   2.288   6.808
  907SOL     OW 3619   5.083   2.456   1.215
  907SOL    HW1 3620   5.139   2.377   1.192
  907SOL    HW2 3621   4.988   2.427   1.228
  908SOL     OW 3622   2.313   4.804   3.099
  908SOL    HW1 3623   2.269   4.751   3.171
  908SOL    HW2 3624   2.351   4.888   3.137
  909SOL     OW 3625   3.892   5.727   2.198
  909SOL    HW1 3626   3.872   5.792   2.125
  909SOL    HW2 3627   3.853   5.760   2.284
  910SOL     OW 3628   3.421   1.103   1.024
  910SOL    HW1 3629   3.423   1.007   0.996
  910SOL    HW2 3630   3.327   1.136   1.025
  911SOL     OW 3631   0.772   5.998   6.473
  911SOL    HW1 3632   0.824   5.987   6.558
  911SOL    HW2 3633   0.789   6.089   6.435
  912SOL     OW 3634   4.968   0.812   3.416
  912SOL    HW1 3635   4.921   0.725   3.429
  912SOL    HW2 3636   5.031   0.827   3.493
  913SOL     OW 3637   2.555   0.916   3.957
  913SOL    HW1 3638   2.497   0.855   3.902
  913SOL    HW2 3639   2.508   0.939   4.042
  914SOL     OW 3640   2.833   6.519   5.163
  914SOL    HW1 3641   2.838   6.420   5.151
  914SOL    HW2 3642   2.766   6.557   5.099
  915SOL     OW 3643   6.833   3.156   0.987
  915SOL    HW1 3644   6.733   3.153   0.982
  915SOL    HW2 3645   6.871   3.161   0.895
  916SOL     OW 3646   2.117   3.272   2.819
  916SOL    HW1 3647   2.028   3.230   2.841
  916SOL    HW2 3648   2.165   3.214   2.754
  917SOL     OW 3649   6.988   0.107   2.153
  917SOL    HW1 3650   6.914   0.166   2.121
  917SOL    HW2 3651   0.052   0.125   2.099
  918SOL     OW 3652   3.512   0.490   1.489
  918SOL    HW1 3653   3.605   0.508   1.522
  918SOL    HW2 3654   3.446   0.534   1.549
  919SOL     OW 3655   6.689   6.989   3.303
  919SOL    HW1 3656   6.739   6.903   3.311
  919SOL    HW2 3657   6.716   0.031   3.378
  920SOL     OW 3658   2.497   4.710   2.701
  920SOL    HW1 3659   2.426   4.690   2.634
  920SOL    HW2 3660   2.492   4.806   2.727
  921SOL     OW 3661   4.033   5.520   3.457
  921SOL    HW1 3662   3.958   5.468   3.418
  921SOL    HW2 3663   4.085   5.463   3.520
  922SOL     OW 3664   2.969   3.386   4.716
  922SOL    HW1 3665   3.059   3.427   4.732
  922SOL    HW2 3666   2.935   3.346   4.802
  923SOL     OW 3667   2.440   3.986   5.869
  923SOL    HW1 3668   2.523   4.041   5.878
  923SOL    HW2 3669   2.465   3.893   5.844
  924SOL     OW 3670   6.393   3.137   2.863
  924SOL    HW1 3671   6.380   3.170   2.769
  924SOL    HW2 3672   6.326   3.065   2.882
  925SOL     OW 3673   0.045   2.219   6.819
  925SOL    HW1 3674   0.032   2.192   6.914
  925SOL    HW2 3675   6.981   2.264   6.785
  926SOL     OW 3676   6.352   0.958   1.046
  926SOL    HW1 3677   6.311   1.002   1.126
  926SOL    HW2 3678   6.307   0.991   0.963
  927SOL     OW 3679   5.591   4.009   3.020
  927SOL    HW1 3680   5.586   3.991   2.922
  927SOL    HW2 3681   5.665   3.954   3.060
  928SOL     OW 3682   1.261   6.337   0.195
  928SOL    HW1 3683   1.185   6.272   0.191
  928SOL    HW2 3684   1.306   6.340   0.106
  929SOL     OW 3685   0.622   0.140   0.083
  929SOL    HW1 3686   0.661   0.057   0.042
  929SOL    HW2 3687   0.549   0.175   0.025
  930SOL     OW 3688   5.088   6.264   4.800
  930SOL    HW1 3689   5.151   6.255   4.877
  930SOL    HW2 3690   5.073   6.175   4.758
  931SOL     OW 3691   5.686   1.362   4.856
  931SOL    HW1 3692   5.649   1.397   4.770
  931SOL    HW2 3693   5.769   1.310   4.838
  932SOL     OW 3694   3.117   0.438   3.994
  932SOL    HW1 3695   3.191   0.405   3.935
  932SOL    HW2 3696   3.153   0.451   4.087
  933SOL     OW 3697   2.020   5.905   3.630
  933SOL    HW1 3698   2.012   6.004   3.624
  933SOL    HW2 3699   2.109   5.876   3.596
  934SOL     OW 3700   1.790   6.825   6.759
  934SOL    HW1 3701   1.883   6.857   6.776
  934SOL    HW2 3702   1.728   6.904   6.752
  935SOL     OW 3703   5.041   4.273   3.753
  935SOL    HW1 3704   5.006   4.207   3.820
  935SOL    HW2 3705   5.106   4.228   3.692
  936SOL     OW 3706   0.364   0.727   6.403
  936SOL    HW1 3707   0.282   0.720   6.459
  936SOL    HW2 3708   0.402   0.636   6.387
  937SOL     OW 3709   5.329   1.738   5.645
  937SOL    HW1 3710   5.256   1.804   5.630
  937SOL    HW2 3711   5.333   1.715   5.742
  938SOL     OW 3712   5.919   5.158   6.097
  938SOL    HW1 3713   5.996   5.094   6.096
  938SOL    HW2 3714   5.853   5.130   6.166
  939SOL     OW 3715   6.942   6.745   4.690
  939SOL    HW1 3716   6.913   6.816   4.626
  939SOL    HW2 3717   6.946   6.657   4.643
  940SOL     OW 3718   1.465   3.667   1.297
  940SOL    HW1 3719   1.421   3.745   1.251
  940SOL    HW2 3720   1.530   3.702   1.365
  941SOL     OW 3721   5.349   1.196   6.474
  941SOL    HW1 3722   5.319   1.119   6.530
  941SOL    HW2 3723   5.340   1.281   6.527
  942SOL     OW 3724   5.669   0.287   3.040
  942SOL    HW1 3725   5.574   0.267   3.065
  942SOL    HW2 3726   5.727   0.208   3.062
  943SOL     OW 3727   1.955   3.422   3.698
  943SOL    HW1 3728   1.959   3.520   3.718
  943SOL    HW2 3729   2.031   3.397   3.638
  944SOL     OW 3730   0.319   4.848   6.012
  944SOL    HW1 3731   0.252   4.826   6.082
  944SOL    HW2 3732   0.401   4.886   6.056
  945SOL     OW 3733   6.599   3.274   6.139
  945SOL    HW1 3734   6.610   3.280   6.040
  945SOL    HW2 3735   6.678   3.314   6.185
  946SOL     OW 3736   5.315   3.790   5.468
  946SOL    HW1 3737   5.271   3.801   5.379
  946SOL    HW2 3738   5.279   3.709   5.514
  947SOL     OW 3739   3.910   3.005   3.385
  947SOL    HW1 3740   3.996   2.957   3.367
  947SOL    HW2 3741   3.925   3.077   3.453
  948SOL     OW 3742   4.521   0.871   2.867
  948SOL    HW1 3743   4.424   0.874   2.845
  948SOL    HW2 3744   4.563   0.959   2.847
  949SOL     OW 3745   1.526   5.787   0.340
  949SOL    HW1 3746   1.564   5.743   0.422
  949SOL    HW2 3747   1.444   5.738   0.311
  950SOL     OW 3748   4.817   5.429   2.163
  950SOL    HW1 3749   4.818   5.382   2.251
  950SOL    HW2 3750   4.828   5.528   2.177
  951SOL     OW 3751   1.565   0.555   4.290
  951SOL    HW1 3752   1.465   0.560   4.288
  951SOL    HW2 3753   1.600   0.622   4.355
  952SOL     OW 3754   4.286   2.047   3.385
  952SOL    HW1 3755   4.239   2.036   3.472
  952SOL    HW2 3756   4.251   2.127   3.336
  953SOL     OW 3757   5.534   5.342   4.199
  953SOL    HW1 3758   5.598   5.302   4.264
  953SOL    HW2 3759   5.528   5.284   4.118
  954SOL     OW 3760   3.967   5.857   1.341
  954SOL    HW1 3761   3.921   5.868   1.430
  954SOL    HW2 3762   3.904   5.885   1.268
  955SOL     OW 3763   0.221   4.027   1.998
  955SOL    HW1 3764   0.268   4.089   2.061
  955SOL    HW2 3765   0.289   3.978   1.943
  956SOL     OW 3766   6.638   0.089   2.033
  956SOL    HW1 3767   6.686   0.177   2.040
  956SOL    HW2 3768   6.546   0.104   1.997
  957SOL     OW 3769   5.963   3.381   3.829
  957SOL    HW1 3770   6.032   3.314   3.856
  957SOL    HW2 3771   5.889   3.336   3.780
  958SOL     OW 3772   4.029   1.518   1.575
  958SOL    HW1 3773   3.953   1.471   1.620
  958SOL    HW2 3774   4.115   1.494   1.620
  959SOL     OW 3775   3.838   6.038   3.669
  959SOL    HW1 3776   3.759   6.083   3.712
  959SOL    HW2 3777   3.909   6.106   3.652
  960SOL     OW 3778   0.871   6.504   2.578
  960SOL    HW1 3779   0.968   6.492   2.597
  960SOL    HW2 3780   0.852   6.472   2.485
  961SOL     OW 3781   4.154   6.118   3.299
  961SOL    HW1 3782   4.187   6.079   3.213
  961SOL    HW2 3783   4.146   6.045   3.367
  962SOL     OW 3784   0.347   1.416   5.460
  962SOL    HW1 3785   0.313   1.326   5.486
  962SOL    HW2 3786   0.288   1.487   5.500
  963SOL     OW 3787   5.319   1.490   6.615
  963SOL    HW1 3788   5.240   1.499   6.556
  963SOL    HW2 3789   5.388   1.558   6.591
  964SOL     OW 3790   5.440   4.839   0.138
  964SOL    HW1 3791   5.517   4.878   0.187
  964SOL    HW2 3792   5.387   4.780   0.199
  965SOL     OW 3793   5.380   1.970   1.791
  965SOL    HW1 3794   5.376   2.027   1.873
  965SOL    HW2 3795   5.417   2.023   1.715
  966SOL     OW 3796   5.789   3.243   2.058
  966SOL    HW1 3797   5.697   3.254   2.019
  966SOL    HW2 3798   5.785   3.179   2.134
  967SOL     OW 3799   2.691   4.283   1.438
  967SOL    HW1 3800   2.702   4.204   1.379
  967SOL    HW2 3801   2.600   4.280   1.481
  968SOL     OW 3802   3.697   0.151   2.366
  968SOL    HW1 3803   3.757   0.089   2.316
  968SOL    HW2 3804   3.604   0.116   2.364
  969SOL     OW 3805   2.095   5.123   5.572
  969SOL    HW1 3806   2.003   5.152   5.546
  969SOL    HW2 3807   2.155   5.126   5.492
  970SOL     OW 3808   5.832   0.968   6.704
  970SOL    HW1 3809   5.896   0.983   6.629
  970SOL    HW2 3810   5.771   0.892   6.682
  971SOL     OW 3811   0.403   2.717   2.334
  971SOL    HW1 3812   0.476   2.694   2.270
  971SOL    HW2 3813   0.344   2.787   2.295
  972SOL     OW 3814   5.711   2.311   1.405
  972SOL    HW1 3815   5.783   2.311   1.335
  972SOL    HW2 3816   5.742   2.257   1.484
  973SOL     OW 3817   0.108   5.249   6.517
  973SOL    HW1 3818   0.204   5.251   6.544
  973SOL    HW2 3819   0.086   5.160   6.477
  974SOL     OW 3820   5.092   6.544   2.696
  974SOL    HW1 3821   5.085   6.580   2.603
  974SOL    HW2 3822   5.188   6.541   2.723
  975SOL     OW 3823   2.017   0.841   6.506
  975SOL    HW1 3824   1.928   0.824   6.464
  975SOL    HW2 3825   2.035   0.940   6.504
  976SOL     OW 3826   0.000   3.668   2.338
  976SOL    HW1 3827   0.000   3.731   2.261
  976SOL    HW2 3828   6.935   3.614   2.337
  977SOL     OW 3829   0.621   6.762   1.818
  977SOL    HW1 3830   0.557   6.708   1.764
  977SOL    HW2 3831   0.713   6.723   1.812
  978SOL     OW 3832   5.778   3.216   5.382
  978SOL    HW1 3833   5.817   3.251   5.467
  978SOL    HW2 3834   5.752   3.120   5.395
  979SOL     OW 3835   0.040   2.447   0.256
  979SOL    HW1 3836   6.993   2.373   0.246
  979SOL    HW2 3837   0.107   2.443   0.182
  980SOL     OW 3838   4.423   1.923   3.760
  980SOL    HW1 3839   4.453   2.018   3.767
  980SOL    HW2 3840   4.461   1.881   3.678
  981SOL     OW 3841   0.245   1.889   5.051
  981SOL    HW1 3842   0.157   1.910   5.009
  981SOL    HW2 3843   0.312   1.868   4.980
  982SOL     OW 3844   1.607   1.792   4.780
  982SOL    HW1 3845   1.581   1.828   4.691
  982SOL    HW2 3846   1.529   1.798   4.843
  983SOL     OW 3847   5.816   2.988   3.748
  983SOL    HW1 3848   5.864   2.928   3.685
  983SOL    HW2 3849   5.720   2.996   3.721
  984SOL     OW 3850   2.731   2.272   4.747
  984SOL    HW1 3851   2.760   2.301   4.838
  984SOL    HW2 3852   2.711   2.174   4.748
  985SOL     OW 3853   6.278   2.948   5.199
  985SOL    HW1 3854   6.271   2.849   5.205
  985SOL    HW2 3855   6.273   2.988   5.291
  986SOL     OW 3856   4.606   4.770   1.325
  986SOL    HW1 3857   4.616   4.865   1.353
  986SOL    HW2 3858   4.565   4.717   1.399
  987SOL     OW 3859   4.726   6.661   2.689
  987SOL    HW1 3860   4.640   6.642   2.642
  987SOL    HW2 3861   4.788   6.710   2.627
  988SOL     OW 3862   3.681   3.993   2.151
  988SOL    HW1 3863   3.735   4.020   2.230
  988SOL    HW2 3864   3.608   4.059   2.136
  989SOL     OW 3865   6.532   2.029   6.470
  989SOL    HW1 3866   6.480   2.084   6.406
  989SOL    HW2 3867   6.619   2.001   6.428
  990SOL     OW 3868   4.385   1.317   2.215
  990SOL    HW1 3869   4.364   1.273   2.127
  990SOL    HW2 3870   4.324   1.281   2.285
  991SOL     OW 3871   0.801   3.933   4.602
  991SOL    HW1 3872   0.820   3.912   4.506
  991SOL    HW2 3873   0.842   3.862   4.660
  992SOL     OW 3874   0.161   3.678   1.113
  992SOL    HW1 3875   0.222   3.636   1.181
  992SOL    HW2 3876   0.133   3.768   1.145
  993SOL     OW 3877   6.951   4.610   0.228
  993SOL    HW1 3878   6.922   4.580   0.319
  993SOL    HW2 3879   6.973   4.707   0.230
  994SOL     OW 3880   3.978   4.956   1.848
  994SOL    HW1 3881   4.034   5.022   1.799
  994SOL    HW2 3882   3.922   4.904   1.783
  995SOL     OW 3883   4.174   2.979   5.795
  995SOL    HW1 3884   4.158   2.982   5.894
  995SOL    HW2 3885   4.270   2.955   5.778
  996SOL     OW 3886   3.125   5.167   4.627
  996SOL    HW1 3887   3.111   5.075   4.589
  996SOL    HW2 3888   3.223   5.189   4.626
  997SOL     OW 3889   1.163   0.285   3.437
  997SOL    HW1 3890   1.161   0.289   3.537
  997SOL    HW2 3891   1.072   0.308   3.401
  998SOL     OW 3892   5.360   0.543   5.307
  998SOL    HW1 3893   5.420   0.590   5.242
  998SOL    HW2 3894   5.311   0.469   5.261
  999SOL     OW 3895   5.160   4.294   2.583
  999SOL    HW1 3896   5.169   4.220   2.516
  999SOL    HW2 3897   5.246   4.345   2.587
 1000SOL     OW 3898   3.470   1.534   1.517
 1000SOL    HW1 3899   3.463   1.526   1.417
 1000SOL    HW2 3900   3.546   1.594   1.540
 1001SOL     OW 3901   5.197   5.797   1.300
 1001SOL    HW1 3902   5.125   5.834   1.241
 1001SOL    HW2 3903   5.240   5.871   1.351
 1002SOL     OW 3904   5.809   1.970   1.287
 1002SOL    HW1 3905   5.718   1.958   1.328
 1002SOL    HW2 3906   5.874   1.996   1.357
 1003SOL     OW 3907   1.806   6.430   2.766
 1003SOL    HW1 3908   1.832   6.484   2.686
 1003SOL    HW2 3909   1.726   6.470   2.809
 1004SOL     OW 3910   0.568   0.885   2.053
 1004SOL    HW1 3911   0.660   0.923   2.062
 1004SOL    HW2 3912   0.520   0.931   1.979
 1005SOL     OW 3913   2.199   2.291   4.036
 1005SOL    HW1 3914   2.131   2.345   4.085
 1005SOL    HW2 3915   2.249   2.234   4.101
 1006SOL     OW 3916   1.446   4.567   0.213
 1006SOL    HW1 3917   1.518   4.613   0.160
 1006SOL    HW2 3918   1.486   4.528   0.296
 1007SOL     OW 3919   4.687   0.468   5.298
 1007SOL    HW1 3920   4.661   0.400   5.368
 1007SOL    HW2 3921   4.607   0.493   5.245
 1008SOL     OW 3922   0.756   2.922   6.062
 1008SOL    HW1 3923   0.822   2.922   6.138
 1008SOL    HW2 3924   0.674   2.972   6.089
 1009SOL     OW 3925   0.460   4.957   5.317
 1009SOL    HW1 3926   0.523   4.898   5.267
 1009SOL    HW2 3927   0.466   5.051   5.282
 1010SOL     OW 3928   2.930   1.605   0.091
 1010SOL    HW1 3929   2.876   1.592   0.174
 1010SOL    HW2 3930   2.940   1.702   0.072
 1011SOL     OW 3931   1.721   5.377   2.817
 1011SOL    HW1 3932   1.792   5.307   2.809
 1011SOL    HW2 3933   1.752   5.461   2.772
 1012SOL     OW 3934   0.256   6.731   2.984
 1012SOL    HW1 3935   0.215   6.793   3.052
 1012SOL    HW2 3936   0.183   6.691   2.928
 1013SOL     OW 3937   0.959   1.766   6.468
 1013SOL    HW1 3938   1.020   1.839   6.439
 1013SOL    HW2 3939   0.888   1.804   6.527
 1014SOL     OW 3940   6.823   4.580   5.658
 1014SOL    HW1 3941   6.737   4.621   5.627
 1014SOL    HW2 3942   6.844   4.500   5.602
 1015SOL     OW 3943   2.959   6.724   6.250
 1015SOL    HW1 3944   2.874   6.672   6.241
 1015SOL    HW2 3945   2.965   6.791   6.177
 1016SOL     OW 3946   4.043   3.918   6.936
 1016SOL    HW1 3947   4.056   4.012   6.904
 1016SOL    HW2 3948   3.947   3.905   6.962
 1017SOL     OW 3949   4.441   2.711   1.448
 1017SOL    HW1 3950   4.429   2.810   1.437
 1017SOL    HW2 3951   4.414   2.685   1.541
 1018SOL     OW 3952   0.930   4.820   4.300
 1018SOL    HW1 3953   0.974   4.744   4.349
 1018SOL    HW2 3954   0.913   4.794   4.205
 1019SOL     OW 3955   7.000   6.366   0.818
 1019SOL    HW1 3956   0.016   6.273   0.808
 1019SOL    HW2 3957   6.908   6.363   0.858
 1020SOL     OW 3958   6.437   0.882   1.341
 1020SOL    HW1 3959   6.352   0.833   1.319
 1020SOL    HW2 3960   6.497   0.882   1.262
 1021SOL     OW 3961   5.895   6.679   1.515
 1021SOL    HW1 3962   5.883   6.742   1.591
 1021SOL    HW2 3963   5.840   6.711   1.437
 1022SOL     OW 3964   2.833   4.408   5.407
 1022SOL    HW1 3965   2.778   4.327   5.423
 1022SOL    HW2 3966   2.852   4.417   5.309
 1023SOL     OW 3967   0.213   0.958   2.631
 1023SOL    HW1 3968   0.233   0.874   2.580
 1023SOL    HW2 3969   0.298   0.995   2.668
 1024SOL     OW 3970   0.606   2.975   4.265
 1024SOL    HW1 3971   0.587   3.049   4.330
 1024SOL    HW2 3972   0.533   2.971   4.197
 1025SOL     OW 3973   3.773   3.857   1.420
 1025SOL    HW1 3974   3.799   3.782   1.359
 1025SOL    HW2 3975   3.746   3.820   1.509
 1026SOL     OW 3976   2.490   2.720   1.810
 1026SOL    HW1 3977   2.582   2.689   1.785
 1026SOL    HW2 3978   2.482   2.818   1.792
 1027SOL     OW 3979   3.388   6.638   2.212
 1027SOL    HW1 3980   3.367   6.736   2.211
 1027SOL    HW2 3981   3.486   6.624   2.204
 1028SOL     OW 3982   1.847   0.065   2.482
 1028SOL    HW1 3983   1.786   0.048   2.560
 1028SOL    HW2 3984   1.939   0.083   2.516
 1029SOL     OW 3985   1.415   0.988   6.432
 1029SOL    HW1 3986   1.412   1.042   6.516
 1029SOL    HW2 3987   1.491   1.019   6.375
 1030SOL     OW 3988   3.536   3.263   1.982
 1030SOL    HW1 3989   3.591   3.346   1.987
 1030SOL    HW2 3990   3.576   3.201   1.914
 1031SOL     OW 3991   4.327   4.086   1.427
 1031SOL    HW1 3992   4.407   4.029   1.409
 1031SOL    HW2 3993   4.325   4.112   1.523
 1032SOL     OW 3994   1.645   1.597   5.987
 1032SOL    HW1 3995   1.627   1.693   5.962
 1032SOL    HW2 3996   1.646   1.588   6.086
 1033SOL     OW 3997   1.226   5.949   1.409
 1033SOL    HW1 3998   1.318   5.914   1.427
 1033SOL    HW2 3999   1.158   5.891   1.454
 1034SOL     OW 4000   0.706   5.200   4.595
 1034SOL    HW1 4001   0.786   5.141   4.582
 1034SOL    HW2 4002   0.710   5.276   4.530
 1035SOL     OW 4003   0.233   1.005   5.014
 1035SOL    HW1 4004   0.264   0.911   4.995
 1035SOL    HW2 4005   0.306   1.069   4.992
 1036SOL     OW 4006   3.872   0.452   2.023
 1036SOL    HW1 4007   3.870   0.426   1.927
 1036SOL    HW2 4008   3.963   0.484   2.047
 1037SOL     OW 4009   1.503   1.431   2.517
 1037SOL    HW1 4010   1.453   1.425   2.430
 1037SOL    HW2 4011   1.601   1.426   2.499
 1038SOL     OW 4012   2.020   1.176   5.467
 1038SOL    HW1 4013   2.105   1.176   5.520
 1038SOL    HW2 4014   1.987   1.270   5.456
 1039SOL     OW 4015   3.777   3.848   4.455
 1039SOL    HW1 4016   3.866   3.809   4.431
 1039SOL    HW2 4017   3.786   3.898   4.541
 1040SOL     OW 4018   5.326   1.402   2.277
 1040SOL    HW1 4019   5.288   1.318   2.317
 1040SOL    HW2 4020   5.424   1.390   2.262
 1041SOL     OW 4021   0.432   6.582   3.523
 1041SOL    HW1 4022   0.415   6.662   3.580
 1041SOL    HW2 4023   0.400   6.499   3.570
 1042SOL     OW 4024   4.223   5.307   2.767
 1042SOL    HW1 4025   4.149   5.334   2.704
 1042SOL    HW2 4026   4.231   5.376   2.839
 1043SOL     OW 4027   3.020   2.106   3.967
 1043SOL    HW1 4028   2.941   2.165   3.951
 1043SOL    HW2 4029   3.080   2.109   3.887
 1044SOL     OW 4030   5.995   5.036   2.274
 1044SOL    HW1 4031   6.027   5.044   2.369
 1044SOL    HW2 4032   5.918   4.973   2.270
 1045SOL     OW 4033   3.809   0.213   2.626
 1045SOL    HW1 4034   3.894   0.243   2.584
 1045SOL    HW2 4035   3.779   0.128   2.583
 1046SOL     OW 4036   1.580   1.282   0.558
 1046SOL    HW1 4037   1.620   1.356   0.505
 1046SOL    HW2 4038   1.480   1.285   0.550
 1047SOL     OW 4039   1.826   0.443   4.187
 1047SOL    HW1 4040   1.905   0.417   4.242
 1047SOL    HW2 4041   1.753   0.476   4.247
 1048SOL     OW 4042   4.274   6.029   3.063
 1048SOL    HW1 4043   4.315   5.961   3.003
 1048SOL    HW2 4044   4.297   6.121   3.029
 1049SOL     OW 4045   6.800   6.390   3.858
 1049SOL    HW1 4046   6.708   6.429   3.866
 1049SOL    HW2 4047   6.829   6.391   3.763
 1050SOL     OW 4048   3.348   5.109   1.814
 1050SOL    HW1 4049   3.419   5.065   1.869
 1050SOL    HW2 4050   3.320   5.047   1.740
 1051SOL     OW 4051   0.594   5.281   0.152
 1051SOL    HW1 4052   0.536   5.202   0.172
 1051SOL    HW2 4053   0.687   5.263   0.184
 1052SOL     OW 4054   4.497   0.623   5.195
 1052SOL    HW1 4055   4.412   0.575   5.217
 1052SOL    HW2 4056   4.503   0.706   5.250
 1053SOL     OW 4057   5.895   4.647   3.185
 1053SOL    HW1 4058   5.861   4.685   3.099
 1053SOL    HW2 4059   5.863   4.553   3.195
 1054SOL     OW 4060   3.078   3.558   0.724
 1054SOL    HW1 4061   3.067   3.576   0.821
 1054SOL    HW2 4062   3.116   3.466   0.711
 1055SOL     OW 4063   4.188   6.464   5.213
 1055SOL    HW1 4064   4.278   6.449   5.171
 1055SOL    HW2 4065   4.124   6.395   5.178
 1056SOL     OW 4066   2.432   3.849   6.966
 1056SOL    HW1 4067   2.519   3.876   7.007
 1056SOL    HW2 4068   2.359   3.857   0.015
 1057SOL     OW 4069   3.476   3.596   1.833
 1057SOL    HW1 4070   3.559   3.560   1.875
 1057SOL    HW2 4071   3.420   3.520   1.800
 1058SOL     OW 4072   4.983   2.398   3.499
 1058SOL    HW1 4073   4.906   2.404   3.435
 1058SOL    HW2 4074   5.020   2.305   3.497
 1059SOL     OW 4075   2.949   0.650   1.974
 1059SOL    HW1 4076   2.871   0.590   1.957
 1059SOL    HW2 4077   2.923   0.721   2.039
 1060SOL     OW 4078   0.299   4.949   4.474
 1060SOL    HW1 4079   0.338   5.040   4.462
 1060SOL    HW2 4080   0.226   4.952   4.543
 1061SOL     OW 4081   6.685   3.239   0.096
 1061SOL    HW1 4082   6.682   3.167   0.165
 1061SOL    HW2 4083   6.716   3.324   0.138
 1062SOL     OW 4084   5.374   5.242   5.823
 1062SOL    HW1 4085   5.280   5.266   5.800
 1062SOL    HW2 4086   5.431   5.249   5.742
 1063SOL     OW 4087   0.812   5.857   0.985
 1063SOL    HW1 4088   0.867   5.884   0.905
 1063SOL    HW2 4089   0.870   5.857   1.066
 1064SOL     OW 4090   1.767   4.512   2.929
 1064SOL    HW1 4091   1.796   4.508   2.834
 1064SOL    HW2 4092   1.674   4.476   2.938
 1065SOL     OW 4093   4.427   0.777   3.790
 1065SOL    HW1 4094   4.509   0.778   3.733
 1065SOL    HW2 4095   4.366   0.851   3.762
 1066SOL     OW 4096   4.853   6.411   2.721
 1066SOL    HW1 4097   4.789   6.486   2.735
 1066SOL    HW2 4098   4.947   6.444   2.729
 1067SOL     OW 4099   0.659   3.088   0.679
 1067SOL    HW1 4100   0.646   3.076   0.580
 1067SOL    HW2 4101   0.756   3.087   0.700
 1068SOL     OW 4102   6.168   5.060   2.063
 1068SOL    HW1 4103   6.116   5.027   2.142
 1068SOL    HW2 4104   6.146   5.006   1.983
 1069SOL     OW 4105   4.680   5.719   0.918
 1069SOL    HW1 4106   4.691   5.620   0.918
 1069SOL    HW2 4107   4.625   5.746   0.839
 1070SOL     OW 4108   0.255   0.578   1.551
 1070SOL    HW1 4109   0.337   0.635   1.563
 1070SOL    HW2 4110   0.282   0.487   1.520
 1071SOL     OW 4111   1.228   0.917   4.186
 1071SOL    HW1 4112   1.305   0.975   4.211
 1071SOL    HW2 4113   1.216   0.846   4.255
 1072SOL     OW 4114   1.529   0.958   0.983
 1072SOL    HW1 4115   1.583   0.987   1.062
 1072SOL    HW2 4116   1.517   1.036   0.921
 1073SOL     OW 4117   5.019   0.366   3.089
 1073SOL    HW1 4118   5.049   0.457   3.118
 1073SOL    HW2 4119   4.943   0.336   3.147
 1074SOL     OW 4120   2.335   5.405   1.757
 1074SOL    HW1 4121   2.364   5.350   1.678
 1074SOL    HW2 4122   2.317   5.344   1.835
 1075SOL     OW 4123   5.568   0.048   3.486
 1075SOL    HW1 4124   5.552   0.142   3.517
 1075SOL    HW2 4125   5.642   0.007   3.540
 1076SOL     OW 4126   0.708   2.429   5.792
 1076SOL    HW1 4127   0.634   2.391   5.846
 1076SOL    HW2 4128   0.745   2.359   5.730
 1077SOL     OW 4129   6.062   0.028   1.068
 1077SOL    HW1 4130   6.112   0.022   0.981
 1077SOL    HW2 4131   5.985   0.091   1.058
 1078SOL     OW 4132   0.607   0.610   2.248
 1078SOL    HW1 4133   0.600   0.708   2.225
 1078SOL    HW2 4134   0.542   0.559   2.191
 1079SOL     OW 4135   1.253   6.110   2.032
 1079SOL    HW1 4136   1.331   6.056   2.001
 1079SOL    HW2 4137   1.260   6.203   1.996
 1080SOL     OW 4138   2.067   5.495   3.201
 1080SOL    HW1 4139   2.089   5.432   3.275
 1080SOL    HW2 4140   2.014   5.448   3.131
 1081SOL     OW 4141   6.517   4.919   5.617
 1081SOL    HW1 4142   6.579   4.980   5.667
 1081SOL    HW2 4143   6.528   4.826   5.651
 1082SOL     OW 4144   5.443   2.458   5.058
 1082SOL    HW1 4145   5.421   2.518   5.135
 1082SOL    HW2 4146   5.504   2.385   5.089
 1083SOL     OW 4147   4.741   4.233   0.520
 1083SOL    HW1 4148   4.686   4.149   0.521
 1083SOL    HW2 4149   4.814   4.224   0.452
 1084SOL     OW 4150   6.003   6.168   6.476
 1084SOL    HW1 4151   6.049   6.163   6.388
 1084SOL    HW2 4152   6.068   6.148   6.549
 1085SOL     OW 4153   1.841   3.504   4.792
 1085SOL    HW1 4154   1.916   3.443   4.765
 1085SOL    HW2 4155   1.766   3.449   4.828
 1086SOL     OW 4156   0.368   4.754   0.348
 1086SOL    HW1 4157   0.335   4.664   0.375
 1086SOL    HW2 4158   0.463   4.747   0.319
 1087SOL     OW 4159   6.643   2.074   5.303
 1087SOL    HW1 4160   6.635   2.172   5.322
 1087SOL    HW2 4161   6.564   2.026   5.341
 1088SOL     OW 4162   0.343   3.667   2.459
 1088SOL    HW1 4163   0.356   3.691   2.555
 1088SOL    HW2 4164   0.314   3.572   2.451
 1089SOL     OW 4165   0.444   6.071   4.591
 1089SOL    HW1 4166   0.470   6.126   4.671
 1089SOL    HW2 4167   0.362   6.018   4.612
 1090SOL     OW 4168   3.036   1.886   3.356
 1090SOL    HW1 4169   3.022   1.796   3.314
 1090SOL    HW2 4170   3.134   1.902   3.369
 1091SOL     OW 4171   2.921   1.973   4.547
 1091SOL    HW1 4172   2.913   1.909   4.470
 1091SOL    HW2 4173   2.947   2.063   4.513
 1092SOL     OW 4174   0.530   4.403   1.152
 1092SOL    HW1 4175   0.476   4.406   1.068
 1092SOL    HW2 4176   0.557   4.496   1.178
 1093SOL     OW 4177   2.361   0.433   1.600
 1093SOL    HW1 4178   2.421   0.405   1.525
 1093SOL    HW2 4179   2.284   0.486   1.564
 1094SOL     OW 4180   0.982   6.793   2.453
 1094SOL    HW1 4181   0.898   6.790   2.399
 1094SOL    HW2 4182   0.988   6.880   2.501
 1095SOL     OW 4183   1.204   3.179   6.171
 1095SOL    HW1 4184   1.257   3.095   6.176
 1095SOL    HW2 4185   1.127   3.166   6.107
 1096SOL     OW 4186   3.474   4.360   1.603
 1096SOL    HW1 4187   3.425   4.447   1.613
 1096SOL    HW2 4188   3.443   4.296   1.674
 1097SOL     OW 4189   2.533   4.530   3.688
 1097SOL    HW1 4190   2.481   4.478   3.620
 1097SOL    HW2 4191   2.470   4.572   3.753
 1098SOL     OW 4192   4.371   3.366   6.723
 1098SOL    HW1 4193   4.290   3.313   6.747
 1098SOL    HW2 4194   4.413   3.401   6.806
 1099SOL     OW 4195   3.382   1.257   5.872
 1099SOL    HW1 4196   3.447   1.216   5.935
 1099SOL    HW2 4197   3.340   1.338   5.915
 1100SOL     OW 4198   4.360   1.580   4.604
 1100SOL    HW1 4199   4.267   1.574   4.640
 1100SOL    HW2 4200   4.380   1.498   4.549
 1101SOL     OW 4201   5.672   3.163   5.934
 1101SOL    HW1 4202   5.680   3.064   5.925
 1101SOL    HW2 4203   5.617   3.199   5.858
 1102SOL     OW 4204   0.896   0.476   4.573
 1102SOL    HW1 4205   0.952   0.394   4.580
 1102SOL    HW2 4206   0.852   0.479   4.483
 1103SOL     OW 4207   4.374   1.778   0.119
 1103SOL    HW1 4208   4.280   1.746   0.119
 1103SOL    HW2 4209   4.416   1.759   0.208
 1104SOL     OW 4210   1.656   3.001   5.511
 1104SOL    HW1 4211   1.692   2.958   5.595
 1104SOL    HW2 4212   1.725   2.997   5.439
 1105SOL     OW 4213   5.960   3.487   4.966
 1105SOL    HW1 4214   5.978   3.516   5.060
 1105SOL    HW2 4215   5.891   3.414   4.965
 1106SOL     OW 4216   6.771   2.353   1.016
 1106SOL    HW1 4217   6.831   2.315   1.086
 1106SOL    HW2 4218   6.827   2.392   0.943
 1107SOL     OW 4219   1.011   0.644   0.106
 1107SOL    HW1 4220   0.998   0.595   0.020
 1107SOL    HW2 4221   1.106   0.634   0.136
 1108SOL     OW 4222   3.432   7.009   5.297
 1108SOL    HW1 4223   3.491   6.932   5.321
 1108SOL    HW2 4224   3.441   0.062   5.366
 1109SOL     OW 4225   5.696   1.115   3.586
 1109SOL    HW1 4226   5.630   1.113   3.511
 1109SOL    HW2 4227   5.690   1.029   3.637
 1110SOL     OW 4228   3.962   1.900   2.997
 1110SOL    HW1 4229   3.979   1.994   2.968
 1110SOL    HW2 4230   4.044   1.863   3.041
 1111SOL     OW 4231   4.428   5.367   6.439
 1111SOL    HW1 4232   4.431   5.422   6.523
 1111SOL    HW2 4233   4.498   5.400   6.376
 1112SOL     OW 4234   5.579   1.111   2.499
 1112SOL    HW1 4235   5.592   1.161   2.584
 1112SOL    HW2 4236   5.626   1.023   2.504
 1113SOL     OW 4237   5.849   4.281   1.487
 1113SOL    HW1 4238   5.865   4.283   1.388
 1113SOL    HW2 4239   5.836   4.375   1.520
 1114SOL     OW 4240   3.267   1.550   5.779
 1114SOL    HW1 4241   3.260   1.639   5.735
 1114SOL    HW2 4242   3.263   1.477   5.711
 1115SOL     OW 4243   3.900   3.257   5.890
 1115SOL    HW1 4244   3.933   3.234   5.799
 1115SOL    HW2 4245   3.893   3.357   5.899
 1116SOL     OW 4246   4.623   6.443   5.642
 1116SOL    HW1 4247   4.654   6.349   5.648
 1116SOL    HW2 4248   4.556   6.461   5.715
 1117SOL     OW 4249   1.852   2.663   2.150
 1117SOL    HW1 4250   1.945   2.648   2.119
 1117SOL    HW2 4251   1.816   2.580   2.193
 1118SOL     OW 4252   3.230   4.510   0.713
 1118SOL    HW1 4253   3.196   4.603   0.731
 1118SOL    HW2 4254   3.309   4.492   0.772
 1119SOL     OW 4255   4.387   4.519   1.764
 1119SOL    HW1 4256   4.401   4.423   1.789
 1119SOL    HW2 4257   4.380   4.574   1.847
 1120SOL     OW 4258   6.084   6.303   0.352
 1120SOL    HW1 4259   6.176   6.301   0.312
 1120SOL    HW2 4260   6.048   6.397   0.349
 1121SOL     OW 4261   6.258   4.603   4.719
 1121SOL    HW1 4262   6.204   4.682   4.750
 1121SOL    HW2 4263   6.297   4.623   4.629
 1122SOL     OW 4264   4.877   2.488   1.701
 1122SOL    HW1 4265   4.932   2.506   1.620
 1122SOL    HW2 4266   4.839   2.396   1.696
 1123SOL     OW 4267   5.174   1.699   2.874
 1123SOL    HW1 4268   5.172   1.748   2.961
 1123SOL    HW2 4269   5.082   1.667   2.851
 1124SOL     OW 4270   0.148   3.642   5.198
 1124SOL    HW1 4271   0.073   3.675   5.140
 1124SOL    HW2 4272   0.228   3.622   5.142
 1125SOL     OW 4273   2.544   2.200   3.878
 1125SOL    HW1 4274   2.470   2.216   3.944
 1125SOL    HW2 4275   2.543   2.272   3.809
 1126SOL     OW 4276   5.363   5.515   7.008
 1126SOL    HW1 4277   5.353   5.525   0.088
 1126SOL    HW2 4278   5.384   5.419   6.986
 1127SOL     OW 4279   5.110   5.517   4.462
 1127SOL    HW1 4280   5.120   5.450   4.536
 1127SOL    HW2 4281   5.165   5.487   4.384
 1128SOL     OW 4282   6.194   1.088   4.838
 1128SOL    HW1 4283   6.219   1.151   4.912
 1128SOL    HW2 4284   6.261   1.014   4.834
 1129SOL     OW 4285   1.356   0.332   0.987
 1129SOL    HW1 4286   1.408   0.290   1.061
 1129SOL    HW2 4287   1.340   0.265   0.915
 1130SOL     OW 4288   2.500   4.808   0.487
 1130SOL    HW1 4289   2.414   4.774   0.525
 1130SOL    HW2 4290   2.481   4.882   0.423
 1131SOL     OW 4291   1.316   6.176   5.981
 1131SOL    HW1 4292   1.287   6.212   5.892
 1131SOL    HW2 4293   1.414   6.157   5.978
 1132SOL     OW 4294   5.323   0.263   2.664
 1132SOL    HW1 4295   5.416   0.227   2.660
 1132SOL    HW2 4296   5.303   0.295   2.757
 1133SOL     OW 4297   0.492   1.016   0.350
 1133SOL    HW1 4298   0.576   1.009   0.295
 1133SOL    HW2 4299   0.494   0.947   0.422
 1134SOL     OW 4300   5.366   6.806   2.595
 1134SOL    HW1 4301   5.330   6.886   2.643
 1134SOL    HW2 4302   5.297   6.771   2.531
 1135SOL     OW 4303   2.799   6.785   3.444
 1135SOL    HW1 4304   2.706   6.820   3.439
 1135SOL    HW2 4305   2.819   6.755   3.538
 1136SOL     OW 4306   4.481   4.886   3.485
 1136SOL    HW1 4307   4.452   4.790   3.486
 1136SOL    HW2 4308   4.489   4.918   3.391
 1137SOL     OW 4309   1.118   6.258   6.913
 1137SOL    HW1 4310   1.216   6.253   6.935
 1137SOL    HW2 4311   1.066   6.262   6.998
 1138SOL     OW 4312   0.336   0.961   5.940
 1138SOL    HW1 4313   0.435   0.964   5.923
 1138SOL    HW2 4314   0.288   0.950   5.854
 1139SOL     OW 4315   3.180   4.932   2.801
 1139SOL    HW1 4316   3.132   4.897   2.882
 1139SOL    HW2 4317   3.158   5.028   2.789
 1140SOL     OW 4318   2.929   1.170   2.199
 1140SOL    HW1 4319   2.846   1.201   2.154
 1140SOL    HW2 4320   3.004   1.231   2.176
 1141SOL     OW 4321   0.738   6.199   6.784
 1141SOL    HW1 4322   0.793   6.134   6.732
 1141SOL    HW2 4323   0.642   6.191   6.756
 1142SOL     OW 4324   3.157   0.056   4.064
 1142SOL    HW1 4325   3.187   6.997   4.118
 1142SOL    HW2 4326   3.237   0.109   4.035
 1143SOL     OW 4327   2.381   2.804   3.496
 1143SOL    HW1 4328   2.399   2.786   3.593
 1143SOL    HW2 4329   2.327   2.888   3.487
 1144SOL     OW 4330   6.192   4.444   4.040
 1144SOL    HW1 4331   6.253   4.449   3.961
 1144SOL    HW2 4332   6.104   4.486   4.017
 1145SOL     OW 4333   6.411   3.730   1.437
 1145SOL    HW1 4334   6.318   3.725   1.402
 1145SOL    HW2 4335   6.409   3.728   1.537
 1146SOL     OW 4336   6.918   1.010   2.482
 1146SOL    HW1 4337   6.869   1.051   2.405
 1146SOL    HW2 4338   6.972   1.081   2.528
 1147SOL     OW 4339   3.024   5.622   1.422
 1147SOL    HW1 4340   3.105   5.679   1.410
 1147SOL    HW2 4341   3.043   5.548   1.487
 1148SOL     OW 4342   4.367   5.955   0.181
 1148SOL    HW1 4343   4.318   5.881   0.226
 1148SOL    HW2 4344   4.463   5.928   0.168
 1149SOL     OW 4345   6.045   3.223   3.037
 1149SOL    HW1 4346   6.104   3.303   3.038
 1149SOL    HW2 4347   6.091   3.149   2.987
 1150SOL     OW 4348   0.685   3.907   0.317
 1150SOL    HW1 4349   0.709   3.819   0.278
 1150SOL    HW2 4350   0.738   3.922   0.400
 1151SOL     OW 4351   5.928   4.366   6.182
 1151SOL    HW1 4352   5.933   4.269   6.161
 1151SOL    HW2 4353   5.955   4.381   6.278
 1152SOL     OW 4354   4.850   5.125   0.277
 1152SOL    HW1 4355   4.816   5.043   0.230
 1152SOL    HW2 4356   4.779   5.159   0.339
 1153SOL     OW 4357   0.394   0.204   1.984
 1153SOL    HW1 4358   0.450   0.270   1.934
 1153SOL    HW2 4359   0.446   0.119   1.995
 1154SOL     OW 4360   6.819   4.383   1.642
 1154SOL    HW1 4361   6.729   4.424   1.655
 1154SOL    HW2 4362   6.821   4.291   1.682
 1155SOL     OW 4363   2.372   4.520   6.020
 1155SOL    HW1 4364   2.326   4.604   5.991
 1155SOL    HW2 4365   2.317   4.441   5.991
 1156SOL     OW 4366   4.337   1.869   5.030
 1156SOL    HW1 4367   4.286   1.843   4.948
 1156SOL    HW2 4368   4.359   1.786   5.083
 1157SOL     OW 4369   5.154   1.214   6.275
 1157SOL    HW1 4370   5.225   1.181   6.337
 1157SOL    HW2 4371   5.067   1.167   6.295
 1158SOL     OW 4372   6.964   4.970   5.234
 1158SOL    HW1 4373   6.893   4.906   5.206
 1158SOL    HW2 4374   0.033   4.924   5.236
 1159SOL     OW 4375   6.439   0.187   3.458
 1159SOL    HW1 4376   6.461   0.247   3.381
 1159SOL    HW2 4377   6.523   0.165   3.508
 1160SOL     OW 4378   5.216   4.455   0.923
 1160SOL    HW1 4379   5.303   4.504   0.928
 1160SOL    HW2 4380   5.230   4.366   0.878
 1161SOL     OW 4381   6.121   5.722   5.565
 1161SOL    HW1 4382   6.034   5.714   5.614
 1161SOL    HW2 4383   6.155   5.631   5.542
 1162SOL     OW 4384   2.682   2.671   6.978
 1162SOL    HW1 4385   2.701   2.702   0.052
 1162SOL    HW2 4386   2.639   2.745   6.926
 1163SOL     OW 4387   6.695   3.677   1.699
 1163SOL    HW1 4388   6.753   3.758   1.703
 1163SOL    HW2 4389   6.751   3.596   1.716
 1164SOL     OW 4390   5.508   2.750   3.800
 1164SOL    HW1 4391   5.416   2.712   3.806
 1164SOL    HW2 4392   5.533   2.790   3.888
 1165SOL     OW 4393   4.128   5.048   3.699
 1165SOL    HW1 4394   4.077   4.963   3.705
 1165SOL    HW2 4395   4.137   5.076   3.603
 1166SOL     OW 4396   3.696   0.100   0.229
 1166SOL    HW1 4397   3.794   0.087   0.211
 1166SOL    HW2 4398   3.651   0.010   0.233
 1167SOL     OW 4399   3.873   6.728   0.458
 1167SOL    HW1 4400   3.889   6.733   0.360
 1167SOL    HW2 4401   3.881   6.633   0.489
 1168SOL     OW 4402   5.537   2.706   2.134
 1168SOL    HW1 4403   5.550   2.779   2.067
 1168SOL    HW2 4404   5.465   2.733   2.199
 1169SOL     OW 4405   5.109   2.718   5.897
 1169SOL    HW1 4406   5.122   2.620   5.908
 1169SOL    HW2 4407   5.169   2.767   5.960
 1170SOL     OW 4408   5.268   6.988   2.752
 1170SOL    HW1 4409   5.287   0.050   2.696
 1170SOL    HW2 4410   5.218   7.015   2.834
 1171SOL     OW 4411   2.445   6.587   6.931
 1171SOL    HW1 4412   2.398   6.620   6.849
 1171SOL    HW2 4413   2.534   6.549   6.905
 1172SOL     OW 4414   3.303   3.838   1.799
 1172SOL    HW1 4415   3.237   3.859   1.872
 1172SOL    HW2 4416   3.370   3.773   1.833
 1173SOL     OW 4417   3.251   1.671   0.709
 1173SOL    HW1 4418   3.168   1.619   0.726
 1173SOL    HW2 4419   3.242   1.721   0.623
 1174SOL     OW 4420   2.394   4.805   1.970
 1174SOL    HW1 4421   2.406   4.706   1.957
 1174SOL    HW2 4422   2.404   4.827   2.068
 1175SOL     OW 4423   4.289   4.750   6.529
 1175SOL    HW1 4424   4.255   4.663   6.564
 1175SOL    HW2 4425   4.344   4.795   6.599
 1176SOL     OW 4426   5.806   3.555   6.399
 1176SOL    HW1 4427   5.829   3.649   6.375
 1176SOL    HW2 4428   5.809   3.544   6.498
 1177SOL     OW 4429   0.046   3.440   4.553
 1177SOL    HW1 4430   0.086   3.363   4.502
 1177SOL    HW2 4431   0.027   3.515   4.490
 1178SOL     OW 4432   4.033   4.120   0.663
 1178SOL    HW1 4433   3.960   4.100   0.729
 1178SOL    HW2 4434   4.031   4.218   0.641
 1179SOL     OW 4435   2.017   6.193   1.094
 1179SOL    HW1 4436   2.019   6.282   1.140
 1179SOL    HW2 4437   2.092   6.188   1.029
 1180SOL     OW 4438   2.833   5.686   4.333
 1180SOL    HW1 4439   2.788   5.756   4.388
 1180SOL    HW2 4440   2.765   5.619   4.302
 1181SOL     OW 4441   0.275   4.645   5.545
 1181SOL    HW1 4442   0.205   4.576   5.527
 1181SOL    HW2 4443   0.261   4.683   5.636
 1182SOL     OW 4444   4.321   4.926   3.872
 1182SOL    HW1 4445   4.282   4.966   3.955
 1182SOL    HW2 4446   4.304   4.987   3.795
 1183SOL     OW 4447   2.908   4.313   1.694
 1183SOL    HW1 4448   2.874   4.376   1.765
 1183SOL    HW2 4449   2.880   4.347   1.604
 1184SOL     OW 4450   0.052   1.606   5.440
 1184SOL    HW1 4451   0.048   1.523   5.385
 1184SOL    HW2 4452   0.063   1.685   5.380
 1185SOL     OW 4453   1.148   0.983   0.515
 1185SOL    HW1 4454   1.062   0.938   0.542
 1185SOL    HW2 4455   1.160   0.975   0.417
 1186SOL     OW 4456   4.779   6.247   5.206
 1186SOL    HW1 4457   4.720   6.305   5.263
 1186SOL    HW2 4458   4.832   6.304   5.144
 1187SOL     OW 4459   5.030   0.292   4.917
 1187SOL    HW1 4460   4.958   0.274   4.984
 1187SOL    HW2 4461   4.991   0.340   4.839
 1188SOL     OW 4462   2.882   5.334   6.155
 1188SOL    HW1 4463   2.841   5.353   6.066
 1188SOL    HW2 4464   2.901   5.236   6.163
 1189SOL     OW 4465   6.211   2.166   1.751
 1189SOL    HW1 4466   6.220   2.150   1.653
 1189SOL    HW2 4467   6.262   2.096   1.801
 1190SOL     OW 4468   3.213   6.031   3.006
 1190SOL    HW1 4469   3.197   6.093   2.929
 1190SOL    HW2 4470   3.232   5.939   2.971
 1191SOL     OW 4471   4.466   5.007   4.540
 1191SOL    HW1 4472   4.507   5.051   4.460
 1191SOL    HW2 4473   4.400   4.938   4.510
 1192SOL     OW 4474   5.023   4.803   3.222
 1192SOL    HW1 4475   4.947   4.740   3.205
 1192SOL    HW2 4476   5.080   4.810   3.140
 1193SOL     OW 4477   0.463   2.313   5.825
 1193SOL    HW1 4478   0.395   2.284   5.891
 1193SOL    HW2 4479   0.498   2.233   5.775
 1194SOL     OW 4480   6.032   1.090   1.438
 1194SOL    HW1 4481   6.117   1.092   1.492
 1194SOL    HW2 4482   6.054   1.105   1.342
 1195SOL     OW 4483   6.979   3.659   0.417
 1195SOL    HW1 4484   6.883   3.661   0.386
 1195SOL    HW2 4485   6.986   3.705   0.505
 1196SOL     OW 4486   6.669   4.747   3.688
 1196SOL    HW1 4487   6.689   4.684   3.613
 1196SOL    HW2 4488   6.726   4.724   3.767
 1197SOL     OW 4489   4.314   6.810   4.741
 1197SOL    HW1 4490   4.283   6.775   4.829
 1197SOL    HW2 4491   4.323   6.735   4.676
 1198SOL     OW 4492   1.796   3.510   2.875
 1198SOL    HW1 4493   1.758   3.472   2.790
 1198SOL    HW2 4494   1.809   3.436   2.941
 1199SOL     OW 4495   3.803   3.589   2.408
 1199SOL    HW1 4496   3.822   3.617   2.313
 1199SOL    HW2 4497   3.709   3.615   2.431
 1200SOL     OW 4498   3.280   4.078   5.058
 1200SOL    HW1 4499   3.198   4.135   5.053
 1200SOL    HW2 4500   3.297   4.052   5.153
 1201SOL     OW 4501   1.172   1.305   4.282
 1201SOL    HW1 4502   1.253   1.349   4.242
 1201SOL    HW2 4503   1.096   1.312   4.218
 1202SOL     OW 4504   0.352   5.432   5.364
 1202SOL    HW1 4505   0.407   5.493   5.421
 1202SOL    HW2 4506   0.255   5.443   5.386
 1203SOL     OW 4507   0.200   5.170   0.344
 1203SOL    HW1 4508   0.204   5.131   0.435
 1203SOL    HW2 4509   0.189   5.270   0.351
 1204SOL     OW 4510   4.730   1.288   1.195
 1204SOL    HW1 4511   4.703   1.295   1.099
 1204SOL    HW2 4512   4.695   1.367   1.246
 1205SOL     OW 4513   3.689   3.211   0.605
 1205SOL    HW1 4514   3.678   3.170   0.696
 1205SOL    HW2 4515   3.785   3.205   0.578
 1206SOL     OW 4516   2.528   2.651   5.512
 1206SOL    HW1 4517   2.449   2.688   5.562
 1206SOL    HW2 4518   2.543   2.704   5.429
 1207SOL     OW 4519   1.236   0.257   1.246
 1207SOL    HW1 4520   1.157   0.302   1.288
 1207SOL    HW2 4521   1.238   0.161   1.275
 1208SOL     OW 4522   3.685   3.578   1.331
 1208SOL    HW1 4523   3.764   3.528   1.368
 1208SOL    HW2 4524   3.601   3.539   1.369
 1209SOL     OW 4525   5.268   0.667   3.563
 1209SOL    HW1 4526   5.188   0.613   3.536
 1209SOL    HW2 4527   5.312   0.624   3.642
 1210SOL     OW 4528   4.498   6.820   3.705
 1210SOL    HW1 4529   4.417   6.873   3.678
 1210SOL    HW2 4530   4.481   6.777   3.794
 1211SOL     OW 4531   1.025   2.880   3.132
 1211SOL    HW1 4532   0.934   2.918   3.151
 1211SOL    HW2 4533   1.061   2.918   3.047
 1212SOL     OW 4534   6.726   0.553   6.100
 1212SOL    HW1 4535   6.690   0.645   6.090
 1212SOL    HW2 4536   6.817   0.548   6.059
 1213SOL     OW 4537   6.146   2.733   0.994
 1213SOL    HW1 4538   6.106   2.666   1.056
 1213SOL    HW2 4539   6.086   2.814   0.989
 1214SOL     OW 4540   0.742   3.667   0.160
 1214SOL    HW1 4541   0.774   3.697   0.070
 1214SOL    HW2 4542   0.666   3.603   0.149
 1215SOL     OW 4543   0.390   4.535   3.147
 1215SOL    HW1 4544   0.448   4.461   3.181
 1215SOL    HW2 4545   0.294   4.506   3.149
 1216SOL     OW 4546   4.933   0.184   0.659
 1216SOL    HW1 4547   4.878   0.101   0.647
 1216SOL    HW2 4548   4.886   0.261   0.616
 1217SOL     OW 4549   2.514   4.330   0.786
 1217SOL    HW1 4550   2.424   4.339   0.743
 1217SOL    HW2 4551   2.546   4.420   0.815
 1218SOL     OW 4552   1.084   3.149   4.749
 1218SOL    HW1 4553   0.987   3.159   4.727
 1218SOL    HW2 4554   1.119   3.235   4.785
 1219SOL     OW 4555   5.704   6.110   1.812
 1219SOL    HW1 4556   5.788   6.084   1.860
 1219SOL    HW2 4557   5.657   6.027   1.781
 1220SOL     OW 4558   0.964   4.860   2.910
 1220SOL    HW1 4559   0.978   4.889   3.005
 1220SOL    HW2 4560   0.868   4.836   2.896
 1221SOL     OW 4561   4.258   4.416   6.409
 1221SOL    HW1 4562   4.174   4.463   6.433
 1221SOL    HW2 4563   4.254   4.386   6.314
 1222SOL     OW 4564   6.680   1.072   6.997
 1222SOL    HW1 4565   6.723   0.991   6.957
 1222SOL    HW2 4566   6.746   1.146   7.003
 1223SOL     OW 4567   3.968   2.058   0.425
 1223SOL    HW1 4568   3.876   2.092   0.409
 1223SOL    HW2 4569   3.965   1.970   0.471
 1224SOL     OW 4570   3.855   5.745   0.729
 1224SOL    HW1 4571   3.771   5.735   0.782
 1224SOL    HW2 4572   3.856   5.677   0.655
 1225SOL     OW 4573   3.168   3.320   6.681
 1225SOL    HW1 4574   3.136   3.301   6.589
 1225SOL    HW2 4575   3.109   3.273   6.747
 1226SOL     OW 4576   2.429   6.837   1.462
 1226SOL    HW1 4577   2.379   6.871   1.382
 1226SOL    HW2 4578   2.469   6.748   1.440
 1227SOL     OW 4579   5.754   4.571   6.033
 1227SOL    HW1 4580   5.797   4.482   6.047
 1227SOL    HW2 4581   5.660   4.558   6.000
 1228SOL     OW 4582   2.867   1.955   6.081
 1228SOL    HW1 4583   2.883   2.047   6.046
 1228SOL    HW2 4584   2.952   1.902   6.075
 1229SOL     OW 4585   3.514   5.070   6.373
 1229SOL    HW1 4586   3.519   5.020   6.286
 1229SOL    HW2 4587   3.606   5.084   6.409
 1230SOL     OW 4588   4.867   6.708   2.346
 1230SOL    HW1 4589   4.798   6.753   2.289
 1230SOL    HW2 4590   4.855   6.609   2.340
 1231SOL     OW 4591   1.637   2.253   4.718
 1231SOL    HW1 4592   1.613   2.349   4.734
 1231SOL    HW2 4593   1.555   2.201   4.696
 1232SOL     OW 4594   0.238   2.228   5.587
 1232SOL    HW1 4595   0.318   2.172   5.606
 1232SOL    HW2 4596   0.224   2.293   5.662
 1233SOL     OW 4597   1.059   5.171   5.251
 1233SOL    HW1 4598   1.027   5.120   5.331
 1233SOL    HW2 4599   1.158   5.156   5.240
 1234SOL     OW 4600   6.248   2.815   5.866
 1234SOL    HW1 4601   6.149   2.823   5.868
 1234SOL    HW2 4602   6.281   2.820   5.772
 1235SOL     OW 4603   6.196   5.345   3.105
 1235SOL    HW1 4604   6.282   5.388   3.076
 1235SOL    HW2 4605   6.119   5.391   3.061
 1236SOL     OW 4606   4.897   0.734   6.842
 1236SOL    HW1 4607   4.906   0.640   6.873
 1236SOL    HW2 4608   4.847   0.787   6.912
 1237SOL     OW 4609   2.170   4.528   6.239
 1237SOL    HW1 4610   2.188   4.578   6.155
 1237SOL    HW2 4611   2.160   4.592   6.315
 1238SOL     OW 4612   1.038   1.420   0.821
 1238SOL    HW1 4613   1.084   1.355   0.761
 1238SOL    HW2 4614   1.083   1.509   0.815
 1239SOL     OW 4615   6.977   6.448   6.218
 1239SOL    HW1 4616   0.002   6.496   6.295
 1239SOL    HW2 4617   6.879   6.440   6.236
 1240SOL     OW 4618   5.353   6.313   1.459
 1240SOL    HW1 4619   5.417   6.254   1.508
 1240SOL    HW2 4620   5.399   6.360   1.384
 1241SOL     OW 4621   5.317   3.176   4.156
 1241SOL    HW1 4622   5.254   3.192   4.232
 1241SOL    HW2 4623   5.285   3.098   4.102
 1242SOL     OW 4624   0.787   3.833   1.355
 1242SOL    HW1 4625   0.704   3.788   1.388
 1242SOL    HW2 4626   0.804   3.806   1.261
 1243SOL     OW 4627   0.151   6.681   5.066
 1243SOL    HW1 4628   0.068   6.627   5.077
 1243SOL    HW2 4629   0.135   6.753   4.999
 1244SOL     OW 4630   5.795   6.958   4.790
 1244SOL    HW1 4631   5.751   0.021   4.755
 1244SOL    HW2 4632   5.838   6.908   4.715
 1245SOL     OW 4633   5.404   4.736   0.396
 1245SOL    HW1 4634   5.352   4.654   0.422
 1245SOL    HW2 4635   5.399   4.803   0.469
 1246SOL     OW 4636   3.051   0.283   0.954
 1246SOL    HW1 4637   3.028   0.263   1.049
 1246SOL    HW2 4638   3.008   0.215   0.895
 1247SOL     OW 4639   0.899   6.684   6.257
 1247SOL    HW1 4640   0.875   6.699   6.161
 1247SOL    HW2 4641   0.997   6.702   6.270
 1248SOL     OW 4642   1.917   6.916   4.868
 1248SOL    HW1 4643   1.822   6.887   4.858
 1248SOL    HW2 4644   1.978   6.839   4.848
 1249SOL     OW 4645   6.478   2.040   2.411
 1249SOL    HW1 4646   6.412   2.114   2.423
 1249SOL    HW2 4647   6.458   1.991   2.326
 1250SOL     OW 4648   5.905   5.200   3.978
 1250SOL    HW1 4649   5.936   5.119   4.029
 1250SOL    HW2 4650   5.833   5.173   3.915
 1251SOL     OW 4651   2.719   0.890   3.452
 1251SOL    HW1 4652   2.755   0.797   3.453
 1251SOL    HW2 4653   2.688   0.915   3.544
 1252SOL     OW 4654   4.641   3.304   6.401
 1252SOL    HW1 4655   4.606   3.263   6.317
 1252SOL    HW2 4656   4.601   3.259   6.480
 1253SOL     OW 4657   2.858   5.879   2.954
 1253SOL    HW1 4658   2.809   5.960   2.921
 1253SOL    HW2 4659   2.902   5.833   2.877
 1254SOL     OW 4660   0.865   2.992   2.520
 1254SOL    HW1 4661   0.920   3.027   2.445
 1254SOL    HW2 4662   0.830   2.901   2.496
 1255SOL     OW 4663   5.975   1.907   5.531
 1255SOL    HW1 4664   5.965   1.849   5.450
 1255SOL    HW2 4665   5.990   1.848   5.611
 1256SOL     OW 4666   0.144   6.692   3.400
 1256SOL    HW1 4667   0.131   6.607   3.453
 1256SOL    HW2 4668   0.236   6.692   3.361
 1257SOL     OW 4669   0.100   6.245   5.202
 1257SOL    HW1 4670   0.147   6.259   5.289
 1257SOL    HW2 4671   0.058   6.154   5.202
 1258SOL     OW 4672   1.911   5.160   2.532
 1258SOL    HW1 4673   1.836   5.097   2.516
 1258SOL    HW2 4674   1.998   5.112   2.523
 1259SOL     OW 4675   4.197   0.671   3.918
 1259SOL    HW1 4676   4.123   0.647   3.855
 1259SOL    HW2 4677   4.282   0.683   3.867
 1260SOL     OW 4678   1.800   1.560   0.621
 1260SOL    HW1 4679   1.793   1.560   0.522
 1260SOL    HW2 4680   1.806   1.466   0.654
 1261SOL     OW 4681   6.756   5.826   6.589
 1261SOL    HW1 4682   6.749   5.726   6.600
 1261SOL    HW2 4683   6.710   5.853   6.505
 1262SOL     OW 4684   5.104   4.948   1.207
 1262SOL    HW1 4685   5.183   4.977   1.153
 1262SOL    HW2 4686   5.122   4.857   1.245
 1263SOL     OW 4687   0.349   2.263   1.943
 1263SOL    HW1 4688   0.406   2.183   1.959
 1263SOL    HW2 4689   0.252   2.237   1.953
 1264SOL     OW 4690   6.498   4.698   0.827
 1264SOL    HW1 4691   6.544   4.780   0.792
 1264SOL    HW2 4692   6.539   4.672   0.914
 1265SOL     OW 4693   5.589   5.525   4.569
 1265SOL    HW1 4694   5.526   5.603   4.572
 1265SOL    HW2 4695   5.643   5.530   4.484
 1266SOL     OW 4696   0.771   1.596   4.068
 1266SOL    HW1 4697   0.783   1.691   4.039
 1266SOL    HW2 4698   0.829   1.536   4.012
 1267SOL     OW 4699   4.811   0.575   1.240
 1267SOL    HW1 4700   4.808   0.508   1.166
 1267SOL    HW2 4701   4.718   0.608   1.258
 1268SOL     OW 4702   2.715   2.603   0.382
 1268SOL    HW1 4703   2.616   2.606   0.371
 1268SOL    HW2 4704   2.751   2.519   0.341
 1269SOL     OW 4705   5.882   4.136   4.353
 1269SOL    HW1 4706   5.967   4.142   4.406
 1269SOL    HW2 4707   5.820   4.208   4.383
 1270SOL     OW 4708   1.408   3.685   3.516
 1270SOL    HW1 4709   1.370   3.778   3.522
 1270SOL    HW2 4710   1.505   3.691   3.492
 1271SOL     OW 4711   2.874   1.904   2.858
 1271SOL    HW1 4712   2.803   1.856   2.806
 1271SOL    HW2 4713   2.848   1.999   2.872
 1272SOL     OW 4714   5.821   4.193   0.163
 1272SOL    HW1 4715   5.812   4.252   0.083
 1272SOL    HW2 4716   5.808   4.098   0.136
 1273SOL     OW 4717   0.419   3.281   6.882
 1273SOL    HW1 4718   0.409   3.206   6.947
 1273SOL    HW2 4719   0.352   3.270   6.808
 1274SOL     OW 4720   6.969   4.642   1.648
 1274SOL    HW1 4721   7.001   4.658   1.742
 1274SOL    HW2 4722   6.910   4.561   1.647
 1275SOL     OW 4723   4.146   1.175   4.280
 1275SOL    HW1 4724   4.224   1.117   4.254
 1275SOL    HW2 4725   4.126   1.238   4.205
 1276SOL     OW 4726   6.596   5.122   5.362
 1276SOL    HW1 4727   6.613   5.078   5.274
 1276SOL    HW2 4728   6.608   5.055   5.436
 1277SOL     OW 4729   1.905   5.664   5.943
 1277SOL    HW1 4730   1.932   5.581   5.893
 1277SOL    HW2 4731   1.926   5.744   5.887
 1278SOL     OW 4732   1.058   0.120   5.041
 1278SOL    HW1 4733   1.128   0.179   5.000
 1278SOL    HW2 4734   1.060   0.030   4.997
 1279SOL     OW 4735   1.887   4.717   0.417
 1279SOL    HW1 4736   1.836   4.638   0.384
 1279SOL    HW2 4737   1.900   4.782   0.343
 1280SOL     OW 4738   4.617   6.400   4.370
 1280SOL    HW1 4739   4.637   6.406   4.468
 1280SOL    HW2 4740   4.553   6.472   4.345
 1281SOL     OW 4741   2.558   6.382   3.336
 1281SOL    HW1 4742   2.593   6.358   3.427
 1281SOL    HW2 4743   2.576   6.307   3.272
 1282SOL     OW 4744   6.647   2.691   0.338
 1282SOL    HW1 4745   6.696   2.642   0.411
 1282SOL    HW2 4746   6.578   2.750   0.379
 1283SOL     OW 4747   6.919   3.653   5.041
 1283SOL    HW1 4748   6.941   3.750   5.029
 1283SOL    HW2 4749   6.838   3.629   4.987
 1284SOL     OW 4750   4.592   2.026   1.890
 1284SOL    HW1 4751   4.624   2.078   1.969
 1284SOL    HW2 4752   4.525   1.957   1.919
 1285SOL     OW 4753   4.351   1.751   6.190
 1285SOL    HW1 4754   4.338   1.849   6.207
 1285SOL    HW2 4755   4.298   1.724   6.110
 1286SOL     OW 4756   4.257   3.732   1.411
 1286SOL    HW1 4757   4.356   3.726   1.424
 1286SOL    HW2 4758   4.216   3.773   1.492
 1287SOL     OW 4759   5.347   4.787   4.945
 1287SOL    HW1 4760   5.394   4.874   4.960
 1287SOL    HW2 4761   5.378   4.720   5.013
 1288SOL     OW 4762   3.782   3.046   6.480
 1288SOL    HW1 4763   3.696   3.071   6.524
 1288SOL    HW2 4764   3.841   3.000   6.546
 1289SOL     OW 4765   6.930   6.910   0.966
 1289SOL    HW1 4766   6.987   6.980   1.010
 1289SOL    HW2 4767   6.845   6.952   0.935
 1290SOL     OW 4768   0.789   6.198   0.029
 1290SOL    HW1 4769   0.741   6.112   0.047
 1290SOL    HW2 4770   0.770   6.227   6.954
 1291SOL     OW 4771   0.549   4.148   3.899
 1291SOL    HW1 4772   0.524   4.223   3.961
 1291SOL    HW2 4773   0.615   4.088   3.944
 1292SOL     OW 4774   0.423   6.000   2.460
 1292SOL    HW1 4775   0.503   6.054   2.485
 1292SOL    HW2 4776   0.417   5.993   2.360
 1293SOL     OW 4777   1.761   2.529   0.279
 1293SOL    HW1 4778   1.704   2.612   0.277
 1293SOL    HW2 4779   1.788   2.511   0.373
 1294SOL     OW 4780   0.650   3.513   6.072
 1294SOL    HW1 4781   0.610   3.565   5.996
 1294SOL    HW2 4782   0.586   3.443   6.102
 1295SOL     OW 4783   0.203   3.527   1.354
 1295SOL    HW1 4784   0.156   3.447   1.315
 1295SOL    HW2 4785   0.301   3.508   1.360
 1296SOL     OW 4786   3.639   6.794   5.088
 1296SOL    HW1 4787   3.542   6.767   5.089
 1296SOL    HW2 4788   3.645   6.894   5.088
 1297SOL     OW 4789   0.244   0.413   1.228
 1297SOL    HW1 4790   0.304   0.356   1.284
 1297SOL    HW2 4791   0.297   0.457   1.156
 1298SOL     OW 4792   5.240   5.780   3.513
 1298SOL    HW1 4793   5.153   5.825   3.495
 1298SOL    HW2 4794   5.255   5.775   3.611
 1299SOL     OW 4795   2.321   2.760   3.755
 1299SOL    HW1 4796   2.260   2.819   3.808
 1299SOL    HW2 4797   2.298   2.664   3.773
 1300SOL     OW 4798   1.575   3.356   0.590
 1300SOL    HW1 4799   1.520   3.431   0.626
 1300SOL    HW2 4800   1.613   3.302   0.666
 1301SOL     OW 4801   0.841   6.191   1.147
 1301SOL    HW1 4802   0.774   6.119   1.127
 1301SOL    HW2 4803   0.863   6.189   1.244
 1302SOL     OW 4804   4.815   6.531   5.270
 1302SOL    HW1 4805   4.811   6.515   5.171
 1302SOL    HW2 4806   4.731   6.499   5.313
 1303SOL     OW 4807   3.719   2.074   1.700
 1303SOL    HW1 4808   3.792   2.027   1.750
 1303SOL    HW2 4809   3.703   2.163   1.741
 1304SOL     OW 4810   1.726   0.739   0.251
 1304SOL    HW1 4811   1.767   0.688   0.175
 1304SOL    HW2 4812   1.723   0.836   0.228
 1305SOL     OW 4813   5.486   3.506   0.231
 1305SOL    HW1 4814   5.514   3.514   0.135
 1305SOL    HW2 4815   5.565   3.519   0.290
 1306SOL     OW 4816   1.238   5.540   3.965
 1306SOL    HW1 4817   1.169   5.560   4.035
 1306SOL    HW2 4818   1.198   5.554   3.874
 1307SOL     OW 4819   1.563   4.261   3.773
 1307SOL    HW1 4820   1.594   4.293   3.863
 1307SOL    HW2 4821   1.495   4.189   3.785
 1308SOL     OW 4822   6.561   0.080   5.514
 1308SOL    HW1 4823   6.583   0.050   5.422
 1308SOL    HW2 4824   6.472   0.127   5.514
 1309SOL     OW 4825   5.514   4.983   5.042
 1309SOL    HW1 4826   5.526   5.044   5.121
 1309SOL    HW2 4827   5.595   4.924   5.033
 1310SOL     OW 4828   6.354   3.987   3.858
 1310SOL    HW1 4829   6.405   3.913   3.813
 1310SOL    HW2 4830   6.257   3.965   3.858
 1311SOL     OW 4831   6.570   5.641   5.699
 1311SOL    HW1 4832   6.490   5.643   5.761
 1311SOL    HW2 4833   6.555   5.572   5.629
 1312SOL     OW 4834   1.274   6.666   6.617
 1312SOL    HW1 4835   1.350   6.718   6.579
 1312SOL    HW2 4836   1.228   6.720   6.687
 1313SOL     OW 4837   0.327   4.680   2.646
 1313SOL    HW1 4838   0.345   4.640   2.736
 1313SOL    HW2 4839   0.398   4.653   2.582
 1314SOL     OW 4840   4.091   1.533   4.691
 1314SOL    HW1 4841   4.098   1.457   4.626
 1314SOL    HW2 4842   4.099   1.499   4.784
 1315SOL     OW 4843   0.524   1.814   2.586
 1315SOL    HW1 4844   0.604   1.832   2.642
 1315SOL    HW2 4845   0.442   1.845   2.634
 1316SOL     OW 4846   2.980   6.890   6.009
 1316SOL    HW1 4847   3.014   6.978   6.045
 1316SOL    HW2 4848   2.928   6.906   5.926
 1317SOL     OW 4849   1.868   4.301   5.716
 1317SOL    HW1 4850   1.888   4.212   5.675
 1317SOL    HW2 4851   1.873   4.372   5.645
 1318SOL     OW 4852   0.653   2.919   1.238
 1318SOL    HW1 4853   0.666   2.843   1.173
 1318SOL    HW2 4854   0.631   3.002   1.187
 1319SOL     OW 4855   6.775   5.969   0.528
 1319SOL    HW1 4856   6.809   6.052   0.573
 1319SOL    HW2 4857   6.849   5.927   0.475
 1320SOL     OW 4858   3.734   4.693   6.826
 1320SOL    HW1 4859   3.636   4.706   6.814
 1320SOL    HW2 4860   3.752   4.656   6.918
 1321SOL     OW 4861   5.157   2.694   6.463
 1321SOL    HW1 4862   5.166   2.597   6.481
 1321SOL    HW2 4863   5.185   2.746   6.544
 1322SOL     OW 4864   4.265   1.680   4.165
 1322SOL    HW1 4865   4.227   1.616   4.231
 1322SOL    HW2 4866   4.362   1.660   4.151
 1323SOL     OW 4867   4.164   6.997   6.200
 1323SOL    HW1 4868   4.227   0.023   6.138
 1323SOL    HW2 4869   4.130   6.913   6.158
 1324SOL     OW 4870   0.560   3.941   0.074
 1324SOL    HW1 4871   0.578   4.025   0.022
 1324SOL    HW2 4872   0.629   3.931   0.146
 1325SOL     OW 4873   2.660   6.421   4.495
 1325SOL    HW1 4874   2.570   6.398   4.532
 1325SOL    HW2 4875   2.650   6.458   4.403
 1326SOL     OW 4876   5.301   3.505   5.561
 1326SOL    HW1 4877   5.353   3.436   5.511
 1326SOL    HW2 4878   5.204   3.482   5.558
 1327SOL     OW 4879   1.273   6.691   1.076
 1327SOL    HW1 4880   1.346   6.667   1.140
 1327SOL    HW2 4881   1.305   6.677   0.982
 1328SOL     OW 4882   2.801   3.216   1.426
 1328SOL    HW1 4883   2.801   3.237   1.523
 1328SOL    HW2 4884   2.787   3.300   1.373
 1329SOL     OW 4885   0.706   2.104   1.942
 1329SOL    HW1 4886   0.743   2.144   1.858
 1329SOL    HW2 4887   0.615   2.067   1.924
 1330SOL     OW 4888   1.277   1.245   2.092
 1330SOL    HW1 4889   1.186   1.270   2.125
 1330SOL    HW2 4890   1.279   1.252   1.992
 1331SOL     OW 4891   4.931   3.291   2.833
 1331SOL    HW1 4892   4.915   3.313   2.929
 1331SOL    HW2 4893   4.940   3.375   2.780
 1332SOL     OW 4894   2.725   0.061   6.688
 1332SOL    HW1 4895   2.758   7.010   6.751
 1332SOL    HW2 4896   2.771   0.050   6.599
 1333SOL     OW 4897   3.216   3.767   3.894
 1333SOL    HW1 4898   3.243   3.680   3.934
 1333SOL    HW2 4899   3.283   3.837   3.917
 1334SOL     OW 4900   6.185   1.403   3.965
 1334SOL    HW1 4901   6.206   1.326   4.025
 1334SOL    HW2 4902   6.268   1.430   3.916
 1335SOL     OW 4903   2.201   2.192   1.958
 1335SOL    HW1 4904   2.243   2.148   2.037
 1335SOL    HW2 4905   2.273   2.220   1.894
 1336SOL     OW 4906   2.524   2.183   5.136
 1336SOL    HW1 4907   2.574   2.259   5.095
 1336SOL    HW2 4908   2.443   2.218   5.183
 1337SOL     OW 4909   1.275   1.087   3.237
 1337SOL    HW1 4910   1.371   1.081   3.263
 1337SOL    HW2 4911   1.234   0.996   3.241
 1338SOL     OW 4912   6.397   2.127   4.680
 1338SOL    HW1 4913   6.343   2.089   4.754
 1338SOL    HW2 4914   6.462   2.194   4.716
 1339SOL     OW 4915   6.120   2.100   6.868
 1339SOL    HW1 4916   6.104   2.199   6.869
 1339SOL    HW2 4917   6.142   2.072   6.774
 1340SOL     OW 4918   5.816   2.090   2.646
 1340SOL    HW1 4919   5.731   2.072   2.695
 1340SOL    HW2 4920   5.881   2.135   2.707
 1341SOL     OW 4921   4.597   6.450   6.676
 1341SOL    HW1 4922   4.523   6.381   6.675
 1341SOL    HW2 4923   4.684   6.404   6.660
 1342SOL     OW 4924   2.867   5.651   5.884
 1342SOL    HW1 4925   2.858   5.552   5.893
 1342SOL    HW2 4926   2.787   5.688   5.837
 1343SOL     OW 4927   5.009   5.577   2.286
 1343SOL    HW1 4928   5.015   5.490   2.237
 1343SOL    HW2 4929   5.015   5.560   2.385
 1344SOL     OW 4930   0.659   6.053   4.405
 1344SOL    HW1 4931   0.575   6.074   4.456
 1344SOL    HW2 4932   0.698   6.137   4.369
 1345SOL     OW 4933   0.948   6.024   3.117
 1345SOL    HW1 4934   0.929   6.076   3.034
 1345SOL    HW2 4935   0.999   5.942   3.093
 1346SOL     OW 4936   0.973   5.526   4.625
 1346SOL    HW1 4937   0.984   5.497   4.720
 1346SOL    HW2 4938   0.878   5.516   4.597
 1347SOL     OW 4939   0.221   6.699   6.080
 1347SOL    HW1 4940   0.192   6.785   6.037
 1347SOL    HW2 4941   0.184   6.622   6.028
 1348SOL     OW 4942   5.936   6.426   3.939
 1348SOL    HW1 4943   5.854   6.370   3.924
 1348SOL    HW2 4944   5.979   6.445   3.851
 1349SOL     OW 4945   5.054   3.119   5.499
 1349SOL    HW1 4946   5.041   3.028   5.539
 1349SOL    HW2 4947   5.001   3.127   5.415
 1350SOL     OW 4948   5.356   4.989   5.939
 1350SOL    HW1 4949   5.357   5.066   5.876
 1350SOL    HW2 4950   5.291   5.007   6.014
 1351SOL     OW 4951   5.808   1.816   3.102
 1351SOL    HW1 4952   5.715   1.836   3.071
 1351SOL    HW2 4953   5.832   1.722   3.079
 1352SOL     OW 4954   6.789   5.729   4.047
 1352SOL    HW1 4955   6.842   5.648   4.075
 1352SOL    HW2 4956   6.786   5.734   3.947
 1353SOL     OW 4957   0.347   2.770   0.277
 1353SOL    HW1 4958   0.396   2.686   0.300
 1353SOL    HW2 4959   0.380   2.845   0.334
 1354SOL     OW 4960   0.798   3.743   1.690
 1354SOL    HW1 4961   0.775   3.809   1.618
 1354SOL    HW2 4962   0.896   3.748   1.710
 1355SOL     OW 4963   5.624   2.639   4.438
 1355SOL    HW1 4964   5.634   2.731   4.400
 1355SOL    HW2 4965   5.539   2.599   4.403
 1356SOL     OW 4966   3.702   3.503   1.967
 1356SOL    HW1 4967   3.716   3.561   2.047
 1356SOL    HW2 4968   3.790   3.484   1.924
 1357SOL     OW 4969   0.224   4.042   6.393
 1357SOL    HW1 4970   0.166   3.962   6.410
 1357SOL    HW2 4971   0.195   4.118   6.452
 1358SOL     OW 4972   4.226   6.672   6.093
 1358SOL    HW1 4973   4.305   6.662   6.154
 1358SOL    HW2 4974   4.257   6.684   5.999
 1359SOL     OW 4975   5.689   4.849   2.482
 1359SOL    HW1 4976   5.716   4.859   2.386
 1359SOL    HW2 4977   5.771   4.845   2.539
 1360SOL     OW 4978   2.657   3.302   0.289
 1360SOL    HW1 4979   2.677   3.317   0.386
 1360SOL    HW2 4980   2.609   3.382   0.252
 1361SOL     OW 4981   5.994   4.265   5.739
 1361SOL    HW1 4982   6.080   4.217   5.753
 1361SOL    HW2 4983   5.997   4.314   5.652
 1362SOL     OW 4984   3.471   4.176   3.938
 1362SOL    HW1 4985   3.427   4.196   3.851
 1362SOL    HW2 4986   3.566   4.149   3.922
 1363SOL     OW 4987   6.575   5.241   3.407
 1363SOL    HW1 4988   6.505   5.170   3.398
 1363SOL    HW2 4989   6.664   5.203   3.383
 1364SOL     OW 4990   5.695   4.398   1.087
 1364SOL    HW1 4991   5.751   4.480   1.074
 1364SOL    HW2 4992   5.637   4.384   1.007
 1365SOL     OW 4993   0.751   4.434   6.280
 1365SOL    HW1 4994   0.803   4.427   6.365
 1365SOL    HW2 4995   0.813   4.429   6.202
 1366SOL     OW 4996   1.518   5.389   0.034
 1366SOL    HW1 4997   1.435   5.350   7.012
 1366SOL    HW2 4998   1.525   5.486   0.011
 1367SOL     OW 4999   1.841   0.073   3.641
 1367SOL    HW1 5000   1.797   0.013   3.707
 1367SOL    HW2 5001   1.867   0.020   3.560
 1368SOL     OW 5002   6.099   0.442   3.802
 1368SOL    HW1 5003   6.075   0.487   3.716
 1368SOL    HW2 5004   6.047   0.357   3.811
 1369SOL     OW 5005   2.488   6.579   1.879
 1369SOL    HW1 5006   2.498   6.670   1.839
 1369SOL    HW2 5007   2.445   6.587   1.969
 1370SOL     OW 5008   3.734   0.540   1.237
 1370SOL    HW1 5009   3.701   0.550   1.330
 1370SOL    HW2 5010   3.756   0.443   1.219
 1371SOL     OW 5011   6.066   1.843   4.348
 1371SOL    HW1 5012   5.975   1.869   4.315
 1371SOL    HW2 5013   6.131   1.917   4.330
 1372SOL     OW 5014   1.394   3.378   0.206
 1372SOL    HW1 5015   1.387   3.394   0.108
 1372SOL    HW2 5016   1.481   3.415   0.240
 1373SOL     OW 5017   5.490   3.900   0.005
 1373SOL    HW1 5018   5.456   3.827   6.965
 1373SOL    HW2 5019   5.413   3.955   0.038
 1374SOL     OW 5020   4.618   2.566   0.209
 1374SOL    HW1 5021   4.572   2.483   0.240
 1374SOL    HW2 5022   4.715   2.561   0.233
 1375SOL     OW 5023   0.153   4.212   6.591
 1375SOL    HW1 5024   0.083   4.163   6.642
 1375SOL    HW2 5025   0.220   4.251   6.655
 1376SOL     OW 5026   5.000   3.797   4.174
 1376SOL    HW1 5027   4.983   3.704   4.208
 1376SOL    HW2 5028   5.071   3.795   4.104
 1377SOL     OW 5029   6.850   3.931   5.441
 1377SOL    HW1 5030   6.899   3.914   5.526
 1377SOL    HW2 5031   6.915   3.931   5.364
 1378SOL     OW 5032   6.560   1.032   4.838
 1378SOL    HW1 5033   6.606   1.105   4.787
 1378SOL    HW2 5034   6.494   0.986   4.778
 1379SOL     OW 5035   3.044   7.002   2.665
 1379SOL    HW1 5036   3.088   0.022   2.747
 1379SOL    HW2 5037   3.062   0.042   2.587
 1380SOL     OW 5038   0.320   0.320   2.722
 1380SOL    HW1 5039   0.299   0.413   2.692
 1380SOL    HW2 5040   0.250   0.289   2.786
 1381SOL     OW 5041   5.304   2.295   6.814
 1381SOL    HW1 5042   5.306   2.196   6.806
 1381SOL    HW2 5043   5.327   2.322   6.907
 1382SOL     OW 5044   4.789   4.502   0.668
 1382SOL    HW1 5045   4.727   4.565   0.620
 1382SOL    HW2 5046   4.788   4.413   0.622
 1383SOL     OW 5047   0.681   0.059   0.577
 1383SOL    HW1 5048   0.725   6.998   0.618
 1383SOL    HW2 5049   0.630   0.108   0.647
 1384SOL     OW 5050   3.658   1.063   2.504
 1384SOL    HW1 5051   3.655   1.147   2.559
 1384SOL    HW2 5052   3.663   0.984   2.565
 1385SOL     OW 5053   0.692   3.103   2.684
 1385SOL    HW1 5054   0.706   3.049   2.767
 1385SOL    HW2 5055   0.757   3.074   2.614
 1386SOL     OW 5056   2.318   1.292   4.362
 1386SOL    HW1 5057   2.380   1.227   4.405
 1386SOL    HW2 5058   2.302   1.265   4.267
 1387SOL     OW 5059   3.969   6.321   3.237
 1387SOL    HW1 5060   3.999   6.232   3.273
 1387SOL    HW2 5061   4.031   6.350   3.164
 1388SOL     OW 5062   0.470   6.348   3.300
 1388SOL    HW1 5063   0.477   6.405   3.218
 1388SOL    HW2 5064   0.382   6.300   3.299
 1389SOL     OW 5065   0.540   1.530   3.909
 1389SOL    HW1 5066   0.492   1.617   3.903
 1389SOL    HW2 5067   0.630   1.544   3.951
 1390SOL     OW 5068   4.649   2.097   5.919
 1390SOL    HW1 5069   4.736   2.125   5.959
 1390SOL    HW2 5070   4.577   2.159   5.948
 1391SOL     OW 5071   6.497   0.704   5.493
 1391SOL    HW1 5072   6.470   0.608   5.504
 1391SOL    HW2 5073   6.433   0.749   5.432
 1392SOL     OW 5074   5.533   5.467   5.973
 1392SOL    HW1 5075   5.485   5.422   5.898
 1392SOL    HW2 5076   5.539   5.404   6.050
 1393SOL     OW 5077   5.516   2.991   6.833
 1393SOL    HW1 5078   5.472   3.064   6.781
 1393SOL    HW2 5079   5.609   3.021   6.858
 1394SOL     OW 5080   3.706   0.095   3.487
 1394SOL    HW1 5081   3.716   0.179   3.540
 1394SOL    HW2 5082   3.617   0.054   3.508
 1395SOL     OW 5083   1.501   3.858   3.115
 1395SOL    HW1 5084   1.506   3.758   3.115
 1395SOL    HW2 5085   1.538   3.894   3.030
 1396SOL     OW 5086   1.750   6.680   3.791
 1396SOL    HW1 5087   1.755   6.665   3.692
 1396SOL    HW2 5088   1.654   6.680   3.820
 1397SOL     OW 5089   0.726   6.579   4.637
 1397SOL    HW1 5090   0.734   6.499   4.697
 1397SOL    HW2 5091   0.672   6.649   4.684
 1398SOL     OW 5092   0.833   2.014   0.229
 1398SOL    HW1 5093   0.844   2.045   0.324
 1398SOL    HW2 5094   0.737   1.993   0.211
 1399SOL     OW 5095   4.311   0.023   0.538
 1399SOL    HW1 5096   4.322   0.008   0.636
 1399SOL    HW2 5097   4.385   6.997   0.489
 1400SOL     OW 5098   6.428   0.918   4.265
 1400SOL    HW1 5099   6.345   0.972   4.277
 1400SOL    HW2 5100   6.508   0.977   4.279
 1401SOL     OW 5101   6.115   6.767   4.426
 1401SOL    HW1 5102   6.051   6.741   4.354
 1401SOL    HW2 5103   6.152   6.684   4.469
 1402SOL     OW 5104   5.367   4.121   0.110
 1402SOL    HW1 5105   5.413   4.112   0.199
 1402SOL    HW2 5106   5.425   4.175   0.049
 1403SOL     OW 5107   2.426   2.389   0.911
 1403SOL    HW1 5108   2.424   2.319   0.839
 1403SOL    HW2 5109   2.441   2.346   1.000
 1404SOL     OW 5110   4.564   6.987   0.399
 1404SOL    HW1 5111   4.607   0.042   0.348
 1404SOL    HW2 5112   4.577   7.002   0.497
 1405SOL     OW 5113   2.613   3.602   0.247
 1405SOL    HW1 5114   2.562   3.562   0.171
 1405SOL    HW2 5115   2.549   3.627   0.320
 1406SOL     OW 5116   2.342   4.699   1.120
 1406SOL    HW1 5117   2.390   4.731   1.202
 1406SOL    HW2 5118   2.379   4.746   1.040
 1407SOL     OW 5119   1.659   3.661   3.373
 1407SOL    HW1 5120   1.750   3.675   3.411
 1407SOL    HW2 5121   1.647   3.564   3.350
 1408SOL     OW 5122   5.214   6.456   6.587
 1408SOL    HW1 5123   5.235   6.553   6.583
 1408SOL    HW2 5124   5.220   6.418   6.494
 1409SOL     OW 5125   0.152   0.757   5.261
 1409SOL    HW1 5126   0.248   0.782   5.272
 1409SOL    HW2 5127   0.119   0.716   5.345
 1410SOL     OW 5128   3.354   3.895   6.971
 1410SOL    HW1 5129   3.363   3.989   6.939
 1410SOL    HW2 5130   3.299   3.893   0.036
 1411SOL     OW 5131   3.686   6.177   6.200
 1411SOL    HW1 5132   3.588   6.161   6.192
 1411SOL    HW2 5133   3.703   6.272   6.226
 1412SOL     OW 5134   0.756   4.641   1.711
 1412SOL    HW1 5135   0.793   4.732   1.695
 1412SOL    HW2 5136   0.740   4.629   1.809
 1413SOL     OW 5137   1.810   1.959   4.397
 1413SOL    HW1 5138   1.820   1.997   4.489
 1413SOL    HW2 5139   1.894   1.978   4.345
 1414SOL     OW 5140   1.482   2.754   1.575
 1414SOL    HW1 5141   1.395   2.714   1.604
 1414SOL    HW2 5142   1.552   2.683   1.570
 1415SOL     OW 5143   3.013   2.232   4.522
 1415SOL    HW1 5144   3.034   2.240   4.619
 1415SOL    HW2 5145   3.096   2.205   4.472
 1416SOL     OW 5146   4.190   0.088   4.501
 1416SOL    HW1 5147   4.213   0.186   4.502
 1416SOL    HW2 5148   4.272   0.035   4.522
 1417SOL     OW 5149   3.376   3.096   6.101
 1417SOL    HW1 5150   3.397   3.190   6.130
 1417SOL    HW2 5151   3.308   3.098   6.028
 1418SOL     OW 5152   3.175   3.434   0.379
 1418SOL    HW1 5153   3.269   3.420   0.346
 1418SOL    HW2 5154   3.176   3.443   0.478
 1419SOL     OW 5155   1.713   5.420   4.141
 1419SOL    HW1 5156   1.630   5.464   4.175
 1419SOL    HW2 5157   1.689   5.360   4.065
 1420SOL     OW 5158   4.025   5.649   2.796
 1420SOL    HW1 5159   4.045   5.608   2.707
 1420SOL    HW2 5160   4.102   5.636   2.858
 1421SOL     OW 5161   1.190   4.669   4.452
 1421SOL    HW1 5162   1.280   4.676   4.496
 1421SOL    HW2 5163   1.186   4.730   4.373
 1422SOL     OW 5164   2.954   4.620   5.529
 1422SOL    HW1 5165   2.891   4.673   5.585
 1422SOL    HW2 5166   2.911   4.534   5.501
 1423SOL     OW 5167   4.180   1.796   4.801
 1423SOL    HW1 5168   4.126   1.873   4.837
 1423SOL    HW2 5169   4.135   1.710   4.827
 1424SOL     OW 5170   6.092   3.365   6.977
 1424SOL    HW1 5171   6.070   3.463   6.979
 1424SOL    HW2 5172   6.048   3.320   0.035
 1425SOL     OW 5173   2.471   6.101   4.775
 1425SOL    HW1 5174   2.560   6.078   4.813
 1425SOL    HW2 5175   2.460   6.056   4.685
 1426SOL     OW 5176   1.647   1.854   5.902
 1426SOL    HW1 5177   1.684   1.824   5.814
 1426SOL    HW2 5178   1.639   1.953   5.902
 1427SOL     OW 5179   0.303   0.823   3.602
 1427SOL    HW1 5180   0.272   0.756   3.534
 1427SOL    HW2 5181   0.391   0.794   3.640
 1428SOL     OW 5182   7.017   2.369   1.555
 1428SOL    HW1 5183   6.992   2.302   1.625
 1428SOL    HW2 5184   6.935   2.414   1.521
 1429SOL     OW 5185   5.744   1.891   6.878
 1429SOL    HW1 5186   5.780   1.961   6.940
 1429SOL    HW2 5187   5.760   1.800   6.919
 1430SOL     OW 5188   2.052   3.711   4.418
 1430SOL    HW1 5189   2.098   3.639   4.365
 1430SOL    HW2 5190   2.110   3.793   4.420
 1431SOL     OW 5191   2.516   2.445   6.256
 1431SOL    HW1 5192   2.494   2.522   6.317
 1431SOL    HW2 5193   2.586   2.388   6.299
 1432SOL     OW 5194   1.909   1.493   1.623
 1432SOL    HW1 5195   1.843   1.540   1.565
 1432SOL    HW2 5196   1.861   1.435   1.689
 1433SOL     OW 5197   3.238   6.675   3.788
 1433SOL    HW1 5198   3.202   6.688   3.880
 1433SOL    HW2 5199   3.337   6.693   3.788
 1434SOL     OW 5200   6.490   1.760   6.460
 1434SOL    HW1 5201   6.548   1.840   6.479
 1434SOL    HW2 5202   6.406   1.790   6.415
 1435SOL     OW 5203   0.208   0.807   4.078
 1435SOL    HW1 5204   0.145   0.729   4.078
 1435SOL    HW2 5205   0.185   0.867   4.155
 1436SOL     OW 5206   5.867   3.214   0.399
 1436SOL    HW1 5207   5.793   3.245   0.458
 1436SOL    HW2 5208   5.953   3.256   0.429
 1437SOL     OW 5209   3.709   1.145   5.178
 1437SOL    HW1 5210   3.712   1.089   5.095
 1437SOL    HW2 5211   3.775   1.220   5.170
 1438SOL     OW 5212   2.829   0.925   1.616
 1438SOL    HW1 5213   2.872   0.849   1.664
 1438SOL    HW2 5214   2.866   1.011   1.650
 1439SOL     OW 5215   0.674   5.208   0.564
 1439SOL    HW1 5216   0.596   5.255   0.607
 1439SOL    HW2 5217   0.730   5.275   0.516
 1440SOL     OW 5218   3.616   3.234   4.738
 1440SOL    HW1 5219   3.616   3.334   4.745
 1440SOL    HW2 5220   3.582   3.195   4.823
 1441SOL     OW 5221   6.408   3.230   3.903
 1441SOL    HW1 5222   6.447   3.142   3.930
 1441SOL    HW2 5223   6.427   3.246   3.806
 1442SOL     OW 5224   6.056   4.630   0.485
 1442SOL    HW1 5225   6.081   4.584   0.400
 1442SOL    HW2 5226   6.139   4.663   0.531
 1443SOL     OW 5227   1.136   1.743   3.968
 1443SOL    HW1 5228   1.222   1.695   3.987
 1443SOL    HW2 5229   1.147   1.840   3.989
 1444SOL     OW 5230   4.534   6.414   1.683
 1444SOL    HW1 5231   4.505   6.355   1.758
 1444SOL    HW2 5232   4.486   6.389   1.600
 1445SOL     OW 5233   0.550   2.848   2.086
 1445SOL    HW1 5234   0.604   2.764   2.076
 1445SOL    HW2 5235   0.455   2.830   2.060
 1446SOL     OW 5236   5.079   2.968   6.923
 1446SOL    HW1 5237   5.031   2.907   6.986
 1446SOL    HW2 5238   5.169   2.992   6.961
 1447SOL     OW 5239   6.573   0.132   4.838
 1447SOL    HW1 5240   6.528   0.199   4.780
 1447SOL    HW2 5241   6.515   0.052   4.848
 1448SOL     OW 5242   5.625   1.728   0.226
 1448SOL    HW1 5243   5.578   1.646   0.260
 1448SOL    HW2 5244   5.724   1.718   0.240
 1449SOL     OW 5245   6.170   6.927   6.766
 1449SOL    HW1 5246   6.240   6.903   6.698
 1449SOL    HW2 5247   6.157   0.007   6.767
 1450SOL     OW 5248   0.179   2.437   2.347
 1450SOL    HW1 5249   0.085   2.468   2.332
 1450SOL    HW2 5250   0.223   2.494   2.416
 1451SOL     OW 5251   3.043   0.834   2.581
 1451SOL    HW1 5252   3.139   0.807   2.575
 1451SOL    HW2 5253   3.019   0.889   2.501
 1452SOL     OW 5254   5.250   1.967   4.353
 1452SOL    HW1 5255   5.270   1.922   4.440
 1452SOL    HW2 5256   5.158   2.007   4.356
 1453SOL     OW 5257   6.160   3.787   5.281
 1453SOL    HW1 5258   6.124   3.876   5.312
 1453SOL    HW2 5259   6.092   3.743   5.223
 1454SOL     OW 5260   6.315   2.947   2.159
 1454SOL    HW1 5261   6.249   3.005   2.207
 1454SOL    HW2 5262   6.323   2.859   2.206
 1455SOL     OW 5263   1.571   0.075   1.719
 1455SOL    HW1 5264   1.602   0.096   1.812
 1455SOL    HW2 5265   1.472   0.067   1.717
 1456SOL     OW 5266   6.874   6.700   5.522
 1456SOL    HW1 5267   6.936   6.778   5.522
 1456SOL    HW2 5268   6.787   6.726   5.562
 1457SOL     OW 5269   1.894   0.555   1.569
 1457SOL    HW1 5270   1.960   0.496   1.523
 1457SOL    HW2 5271   1.848   0.504   1.641
 1458SOL     OW 5272   4.919   6.365   4.016
 1458SOL    HW1 5273   4.994   6.306   4.045
 1458SOL    HW2 5274   4.936   6.398   3.923
 1459SOL     OW 5275   2.851   4.380   6.394
 1459SOL    HW1 5276   2.761   4.380   6.437
 1459SOL    HW2 5277   2.842   4.407   6.298
 1460SOL     OW 5278   0.144   5.538   5.674
 1460SOL    HW1 5279   0.098   5.547   5.762
 1460SOL    HW2 5280   0.087   5.484   5.612
 1461SOL     OW 5281   0.037   4.439   3.344
 1461SOL    HW1 5282   0.007   4.534   3.343
 1461SOL    HW2 5283   6.999   4.385   3.281
 1462SOL     OW 5284   6.108   1.595   6.516
 1462SOL    HW1 5285   6.195   1.642   6.507
 1462SOL    HW2 5286   6.060   1.596   6.428
 1463SOL     OW 5287   6.954   6.150   6.286
 1463SOL    HW1 5288   6.964   6.248   6.270
 1463SOL    HW2 5289   6.899   6.109   6.214
 1464SOL     OW 5290   6.666   6.667   0.817
 1464SOL    HW1 5291   6.721   6.598   0.770
 1464SOL    HW2 5292   6.691   6.758   0.785
 1465SOL     OW 5293   1.358   1.579   2.729
 1465SOL    HW1 5294   1.384   1.528   2.647
 1465SOL    HW2 5295   1.260   1.569   2.746
 1466SOL     OW 5296   0.974   0.058   2.800
 1466SOL    HW1 5297   0.968   0.100   2.891
 1466SOL    HW2 5298   1.050   7.012   2.798
 1467SOL     OW 5299   2.127   0.282   2.240
 1467SOL    HW1 5300   2.106   0.364   2.186
 1467SOL    HW2 5301   2.215   0.244   2.211
 1468SOL     OW 5302   5.542   5.813   2.627
 1468SOL    HW1 5303   5.511   5.742   2.689
 1468SOL    HW2 5304   5.482   5.892   2.633
 1469SOL     OW 5305   0.615   0.396   3.049
 1469SOL    HW1 5306   0.684   0.324   3.061
 1469SOL    HW2 5307   0.525   0.354   3.037
 1470SOL     OW 5308   1.039   0.840   2.642
 1470SOL    HW1 5309   1.050   0.763   2.578
 1470SOL    HW2 5310   0.972   0.904   2.606
 1471SOL     OW 5311   0.777   0.815   0.093
 1471SOL    HW1 5312   0.835   0.739   0.123
 1471SOL    HW2 5313   0.692   0.779   0.055
 1472SOL     OW 5314   4.159   5.198   4.572
 1472SOL    HW1 5315   4.070   5.152   4.574
 1472SOL    HW2 5316   4.226   5.143   4.621
 1473SOL     OW 5317   5.593   6.692   3.742
 1473SOL    HW1 5318   5.512   6.696   3.684
 1473SOL    HW2 5319   5.614   6.597   3.763
 1474SOL     OW 5320   6.680   6.110   3.838
 1474SOL    HW1 5321   6.706   6.052   3.760
 1474SOL    HW2 5322   6.648   6.198   3.805
 1475SOL     OW 5323   6.857   0.292   1.126
 1475SOL    HW1 5324   6.930   0.305   1.193
 1475SOL    HW2 5325   6.874   0.348   1.046
 1476SOL     OW 5326   1.266   1.373   1.242
 1476SOL    HW1 5327   1.325   1.352   1.163
 1476SOL    HW2 5328   1.226   1.289   1.278
 1477SOL     OW 5329   2.574   0.417   6.496
 1477SOL    HW1 5330   2.490   0.470   6.483
 1477SOL    HW2 5331   2.644   0.448   6.432
 1478SOL     OW 5332   5.299   4.193   0.797
 1478SOL    HW1 5333   5.271   4.109   0.751
 1478SOL    HW2 5334   5.315   4.174   0.894
 1479SOL     OW 5335   1.473   3.783   6.833
 1479SOL    HW1 5336   1.512   3.874   6.842
 1479SOL    HW2 5337   1.478   3.735   6.921
 1480SOL     OW 5338   2.531   0.188   0.223
 1480SOL    HW1 5339   2.454   0.243   0.255
 1480SOL    HW2 5340   2.519   0.166   0.126
 1481SOL     OW 5341   6.683   1.562   4.752
 1481SOL    HW1 5342   6.636   1.575   4.664
 1481SOL    HW2 5343   6.778   1.593   4.744
 1482SOL     OW 5344   5.392   2.039   1.023
 1482SOL    HW1 5345   5.345   1.969   0.968
 1482SOL    HW2 5346   5.466   2.079   0.969
 1483SOL     OW 5347   0.339   2.904   6.115
 1483SOL    HW1 5348   0.253   2.925   6.068
 1483SOL    HW2 5349   0.341   2.807   6.140
 1484SOL     OW 5350   6.357   4.516   3.842
 1484SOL    HW1 5351   6.440   4.467   3.817
 1484SOL    HW2 5352   6.358   4.607   3.800
 1485SOL     OW 5353   4.470   1.846   3.277
 1485SOL    HW1 5354   4.390   1.904   3.293
 1485SOL    HW2 5355   4.546   1.903   3.246
 1486SOL     OW 5356   4.640   2.658   3.210
 1486SOL    HW1 5357   4.650   2.721   3.287
 1486SOL    HW2 5358   4.730   2.630   3.178
 1487SOL     OW 5359   5.607   2.480   6.940
 1487SOL    HW1 5360   5.556   2.425   7.006
 1487SOL    HW2 5361   5.694   2.509   6.980
 1488SOL     OW 5362   6.211   2.032   2.792
 1488SOL    HW1 5363   6.156   1.997   2.868
 1488SOL    HW2 5364   6.183   1.986   2.707
 1489SOL     OW 5365   3.621   4.962   4.602
 1489SOL    HW1 5366   3.573   4.887   4.555
 1489SOL    HW2 5367   3.623   4.942   4.701
 1490SOL     OW 5368   1.317   2.708   1.231
 1490SOL    HW1 5369   1.388   2.728   1.299
 1490SOL    HW2 5370   1.228   2.738   1.266
 1491SOL     OW 5371   6.530   3.790   3.717
 1491SOL    HW1 5372   6.524   3.697   3.754
 1491SOL    HW2 5373   6.621   3.827   3.734
 1492SOL     OW 5374   6.007   1.886   1.720
 1492SOL    HW1 5375   5.945   1.808   1.712
 1492SOL    HW2 5376   5.981   1.941   1.799
 1493SOL     OW 5377   5.169   0.692   4.912
 1493SOL    HW1 5378   5.168   0.635   4.994
 1493SOL    HW2 5379   5.138   0.638   4.834
 1494SOL     OW 5380   4.484   2.268   6.040
 1494SOL    HW1 5381   4.388   2.295   6.035
 1494SOL    HW2 5382   4.518   2.282   6.133
 1495SOL     OW 5383   0.598   3.232   3.212
 1495SOL    HW1 5384   0.596   3.261   3.116
 1495SOL    HW2 5385   0.687   3.256   3.251
 1496SOL     OW 5386   0.989   0.557   2.051
 1496SOL    HW1 5387   0.948   0.619   1.984
 1496SOL    HW2 5388   0.946   0.467   2.044
 1497SOL     OW 5389   0.516   4.236   2.859
 1497SOL    HW1 5390   0.593   4.227   2.796
 1497SOL    HW2 5391   0.516   4.159   2.923
 1498SOL     OW 5392   1.457   4.683   6.286
 1498SOL    HW1 5393   1.484   4.591   6.313
 1498SOL    HW2 5394   1.419   4.732   6.365
 1499SOL     OW 5395   1.018   3.431   5.665
 1499SOL    HW1 5396   0.956   3.352   5.677
 1499SOL    HW2 5397   0.979   3.492   5.596
 1500SOL     OW 5398   5.542   6.671   6.976
 1500SOL    HW1 5399   5.553   6.633   0.048
 1500SOL    HW2 5400   5.595   6.617   6.910
 1501SOL     OW 5401   3.959   0.920   6.337
 1501SOL    HW1 5402   3.861   0.939   6.340
 1501SOL    HW2 5403   4.006   0.976   6.404
 1502SOL     OW 5404   6.165   6.491   1.349
 1502SOL    HW1 5405   6.173   6.562   1.418
 1502SOL    HW2 5406   6.070   6.461   1.341
 1503SOL     OW 5407   2.834   1.810   1.502
 1503SOL    HW1 5408   2.790   1.741   1.559
 1503SOL    HW2 5409   2.781   1.895   1.506
 1504SOL     OW 5410   1.856   0.741   5.208
 1504SOL    HW1 5411   1.904   0.807   5.151
 1504SOL    HW2 5412   1.817   0.788   5.288
 1505SOL     OW 5413   5.482   0.698   6.819
 1505SOL    HW1 5414   5.451   0.603   6.815
 1505SOL    HW2 5415   5.499   0.724   6.914
 1506SOL     OW 5416   1.904   5.755   2.436
 1506SOL    HW1 5417   1.849   5.708   2.505
 1506SOL    HW2 5418   1.848   5.774   2.356
 1507SOL     OW 5419   1.586   2.228   5.280
 1507SOL    HW1 5420   1.622   2.315   5.315
 1507SOL    HW2 5421   1.580   2.232   5.181
 1508SOL     OW 5422   5.752   0.450   0.835
 1508SOL    HW1 5423   5.765   0.383   0.761
 1508SOL    HW2 5424   5.839   0.467   0.881
 1509SOL     OW 5425   4.011   2.007   6.085
 1509SOL    HW1 5426   4.023   1.920   6.038
 1509SOL    HW2 5427   3.914   2.030   6.089
 1510SOL     OW 5428   5.933   2.074   3.659
 1510SOL    HW1 5429   5.933   2.012   3.737
 1510SOL    HW2 5430   5.999   2.041   3.591
 1511SOL     OW 5431   2.446   2.648   0.349
 1511SOL    HW1 5432   2.352   2.646   0.383
 1511SOL    HW2 5433   2.474   2.743   0.333
 1512SOL     OW 5434   0.280   6.835   1.715
 1512SOL    HW1 5435   0.196   6.880   1.746
 1512SOL    HW2 5436   0.322   6.889   1.642
 1513SOL     OW 5437   4.427   0.437   3.887
 1513SOL    HW1 5438   4.452   0.473   3.977
 1513SOL    HW2 5439   4.508   0.433   3.829
 1514SOL     OW 5440   5.738   2.626   4.976
 1514SOL    HW1 5441   5.763   2.721   4.995
 1514SOL    HW2 5442   5.728   2.613   4.877
 1515SOL     OW 5443   0.013   3.292   6.009
 1515SOL    HW1 5444   7.013   3.386   6.035
 1515SOL    HW2 5445   0.068   3.291   5.925
 1516SOL     OW 5446   0.538   0.362   0.676
 1516SOL    HW1 5447   0.539   0.277   0.729
 1516SOL    HW2 5448   0.631   0.385   0.646
 1517SOL     OW 5449   4.550   6.014   3.221
 1517SOL    HW1 5450   4.479   5.983   3.158
 1517SOL    HW2 5451   4.516   6.090   3.276
 1518SOL     OW 5452   6.945   3.073   0.082
 1518SOL    HW1 5453   6.846   3.082   0.076
 1518SOL    HW2 5454   6.976   3.108   0.171
 1519SOL     OW 5455   6.877   4.731   2.126
 1519SOL    HW1 5456   6.823   4.789   2.187
 1519SOL    HW2 5457   6.833   4.642   2.116
 1520SOL     OW 5458   1.453   3.304   2.373
 1520SOL    HW1 5459   1.391   3.373   2.337
 1520SOL    HW2 5460   1.528   3.289   2.308
 1521SOL     OW 5461   1.767   3.371   0.107
 1521SOL    HW1 5462   1.806   3.279   0.108
 1521SOL    HW2 5463   1.708   3.384   0.186
 1522SOL     OW 5464   6.517   1.557   5.361
 1522SOL    HW1 5465   6.522   1.621   5.437
 1522SOL    HW2 5466   6.596   1.571   5.301
 1523SOL     OW 5467   4.961   4.043   6.712
 1523SOL    HW1 5468   5.000   4.135   6.708
 1523SOL    HW2 5469   4.879   4.038   6.655
 1524SOL     OW 5470   0.872   1.931   1.598
 1524SOL    HW1 5471   0.966   1.899   1.588
 1524SOL    HW2 5472   0.813   1.855   1.623
 1525SOL     OW 5473   5.194   2.796   6.701
 1525SOL    HW1 5474   5.124   2.828   6.764
 1525SOL    HW2 5475   5.266   2.748   6.751
 1526SOL     OW 5476   0.844   1.637   0.752
 1526SOL    HW1 5477   0.830   1.631   0.851
 1526SOL    HW2 5478   0.895   1.721   0.732
 1527SOL     OW 5479   3.929   0.737   5.263
 1527SOL    HW1 5480   4.026   0.716   5.249
 1527SOL    HW2 5481   3.919   0.794   5.345
 1528SOL     OW 5482   5.181   6.074   2.862
 1528SOL    HW1 5483   5.242   6.138   2.815
 1528SOL    HW2 5484   5.236   6.012   2.919
 1529SOL     OW 5485   3.790   1.520   0.002
 1529SOL    HW1 5486   3.718   1.473   0.053
 1529SOL    HW2 5487   3.800   1.613   0.037
 1530SOL     OW 5488   3.004   0.592   1.423
 1530SOL    HW1 5489   3.051   0.663   1.372
 1530SOL    HW2 5490   3.068   0.549   1.487
 1531SOL     OW 5491   5.986   0.964   5.111
 1531SOL    HW1 5492   6.002   1.063   5.110
 1531SOL    HW2 5493   5.951   0.937   5.200
 1532SOL     OW 5494   2.605   2.406   5.409
 1532SOL    HW1 5495   2.599   2.496   5.452
 1532SOL    HW2 5496   2.515   2.362   5.412
 1533SOL     OW 5497   0.214   3.250   6.256
 1533SOL    HW1 5498   0.166   3.278   6.173
 1533SOL    HW2 5499   0.186   3.158   6.282
 1534SOL     OW 5500   1.945   4.960   0.286
 1534SOL    HW1 5501   1.973   4.988   0.193
 1534SOL    HW2 5502   2.027   4.940   0.340
 1535SOL     OW 5503   5.114   5.928   4.126
 1535SOL    HW1 5504   5.049   5.986   4.077
 1535SOL    HW2 5505   5.064   5.864   4.184
 1536SOL     OW 5506   3.603   4.706   5.347
 1536SOL    HW1 5507   3.603   4.758   5.433
 1536SOL    HW2 5508   3.548   4.754   5.279
 1537SOL     OW 5509   4.142   5.730   3.074
 1537SOL    HW1 5510   4.117   5.729   3.170
 1537SOL    HW2 5511   4.088   5.799   3.026
 1538SOL     OW 5512   3.223   5.261   5.416
 1538SOL    HW1 5513   3.156   5.311   5.360
 1538SOL    HW2 5514   3.269   5.325   5.477
 1539SOL     OW 5515   3.887   4.396   1.432
 1539SOL    HW1 5516   3.825   4.368   1.359
 1539SOL    HW2 5517   3.834   4.431   1.509
 1540SOL     OW 5518   1.013   0.105   5.571
 1540SOL    HW1 5519   1.098   0.149   5.544
 1540SOL    HW2 5520   0.991   0.131   5.665
 1541SOL     OW 5521   3.198   2.907   1.471
 1541SOL    HW1 5522   3.201   2.922   1.570
 1541SOL    HW2 5523   3.291   2.893   1.437
 1542SOL     OW 5524   6.808   5.969   1.512
 1542SOL    HW1 5525   6.800   6.066   1.535
 1542SOL    HW2 5526   6.743   5.946   1.439
 1543SOL     OW 5527   3.148   3.059   3.724
 1543SOL    HW1 5528   3.061   3.095   3.758
 1543SOL    HW2 5529   3.194   3.008   3.797
 1544SOL     OW 5530   3.214   3.965   2.506
 1544SOL    HW1 5531   3.267   4.046   2.481
 1544SOL    HW2 5532   3.130   3.962   2.451
 1545SOL     OW 5533   5.734   0.738   5.481
 1545SOL    HW1 5534   5.685   0.706   5.562
 1545SOL    HW2 5535   5.672   0.790   5.422
 1546SOL     OW 5536   5.050   6.724   6.099
 1546SOL    HW1 5537   5.129   6.712   6.039
 1546SOL    HW2 5538   4.980   6.657   6.076
 1547SOL     OW 5539   2.250   4.028   2.740
 1547SOL    HW1 5540   2.349   4.017   2.737
 1547SOL    HW2 5541   2.227   4.111   2.791
 1548SOL     OW 5542   4.799   3.838   5.774
 1548SOL    HW1 5543   4.823   3.742   5.791
 1548SOL    HW2 5544   4.859   3.876   5.703
 1549SOL     OW 5545   5.566   1.064   2.036
 1549SOL    HW1 5546   5.595   1.121   1.959
 1549SOL    HW2 5547   5.559   0.969   2.006
 1550SOL     OW 5548   2.983   6.843   5.706
 1550SOL    HW1 5549   3.083   6.845   5.705
 1550SOL    HW2 5550   2.952   6.749   5.715
 1551SOL     OW 5551   1.973   3.355   0.854
 1551SOL    HW1 5552   1.963   3.332   0.951
 1551SOL    HW2 5553   1.953   3.452   0.841
 1552SOL     OW 5554   0.711   6.905   1.583
 1552SOL    HW1 5555   0.800   6.905   1.630
 1552SOL    HW2 5556   0.643   6.862   1.642
 1553SOL     OW 5557   6.581   2.171   6.697
 1553SOL    HW1 5558   6.530   2.251   6.667
 1553SOL    HW2 5559   6.577   2.100   6.628
 1554SOL     OW 5560   3.309   1.975   2.404
 1554SOL    HW1 5561   3.273   2.005   2.316
 1554SOL    HW2 5562   3.234   1.941   2.461
 1555SOL     OW 5563   4.373   2.700   6.021
 1555SOL    HW1 5564   4.451   2.761   6.007
 1555SOL    HW2 5565   4.360   2.644   5.939
 1556SOL     OW 5566   4.125   1.030   0.509
 1556SOL    HW1 5567   4.111   1.128   0.498
 1556SOL    HW2 5568   4.213   1.014   0.554
 1557SOL     OW 5569   2.927   1.836   0.546
 1557SOL    HW1 5570   2.894   1.867   0.457
 1557SOL    HW2 5571   3.024   1.860   0.555
 1558SOL     OW 5572   6.042   1.450   4.633
 1558SOL    HW1 5573   6.067   1.354   4.623
 1558SOL    HW2 5574   6.089   1.489   4.712
 1559SOL     OW 5575   0.375   3.126   1.150
 1559SOL    HW1 5576   0.466   3.152   1.116
 1559SOL    HW2 5577   0.333   3.060   1.087
 1560SOL     OW 5578   2.982   1.122   6.936
 1560SOL    HW1 5579   2.930   1.042   6.965
 1560SOL    HW2 5580   2.971   1.195   7.003
 1561SOL     OW 5581   5.020   5.201   3.710
 1561SOL    HW1 5582   5.057   5.249   3.631
 1561SOL    HW2 5583   5.094   5.173   3.771
 1562SOL     OW 5584   3.951   6.578   2.133
 1562SOL    HW1 5585   3.893   6.605   2.210
 1562SOL    HW2 5586   3.954   6.652   2.066
 1563SOL     OW 5587   2.218   1.786   6.031
 1563SOL    HW1 5588   2.166   1.778   5.946
 1563SOL    HW2 5589   2.174   1.853   6.092
 1564SOL     OW 5590   1.440   2.288   2.495
 1564SOL    HW1 5591   1.391   2.300   2.582
 1564SOL    HW2 5592   1.379   2.313   2.420
 1565SOL     OW 5593   3.885   5.056   4.645
 1565SOL    HW1 5594   3.946   4.989   4.686
 1565SOL    HW2 5595   3.802   5.011   4.614
 1566SOL     OW 5596   5.952   5.466   4.920
 1566SOL    HW1 5597   6.026   5.534   4.921
 1566SOL    HW2 5598   5.941   5.430   4.827
 1567SOL     OW 5599   5.997   5.211   0.181
 1567SOL    HW1 5600   6.076   5.263   0.148
 1567SOL    HW2 5601   6.021   5.163   0.265
 1568SOL     OW 5602   2.292   6.418   2.770
 1568SOL    HW1 5603   2.264   6.513   2.764
 1568SOL    HW2 5604   2.238   6.371   2.839
 1569SOL     OW 5605   3.738   6.758   3.223
 1569SOL    HW1 5606   3.802   6.743   3.299
 1569SOL    HW2 5607   3.696   6.848   3.232
 1570SOL     OW 5608   1.646   6.648   6.923
 1570SOL    HW1 5609   1.690   6.706   6.853
 1570SOL    HW2 5610   1.548   6.642   6.903
 1571SOL     OW 5611   0.761   2.504   3.354
 1571SOL    HW1 5612   0.753   2.405   3.347
 1571SOL    HW2 5613   0.854   2.529   3.382
 1572SOL     OW 5614   1.842   5.321   2.315
 1572SOL    HW1 5615   1.787   5.390   2.363
 1572SOL    HW2 5616   1.890   5.265   2.382
 1573SOL     OW 5617   5.714   5.132   2.118
 1573SOL    HW1 5618   5.689   5.224   2.149
 1573SOL    HW2 5619   5.757   5.138   2.028
 1574SOL     OW 5620   6.614   2.866   2.810
 1574SOL    HW1 5621   6.641   2.786   2.863
 1574SOL    HW2 5622   6.608   2.946   2.870
 1575SOL     OW 5623   2.575   0.752   1.781
 1575SOL    HW1 5624   2.556   0.849   1.770
 1575SOL    HW2 5625   2.613   0.715   1.696
 1576SOL     OW 5626   1.095   6.930   3.414
 1576SOL    HW1 5627   1.120   6.932   3.510
 1576SOL    HW2 5628   0.995   6.932   3.404
 1577SOL     OW 5629   2.191   0.712   5.755
 1577SOL    HW1 5630   2.150   0.783   5.812
 1577SOL    HW2 5631   2.153   0.623   5.779
 1578SOL     OW 5632   4.981   1.272   5.875
 1578SOL    HW1 5633   4.924   1.349   5.905
 1578SOL    HW2 5634   4.925   1.190   5.866
 1579SOL     OW 5635   6.700   1.978   1.530
 1579SOL    HW1 5636   6.784   1.942   1.490
 1579SOL    HW2 5637   6.682   1.932   1.617
 1580SOL     OW 5638   3.494   4.129   3.378
 1580SOL    HW1 5639   3.583   4.143   3.421
 1580SOL    HW2 5640   3.506   4.084   3.290
 1581SOL     OW 5641   0.125   4.420   5.561
 1581SOL    HW1 5642   0.027   4.404   5.553
 1581SOL    HW2 5643   0.171   4.334   5.583
 1582SOL     OW 5644   3.498   6.413   4.599
 1582SOL    HW1 5645   3.561   6.488   4.617
 1582SOL    HW2 5646   3.483   6.405   4.500
 1583SOL     OW 5647   1.229   5.836   4.008
 1583SOL    HW1 5648   1.318   5.807   3.973
 1583SOL    HW2 5649   1.199   5.774   4.081
 1584SOL     OW 5650   0.890   5.270   6.113
 1584SOL    HW1 5651   0.946   5.330   6.170
 1584SOL    HW2 5652   0.894   5.176   6.148
 1585SOL     OW 5653   4.341   1.825   2.938
 1585SOL    HW1 5654   4.415   1.844   2.873
 1585SOL    HW2 5655   4.253   1.844   2.895
 1586SOL     OW 5656   3.526   5.195   3.107
 1586SOL    HW1 5657   3.492   5.112   3.062
 1586SOL    HW2 5658   3.619   5.214   3.074
 1587SOL     OW 5659   2.324   5.127   5.157
 1587SOL    HW1 5660   2.228   5.139   5.131
 1587SOL    HW2 5661   2.334   5.141   5.256
 1588SOL     OW 5662   4.581   0.873   2.042
 1588SOL    HW1 5663   4.540   0.916   2.123
 1588SOL    HW2 5664   4.681   0.883   2.047
 1589SOL     OW 5665   0.271   3.409   2.200
 1589SOL    HW1 5666   0.240   3.445   2.287
 1589SOL    HW2 5667   0.215   3.330   2.175
 1590SOL     OW 5668   5.587   0.686   3.922
 1590SOL    HW1 5669   5.513   0.752   3.912
 1590SOL    HW2 5670   5.596   0.661   4.018
 1591SOL     OW 5671   0.007   6.044   0.788
 1591SOL    HW1 5672   0.040   5.998   0.705
 1591SOL    HW2 5673   6.967   5.981   0.839
 1592SOL     OW 5674   1.955   3.382   6.738
 1592SOL    HW1 5675   1.897   3.355   6.661
 1592SOL    HW2 5676   1.921   3.340   6.822
 1593SOL     OW 5677   1.000   6.954   5.855
 1593SOL    HW1 5678   1.077   6.900   5.889
 1593SOL    HW2 5679   1.022   0.032   5.863
 1594SOL     OW 5680   0.410   6.223   2.069
 1594SOL    HW1 5681   0.468   6.292   2.112
 1594SOL    HW2 5682   0.315   6.254   2.070
 1595SOL     OW 5683   0.892   4.588   0.969
 1595SOL    HW1 5684   0.900   4.684   0.996
 1595SOL    HW2 5685   0.909   4.529   1.048
 1596SOL     OW 5686   6.781   3.097   2.547
 1596SOL    HW1 5687   6.707   3.139   2.600
 1596SOL    HW2 5688   6.844   3.050   2.609
 1597SOL     OW 5689   1.505   6.390   1.061
 1597SOL    HW1 5690   1.491   6.303   1.108
 1597SOL    HW2 5691   1.468   6.464   1.117
 1598SOL     OW 5692   1.198   4.904   6.275
 1598SOL    HW1 5693   1.270   4.926   6.341
 1598SOL    HW2 5694   1.202   4.807   6.253
 1599SOL     OW 5695   5.331   5.059   5.500
 1599SOL    HW1 5696   5.296   5.079   5.408
 1599SOL    HW2 5697   5.431   5.065   5.500
 1600SOL     OW 5698   2.923   1.599   2.755
 1600SOL    HW1 5699   2.935   1.517   2.812
 1600SOL    HW2 5700   2.887   1.573   2.666
 1601SOL     OW 5701   0.153   6.871   4.264
 1601SOL    HW1 5702   0.157   6.963   4.225
 1601SOL    HW2 5703   0.120   6.806   4.196
 1602SOL     OW 5704   4.453   5.122   4.244
 1602SOL    HW1 5705   4.362   5.104   4.207
 1602SOL    HW2 5706   4.505   5.036   4.250
 1603SOL     OW 5707   3.230   5.276   3.503
 1603SOL    HW1 5708   3.321   5.277   3.546
 1603SOL    HW2 5709   3.168   5.219   3.557
 1604SOL     OW 5710   4.310   4.927   1.508
 1604SOL    HW1 5711   4.345   4.998   1.447
 1604SOL    HW2 5712   4.257   4.861   1.455
 1605SOL     OW 5713   6.707   5.515   1.587
 1605SOL    HW1 5714   6.693   5.611   1.609
 1605SOL    HW2 5715   6.701   5.503   1.488
 1606SOL     OW 5716   3.570   5.551   5.559
 1606SOL    HW1 5717   3.666   5.523   5.560
 1606SOL    HW2 5718   3.530   5.528   5.470
 1607SOL     OW 5719   4.291   0.221   0.870
 1607SOL    HW1 5720   4.277   0.266   0.958
 1607SOL    HW2 5721   4.202   0.203   0.828
 1608SOL     OW 5722   6.700   0.918   2.634
 1608SOL    HW1 5723   6.783   0.949   2.588
 1608SOL    HW2 5724   6.717   0.830   2.678
 1609SOL     OW 5725   3.354   6.825   0.482
 1609SOL    HW1 5726   3.440   6.778   0.498
 1609SOL    HW2 5727   3.314   6.794   0.395
 1610SOL     OW 5728   4.978   6.008   0.646
 1610SOL    HW1 5729   5.055   6.070   0.634
 1610SOL    HW2 5730   4.984   5.934   0.580
 1611SOL     OW 5731   2.435   3.686   0.423
 1611SOL    HW1 5732   2.430   3.786   0.427
 1611SOL    HW2 5733   2.344   3.649   0.401
 1612SOL     OW 5734   4.015   6.919   1.240
 1612SOL    HW1 5735   3.933   6.912   1.183
 1612SOL    HW2 5736   3.993   6.971   1.323
 1613SOL     OW 5737   1.432   5.972   1.633
 1613SOL    HW1 5738   1.418   5.971   1.732
 1613SOL    HW2 5739   1.430   6.066   1.600
 1614SOL     OW 5740   5.958   1.560   6.211
 1614SOL    HW1 5741   5.864   1.527   6.203
 1614SOL    HW2 5742   5.958   1.658   6.227
 1615SOL     OW 5743   6.274   5.916   0.442
 1615SOL    HW1 5744   6.201   5.900   0.375
 1615SOL    HW2 5745   6.315   6.006   0.425
 1616SOL     OW 5746   4.265   0.229   3.919
 1616SOL    HW1 5747   4.194   0.267   3.979
 1616SOL    HW2 5748   4.337   0.297   3.906
 1617SOL     OW 5749   5.315   6.352   2.972
 1617SOL    HW1 5750   5.393   6.333   3.032
 1617SOL    HW2 5751   5.231   6.323   3.016
 1618SOL     OW 5752   2.087   6.453   3.435
 1618SOL    HW1 5753   2.128   6.395   3.364
 1618SOL    HW2 5754   1.991   6.429   3.446
 1619SOL     OW 5755   0.202   4.782   6.988
 1619SOL    HW1 5756   0.106   4.789   6.963
 1619SOL    HW2 5757   0.220   4.839   0.049
 1620SOL     OW 5758   3.492   4.870   1.660
 1620SOL    HW1 5759   3.501   4.793   1.723
 1620SOL    HW2 5760   3.412   4.855   1.601
 1621SOL     OW 5761   6.102   0.258   1.482
 1621SOL    HW1 5762   6.078   0.228   1.574
 1621SOL    HW2 5763   6.045   0.336   1.456
 1622SOL     OW 5764   0.682   3.459   5.663
 1622SOL    HW1 5765   0.714   3.366   5.682
 1622SOL    HW2 5766   0.760   3.521   5.663
 1623SOL     OW 5767   0.340   2.974   5.032
 1623SOL    HW1 5768   0.420   2.958   5.090
 1623SOL    HW2 5769   0.369   3.009   4.943
 1624SOL     OW 5770   4.338   1.027   5.495
 1624SOL    HW1 5771   4.408   1.098   5.497
 1624SOL    HW2 5772   4.342   0.974   5.580
 1625SOL     OW 5773   1.741   4.916   6.937
 1625SOL    HW1 5774   1.690   4.999   6.961
 1625SOL    HW2 5775   1.830   4.917   6.982
 1626SOL     OW 5776   3.097   0.905   0.808
 1626SOL    HW1 5777   3.189   0.901   0.849
 1626SOL    HW2 5778   3.105   0.895   0.709
 1627SOL     OW 5779   5.474   2.865   3.498
 1627SOL    HW1 5780   5.529   2.807   3.558
 1627SOL    HW2 5781   5.413   2.808   3.443
 1628SOL     OW 5782   4.349   5.590   0.043
 1628SOL    HW1 5783   4.327   5.666   7.002
 1628SOL    HW2 5784   4.265   5.543   0.071
 1629SOL     OW 5785   2.343   1.299   3.779
 1629SOL    HW1 5786   2.368   1.367   3.710
 1629SOL    HW2 5787   2.337   1.209   3.735
 1630SOL     OW 5788   0.423   4.355   5.483
 1630SOL    HW1 5789   0.503   4.303   5.453
 1630SOL    HW2 5790   0.434   4.451   5.457
 1631SOL     OW 5791   0.539   3.410   0.420
 1631SOL    HW1 5792   0.510   3.502   0.393
 1631SOL    HW2 5793   0.540   3.403   0.519
 1632SOL     OW 5794   4.866   3.134   2.597
 1632SOL    HW1 5795   4.810   3.061   2.637
 1632SOL    HW2 5796   4.912   3.184   2.670
 1633SOL     OW 5797   5.100   3.955   4.443
 1633SOL    HW1 5798   5.043   3.881   4.479
 1633SOL    HW2 5799   5.049   4.004   4.372
 1634SOL     OW 5800   4.556   6.936   4.223
 1634SOL    HW1 5801   4.648   6.897   4.222
 1634SOL    HW2 5802   4.553   7.011   4.289
 1635SOL     OW 5803   0.408   5.124   6.417
 1635SOL    HW1 5804   0.347   5.045   6.410
 1635SOL    HW2 5805   0.422   5.163   6.327
 1636SOL     OW 5806   3.058   4.735   1.536
 1636SOL    HW1 5807   2.961   4.751   1.518
 1636SOL    HW2 5808   3.070   4.709   1.632
 1637SOL     OW 5809   0.385   6.824   3.661
 1637SOL    HW1 5810   0.454   6.896   3.653
 1637SOL    HW2 5811   0.295   6.862   3.640
 1638SOL     OW 5812   0.760   3.364   2.266
 1638SOL    HW1 5813   0.760   3.430   2.341
 1638SOL    HW2 5814   0.666   3.340   2.243
 1639SOL     OW 5815   5.418   5.243   1.329
 1639SOL    HW1 5816   5.324   5.212   1.338
 1639SOL    HW2 5817   5.473   5.205   1.404
 1640SOL     OW 5818   6.061   0.934   0.631
 1640SOL    HW1 5819   6.143   0.891   0.591
 1640SOL    HW2 5820   6.022   0.998   0.565
 1641SOL     OW 5821   6.086   1.660   3.706
 1641SOL    HW1 5822   6.145   1.634   3.629
 1641SOL    HW2 5823   6.141   1.675   3.788
 1642SOL     OW 5824   6.437   3.296   7.019
 1642SOL    HW1 5825   6.351   3.251   0.024
 1642SOL    HW2 5826   6.512   3.252   0.048
 1643SOL     OW 5827   2.850   4.790   3.481
 1643SOL    HW1 5828   2.773   4.727   3.486
 1643SOL    HW2 5829   2.912   4.773   3.557
 1644SOL     OW 5830   5.419   3.763   6.645
 1644SOL    HW1 5831   5.394   3.714   6.729
 1644SOL    HW2 5832   5.342   3.763   6.582
 1645SOL     OW 5833   2.807   5.801   6.275
 1645SOL    HW1 5834   2.886   5.741   6.262
 1645SOL    HW2 5835   2.811   5.876   6.209
 1646SOL     OW 5836   2.550   6.670   0.411
 1646SOL    HW1 5837   2.508   6.736   0.348
 1646SOL    HW2 5838   2.485   6.649   0.485
 1647SOL     OW 5839   6.091   2.268   4.422
 1647SOL    HW1 5840   6.158   2.305   4.486
 1647SOL    HW2 5841   6.031   2.204   4.469
 1648SOL     OW 5842   5.073   5.996   6.815
 1648SOL    HW1 5843   5.121   5.916   6.780
 1648SOL    HW2 5844   5.135   6.074   6.819
 1649SOL     OW 5845   3.712   1.701   4.387
 1649SOL    HW1 5846   3.765   1.699   4.472
 1649SOL    HW2 5847   3.775   1.702   4.310
 1650SOL     OW 5848   0.523   5.719   4.925
 1650SOL    HW1 5849   0.442   5.772   4.896
 1650SOL    HW2 5850   0.494   5.647   4.989
 1651SOL     OW 5851   0.426   2.307   1.682
 1651SOL    HW1 5852   0.395   2.299   1.777
 1651SOL    HW2 5853   0.385   2.389   1.641
 1652SOL     OW 5854   1.503   3.194   2.752
 1652SOL    HW1 5855   1.502   3.135   2.833
 1652SOL    HW2 5856   1.434   3.266   2.764
 1653SOL     OW 5857   0.840   6.353   0.372
 1653SOL    HW1 5858   0.743   6.356   0.396
 1653SOL    HW2 5859   0.891   6.304   0.444
 1654SOL     OW 5860   6.684   3.285   1.725
 1654SOL    HW1 5861   6.589   3.315   1.733
 1654SOL    HW2 5862   6.744   3.364   1.712
 1655SOL     OW 5863   6.994   2.051   4.671
 1655SOL    HW1 5864   0.057   2.075   4.619
 1655SOL    HW2 5865   6.927   2.009   4.610
 1656SOL     OW 5866   1.916   5.173   2.815
 1656SOL    HW1 5867   1.914   5.180   2.715
 1656SOL    HW2 5868   1.861   5.094   2.844
 1657SOL     OW 5869   5.969   0.429   4.314
 1657SOL    HW1 5870   5.951   0.331   4.323
 1657SOL    HW2 5871   5.896   0.480   4.359
 1658SOL     OW 5872   5.854   1.048   0.972
 1658SOL    HW1 5873   5.847   0.951   0.949
 1658SOL    HW2 5874   5.834   1.103   0.891
 1659SOL     OW 5875   3.508   0.450   7.004
 1659SOL    HW1 5876   3.526   0.354   6.983
 1659SOL    HW2 5877   3.409   0.463   7.018
 1660SOL     OW 5878   1.687   6.269   2.362
 1660SOL    HW1 5879   1.688   6.233   2.455
 1660SOL    HW2 5880   1.721   6.363   2.363
 1661SOL     OW 5881   1.801   6.536   1.708
 1661SOL    HW1 5882   1.899   6.519   1.693
 1661SOL    HW2 5883   1.770   6.607   1.645
 1662SOL     OW 5884   0.259   0.994   4.268
 1662SOL    HW1 5885   0.293   1.059   4.200
 1662SOL    HW2 5886   0.334   0.971   4.331
 1663SOL     OW 5887   4.622   5.327   3.438
 1663SOL    HW1 5888   4.552   5.370   3.382
 1663SOL    HW2 5889   4.674   5.398   3.486
 1664SOL     OW 5890   2.251   6.165   4.963
 1664SOL    HW1 5891   2.301   6.138   4.881
 1664SOL    HW2 5892   2.288   6.252   4.997
 1665SOL     OW 5893   6.633   3.574   2.006
 1665SOL    HW1 5894   6.726   3.538   2.008
 1665SOL    HW2 5895   6.612   3.610   1.915
 1666SOL     OW 5896   5.839   0.593   0.060
 1666SOL    HW1 5897   5.817   0.532   7.002
 1666SOL    HW2 5898   5.756   0.643   0.086
 1667SOL     OW 5899   0.168   6.282   1.488
 1667SOL    HW1 5900   0.111   6.329   1.554
 1667SOL    HW2 5901   0.256   6.258   1.530
 1668SOL     OW 5902   4.877   4.970   3.707
 1668SOL    HW1 5903   4.898   4.974   3.609
 1668SOL    HW2 5904   4.881   5.062   3.746
 1669SOL     OW 5905   6.657   3.987   6.135
 1669SOL    HW1 5906   6.634   3.948   6.045
 1669SOL    HW2 5907   6.746   4.032   6.130
 1670SOL     OW 5908   6.981   4.550   5.295
 1670SOL    HW1 5909   6.931   4.635   5.283
 1670SOL    HW2 5910   0.054   4.559   5.255
 1671SOL     OW 5911   5.524   1.692   3.621
 1671SOL    HW1 5912   5.485   1.780   3.647
 1671SOL    HW2 5913   5.600   1.706   3.558
 1672SOL     OW 5914   2.533   3.435   0.689
 1672SOL    HW1 5915   2.601   3.487   0.637
 1672SOL    HW2 5916   2.571   3.347   0.715
 1673SOL     OW 5917   1.208   1.869   4.631
 1673SOL    HW1 5918   1.290   1.926   4.638
 1673SOL    HW2 5919   1.227   1.790   4.574
 1674SOL     OW 5920   0.518   3.336   2.131
 1674SOL    HW1 5921   0.529   3.399   2.055
 1674SOL    HW2 5922   0.429   3.351   2.174
 1675SOL     OW 5923   4.434   0.277   0.522
 1675SOL    HW1 5924   4.389   0.359   0.556
 1675SOL    HW2 5925   4.368   0.202   0.520
 1676SOL     OW 5926   2.181   2.786   2.106
 1676SOL    HW1 5927   2.276   2.755   2.095
 1676SOL    HW2 5928   2.180   2.877   2.147
 1677SOL     OW 5929   3.969   3.937   3.941
 1677SOL    HW1 5930   3.965   3.944   4.041
 1677SOL    HW2 5931   3.992   3.844   3.914
 1678SOL     OW 5932   0.136   4.813   2.274
 1678SOL    HW1 5933   0.142   4.844   2.179
 1678SOL    HW2 5934   0.042   4.789   2.296
 1679SOL     OW 5935   2.085   1.226   4.538
 1679SOL    HW1 5936   2.165   1.226   4.597
 1679SOL    HW2 5937   2.102   1.284   4.459
 1680SOL     OW 5938   6.962   3.874   5.673
 1680SOL    HW1 5939   6.929   3.963   5.704
 1680SOL    HW2 5940   6.987   3.818   5.752
 1681SOL     OW 5941   0.403   5.518   6.397
 1681SOL    HW1 5942   0.332   5.571   6.351
 1681SOL    HW2 5943   0.475   5.494   6.332
 1682SOL     OW 5944   1.203   0.445   5.688
 1682SOL    HW1 5945   1.291   0.485   5.713
 1682SOL    HW2 5946   1.213   0.389   5.606
 1683SOL     OW 5947   5.717   5.383   2.939
 1683SOL    HW1 5948   5.697   5.291   2.973
 1683SOL    HW2 5949   5.646   5.446   2.969
 1684SOL     OW 5950   0.347   5.970   2.166
 1684SOL    HW1 5951   0.317   5.903   2.097
 1684SOL    HW2 5952   0.376   6.054   2.120
 1685SOL     OW 5953   1.751   1.273   5.711
 1685SOL    HW1 5954   1.714   1.365   5.703
 1685SOL    HW2 5955   1.847   1.278   5.739
 1686SOL     OW 5956   2.239   6.266   4.417
 1686SOL    HW1 5957   2.252   6.183   4.364
 1686SOL    HW2 5958   2.256   6.346   4.360
 1687SOL     OW 5959   1.391   2.931   1.960
 1687SOL    HW1 5960   1.378   2.840   2.001
 1687SOL    HW2 5961   1.466   2.927   1.894
 1688SOL     OW 5962   2.206   1.694   3.656
 1688SOL    HW1 5963   2.159   1.655   3.577
 1688SOL    HW2 5964   2.150   1.681   3.737
 1689SOL     OW 5965   6.515   1.109   2.742
 1689SOL    HW1 5966   6.464   1.115   2.657
 1689SOL    HW2 5967   6.595   1.050   2.729
 1690SOL     OW 5968   0.989   2.388   4.686
 1690SOL    HW1 5969   1.085   2.395   4.659
 1690SOL    HW2 5970   0.932   2.385   4.603
 1691SOL     OW 5971   5.658   3.032   4.081
 1691SOL    HW1 5972   5.710   3.082   4.150
 1691SOL    HW2 5973   5.696   2.940   4.071
 1692SOL     OW 5974   3.993   6.217   1.341
 1692SOL    HW1 5975   4.068   6.168   1.386
 1692SOL    HW2 5976   3.948   6.157   1.275
 1693SOL     OW 5977   6.750   2.325   3.235
 1693SOL    HW1 5978   6.728   2.232   3.263
 1693SOL    HW2 5979   6.821   2.362   3.294
 1694SOL     OW 5980   6.679   1.975   3.754
 1694SOL    HW1 5981   6.713   1.887   3.788
 1694SOL    HW2 5982   6.700   1.983   3.656
 1695SOL     OW 5983   3.626   0.633   6.215
 1695SOL    HW1 5984   3.711   0.636   6.163
 1695SOL    HW2 5985   3.596   0.538   6.225
 1696SOL     OW 5986   3.259   5.809   1.043
 1696SOL    HW1 5987   3.245   5.829   1.140
 1696SOL    HW2 5988   3.336   5.863   1.009
 1697SOL     OW 5989   6.601   1.623   0.728
 1697SOL    HW1 5990   6.561   1.678   0.801
 1697SOL    HW2 5991   6.699   1.611   0.744
 1698SOL     OW 5992   3.757   6.955   1.073
 1698SOL    HW1 5993   3.682   0.002   1.082
 1698SOL    HW2 5994   3.772   6.936   0.976
 1699SOL     OW 5995   2.082   1.579   6.559
 1699SOL    HW1 5996   2.089   1.676   6.537
 1699SOL    HW2 5997   2.174   1.538   6.562
 1700SOL     OW 5998   6.347   4.327   3.299
 1700SOL    HW1 5999   6.430   4.314   3.244
 1700SOL    HW2 6000   6.354   4.274   3.383
 1701SOL     OW 6001   5.602   5.526   5.561
 1701SOL    HW1 6002   5.529   5.535   5.630
 1701SOL    HW2 6003   5.690   5.521   5.607
 1702SOL     OW 6004   6.358   1.334   1.125
 1702SOL    HW1 6005   6.339   1.422   1.169
 1702SOL    HW2 6006   6.455   1.312   1.136
 1703SOL     OW 6007   3.777   1.585   6.754
 1703SOL    HW1 6008   3.778   1.569   6.853
 1703SOL    HW2 6009   3.709   1.525   6.712
 1704SOL     OW 6010   0.704   2.706   0.315
 1704SOL    HW1 6011   0.803   2.695   0.326
 1704SOL    HW2 6012   0.657   2.656   0.386
 1705SOL     OW 6013   3.294   2.153   1.699
 1705SOL    HW1 6014   3.246   2.180   1.615
 1705SOL    HW2 6015   3.229   2.153   1.776
 1706SOL     OW 6016   4.967   1.442   1.824
 1706SOL    HW1 6017   5.057   1.430   1.865
 1706SOL    HW2 6018   4.909   1.363   1.847
 1707SOL     OW 6019   4.470   2.426   2.825
 1707SOL    HW1 6020   4.530   2.347   2.813
 1707SOL    HW2 6021   4.385   2.411   2.773
 1708SOL     OW 6022   4.539   5.897   1.829
 1708SOL    HW1 6023   4.636   5.873   1.834
 1708SOL    HW2 6024   4.500   5.859   1.745
 1709SOL     OW 6025   3.342   6.328   2.998
 1709SOL    HW1 6026   3.264   6.336   3.060
 1709SOL    HW2 6027   3.427   6.331   3.051
 1710SOL     OW 6028   4.140   4.732   3.389
 1710SOL    HW1 6029   4.212   4.674   3.425
 1710SOL    HW2 6030   4.160   4.828   3.410
 1711SOL     OW 6031   1.609   5.633   4.489
 1711SOL    HW1 6032   1.521   5.680   4.475
 1711SOL    HW2 6033   1.677   5.673   4.428
 1712SOL     OW 6034   6.703   1.993   4.797
 1712SOL    HW1 6035   6.649   1.918   4.836
 1712SOL    HW2 6036   6.721   2.061   4.868
 1713SOL     OW 6037   4.646   1.866   2.351
 1713SOL    HW1 6038   4.593   1.853   2.435
 1713SOL    HW2 6039   4.743   1.853   2.371
 1714SOL     OW 6040   4.109   1.871   5.650
 1714SOL    HW1 6041   4.113   1.854   5.749
 1714SOL    HW2 6042   4.014   1.886   5.623
 1715SOL     OW 6043   2.312   6.243   3.573
 1715SOL    HW1 6044   2.411   6.255   3.561
 1715SOL    HW2 6045   2.289   6.248   3.670
 1716SOL     OW 6046   3.906   6.893   3.971
 1716SOL    HW1 6047   3.906   6.796   3.944
 1716SOL    HW2 6048   3.976   6.941   3.919
 1717SOL     OW 6049   3.424   6.062   5.003
 1717SOL    HW1 6050   3.524   6.056   5.010
 1717SOL    HW2 6051   3.383   5.974   5.027
 1718SOL     OW 6052   2.731   1.559   2.135
 1718SOL    HW1 6053   2.654   1.622   2.137
 1718SOL    HW2 6054   2.698   1.466   2.152
 1719SOL     OW 6055   2.201   3.171   0.785
 1719SOL    HW1 6056   2.115   3.219   0.805
 1719SOL    HW2 6057   2.223   3.110   0.860
 1720SOL     OW 6058   6.955   2.934   6.783
 1720SOL    HW1 6059   6.870   2.912   6.735
 1720SOL    HW2 6060   6.989   2.853   6.831
 1721SOL     OW 6061   2.075   6.553   1.687
 1721SOL    HW1 6062   2.118   6.643   1.694
 1721SOL    HW2 6063   2.121   6.489   1.748
 1722SOL     OW 6064   3.934   1.533   3.762
 1722SOL    HW1 6065   3.839   1.564   3.761
 1722SOL    HW2 6066   3.976   1.550   3.673
 1723SOL     OW 6067   5.232   2.745   0.036
 1723SOL    HW1 6068   5.244   2.844   0.034
 1723SOL    HW2 6069   5.317   2.700   0.008
 1724SOL     OW 6070   0.307   2.760   2.043
 1724SOL    HW1 6071   0.303   2.664   2.070
 1724SOL    HW2 6072   0.251   2.815   2.105
 1725SOL     OW 6073   1.662   4.657   6.574
 1725SOL    HW1 6074   1.697   4.748   6.597
 1725SOL    HW2 6075   1.693   4.632   6.482
 1726SOL     OW 6076   5.332   4.072   4.232
 1726SOL    HW1 6077   5.264   4.142   4.210
 1726SOL    HW2 6078   5.314   4.036   4.323
 1727SOL     OW 6079   3.995   3.634   3.608
 1727SOL    HW1 6080   3.904   3.631   3.567
 1727SOL    HW2 6081   4.048   3.554   3.577
 1728SOL     OW 6082   5.764   4.814   5.499
 1728SOL    HW1 6083   5.749   4.732   5.554
 1728SOL    HW2 6084   5.785   4.788   5.405
 1729SOL     OW 6085   2.089   3.493   3.329
 1729SOL    HW1 6086   2.118   3.567   3.269
 1729SOL    HW2 6087   2.009   3.522   3.382
 1730SOL     OW 6088   2.594   0.553   4.855
 1730SOL    HW1 6089   2.599   0.635   4.913
 1730SOL    HW2 6090   2.537   0.572   4.775
 1731SOL     OW 6091   0.174   4.220   3.612
 1731SOL    HW1 6092   0.179   4.310   3.570
 1731SOL    HW2 6093   0.247   4.162   3.576
 1732SOL     OW 6094   2.189   4.713   5.955
 1732SOL    HW1 6095   2.208   4.723   5.857
 1732SOL    HW2 6096   2.126   4.785   5.984
 1733SOL     OW 6097   1.707   4.181   1.499
 1733SOL    HW1 6098   1.726   4.164   1.402
 1733SOL    HW2 6099   1.619   4.227   1.508
 1734SOL     OW 6100   5.036   2.984   1.505
 1734SOL    HW1 6101   5.083   2.909   1.551
 1734SOL    HW2 6102   4.949   2.951   1.468
 1735SOL     OW 6103   4.834   5.512   6.586
 1735SOL    HW1 6104   4.890   5.453   6.528
 1735SOL    HW2 6105   4.760   5.458   6.626
 1736SOL     OW 6106   3.953   3.664   0.843
 1736SOL    HW1 6107   3.863   3.706   0.855
 1736SOL    HW2 6108   4.024   3.729   0.869
 1737SOL     OW 6109   4.989   6.999   4.761
 1737SOL    HW1 6110   5.085   0.004   4.773
 1737SOL    HW2 6111   4.931   0.044   4.811
 1738SOL     OW 6112   2.573   2.449   4.533
 1738SOL    HW1 6113   2.666   2.442   4.569
 1738SOL    HW2 6114   2.544   2.361   4.496
 1739SOL     OW 6115   0.219   1.364   4.382
 1739SOL    HW1 6116   0.155   1.304   4.430
 1739SOL    HW2 6117   0.303   1.372   4.436
 1740SOL     OW 6118   0.087   2.235   5.366
 1740SOL    HW1 6119   0.131   2.223   5.456
 1740SOL    HW2 6120   0.156   2.225   5.294
 1741SOL     OW 6121   2.465   1.042   4.461
 1741SOL    HW1 6122   2.409   0.962   4.440
 1741SOL    HW2 6123   2.543   1.014   4.518
 1742SOL     OW 6124   5.478   0.235   5.399
 1742SOL    HW1 6125   5.482   0.305   5.471
 1742SOL    HW2 6126   5.570   0.199   5.383
 1743SOL     OW 6127   0.789   1.401   2.397
 1743SOL    HW1 6128   0.704   1.455   2.389
 1743SOL    HW2 6129   0.816   1.396   2.493
 1744SOL     OW 6130   5.843   3.762   3.291
 1744SOL    HW1 6131   5.848   3.816   3.207
 1744SOL    HW2 6132   5.902   3.802   3.360
 1745SOL     OW 6133   5.431   6.309   2.568
 1745SOL    HW1 6134   5.528   6.333   2.560
 1745SOL    HW2 6135   5.384   6.377   2.624
 1746SOL     OW 6136   1.632   4.570   4.202
 1746SOL    HW1 6137   1.534   4.588   4.212
 1746SOL    HW2 6138   1.676   4.647   4.156
 1747SOL     OW 6139   3.901   1.386   2.449
 1747SOL    HW1 6140   3.854   1.442   2.381
 1747SOL    HW2 6141   3.914   1.294   2.413
 1748SOL     OW 6142   6.781   1.927   4.554
 1748SOL    HW1 6143   6.751   1.838   4.518
 1748SOL    HW2 6144   6.733   1.946   4.639
 1749SOL     OW 6145   1.868   0.097   5.766
 1749SOL    HW1 6146   1.882   0.180   5.821
 1749SOL    HW2 6147   1.916   0.106   5.679
 1750SOL     OW 6148   5.492   0.306   3.984
 1750SOL    HW1 6149   5.405   0.271   3.950
 1750SOL    HW2 6150   5.483   0.329   4.081
 1751SOL     OW 6151   4.971   1.756   4.968
 1751SOL    HW1 6152   5.005   1.766   5.061
 1751SOL    HW2 6153   5.013   1.677   4.925
 1752SOL     OW 6154   6.022   0.900   1.782
 1752SOL    HW1 6155   5.932   0.924   1.746
 1752SOL    HW2 6156   6.028   0.801   1.794
 1753SOL     OW 6157   6.827   0.672   1.341
 1753SOL    HW1 6158   6.922   0.643   1.351
 1753SOL    HW2 6159   6.807   0.690   1.244
 1754SOL     OW 6160   2.061   5.145   6.378
 1754SOL    HW1 6161   1.985   5.149   6.443
 1754SOL    HW2 6162   2.037   5.197   6.296
 1755SOL     OW 6163   6.738   5.314   6.438
 1755SOL    HW1 6164   6.785   5.313   6.526
 1755SOL    HW2 6165   6.699   5.223   6.420
 1756SOL     OW 6166   4.158   5.550   5.999
 1756SOL    HW1 6167   4.232   5.610   5.970
 1756SOL    HW2 6168   4.168   5.529   6.096
 1757SOL     OW 6169   3.540   5.738   5.056
 1757SOL    HW1 6170   3.617   5.765   4.997
 1757SOL    HW2 6171   3.562   5.652   5.102
 1758SOL     OW 6172   1.792   1.189   4.209
 1758SOL    HW1 6173   1.819   1.136   4.289
 1758SOL    HW2 6174   1.767   1.127   4.135
 1759SOL     OW 6175   2.681   6.842   5.595
 1759SOL    HW1 6176   2.763   6.827   5.539
 1759SOL    HW2 6177   2.701   6.819   5.690
 1760SOL     OW 6178   6.295   0.988   3.804
 1760SOL    HW1 6179   6.329   1.064   3.749
 1760SOL    HW2 6180   6.342   0.904   3.777
 1761SOL     OW 6181   0.475   1.058   1.848
 1761SOL    HW1 6182   0.381   1.074   1.876
 1761SOL    HW2 6183   0.488   1.092   1.754
 1762SOL     OW 6184   0.173   1.543   4.721
 1762SOL    HW1 6185   0.238   1.559   4.795
 1762SOL    HW2 6186   0.204   1.590   4.638
 1763SOL     OW 6187   0.900   5.011   4.546
 1763SOL    HW1 6188   0.975   4.970   4.598
 1763SOL    HW2 6189   0.900   4.975   4.453
 1764SOL     OW 6190   1.388   3.324   1.944
 1764SOL    HW1 6191   1.339   3.409   1.965
 1764SOL    HW2 6192   1.371   3.257   2.016
 1765SOL     OW 6193   3.364   1.099   1.636
 1765SOL    HW1 6194   3.272   1.139   1.640
 1765SOL    HW2 6195   3.432   1.172   1.645
 1766SOL     OW 6196   5.640   4.358   3.939
 1766SOL    HW1 6197   5.597   4.373   3.849
 1766SOL    HW2 6198   5.649   4.445   3.986
 1767SOL     OW 6199   0.574   4.247   3.634
 1767SOL    HW1 6200   0.534   4.338   3.623
 1767SOL    HW2 6201   0.561   4.216   3.728
 1768SOL     OW 6202   3.619   1.152   6.834
 1768SOL    HW1 6203   3.662   1.152   6.925
 1768SOL    HW2 6204   3.680   1.108   6.769
 1769SOL     OW 6205   5.958   1.077   0.083
 1769SOL    HW1 6206   6.055   1.081   0.060
 1769SOL    HW2 6207   5.911   1.018   0.018
 1770SOL     OW 6208   0.654   4.793   5.195
 1770SOL    HW1 6209   0.698   4.751   5.275
 1770SOL    HW2 6210   0.711   4.869   5.162
 1771SOL     OW 6211   1.615   5.595   0.524
 1771SOL    HW1 6212   1.564   5.510   0.538
 1771SOL    HW2 6213   1.683   5.606   0.597
 1772SOL     OW 6214   3.539   5.790   3.800
 1772SOL    HW1 6215   3.593   5.751   3.725
 1772SOL    HW2 6216   3.449   5.818   3.767
 1773SOL     OW 6217   2.183   2.144   5.969
 1773SOL    HW1 6218   2.234   2.095   6.041
 1773SOL    HW2 6219   2.244   2.206   5.921
 1774SOL     OW 6220   5.493   6.812   1.497
 1774SOL    HW1 6221   5.559   6.884   1.520
 1774SOL    HW2 6222   5.450   6.779   1.581
 1775SOL     OW 6223   1.962   5.613   6.210
 1775SOL    HW1 6224   1.905   5.661   6.277
 1775SOL    HW2 6225   1.931   5.636   6.117
 1776SOL     OW 6226   5.214   0.394   6.172
 1776SOL    HW1 6227   5.307   0.409   6.139
 1776SOL    HW2 6228   5.217   0.367   6.269
 1777SOL     OW 6229   3.134   6.911   6.735
 1777SOL    HW1 6230   3.223   6.868   6.749
 1777SOL    HW2 6231   3.065   6.862   6.790
 1778SOL     OW 6232   4.908   2.280   4.521
 1778SOL    HW1 6233   4.995   2.314   4.556
 1778SOL    HW2 6234   4.874   2.341   4.449
 1779SOL     OW 6235   5.224   0.198   5.969
 1779SOL    HW1 6236   5.186   0.265   6.033
 1779SOL    HW2 6237   5.240   0.242   5.880
 1780SOL     OW 6238   1.587   3.275   5.491
 1780SOL    HW1 6239   1.583   3.178   5.518
 1780SOL    HW2 6240   1.637   3.326   5.561
 1781SOL     OW 6241   5.702   6.588   5.311
 1781SOL    HW1 6242   5.695   6.594   5.410
 1781SOL    HW2 6243   5.633   6.525   5.276
 1782SOL     OW 6244   2.385   1.014   2.618
 1782SOL    HW1 6245   2.355   0.931   2.571
 1782SOL    HW2 6246   2.306   1.058   2.662
 1783SOL     OW 6247   2.982   3.575   6.641
 1783SOL    HW1 6248   3.025   3.524   6.716
 1783SOL    HW2 6249   2.933   3.512   6.581
 1784SOL     OW 6250   2.110   1.592   1.409
 1784SOL    HW1 6251   2.121   1.503   1.365
 1784SOL    HW2 6252   2.084   1.578   1.505
 1785SOL     OW 6253   6.677   7.004   4.360
 1785SOL    HW1 6254   6.765   6.982   4.319
 1785SOL    HW2 6255   6.605   6.952   4.314
 1786SOL     OW 6256   2.233   5.057   7.012
 1786SOL    HW1 6257   2.200   5.089   6.923
 1786SOL    HW2 6258   2.331   5.038   7.006
 1787SOL     OW 6259   2.139   1.547   6.167
 1787SOL    HW1 6260   2.182   1.629   6.129
 1787SOL    HW2 6261   2.207   1.474   6.174
 1788SOL     OW 6262   4.608   3.994   6.584
 1788SOL    HW1 6263   4.573   4.075   6.538
 1788SOL    HW2 6264   4.535   3.925   6.589
 1789SOL     OW 6265   5.377   3.087   1.519
 1789SOL    HW1 6266   5.372   3.154   1.444
 1789SOL    HW2 6267   5.433   3.124   1.593
 1790SOL     OW 6268   2.991   1.371   4.060
 1790SOL    HW1 6269   2.911   1.414   4.101
 1790SOL    HW2 6270   3.026   1.429   3.987
 1791SOL     OW 6271   0.079   1.505   3.788
 1791SOL    HW1 6272   0.002   1.553   3.747
 1791SOL    HW2 6273   0.047   1.418   3.826
 1792SOL     OW 6274   6.932   1.652   4.712
 1792SOL    HW1 6275   7.012   1.615   4.761
 1792SOL    HW2 6276   6.963   1.708   4.635
 1793SOL     OW 6277   6.686   1.709   4.410
 1793SOL    HW1 6278   6.694   1.637   4.341
 1793SOL    HW2 6279   6.642   1.789   4.368
 1794SOL     OW 6280   5.625   6.655   5.568
 1794SOL    HW1 6281   5.579   6.584   5.621
 1794SOL    HW2 6282   5.690   6.703   5.627
 1795SOL     OW 6283   6.252   5.109   1.596
 1795SOL    HW1 6284   6.326   5.043   1.611
 1795SOL    HW2 6285   6.214   5.137   1.684
 1796SOL     OW 6286   2.465   1.636   6.020
 1796SOL    HW1 6287   2.378   1.685   6.024
 1796SOL    HW2 6288   2.519   1.655   6.102
 1797SOL     OW 6289   1.275   6.951   5.614
 1797SOL    HW1 6290   1.176   6.943   5.610
 1797SOL    HW2 6291   1.310   6.976   5.524
 1798SOL     OW 6292   3.116   3.060   4.853
 1798SOL    HW1 6293   3.080   3.152   4.868
 1798SOL    HW2 6294   3.154   3.025   4.938
 1799SOL     OW 6295   4.393   2.975   6.765
 1799SOL    HW1 6296   4.305   3.016   6.788
 1799SOL    HW2 6297   4.442   2.952   6.849
 1800SOL     OW 6298   4.987   4.737   3.584
 1800SOL    HW1 6299   4.929   4.786   3.648
 1800SOL    HW2 6300   4.936   4.660   3.545
 1801SOL     OW 6301   0.838   1.905   2.063
 1801SOL    HW1 6302   0.780   1.975   2.020
 1801SOL    HW2 6303   0.894   1.861   1.993
 1802SOL     OW 6304   6.122   6.011   3.308
 1802SOL    HW1 6305   6.163   6.062   3.233
 1802SOL    HW2 6306   6.190   5.996   3.380
 1803SOL     OW 6307   0.271   6.974   2.241
 1803SOL    HW1 6308   0.257   0.050   2.212
 1803SOL    HW2 6309   0.249   6.912   2.166
 1804SOL     OW 6310   3.876   3.209   4.779
 1804SOL    HW1 6311   3.786   3.226   4.738
 1804SOL    HW2 6312   3.919   3.296   4.802
 1805SOL     OW 6313   0.856   5.534   5.972
 1805SOL    HW1 6314   0.854   5.483   6.057
 1805SOL    HW2 6315   0.938   5.508   5.919
 1806SOL     OW 6316   0.482   2.656   1.843
 1806SOL    HW1 6317   0.410   2.685   1.906
 1806SOL    HW2 6318   0.550   2.728   1.834
 1807SOL     OW 6319   5.318   3.004   0.013
 1807SOL    HW1 6320   5.344   3.042   0.102
 1807SOL    HW2 6321   5.399   2.998   6.974
 1808SOL     OW 6322   6.030   3.579   4.733
 1808SOL    HW1 6323   5.997   3.539   4.819
 1808SOL    HW2 6324   6.112   3.634   4.752
 1809SOL     OW 6325   3.108   1.882   5.463
 1809SOL    HW1 6326   3.151   1.813   5.406
 1809SOL    HW2 6327   3.008   1.874   5.456
 1810SOL     OW 6328   0.973   0.947   5.111
 1810SOL    HW1 6329   0.993   0.871   5.050
 1810SOL    HW2 6330   0.908   0.917   5.181
 1811SOL     OW 6331   5.334   4.645   1.834
 1811SOL    HW1 6332   5.357   4.569   1.895
 1811SOL    HW2 6333   5.262   4.616   1.771
 1812SOL     OW 6334   3.950   6.759   6.395
 1812SOL    HW1 6335   4.035   6.811   6.404
 1812SOL    HW2 6336   3.966   6.664   6.423
 1813SOL     OW 6337   5.175   4.446   2.278
 1813SOL    HW1 6338   5.117   4.442   2.197
 1813SOL    HW2 6339   5.123   4.483   2.355
 1814SOL     OW 6340   6.169   0.171   0.785
 1814SOL    HW1 6341   6.253   0.169   0.730
 1814SOL    HW2 6342   6.133   0.265   0.786
 1815SOL     OW 6343   6.329   6.709   2.536
 1815SOL    HW1 6344   6.400   6.667   2.592
 1815SOL    HW2 6345   6.353   6.702   2.440
 1816SOL     OW 6346   3.728   4.973   5.968
 1816SOL    HW1 6347   3.742   4.885   6.012
 1816SOL    HW2 6348   3.788   4.981   5.888
 1817SOL     OW 6349   3.672   1.266   2.696
 1817SOL    HW1 6350   3.753   1.322   2.709
 1817SOL    HW2 6351   3.593   1.312   2.736
 1818SOL     OW 6352   1.561   6.557   0.336
 1818SOL    HW1 6353   1.596   6.538   0.427
 1818SOL    HW2 6354   1.461   6.558   0.339
 1819SOL     OW 6355   1.623   4.949   2.172
 1819SOL    HW1 6356   1.580   4.948   2.082
 1819SOL    HW2 6357   1.692   5.021   2.175
 1820SOL     OW 6358   3.524   0.199   2.623
 1820SOL    HW1 6359   3.622   0.211   2.611
 1820SOL    HW2 6360   3.491   0.132   2.556
 1821SOL     OW 6361   3.083   0.922   1.977
 1821SOL    HW1 6362   3.139   0.970   2.045
 1821SOL    HW2 6363   3.130   0.840   1.947
 1822SOL     OW 6364   1.127   3.442   1.740
 1822SOL    HW1 6365   1.141   3.359   1.684
 1822SOL    HW2 6366   1.216   3.478   1.767
 1823SOL     OW 6367   3.417   6.082   3.187
 1823SOL    HW1 6368   3.360   6.092   3.105
 1823SOL    HW2 6369   3.492   6.148   3.183
 1824SOL     OW 6370   3.959   3.704   0.558
 1824SOL    HW1 6371   3.932   3.675   0.650
 1824SOL    HW2 6372   4.058   3.697   0.549
 1825SOL     OW 6373   0.427   3.078   4.807
 1825SOL    HW1 6374   0.490   3.126   4.867
 1825SOL    HW2 6375   0.363   3.144   4.767
 1826SOL     OW 6376   2.921   1.115   0.878
 1826SOL    HW1 6377   2.972   1.188   0.923
 1826SOL    HW2 6378   2.981   1.037   0.862
 1827SOL     OW 6379   5.261   5.570   1.126
 1827SOL    HW1 6380   5.216   5.658   1.137
 1827SOL    HW2 6381   5.209   5.500   1.175
 1828SOL     OW 6382   1.832   3.256   6.499
 1828SOL    HW1 6383   1.918   3.229   6.456
 1828SOL    HW2 6384   1.807   3.190   6.570
 1829SOL     OW 6385   3.955   7.008   3.492
 1829SOL    HW1 6386   3.958   6.928   3.432
 1829SOL    HW2 6387   3.866   0.034   3.482
 1830SOL     OW 6388   6.021   6.714   4.990
 1830SOL    HW1 6389   5.976   6.742   5.075
 1830SOL    HW2 6390   5.956   6.664   4.933
 1831SOL     OW 6391   5.368   5.759   2.846
 1831SOL    HW1 6392   5.275   5.781   2.815
 1831SOL    HW2 6393   5.376   5.661   2.859
 1832SOL     OW 6394   3.110   3.252   0.050
 1832SOL    HW1 6395   3.038   3.272   0.116
 1832SOL    HW2 6396   3.070   3.241   6.978
 1833SOL     OW 6397   5.279   0.601   1.133
 1833SOL    HW1 6398   5.329   0.532   1.185
 1833SOL    HW2 6399   5.321   0.690   1.147
 1834SOL     OW 6400   2.399   3.202   1.380
 1834SOL    HW1 6401   2.368   3.246   1.296
 1834SOL    HW2 6402   2.492   3.166   1.368
 1835SOL     OW 6403   1.120   4.677   1.251
 1835SOL    HW1 6404   1.192   4.615   1.280
 1835SOL    HW2 6405   1.123   4.760   1.307
 1836SOL     OW 6406   5.658   2.427   2.037
 1836SOL    HW1 6407   5.617   2.407   1.948
 1836SOL    HW2 6408   5.624   2.514   2.071
 1837SOL     OW 6409   1.985   0.410   5.787
 1837SOL    HW1 6410   1.888   0.403   5.764
 1837SOL    HW2 6411   2.035   0.338   5.739
 1838SOL     OW 6412   6.423   0.662   6.363
 1838SOL    HW1 6413   6.408   0.758   6.340
 1838SOL    HW2 6414   6.410   0.649   6.462
 1839SOL     OW 6415   6.367   1.362   6.377
 1839SOL    HW1 6416   6.270   1.368   6.355
 1839SOL    HW2 6417   6.382   1.286   6.441
 1840SOL     OW 6418   3.984   0.513   2.701
 1840SOL    HW1 6419   3.990   0.607   2.669
 1840SOL    HW2 6420   3.889   0.491   2.723
 1841SOL     OW 6421   2.328   0.325   3.189
 1841SOL    HW1 6422   2.411   0.340   3.136
 1841SOL    HW2 6423   2.317   0.398   3.256
 1842SOL     OW 6424   1.205   5.411   0.606
 1842SOL    HW1 6425   1.289   5.433   0.556
 1842SOL    HW2 6426   1.199   5.312   0.619
 1843SOL     OW 6427   4.905   0.359   3.952
 1843SOL    HW1 6428   4.896   0.404   4.041
 1843SOL    HW2 6429   4.979   0.401   3.900
 1844SOL     OW 6430   4.650   1.650   5.555
 1844SOL    HW1 6431   4.590   1.652   5.634
 1844SOL    HW2 6432   4.729   1.592   5.574
 1845SOL     OW 6433   2.991   0.022   3.848
 1845SOL    HW1 6434   2.915   0.086   3.857
 1845SOL    HW2 6435   3.053   0.032   3.926
 1846SOL     OW 6436   5.354   1.042   3.181
 1846SOL    HW1 6437   5.270   1.079   3.219
 1846SOL    HW2 6438   5.336   1.003   3.091
 1847SOL     OW 6439   1.439   0.015   4.857
 1847SOL    HW1 6440   1.455   0.005   4.955
 1847SOL    HW2 6441   1.367   6.971   4.828
 1848SOL     OW 6442   1.363   6.537   4.312
 1848SOL    HW1 6443   1.292   6.527   4.382
 1848SOL    HW2 6444   1.424   6.458   4.313
 1849SOL     OW 6445   4.721   2.662   1.485
 1849SOL    HW1 6446   4.632   2.641   1.445
 1849SOL    HW2 6447   4.709   2.699   1.577
 1850SOL     OW 6448   6.072   1.985   2.551
 1850SOL    HW1 6449   5.979   1.978   2.514
 1850SOL    HW2 6450   6.105   2.079   2.540
 1851SOL     OW 6451   0.603   3.464   6.810
 1851SOL    HW1 6452   0.599   3.541   6.873
 1851SOL    HW2 6453   0.536   3.395   6.838
 1852SOL     OW 6454   0.440   5.108   1.846
 1852SOL    HW1 6455   0.344   5.102   1.872
 1852SOL    HW2 6456   0.447   5.109   1.746
 1853SOL     OW 6457   0.002   2.416   3.345
 1853SOL    HW1 6458   0.008   2.487   3.275
 1853SOL    HW2 6459   0.059   2.440   3.423
 1854SOL     OW 6460   1.236   5.374   2.962
 1854SOL    HW1 6461   1.233   5.276   2.983
 1854SOL    HW2 6462   1.162   5.421   3.009
 1855SOL     OW 6463   5.076   3.366   5.250
 1855SOL    HW1 6464   5.156   3.308   5.235
 1855SOL    HW2 6465   5.064   3.383   5.347
 1856SOL     OW 6466   3.952   3.456   6.243
 1856SOL    HW1 6467   3.918   3.526   6.307
 1856SOL    HW2 6468   4.045   3.430   6.269
 1857SOL     OW 6469   4.869   1.120   0.219
 1857SOL    HW1 6470   4.969   1.111   0.209
 1857SOL    HW2 6471   4.824   1.057   0.156
 1858SOL     OW 6472   5.943   2.892   3.163
 1858SOL    HW1 6473   5.883   2.938   3.097
 1858SOL    HW2 6474   5.893   2.817   3.206
 1859SOL     OW 6475   4.723   1.887   3.754
 1859SOL    HW1 6476   4.739   1.986   3.747
 1859SOL    HW2 6477   4.679   1.854   3.671
 1860SOL     OW 6478   0.785   1.922   5.676
 1860SOL    HW1 6479   0.786   1.834   5.722
 1860SOL    HW2 6480   0.737   1.914   5.588
 1861SOL     OW 6481   5.316   0.571   2.798
 1861SOL    HW1 6482   5.251   0.636   2.838
 1861SOL    HW2 6483   5.303   0.481   2.841
 1862SOL     OW 6484   1.168   6.834   6.819
 1862SOL    HW1 6485   1.110   6.881   6.754
 1862SOL    HW2 6486   1.117   6.759   6.862
 1863SOL     OW 6487   6.883   3.102   1.555
 1863SOL    HW1 6488   6.834   3.016   1.565
 1863SOL    HW2 6489   6.818   3.178   1.558
 1864SOL     OW 6490   3.641   5.793   4.100
 1864SOL    HW1 6491   3.617   5.721   4.165
 1864SOL    HW2 6492   3.599   5.773   4.011
 1865SOL     OW 6493   3.527   1.012   1.314
 1865SOL    HW1 6494   3.502   0.917   1.333
 1865SOL    HW2 6495   3.448   1.062   1.281
 1866SOL     OW 6496   6.370   4.742   3.671
 1866SOL    HW1 6497   6.466   4.720   3.687
 1866SOL    HW2 6498   6.337   4.692   3.591
 1867SOL     OW 6499   2.313   3.314   1.128
 1867SOL    HW1 6500   2.275   3.404   1.105
 1867SOL    HW2 6501   2.408   3.309   1.098
 1868SOL     OW 6502   4.968   3.634   5.924
 1868SOL    HW1 6503   5.007   3.705   5.866
 1868SOL    HW2 6504   4.992   3.544   5.887
 1869SOL     OW 6505   5.540   2.699   4.104
 1869SOL    HW1 6506   5.627   2.692   4.154
 1869SOL    HW2 6507   5.499   2.608   4.097
 1870SOL     OW 6508   0.820   3.173   4.629
 1870SOL    HW1 6509   0.822   3.099   4.696
 1870SOL    HW2 6510   0.761   3.146   4.552
 1871SOL     OW 6511   6.902   6.525   0.166
 1871SOL    HW1 6512   6.847   6.447   0.138
 1871SOL    HW2 6513   6.967   6.547   0.093
 1872SOL     OW 6514   3.747   2.409   0.282
 1872SOL    HW1 6515   3.743   2.354   0.365
 1872SOL    HW2 6516   3.665   2.466   0.275
 1873SOL     OW 6517   6.190   1.043   5.605
 1873SOL    HW1 6518   6.198   1.097   5.521
 1873SOL    HW2 6519   6.139   0.959   5.586
 1874SOL     OW 6520   0.948   1.046   0.018
 1874SOL    HW1 6521   0.888   1.120   0.049
 1874SOL    HW2 6522   0.896   0.961   0.013
 1875SOL     OW 6523   6.557   6.531   0.457
 1875SOL    HW1 6524   6.523   6.589   0.531
 1875SOL    HW2 6525   6.656   6.535   0.454
 1876SOL     OW 6526   5.116   6.303   6.024
 1876SOL    HW1 6527   5.171   6.372   5.979
 1876SOL    HW2 6528   5.080   6.239   5.956
 1877SOL     OW 6529   0.274   1.832   2.996
 1877SOL    HW1 6530   0.292   1.827   3.094
 1877SOL    HW2 6531   0.341   1.893   2.953
 1878SOL     OW 6532   6.882   4.078   3.156
 1878SOL    HW1 6533   6.805   4.044   3.210
 1878SOL    HW2 6534   6.924   4.002   3.106
 1879SOL     OW 6535   2.702   5.255   3.890
 1879SOL    HW1 6536   2.628   5.276   3.825
 1879SOL    HW2 6537   2.684   5.167   3.934
 1880SOL     OW 6538   1.090   2.634   3.026
 1880SOL    HW1 6539   1.056   2.715   3.075
 1880SOL    HW2 6540   1.013   2.579   2.995
 1881SOL     OW 6541   0.895   1.997   3.487
 1881SOL    HW1 6542   0.934   2.006   3.579
 1881SOL    HW2 6543   0.841   2.078   3.466
 1882SOL     OW 6544   0.618   5.630   6.803
 1882SOL    HW1 6545   0.698   5.574   6.823
 1882SOL    HW2 6546   0.563   5.587   6.732
 1883SOL     OW 6547   0.954   3.628   3.500
 1883SOL    HW1 6548   0.921   3.552   3.555
 1883SOL    HW2 6549   0.894   3.641   3.421
 1884SOL     OW 6550   5.333   1.135   1.482
 1884SOL    HW1 6551   5.352   1.123   1.384
 1884SOL    HW2 6552   5.358   1.228   1.510
 1885SOL     OW 6553   6.829   1.957   0.673
 1885SOL    HW1 6554   6.795   2.006   0.752
 1885SOL    HW2 6555   6.908   1.901   0.700
 1886SOL     OW 6556   1.733   2.271   0.186
 1886SOL    HW1 6557   1.723   2.369   0.202
 1886SOL    HW2 6558   1.816   2.238   0.231
 1887SOL     OW 6559   0.218   4.045   6.122
 1887SOL    HW1 6560   0.175   4.128   6.088
 1887SOL    HW2 6561   0.220   4.046   6.222
 1888SOL     OW 6562   2.522   1.739   6.552
 1888SOL    HW1 6563   2.464   1.669   6.510
 1888SOL    HW2 6564   2.469   1.790   6.620
 1889SOL     OW 6565   4.131   3.748   6.443
 1889SOL    HW1 6566   4.211   3.687   6.446
 1889SOL    HW2 6567   4.114   3.785   6.534
 1890SOL     OW 6568   1.586   5.769   5.975
 1890SOL    HW1 6569   1.597   5.723   6.064
 1890SOL    HW2 6570   1.668   5.756   5.920
 1891SOL     OW 6571   5.068   2.709   4.245
 1891SOL    HW1 6572   5.114   2.652   4.176
 1891SOL    HW2 6573   4.991   2.658   4.283
 1892SOL     OW 6574   3.509   6.582   1.162
 1892SOL    HW1 6575   3.410   6.586   1.181
 1892SOL    HW2 6576   3.552   6.518   1.225
 1893SOL     OW 6577   3.707   2.091   4.879
 1893SOL    HW1 6578   3.615   2.127   4.859
 1893SOL    HW2 6579   3.772   2.129   4.814
 1894SOL     OW 6580   4.300   3.443   1.235
 1894SOL    HW1 6581   4.231   3.381   1.199
 1894SOL    HW2 6582   4.340   3.496   1.160
 1895SOL     OW 6583   6.843   0.271   2.482
 1895SOL    HW1 6584   6.759   0.216   2.490
 1895SOL    HW2 6585   6.922   0.211   2.478
 1896SOL     OW 6586   6.790   0.955   2.972
 1896SOL    HW1 6587   6.881   0.949   2.932
 1896SOL    HW2 6588   6.787   1.029   3.038
 1897SOL     OW 6589   6.399   5.196   3.036
 1897SOL    HW1 6590   6.462   5.214   3.111
 1897SOL    HW2 6591   6.307   5.221   3.062
 1898SOL     OW 6592   3.788   6.537   1.763
 1898SOL    HW1 6593   3.803   6.590   1.680
 1898SOL    HW2 6594   3.825   6.445   1.750
 1899SOL     OW 6595   1.137   2.971   2.639
 1899SOL    HW1 6596   1.038   2.986   2.636
 1899SOL    HW2 6597   1.171   2.993   2.731
 1900SOL     OW 6598   1.403   0.171   5.775
 1900SOL    HW1 6599   1.397   0.160   5.676
 1900SOL    HW2 6600   1.337   0.111   5.820
 1901SOL     OW 6601   2.424   1.475   0.888
 1901SOL    HW1 6602   2.389   1.383   0.901
 1901SOL    HW2 6603   2.348   1.538   0.874
 1902SOL     OW 6604   1.640   2.420   5.016
 1902SOL    HW1 6605   1.729   2.450   4.981
 1902SOL    HW2 6606   1.629   2.322   5.000
 1903SOL     OW 6607   6.815   3.536   3.820
 1903SOL    HW1 6608   6.825   3.445   3.860
 1903SOL    HW2 6609   6.773   3.528   3.729
 1904SOL     OW 6610   6.956   0.193   4.010
 1904SOL    HW1 6611   0.014   0.255   3.999
 1904SOL    HW2 6612   6.974   0.108   3.960
 1905SOL     OW 6613   0.298   2.541   4.147
 1905SOL    HW1 6614   0.229   2.472   4.125
 1905SOL    HW2 6615   0.299   2.556   4.246
 1906SOL     OW 6616   2.743   0.223   5.303
 1906SOL    HW1 6617   2.786   0.215   5.393
 1906SOL    HW2 6618   2.813   0.248   5.235
 1907SOL     OW 6619   3.272   7.005   3.692
 1907SOL    HW1 6620   3.182   6.961   3.700
 1907SOL    HW2 6621   3.322   6.992   3.777
 1908SOL     OW 6622   4.666   1.052   4.839
 1908SOL    HW1 6623   4.759   1.057   4.876
 1908SOL    HW2 6624   4.661   1.102   4.753
 1909SOL     OW 6625   1.834   4.319   3.643
 1909SOL    HW1 6626   1.738   4.337   3.665
 1909SOL    HW2 6627   1.858   4.362   3.556
 1910SOL     OW 6628   5.834   2.264   6.123
 1910SOL    HW1 6629   5.871   2.224   6.207
 1910SOL    HW2 6630   5.741   2.231   6.108
 1911SOL     OW 6631   5.760   1.761   5.755
 1911SOL    HW1 6632   5.708   1.841   5.724
 1911SOL    HW2 6633   5.857   1.784   5.759
 1912SOL     OW 6634   3.839   6.682   2.370
 1912SOL    HW1 6635   3.883   6.770   2.386
 1912SOL    HW2 6636   3.777   6.661   2.445
 1913SOL     OW 6637   1.965   6.265   5.207
 1913SOL    HW1 6638   1.926   6.213   5.131
 1913SOL    HW2 6639   1.897   6.331   5.239
 1914SOL     OW 6640   2.620   2.430   6.866
 1914SOL    HW1 6641   2.657   2.366   6.933
 1914SOL    HW2 6642   2.660   2.520   6.880
 1915SOL     OW 6643   3.417   1.281   5.012
 1915SOL    HW1 6644   3.464   1.197   4.985
 1915SOL    HW2 6645   3.476   1.333   5.074
 1916SOL     OW 6646   3.852   5.399   0.620
 1916SOL    HW1 6647   3.850   5.414   0.719
 1916SOL    HW2 6648   3.760   5.378   0.587
 1917SOL     OW 6649   4.136   3.448   4.568
 1917SOL    HW1 6650   4.069   3.396   4.515
 1917SOL    HW2 6651   4.228   3.414   4.549
 1918SOL     OW 6652   6.520   6.285   6.429
 1918SOL    HW1 6653   6.546   6.246   6.517
 1918SOL    HW2 6654   6.464   6.220   6.378
 1919SOL     OW 6655   1.197   6.542   2.318
 1919SOL    HW1 6656   1.179   6.447   2.289
 1919SOL    HW2 6657   1.290   6.548   2.354
 1920SOL     OW 6658   0.247   4.874   3.334
 1920SOL    HW1 6659   0.176   4.811   3.301
 1920SOL    HW2 6660   0.336   4.843   3.303
 1921SOL     OW 6661   0.582   4.415   0.330
 1921SOL    HW1 6662   0.656   4.420   0.397
 1921SOL    HW2 6663   0.613   4.455   0.243
 1922SOL     OW 6664   3.486   3.837   1.169
 1922SOL    HW1 6665   3.516   3.774   1.241
 1922SOL    HW2 6666   3.554   3.908   1.156
 1923SOL     OW 6667   2.790   0.895   6.966
 1923SOL    HW1 6668   2.861   0.833   6.999
 1923SOL    HW2 6669   2.719   0.906   0.017
 1924SOL     OW 6670   5.403   5.424   2.562
 1924SOL    HW1 6671   5.491   5.381   2.581
 1924SOL    HW2 6672   5.392   5.436   2.463
 1925SOL     OW 6673   2.903   3.446   1.877
 1925SOL    HW1 6674   2.999   3.419   1.884
 1925SOL    HW2 6675   2.872   3.480   1.966
 1926SOL     OW 6676   1.071   6.912   3.947
 1926SOL    HW1 6677   1.111   6.864   4.025
 1926SOL    HW2 6678   1.128   6.990   3.923
 1927SOL     OW 6679   3.099   5.279   6.397
 1927SOL    HW1 6680   3.194   5.291   6.366
 1927SOL    HW2 6681   3.043   5.245   6.321
 1928SOL     OW 6682   6.736   3.661   6.172
 1928SOL    HW1 6683   6.777   3.747   6.202
 1928SOL    HW2 6684   6.663   3.635   6.235
 1929SOL     OW 6685   0.690   5.514   1.227
 1929SOL    HW1 6686   0.748   5.553   1.155
 1929SOL    HW2 6687   0.608   5.572   1.237
 1930SOL     OW 6688   4.227   4.276   7.018
 1930SOL    HW1 6689   4.200   4.242   6.928
 1930SOL    HW2 6690   4.297   4.347   7.007
 1931SOL     OW 6691   0.075   3.368   3.327
 1931SOL    HW1 6692   7.014   3.326   3.369
 1931SOL    HW2 6693   0.157   3.345   3.380
 1932SOL     OW 6694   4.889   4.335   2.533
 1932SOL    HW1 6695   4.863   4.258   2.474
 1932SOL    HW2 6696   4.977   4.316   2.575
 1933SOL     OW 6697   3.088   4.496   0.369
 1933SOL    HW1 6698   3.043   4.412   0.399
 1933SOL    HW2 6699   3.186   4.491   0.388
 1934SOL     OW 6700   0.467   0.565   5.378
 1934SOL    HW1 6701   0.437   0.657   5.351
 1934SOL    HW2 6702   0.391   0.517   5.422
 1935SOL     OW 6703   3.365   0.300   5.065
 1935SOL    HW1 6704   3.301   0.301   4.989
 1935SOL    HW2 6705   3.440   0.363   5.046
 1936SOL     OW 6706   5.833   4.167   3.848
 1936SOL    HW1 6707   5.762   4.236   3.862
 1936SOL    HW2 6708   5.917   4.197   3.894
 1937SOL     OW 6709   4.372   6.342   1.474
 1937SOL    HW1 6710   4.395   6.402   1.398
 1937SOL    HW2 6711   4.364   6.248   1.441
 1938SOL     OW 6712   3.982   1.112   2.699
 1938SOL    HW1 6713   4.067   1.122   2.751
 1938SOL    HW2 6714   3.904   1.117   2.762
 1939SOL     OW 6715   0.395   6.328   4.385
 1939SOL    HW1 6716   0.349   6.278   4.459
 1939SOL    HW2 6717   0.452   6.400   4.425
 1940SOL     OW 6718   5.116   5.262   5.777
 1940SOL    HW1 6719   5.085   5.306   5.693
 1940SOL    HW2 6720   5.124   5.163   5.762
 1941SOL     OW 6721   6.890   3.754   3.223
 1941SOL    HW1 6722   6.904   3.711   3.134
 1941SOL    HW2 6723   6.940   3.703   3.293
 1942SOL     OW 6724   6.575   0.621   2.935
 1942SOL    HW1 6725   6.558   0.582   3.025
 1942SOL    HW2 6726   6.573   0.721   2.940
 1943SOL     OW 6727   2.958   6.545   2.438
 1943SOL    HW1 6728   2.986   6.534   2.533
 1943SOL    HW2 6729   2.894   6.472   2.413
 1944SOL     OW 6730   5.186   2.438   6.595
 1944SOL    HW1 6731   5.238   2.393   6.668
 1944SOL    HW2 6732   5.104   2.384   6.574
 1945SOL     OW 6733   3.739   5.966   2.332
 1945SOL    HW1 6734   3.661   6.021   2.364
 1945SOL    HW2 6735   3.783   5.923   2.411
 1946SOL     OW 6736   6.621   0.665   0.663
 1946SOL    HW1 6737   6.639   0.623   0.574
 1946SOL    HW2 6738   6.657   0.758   0.664
 1947SOL     OW 6739   4.999   6.487   3.748
 1947SOL    HW1 6740   4.933   6.561   3.755
 1947SOL    HW2 6741   4.977   6.430   3.669
 1948SOL     OW 6742   5.936   6.010   3.856
 1948SOL    HW1 6743   5.980   6.066   3.926
 1948SOL    HW2 6744   5.990   5.928   3.840
 1949SOL     OW 6745   4.614   4.506   5.714
 1949SOL    HW1 6746   4.603   4.603   5.736
 1949SOL    HW2 6747   4.554   4.482   5.638
 1950SOL     OW 6748   3.718   3.780   0.877
 1950SOL    HW1 6749   3.653   3.738   0.813
 1950SOL    HW2 6750   3.687   3.763   0.971
 1951SOL     OW 6751   5.900   3.947   0.372
 1951SOL    HW1 6752   5.963   4.023   0.359
 1951SOL    HW2 6753   5.821   3.978   0.426
 1952SOL     OW 6754   3.664   2.405   6.978
 1952SOL    HW1 6755   3.575   2.419   0.004
 1952SOL    HW2 6756   3.737   2.440   0.017
 1953SOL     OW 6757   6.278   2.861   0.130
 1953SOL    HW1 6758   6.344   2.908   0.189
 1953SOL    HW2 6759   6.297   2.763   0.131
 1954SOL     OW 6760   5.861   1.121   4.560
 1954SOL    HW1 6761   5.848   1.181   4.482
 1954SOL    HW2 6762   5.906   1.037   4.530
 1955SOL     OW 6763   1.482   0.500   2.711
 1955SOL    HW1 6764   1.551   0.494   2.639
 1955SOL    HW2 6765   1.518   0.458   2.795
 1956SOL     OW 6766   5.973   0.256   2.522
 1956SOL    HW1 6767   5.941   0.284   2.613
 1956SOL    HW2 6768   6.038   0.181   2.531
 1957SOL     OW 6769   6.308   5.411   4.831
 1957SOL    HW1 6770   6.257   5.372   4.909
 1957SOL    HW2 6771   6.344   5.336   4.775
 1958SOL     OW 6772   5.966   2.511   3.649
 1958SOL    HW1 6773   6.011   2.597   3.672
 1958SOL    HW2 6774   5.882   2.502   3.703
 1959SOL     OW 6775   0.207   1.775   6.216
 1959SOL    HW1 6776   0.278   1.835   6.253
 1959SOL    HW2 6777   0.120   1.793   6.262
 1960SOL     OW 6778   6.734   4.152   0.656
 1960SOL    HW1 6779   6.785   4.077   0.613
 1960SOL    HW2 6780   6.641   4.121   0.676
 1961SOL     OW 6781   6.023   4.511   4.445
 1961SOL    HW1 6782   6.003   4.432   4.502
 1961SOL    HW2 6783   6.007   4.595   4.497
 1962SOL     OW 6784   2.921   6.432   3.076
 1962SOL    HW1 6785   2.879   6.487   3.149
 1962SOL    HW2 6786   2.900   6.473   2.988
 1963SOL     OW 6787   0.664   0.483   1.077
 1963SOL    HW1 6788   0.762   0.498   1.062
 1963SOL    HW2 6789   0.633   0.541   1.152
 1964SOL     OW 6790   4.484   3.156   1.639
 1964SOL    HW1 6791   4.548   3.127   1.710
 1964SOL    HW2 6792   4.410   3.209   1.681
 1965SOL     OW 6793   1.212   3.523   3.453
 1965SOL    HW1 6794   1.284   3.592   3.464
 1965SOL    HW2 6795   1.127   3.557   3.494
 1966SOL     OW 6796   0.067   5.496   5.371
 1966SOL    HW1 6797   0.035   5.584   5.407
 1966SOL    HW2 6798   7.007   5.440   5.347
 1967SOL     OW 6799   4.787   2.245   4.972
 1967SOL    HW1 6800   4.759   2.150   4.985
 1967SOL    HW2 6801   4.712   2.296   4.930
 1968SOL     OW 6802   3.559   5.686   0.543
 1968SOL    HW1 6803   3.480   5.656   0.489
 1968SOL    HW2 6804   3.527   5.736   0.624
 1969SOL     OW 6805   0.545   1.432   1.622
 1969SOL    HW1 6806   0.450   1.458   1.643
 1969SOL    HW2 6807   0.547   1.342   1.580
 1970SOL     OW 6808   2.444   0.182   5.885
 1970SOL    HW1 6809   2.514   0.117   5.915
 1970SOL    HW2 6810   2.485   0.248   5.822
 1971SOL     OW 6811   6.570   0.089   6.485
 1971SOL    HW1 6812   6.484   0.135   6.463
 1971SOL    HW2 6813   6.627   0.083   6.403
 1972SOL     OW 6814   5.741   2.395   2.794
 1972SOL    HW1 6815   5.801   2.450   2.737
 1972SOL    HW2 6816   5.704   2.451   2.868
 1973SOL     OW 6817   2.290   3.415   0.548
 1973SOL    HW1 6818   2.388   3.399   0.559
 1973SOL    HW2 6819   2.248   3.426   0.638
 1974SOL     OW 6820   6.259   6.514   4.096
 1974SOL    HW1 6821   6.302   6.440   4.044
 1974SOL    HW2 6822   6.295   6.515   4.189
 1975SOL     OW 6823   2.592   1.490   2.846
 1975SOL    HW1 6824   2.652   1.549   2.791
 1975SOL    HW2 6825   2.568   1.536   2.930
 1976SOL     OW 6826   0.137   5.248   6.882
 1976SOL    HW1 6827   0.161   5.334   6.838
 1976SOL    HW2 6828   0.187   5.173   6.837
 1977SOL     OW 6829   1.186   3.270   3.455
 1977SOL    HW1 6830   1.105   3.227   3.416
 1977SOL    HW2 6831   1.186   3.368   3.434
 1978SOL     OW 6832   1.040   1.168   3.848
 1978SOL    HW1 6833   1.097   1.213   3.779
 1978SOL    HW2 6834   0.975   1.106   3.803
 1979SOL     OW 6835   6.623   4.180   5.139
 1979SOL    HW1 6836   6.628   4.180   5.239
 1979SOL    HW2 6837   6.556   4.112   5.110
 1980SOL     OW 6838   2.908   0.990   6.476
 1980SOL    HW1 6839   2.820   1.016   6.435
 1980SOL    HW2 6840   2.898   0.901   6.521
 1981SOL     OW 6841   6.302   2.235   2.468
 1981SOL    HW1 6842   6.359   2.304   2.510
 1981SOL    HW2 6843   6.218   2.277   2.433
 1982SOL     OW 6844   0.400   3.891   5.118
 1982SOL    HW1 6845   0.367   3.954   5.189
 1982SOL    HW2 6846   0.395   3.935   5.029
 1983SOL     OW 6847   0.491   1.791   3.234
 1983SOL    HW1 6848   0.435   1.721   3.277
 1983SOL    HW2 6849   0.584   1.786   3.270
 1984SOL     OW 6850   5.567   1.431   4.630
 1984SOL    HW1 6851   5.574   1.481   4.544
 1984SOL    HW2 6852   5.537   1.337   4.611
 1985SOL     OW 6853   0.869   0.325   2.708
 1985SOL    HW1 6854   0.918   0.239   2.718
 1985SOL    HW2 6855   0.773   0.307   2.685
 1986SOL     OW 6856   1.554   0.186   6.944
 1986SOL    HW1 6857   1.502   0.110   6.983
 1986SOL    HW2 6858   1.610   0.228   7.015
 1987SOL     OW 6859   0.939   3.042   0.730
 1987SOL    HW1 6860   1.036   3.040   0.703
 1987SOL    HW2 6861   0.932   3.068   0.826
 1988SOL     OW 6862   4.895   5.003   1.028
 1988SOL    HW1 6863   4.967   4.981   1.093
 1988SOL    HW2 6864   4.818   5.046   1.076
 1989SOL     OW 6865   2.295   6.798   5.016
 1989SOL    HW1 6866   2.347   6.882   5.004
 1989SOL    HW2 6867   2.352   6.731   5.064
 1990SOL     OW 6868   3.091   6.381   0.766
 1990SOL    HW1 6869   3.123   6.433   0.686
 1990SOL    HW2 6870   3.155   6.394   0.842
 1991SOL     OW 6871   4.286   4.824   6.285
 1991SOL    HW1 6872   4.287   4.789   6.379
 1991SOL    HW2 6873   4.377   4.860   6.263
 1992SOL     OW 6874   0.592   0.001   6.748
 1992SOL    HW1 6875   0.608   0.092   6.709
 1992SOL    HW2 6876   0.679   6.982   6.780
 1993SOL     OW 6877   3.685   3.517   4.383
 1993SOL    HW1 6878   3.717   3.573   4.306
 1993SOL    HW2 6879   3.730   3.428   4.380
 1994SOL     OW 6880   1.024   1.799   0.567
 1994SOL    HW1 6881   1.093   1.732   0.593
 1994SOL    HW2 6882   1.067   1.890   0.562
 1995SOL     OW 6883   6.534   2.170   1.728
 1995SOL    HW1 6884   6.529   2.270   1.734
 1995SOL    HW2 6885   6.585   2.144   1.647
 1996SOL     OW 6886   2.746   3.741   0.817
 1996SOL    HW1 6887   2.794   3.665   0.862
 1996SOL    HW2 6888   2.752   3.730   0.718
 1997SOL     OW 6889   4.803   0.120   5.367
 1997SOL    HW1 6890   4.848   0.117   5.456
 1997SOL    HW2 6891   4.732   0.191   5.368
 1998SOL     OW 6892   3.055   3.803   6.384
 1998SOL    HW1 6893   3.044   3.718   6.437
 1998SOL    HW2 6894   2.989   3.804   6.309
 1999SOL     OW 6895   3.251   6.478   1.516
 1999SOL    HW1 6896   3.242   6.441   1.609
 1999SOL    HW2 6897   3.339   6.525   1.507
 2000SOL     OW 6898   4.048   1.858   5.163
 2000SOL    HW1 6899   4.113   1.889   5.232
 2000SOL    HW2 6900   4.062   1.911   5.079
 2001SOL     OW 6901   3.182   1.829   1.617
 2001SOL    HW1 6902   3.206   1.738   1.649
 2001SOL    HW2 6903   3.235   1.851   1.535
 2002SOL     OW 6904   1.282   5.570   6.177
 2002SOL    HW1 6905   1.257   5.542   6.085
 2002SOL    HW2 6906   1.377   5.544   6.195
 2003SOL     OW 6907   6.238   6.742   3.562
 2003SOL    HW1 6908   6.300   6.716   3.637
 2003SOL    HW2 6909   6.280   6.719   3.474
 2004SOL     OW 6910   4.756   1.466   5.248
 2004SOL    HW1 6911   4.837   1.500   5.297
 2004SOL    HW2 6912   4.673   1.496   5.297
 2005SOL     OW 6913   0.776   4.767   6.676
 2005SOL    HW1 6914   0.801   4.705   6.750
 2005SOL    HW2 6915   0.699   4.728   6.625
 2006SOL     OW 6916   5.586   4.898   4.230
 2006SOL    HW1 6917   5.495   4.939   4.228
 2006SOL    HW2 6918   5.582   4.808   4.275
 2007SOL     OW 6919   4.011   4.925   1.208
 2007SOL    HW1 6920   3.968   4.986   1.275
 2007SOL    HW2 6921   3.990   4.959   1.116
 2008SOL     OW 6922   1.473   5.486   3.032
 2008SOL    HW1 6923   1.481   5.579   3.066
 2008SOL    HW2 6924   1.376   5.461   3.024
 2009SOL     OW 6925   6.342   6.930   1.768
 2009SOL    HW1 6926   6.255   6.965   1.732
 2009SOL    HW2 6927   6.407   6.921   1.693
 2010SOL     OW 6928   1.308   1.489   1.630
 2010SOL    HW1 6929   1.330   1.481   1.727
 2010SOL    HW2 6930   1.281   1.583   1.610
 2011SOL     OW 6931   6.235   1.341   5.019
 2011SOL    HW1 6932   6.302   1.388   4.962
 2011SOL    HW2 6933   6.268   1.337   5.113
 2012SOL     OW 6934   1.109   3.183   1.642
 2012SOL    HW1 6935   1.120   3.208   1.546
 2012SOL    HW2 6936   1.196   3.152   1.680
 2013SOL     OW 6937   6.108   0.816   3.304
 2013SOL    HW1 6938   6.067   0.864   3.382
 2013SOL    HW2 6939   6.116   0.878   3.227
 2014SOL     OW 6940   2.117   5.122   2.999
 2014SOL    HW1 6941   2.064   5.076   3.070
 2014SOL    HW2 6942   2.059   5.138   2.919
 2015SOL     OW 6943   2.174   2.277   0.298
 2015SOL    HW1 6944   2.201   2.301   0.391
 2015SOL    HW2 6945   2.172   2.359   0.241
 2016SOL     OW 6946   1.553   5.158   5.088
 2016SOL    HW1 6947   1.571   5.237   5.030
 2016SOL    HW2 6948   1.632   5.097   5.086
 2017SOL     OW 6949   2.173   6.740   4.308
 2017SOL    HW1 6950   2.259   6.722   4.261
 2017SOL    HW2 6951   2.180   6.826   4.359
 2018SOL     OW 6952   6.271   6.914   6.220
 2018SOL    HW1 6953   6.193   6.885   6.276
 2018SOL    HW2 6954   6.240   6.981   6.153
 2019SOL     OW 6955   4.792   2.364   2.379
 2019SOL    HW1 6956   4.693   2.355   2.372
 2019SOL    HW2 6957   4.829   2.406   2.296
 2020SOL     OW 6958   0.975   5.653   5.536
 2020SOL    HW1 6959   1.041   5.656   5.460
 2020SOL    HW2 6960   0.933   5.743   5.546
 2021SOL     OW 6961   2.326   5.302   3.126
 2021SOL    HW1 6962   2.253   5.260   3.073
 2021SOL    HW2 6963   2.332   5.399   3.103
 2022SOL     OW 6964   1.707   3.060   2.973
 2022SOL    HW1 6965   1.752   3.104   2.895
 2022SOL    HW2 6966   1.712   2.961   2.963
 2023SOL     OW 6967   5.946   1.332   6.638
 2023SOL    HW1 6968   5.854   1.366   6.617
 2023SOL    HW2 6969   6.013   1.385   6.585
 2024SOL     OW 6970   6.907   6.967   3.009
 2024SOL    HW1 6971   6.999   6.952   3.045
 2024SOL    HW2 6972   6.912   7.018   2.923
 2025SOL     OW 6973   2.090   3.065   2.321
 2025SOL    HW1 6974   2.073   3.062   2.222
 2025SOL    HW2 6975   2.180   3.104   2.337
 2026SOL     OW 6976   1.099   2.486   6.269
 2026SOL    HW1 6977   1.062   2.505   6.178
 2026SOL    HW2 6978   1.194   2.516   6.273
 2027SOL     OW 6979   0.824   1.590   1.065
 2027SOL    HW1 6980   0.786   1.498   1.059
 2027SOL    HW2 6981   0.921   1.585   1.086
 2028SOL     OW 6982   3.046   1.265   6.194
 2028SOL    HW1 6983   3.056   1.305   6.103
 2028SOL    HW2 6984   2.968   1.306   6.240
 2029SOL     OW 6985   6.709   0.495   0.869
 2029SOL    HW1 6986   6.686   0.564   0.802
 2029SOL    HW2 6987   6.747   0.415   0.823
 2030SOL     OW 6988   2.500   0.924   3.283
 2030SOL    HW1 6989   2.581   0.917   3.341
 2030SOL    HW2 6990   2.423   0.958   3.337
 2031SOL     OW 6991   5.711   6.175   2.113
 2031SOL    HW1 6992   5.621   6.156   2.073
 2031SOL    HW2 6993   5.782   6.133   2.056
 2032SOL     OW 6994   3.936   6.902   2.137
 2032SOL    HW1 6995   3.996   6.884   2.059
 2032SOL    HW2 6996   3.842   6.914   2.104
 2033SOL     OW 6997   3.727   3.928   6.681
 2033SOL    HW1 6998   3.741   3.829   6.686
 2033SOL    HW2 6999   3.630   3.947   6.671
 2034SOL     OW 7000   3.181   6.620   4.473
 2034SOL    HW1 7001   3.129   6.581   4.398
 2034SOL    HW2 7002   3.265   6.661   4.437
 2035SOL     OW 7003   0.002   0.613   1.786
 2035SOL    HW1 7004   6.940   0.667   1.762
 2035SOL    HW2 7005   0.084   0.668   1.770
 2036SOL     OW 7006   1.255   5.652   2.854
 2036SOL    HW1 7007   1.352   5.630   2.843
 2036SOL    HW2 7008   1.227   5.717   2.783
 2037SOL     OW 7009   0.884   2.855   5.837
 2037SOL    HW1 7010   0.834   2.880   5.920
 2037SOL    HW2 7011   0.956   2.789   5.860
 2038SOL     OW 7012   1.713   2.181   6.690
 2038SOL    HW1 7013   1.707   2.229   6.778
 2038SOL    HW2 7014   1.799   2.204   6.645
 2039SOL     OW 7015   0.089   5.086   2.719
 2039SOL    HW1 7016   0.100   4.995   2.678
 2039SOL    HW2 7017   0.138   5.153   2.664
 2040SOL     OW 7018   3.745   3.355   5.218
 2040SOL    HW1 7019   3.756   3.259   5.194
 2040SOL    HW2 7020   3.747   3.411   5.135
 2041SOL     OW 7021   6.533   5.839   5.501
 2041SOL    HW1 7022   6.455   5.894   5.530
 2041SOL    HW2 7023   6.571   5.791   5.580
 2042SOL     OW 7024   5.559   4.774   6.913
 2042SOL    HW1 7025   5.506   4.791   6.996
 2042SOL    HW2 7026   5.515   4.821   6.836
 2043SOL     OW 7027   6.594   4.392   2.774
 2043SOL    HW1 7028   6.601   4.491   2.758
 2043SOL    HW2 7029   6.685   4.356   2.795
 2044SOL     OW 7030   4.963   0.159   2.054
 2044SOL    HW1 7031   4.990   0.242   2.006
 2044SOL    HW2 7032   4.908   0.182   2.133
 2045SOL     OW 7033   2.706   4.775   4.121
 2045SOL    HW1 7034   2.609   4.752   4.132
 2045SOL    HW2 7035   2.744   4.723   4.046
 2046SOL     OW 7036   0.394   1.397   4.180
 2046SOL    HW1 7037   0.483   1.393   4.224
 2046SOL    HW2 7038   0.322   1.406   4.249
 2047SOL     OW 7039   4.772   2.295   0.364
 2047SOL    HW1 7040   4.794   2.239   0.444
 2047SOL    HW2 7041   4.809   2.387   0.376
 2048SOL     OW 7042   1.956   5.883   0.771
 2048SOL    HW1 7043   2.032   5.821   0.792
 2048SOL    HW2 7044   1.969   5.922   0.680
 2049SOL     OW 7045   4.930   1.770   6.572
 2049SOL    HW1 7046   4.848   1.821   6.596
 2049SOL    HW2 7047   5.008   1.832   6.569
 2050SOL     OW 7048   0.573   3.315   2.924
 2050SOL    HW1 7049   0.612   3.243   2.867
 2050SOL    HW2 7050   0.474   3.309   2.923
 2051SOL     OW 7051   1.001   5.877   1.204
 2051SOL    HW1 7052   0.992   5.860   1.302
 2051SOL    HW2 7053   1.083   5.833   1.170
 2052SOL     OW 7054   0.447   4.316   0.672
 2052SOL    HW1 7055   0.414   4.406   0.697
 2052SOL    HW2 7056   0.467   4.263   0.754
 2053SOL     OW 7057   5.353   7.002   5.442
 2053SOL    HW1 7058   5.416   0.059   5.425
 2053SOL    HW2 7059   5.403   6.916   5.436
 2054SOL     OW 7060   4.019   3.132   1.883
 2054SOL    HW1 7061   4.069   3.161   1.964
 2054SOL    HW2 7062   3.937   3.081   1.910
 2055SOL     OW 7063   6.433   3.519   3.343
 2055SOL    HW1 7064   6.385   3.494   3.259
 2055SOL    HW2 7065   6.450   3.437   3.398
 2056SOL     OW 7066   2.575   0.409   3.066
 2056SOL    HW1 7067   2.597   0.483   3.129
 2056SOL    HW2 7068   2.568   0.445   2.973
 2057SOL     OW 7069   5.545   3.116   3.804
 2057SOL    HW1 7070   5.576   3.091   3.896
 2057SOL    HW2 7071   5.447   3.138   3.807
 2058SOL     OW 7072   0.729   1.963   2.998
 2058SOL    HW1 7073   0.785   1.886   3.030
 2058SOL    HW2 7074   0.642   1.930   2.962
 2059SOL     OW 7075   2.594   6.280   5.981
 2059SOL    HW1 7076   2.609   6.183   5.961
 2059SOL    HW2 7077   2.633   6.335   5.908
 2060SOL     OW 7078   5.436   4.625   0.920
 2060SOL    HW1 7079   5.401   4.718   0.927
 2060SOL    HW2 7080   5.535   4.625   0.928
 2061SOL     OW 7081   0.615   2.255   3.088
 2061SOL    HW1 7082   0.564   2.171   3.109
 2061SOL    HW2 7083   0.713   2.235   3.085
 2062SOL     OW 7084   6.123   0.034   3.622
 2062SOL    HW1 7085   6.144   0.008   3.716
 2062SOL    HW2 7086   6.172   6.993   3.559
 2063SOL     OW 7087   1.736   0.464   6.173
 2063SOL    HW1 7088   1.651   0.449   6.223
 2063SOL    HW2 7089   1.811   0.476   6.238
 2064SOL     OW 7090   1.025   2.446   5.943
 2064SOL    HW1 7091   1.059   2.357   5.913
 2064SOL    HW2 7092   1.055   2.517   5.879
 2065SOL     OW 7093   6.909   2.957   4.337
 2065SOL    HW1 7094   6.870   3.029   4.394
 2065SOL    HW2 7095   6.987   2.915   4.385
 2066SOL     OW 7096   0.644   5.298   3.284
 2066SOL    HW1 7097   0.606   5.239   3.213
 2066SOL    HW2 7098   0.742   5.309   3.270
 2067SOL     OW 7099   0.099   5.709   1.080
 2067SOL    HW1 7100   0.011   5.725   1.124
 2067SOL    HW2 7101   0.147   5.636   1.129
 2068SOL     OW 7102   1.514   1.471   5.186
 2068SOL    HW1 7103   1.527   1.555   5.134
 2068SOL    HW2 7104   1.603   1.431   5.207
 2069SOL     OW 7105   0.992   3.129   3.340
 2069SOL    HW1 7106   1.034   3.047   3.379
 2069SOL    HW2 7107   0.972   3.113   3.243
 2070SOL     OW 7108   1.283   0.633   2.006
 2070SOL    HW1 7109   1.335   0.598   2.084
 2070SOL    HW2 7110   1.185   0.624   2.025
 2071SOL     OW 7111   5.669   5.905   5.341
 2071SOL    HW1 7112   5.762   5.894   5.376
 2071SOL    HW2 7113   5.617   5.965   5.403
 2072SOL     OW 7114   4.215   0.028   2.478
 2072SOL    HW1 7115   4.247   0.114   2.519
 2072SOL    HW2 7116   4.243   0.024   2.382
 2073SOL     OW 7117   4.287   6.909   4.183
 2073SOL    HW1 7118   4.386   6.916   4.200
 2073SOL    HW2 7119   4.249   6.833   4.236
 2074SOL     OW 7120   1.761   2.846   0.365
 2074SOL    HW1 7121   1.699   2.799   0.303
 2074SOL    HW2 7122   1.715   2.863   0.452
 2075SOL     OW 7123   5.287   3.106   1.152
 2075SOL    HW1 7124   5.213   3.141   1.210
 2075SOL    HW2 7125   5.375   3.125   1.195
 2076SOL     OW 7126   5.500   0.083   6.282
 2076SOL    HW1 7127   5.422   0.034   6.321
 2076SOL    HW2 7128   5.558   0.118   6.356
 2077SOL     OW 7129   5.672   3.005   2.152
 2077SOL    HW1 7130   5.613   3.063   2.097
 2077SOL    HW2 7131   5.676   3.040   2.245
 2078SOL     OW 7132   1.292   5.845   6.237
 2078SOL    HW1 7133   1.290   5.764   6.179
 2078SOL    HW2 7134   1.386   5.877   6.246
 2079SOL     OW 7135   5.340   1.731   3.366
 2079SOL    HW1 7136   5.362   1.686   3.280
 2079SOL    HW2 7137   5.386   1.820   3.371
 2080SOL     OW 7138   1.807   0.885   4.671
 2080SOL    HW1 7139   1.756   0.811   4.714
 2080SOL    HW2 7140   1.904   0.875   4.692
 2081SOL     OW 7141   1.365   5.408   4.411
 2081SOL    HW1 7142   1.379   5.443   4.318
 2081SOL    HW2 7143   1.427   5.332   4.428
 2082SOL     OW 7144   0.144   6.962   3.447
 2082SOL    HW1 7145   0.131   6.863   3.444
 2082SOL    HW2 7146   0.087   7.005   3.377
 2083SOL     OW 7147   5.855   4.926   6.644
 2083SOL    HW1 7148   5.778   4.869   6.614
 2083SOL    HW2 7149   5.913   4.948   6.565
 2084SOL     OW 7150   1.423   3.725   3.967
 2084SOL    HW1 7151   1.360   3.709   3.892
 2084SOL    HW2 7152   1.445   3.639   4.012
 2085SOL     OW 7153   4.239   0.516   6.747
 2085SOL    HW1 7154   4.323   0.561   6.715
 2085SOL    HW2 7155   4.160   0.569   6.717
 2086SOL     OW 7156   4.317   6.718   5.806
 2086SOL    HW1 7157   4.388   6.788   5.803
 2086SOL    HW2 7158   4.359   6.629   5.820
 2087SOL     OW 7159   4.939   0.401   1.669
 2087SOL    HW1 7160   4.880   0.453   1.607
 2087SOL    HW2 7161   4.926   0.303   1.653
 2088SOL     OW 7162   2.879   6.270   0.240
 2088SOL    HW1 7163   2.797   6.292   0.293
 2088SOL    HW2 7164   2.874   6.176   0.208
 2089SOL     OW 7165   5.572   2.090   6.136
 2089SOL    HW1 7166   5.547   2.087   6.233
 2089SOL    HW2 7167   5.510   2.032   6.083
 2090SOL     OW 7168   3.466   3.387   5.777
 2090SOL    HW1 7169   3.402   3.464   5.778
 2090SOL    HW2 7170   3.550   3.414   5.823
 2091SOL     OW 7171   0.020   5.787   0.613
 2091SOL    HW1 7172   0.016   5.722   0.689
 2091SOL    HW2 7173   0.004   5.739   0.527
 2092SOL     OW 7174   5.505   4.281   6.942
 2092SOL    HW1 7175   5.528   4.213   6.872
 2092SOL    HW2 7176   5.470   4.364   6.898
 2093SOL     OW 7177   2.243   2.309   1.152
 2093SOL    HW1 7178   2.202   2.397   1.176
 2093SOL    HW2 7179   2.341   2.311   1.172
 2094SOL     OW 7180   5.665   1.739   1.129
 2094SOL    HW1 7181   5.711   1.760   1.043
 2094SOL    HW2 7182   5.625   1.823   1.166
 2095SOL     OW 7183   5.657   0.135   4.660
 2095SOL    HW1 7184   5.712   0.214   4.688
 2095SOL    HW2 7185   5.565   0.166   4.634
 2096SOL     OW 7186   4.826   4.067   3.113
 2096SOL    HW1 7187   4.779   4.008   3.047
 2096SOL    HW2 7188   4.851   4.153   3.068
 2097SOL     OW 7189   2.611   2.903   6.834
 2097SOL    HW1 7190   2.618   2.970   6.760
 2097SOL    HW2 7191   2.596   2.952   6.920
 2098SOL     OW 7192   4.427   6.123   2.728
 2098SOL    HW1 7193   4.501   6.180   2.764
 2098SOL    HW2 7194   4.446   6.027   2.748
 2099SOL     OW 7195   2.178   3.147   6.015
 2099SOL    HW1 7196   2.080   3.157   5.997
 2099SOL    HW2 7197   2.199   3.052   6.036
 2100SOL     OW 7198   4.637   2.775   6.226
 2100SOL    HW1 7199   4.537   2.784   6.226
 2100SOL    HW2 7200   4.670   2.777   6.131
 2101SOL     OW 7201   1.427   6.254   2.303
 2101SOL    HW1 7202   1.525   6.248   2.318
 2101SOL    HW2 7203   1.402   6.198   2.223
 2102SOL     OW 7204   6.640   4.907   1.941
 2102SOL    HW1 7205   6.612   4.982   2.001
 2102SOL    HW2 7206   6.575   4.831   1.950
 2103SOL     OW 7207   3.842   4.503   5.749
 2103SOL    HW1 7208   3.878   4.486   5.841
 2103SOL    HW2 7209   3.769   4.438   5.729
 2104SOL     OW 7210   2.029   3.771   1.089
 2104SOL    HW1 7211   2.099   3.747   1.157
 2104SOL    HW2 7212   1.991   3.861   1.111
 2105SOL     OW 7213   5.350   5.899   5.305
 2105SOL    HW1 7214   5.293   5.893   5.387
 2105SOL    HW2 7215   5.407   5.817   5.297
 2106SOL     OW 7216   4.695   4.182   1.191
 2106SOL    HW1 7217   4.727   4.091   1.218
 2106SOL    HW2 7218   4.631   4.174   1.115
 2107SOL     OW 7219   4.975   2.395   5.173
 2107SOL    HW1 7220   5.055   2.343   5.203
 2107SOL    HW2 7221   4.935   2.350   5.093
 2108SOL     OW 7222   6.628   6.102   5.171
 2108SOL    HW1 7223   6.595   6.163   5.243
 2108SOL    HW2 7224   6.561   6.029   5.156
 2109SOL     OW 7225   4.136   6.504   2.309
 2109SOL    HW1 7226   4.147   6.405   2.320
 2109SOL    HW2 7227   4.075   6.522   2.231
 2110SOL     OW 7228   2.650   1.671   0.036
 2110SOL    HW1 7229   2.567   1.676   0.092
 2110SOL    HW2 7230   2.687   1.578   0.040
 2111SOL     OW 7231   1.035   2.574   6.929
 2111SOL    HW1 7232   1.117   2.613   6.887
 2111SOL    HW2 7233   0.982   2.647   6.973
 2112SOL     OW 7234   5.005   3.595   0.135
 2112SOL    HW1 7235   5.024   3.519   0.196
 2112SOL    HW2 7236   5.018   3.566   0.040
 2113SOL     OW 7237   1.787   1.953   5.014
 2113SOL    HW1 7238   1.859   1.942   4.945
 2113SOL    HW2 7239   1.829   1.968   5.104
 2114SOL     OW 7240   1.421   2.395   0.233
 2114SOL    HW1 7241   1.442   2.301   0.206
 2114SOL    HW2 7242   1.504   2.451   0.225
 2115SOL     OW 7243   2.083   3.520   2.924
 2115SOL    HW1 7244   2.117   3.435   2.884
 2115SOL    HW2 7245   1.987   3.533   2.898
 2116SOL     OW 7246   6.968   4.929   3.228
 2116SOL    HW1 7247   0.030   4.949   3.284
 2116SOL    HW2 7248   6.973   4.982   3.143
 2117SOL     OW 7249   6.899   5.417   1.736
 2117SOL    HW1 7250   6.891   5.393   1.833
 2117SOL    HW2 7251   6.809   5.443   1.700
 2118SOL     OW 7252   5.876   3.589   1.827
 2118SOL    HW1 7253   5.911   3.510   1.776
 2118SOL    HW2 7254   5.936   3.667   1.814
 2119SOL     OW 7255   1.710   6.187   1.257
 2119SOL    HW1 7256   1.757   6.108   1.297
 2119SOL    HW2 7257   1.685   6.166   1.162
 2120SOL     OW 7258   6.791   5.096   4.179
 2120SOL    HW1 7259   6.694   5.100   4.155
 2120SOL    HW2 7260   6.821   5.185   4.214
 2121SOL     OW 7261   1.191   3.865   5.935
 2121SOL    HW1 7262   1.242   3.807   5.999
 2121SOL    HW2 7263   1.240   3.870   5.848
 2122SOL     OW 7264   5.578   4.207   6.131
 2122SOL    HW1 7265   5.526   4.156   6.201
 2122SOL    HW2 7266   5.672   4.220   6.163
 2123SOL     OW 7267   6.701   5.858   2.188
 2123SOL    HW1 7268   6.742   5.781   2.140
 2123SOL    HW2 7269   6.648   5.914   2.124
 2124SOL     OW 7270   2.565   2.018   1.877
 2124SOL    HW1 7271   2.628   2.096   1.878
 2124SOL    HW2 7272   2.618   1.933   1.881
 2125SOL     OW 7273   2.001   0.479   2.081
 2125SOL    HW1 7274   1.915   0.446   2.122
 2125SOL    HW2 7275   1.982   0.516   1.990
 2126SOL     OW 7276   3.537   1.705   6.389
 2126SOL    HW1 7277   3.554   1.616   6.346
 2126SOL    HW2 7278   3.619   1.734   6.439
 2127SOL     OW 7279   0.371   3.205   4.463
 2127SOL    HW1 7280   0.361   3.229   4.560
 2127SOL    HW2 7281   0.281   3.202   4.420
 2128SOL     OW 7282   6.833   3.318   3.463
 2128SOL    HW1 7283   6.878   3.269   3.538
 2128SOL    HW2 7284   6.771   3.387   3.501
 2129SOL     OW 7285   4.222   3.577   5.278
 2129SOL    HW1 7286   4.147   3.521   5.244
 2129SOL    HW2 7287   4.196   3.617   5.366
 2130SOL     OW 7288   3.287   0.716   1.966
 2130SOL    HW1 7289   3.315   0.641   2.026
 2130SOL    HW2 7290   3.366   0.773   1.944
 2131SOL     OW 7291   5.855   0.359   1.127
 2131SOL    HW1 7292   5.790   0.333   1.055
 2131SOL    HW2 7293   5.945   0.374   1.087
 2132SOL     OW 7294   3.231   0.871   1.597
 2132SOL    HW1 7295   3.180   0.826   1.671
 2132SOL    HW2 7296   3.283   0.947   1.635
 2133SOL     OW 7297   3.188   2.995   0.709
 2133SOL    HW1 7298   3.276   2.947   0.702
 2133SOL    HW2 7299   3.140   2.991   0.622
 2134SOL     OW 7300   6.792   1.891   6.934
 2134SOL    HW1 7301   6.813   1.899   6.836
 2134SOL    HW2 7302   6.718   1.955   6.956
 2135SOL     OW 7303   1.303   3.293   4.448
 2135SOL    HW1 7304   1.259   3.203   4.451
 2135SOL    HW2 7305   1.236   3.362   4.421
 2136SOL     OW 7306   1.612   3.378   3.299
 2136SOL    HW1 7307   1.704   3.350   3.271
 2136SOL    HW2 7308   1.555   3.297   3.312
 2137SOL     OW 7309   2.292   5.450   4.987
 2137SOL    HW1 7310   2.274   5.512   5.063
 2137SOL    HW2 7311   2.325   5.363   5.022
 2138SOL     OW 7312   6.544   0.053   2.868
 2138SOL    HW1 7313   6.617   0.009   2.817
 2138SOL    HW2 7314   6.562   0.151   2.875
 2139SOL     OW 7315   4.229   0.819   3.493
 2139SOL    HW1 7316   4.272   0.893   3.545
 2139SOL    HW2 7317   4.300   0.764   3.449
 2140SOL     OW 7318   3.584   6.702   3.682
 2140SOL    HW1 7319   3.663   6.646   3.655
 2140SOL    HW2 7320   3.503   6.674   3.631
 2141SOL     OW 7321   6.496   3.463   2.386
 2141SOL    HW1 7322   6.461   3.520   2.460
 2141SOL    HW2 7323   6.442   3.379   2.380
 2142SOL     OW 7324   1.650   1.391   2.752
 2142SOL    HW1 7325   1.578   1.419   2.688
 2142SOL    HW2 7326   1.643   1.293   2.770
 2143SOL     OW 7327   3.297   4.495   1.418
 2143SOL    HW1 7328   3.206   4.463   1.391
 2143SOL    HW2 7329   3.289   4.554   1.499
 2144SOL     OW 7330   1.057   5.605   3.760
 2144SOL    HW1 7331   0.967   5.561   3.754
 2144SOL    HW2 7332   1.049   5.701   3.736
 2145SOL     OW 7333   4.399   5.863   3.959
 2145SOL    HW1 7334   4.448   5.903   4.037
 2145SOL    HW2 7335   4.310   5.829   3.989
 2146SOL     OW 7336   2.340   3.796   1.623
 2146SOL    HW1 7337   2.269   3.842   1.675
 2146SOL    HW2 7338   2.421   3.854   1.618
 2147SOL     OW 7339   6.670   1.296   5.739
 2147SOL    HW1 7340   6.690   1.369   5.673
 2147SOL    HW2 7341   6.590   1.243   5.707
 2148SOL     OW 7342   6.316   3.252   5.700
 2148SOL    HW1 7343   6.250   3.234   5.774
 2148SOL    HW2 7344   6.343   3.166   5.658
 2149SOL     OW 7345   3.185   1.836   1.126
 2149SOL    HW1 7346   3.142   1.782   1.054
 2149SOL    HW2 7347   3.131   1.918   1.143
 2150SOL     OW 7348   2.405   2.561   2.065
 2150SOL    HW1 7349   2.450   2.473   2.078
 2150SOL    HW2 7350   2.418   2.592   1.971
 2151SOL     OW 7351   1.243   0.008   5.332
 2151SOL    HW1 7352   1.255   6.939   5.287
 2151SOL    HW2 7353   1.158   0.050   5.302
 2152SOL     OW 7354   2.770   5.736   2.080
 2152SOL    HW1 7355   2.681   5.780   2.067
 2152SOL    HW2 7356   2.784   5.717   2.177
 2153SOL     OW 7357   4.518   1.502   2.956
 2153SOL    HW1 7358   4.611   1.531   2.975
 2153SOL    HW2 7359   4.514   1.457   2.866
 2154SOL     OW 7360   5.328   1.168   4.861
 2154SOL    HW1 7361   5.267   1.222   4.920
 2154SOL    HW2 7362   5.376   1.230   4.799
 2155SOL     OW 7363   2.937   5.819   0.594
 2155SOL    HW1 7364   2.936   5.901   0.536
 2155SOL    HW2 7365   2.875   5.832   0.671
 2156SOL     OW 7366   1.326   2.220   4.872
 2156SOL    HW1 7367   1.347   2.157   4.797
 2156SOL    HW2 7368   1.246   2.188   4.921
 2157SOL     OW 7369   6.292   0.143   2.958
 2157SOL    HW1 7370   6.372   0.084   2.972
 2157SOL    HW2 7371   6.231   0.136   3.036
 2158SOL     OW 7372   3.480   5.952   0.928
 2158SOL    HW1 7373   3.486   6.011   0.848
 2158SOL    HW2 7374   3.513   6.002   1.009
 2159SOL     OW 7375   1.260   6.584   5.215
 2159SOL    HW1 7376   1.207   6.669   5.218
 2159SOL    HW2 7377   1.215   6.514   5.270
 2160SOL     OW 7378   4.289   3.999   7.017
 2160SOL    HW1 7379   4.207   3.951   6.986
 2160SOL    HW2 7380   4.269   4.096   0.008
 2161SOL     OW 7381   5.262   5.009   2.427
 2161SOL    HW1 7382   5.253   5.046   2.334
 2161SOL    HW2 7383   5.350   5.035   2.465
 2162SOL     OW 7384   2.474   0.491   2.164
 2162SOL    HW1 7385   2.399   0.556   2.150
 2162SOL    HW2 7386   2.560   0.534   2.134
 2163SOL     OW 7387   1.540   4.910   6.147
 2163SOL    HW1 7388   1.509   4.842   6.214
 2163SOL    HW2 7389   1.497   4.892   6.059
 2164SOL     OW 7390   1.817   2.559   6.294
 2164SOL    HW1 7391   1.912   2.536   6.276
 2164SOL    HW2 7392   1.759   2.481   6.272
 2165SOL     OW 7393   0.111   2.437   2.933
 2165SOL    HW1 7394   0.093   2.449   2.835
 2165SOL    HW2 7395   0.130   2.340   2.951
 2166SOL     OW 7396   1.005   2.317   5.141
 2166SOL    HW1 7397   1.031   2.223   5.118
 2166SOL    HW2 7398   1.075   2.359   5.197
 2167SOL     OW 7399   1.393   2.199   3.147
 2167SOL    HW1 7400   1.384   2.197   3.047
 2167SOL    HW2 7401   1.490   2.199   3.172
 2168SOL     OW 7402   0.567   2.428   3.759
 2168SOL    HW1 7403   0.601   2.497   3.824
 2168SOL    HW2 7404   0.618   2.344   3.771
 2169SOL     OW 7405   5.465   1.752   6.987
 2169SOL    HW1 7406   5.483   1.823   0.037
 2169SOL    HW2 7407   5.524   1.673   7.004
 2170SOL     OW 7408   0.147   4.145   5.712
 2170SOL    HW1 7409   0.165   4.143   5.811
 2170SOL    HW2 7410   0.053   4.117   5.694
 2171SOL     OW 7411   7.001   5.585   1.392
 2171SOL    HW1 7412   6.908   5.590   1.354
 2171SOL    HW2 7413   7.017   5.493   1.429
 2172SOL     OW 7414   1.946   2.237   6.506
 2172SOL    HW1 7415   1.926   2.154   6.454
 2172SOL    HW2 7416   2.034   2.274   6.477
 2173SOL     OW 7417   3.911   0.991   5.440
 2173SOL    HW1 7418   3.954   0.918   5.493
 2173SOL    HW2 7419   3.919   1.078   5.489
 2174SOL     OW 7420   5.638   5.850   5.090
 2174SOL    HW1 7421   5.717   5.805   5.048
 2174SOL    HW2 7422   5.666   5.893   5.176
 2175SOL     OW 7423   2.402   2.673   4.592
 2175SOL    HW1 7424   2.361   2.722   4.515
 2175SOL    HW2 7425   2.471   2.609   4.559
 2176SOL     OW 7426   6.290   2.060   0.484
 2176SOL    HW1 7427   6.304   1.963   0.504
 2176SOL    HW2 7428   6.194   2.084   0.497
 2177SOL     OW 7429   6.987   2.060   4.322
 2177SOL    HW1 7430   0.017   2.026   4.242
 2177SOL    HW2 7431   6.968   1.984   4.384
 2178SOL     OW 7432   2.067   2.254   1.488
 2178SOL    HW1 7433   2.045   2.161   1.517
 2178SOL    HW2 7434   2.163   2.273   1.510
 2179SOL     OW 7435   2.071   5.239   5.122
 2179SOL    HW1 7436   2.083   5.292   5.206
 2179SOL    HW2 7437   1.988   5.184   5.129
 2180SOL     OW 7438   1.644   2.179   1.796
 2180SOL    HW1 7439   1.557   2.204   1.840
 2180SOL    HW2 7440   1.663   2.244   1.722
 2181SOL     OW 7441   5.140   4.895   4.642
 2181SOL    HW1 7442   5.135   4.855   4.551
 2181SOL    HW2 7443   5.089   4.837   4.706
 2182SOL     OW 7444   1.635   3.835   4.287
 2182SOL    HW1 7445   1.641   3.811   4.190
 2182SOL    HW2 7446   1.678   3.763   4.342
 2183SOL     OW 7447   2.629   4.232   5.839
 2183SOL    HW1 7448   2.713   4.181   5.857
 2183SOL    HW2 7449   2.626   4.258   5.743
 2184SOL     OW 7450   3.695   1.285   6.161
 2184SOL    HW1 7451   3.635   1.225   6.108
 2184SOL    HW2 7452   3.660   1.378   6.157
 2185SOL     OW 7453   0.330   0.804   1.196
 2185SOL    HW1 7454   0.423   0.772   1.179
 2185SOL    HW2 7455   0.272   0.779   1.119
 2186SOL     OW 7456   0.485   6.171   1.817
 2186SOL    HW1 7457   0.455   6.186   1.911
 2186SOL    HW2 7458   0.445   6.241   1.758
 2187SOL     OW 7459   6.253   6.159   3.097
 2187SOL    HW1 7460   6.272   6.236   3.036
 2187SOL    HW2 7461   6.310   6.081   3.071
 2188SOL     OW 7462   0.079   5.995   4.344
 2188SOL    HW1 7463   0.036   5.973   4.257
 2188SOL    HW2 7464   0.077   5.914   4.403
 2189SOL     OW 7465   1.929   6.280   0.564
 2189SOL    HW1 7466   1.953   6.251   0.472
 2189SOL    HW2 7467   2.011   6.312   0.612
 2190SOL     OW 7468   0.250   3.631   2.024
 2190SOL    HW1 7469   0.276   3.574   1.946
 2190SOL    HW2 7470   0.245   3.574   2.106
 2191SOL     OW 7471   2.829   2.000   6.712
 2191SOL    HW1 7472   2.771   1.943   6.770
 2191SOL    HW2 7473   2.883   1.942   6.651
 2192SOL     OW 7474   4.849   1.127   2.179
 2192SOL    HW1 7475   4.875   1.136   2.275
 2192SOL    HW2 7476   4.874   1.036   2.146
 2193SOL     OW 7477   5.269   5.939   0.035
 2193SOL    HW1 7478   5.225   6.029   0.043
 2193SOL    HW2 7479   5.200   5.871   0.012
 2194SOL     OW 7480   2.548   4.360   5.597
 2194SOL    HW1 7481   2.530   4.370   5.499
 2194SOL    HW2 7482   2.595   4.442   5.630
 2195SOL     OW 7483   0.359   0.240   4.605
 2195SOL    HW1 7484   0.364   0.335   4.574
 2195SOL    HW2 7485   0.264   0.209   4.605
 2196SOL     OW 7486   3.360   7.001   5.003
 2196SOL    HW1 7487   3.269   7.017   4.965
 2196SOL    HW2 7488   3.388   0.062   5.056
 2197SOL     OW 7489   3.093   3.673   0.211
 2197SOL    HW1 7490   2.996   3.680   0.188
 2197SOL    HW2 7491   3.105   3.607   0.286
 2198SOL     OW 7492   5.449   0.505   0.483
 2198SOL    HW1 7493   5.523   0.551   0.434
 2198SOL    HW2 7494   5.403   0.441   0.421
 2199SOL     OW 7495   4.573   0.765   3.090
 2199SOL    HW1 7496   4.614   0.835   3.149
 2199SOL    HW2 7497   4.563   0.802   2.997
 2200SOL     OW 7498   2.997   1.916   4.808
 2200SOL    HW1 7499   3.003   1.816   4.799
 2200SOL    HW2 7500   2.986   1.957   4.718
 2201SOL     OW 7501   6.990   2.936   2.688
 2201SOL    HW1 7502   0.064   2.949   2.654
 2201SOL    HW2 7503   6.964   2.840   2.680
 2202SOL     OW 7504   2.816   5.572   2.423
 2202SOL    HW1 7505   2.840   5.667   2.404
 2202SOL    HW2 7506   2.874   5.511   2.369
 2203SOL     OW 7507   1.673   2.789   0.888
 2203SOL    HW1 7508   1.706   2.850   0.816
 2203SOL    HW2 7509   1.728   2.801   0.970
 2204SOL     OW 7510   4.357   1.483   1.472
 2204SOL    HW1 7511   4.442   1.459   1.425
 2204SOL    HW2 7512   4.301   1.540   1.411
 2205SOL     OW 7513   0.849   0.017   6.074
 2205SOL    HW1 7514   0.879   7.015   5.981
 2205SOL    HW2 7515   0.783   0.091   6.072
 2206SOL     OW 7516   2.961   5.087   6.200
 2206SOL    HW1 7517   3.024   5.058   6.128
 2206SOL    HW2 7518   2.893   5.016   6.215
 2207SOL     OW 7519   3.033   4.788   6.369
 2207SOL    HW1 7520   3.132   4.793   6.355
 2207SOL    HW2 7521   3.014   4.783   6.467
 2208SOL     OW 7522   1.790   5.858   2.976
 2208SOL    HW1 7523   1.872   5.851   2.920
 2208SOL    HW2 7524   1.813   5.834   3.071
 2209SOL     OW 7525   1.749   6.473   5.336
 2209SOL    HW1 7526   1.689   6.492   5.414
 2209SOL    HW2 7527   1.806   6.553   5.318
 2210SOL     OW 7528   0.007   4.826   4.848
 2210SOL    HW1 7529   0.093   4.866   4.877
 2210SOL    HW2 7530   7.007   4.853   4.753
 2211SOL     OW 7531   6.136   0.329   1.097
 2211SOL    HW1 7532   6.129   0.236   1.133
 2211SOL    HW2 7533   6.227   0.342   1.057
 2212SOL     OW 7534   2.347   5.991   6.856
 2212SOL    HW1 7535   2.247   5.999   6.853
 2212SOL    HW2 7536   2.381   5.968   6.765
 2213SOL     OW 7537   3.399   1.947   5.464
 2213SOL    HW1 7538   3.449   1.998   5.534
 2213SOL    HW2 7539   3.303   1.977   5.463
 2214SOL     OW 7540   3.600   3.453   5.411
 2214SOL    HW1 7541   3.667   3.407   5.353
 2214SOL    HW2 7542   3.508   3.423   5.387
 2215SOL     OW 7543   5.971   0.836   0.349
 2215SOL    HW1 7544   5.885   0.876   0.318
 2215SOL    HW2 7545   6.047   0.876   0.297
 2216SOL     OW 7546   1.647   1.064   6.266
 2216SOL    HW1 7547   1.621   1.128   6.193
 2216SOL    HW2 7548   1.713   1.109   6.327
 2217SOL     OW 7549   4.099   6.931   1.900
 2217SOL    HW1 7550   4.099   6.831   1.907
 2217SOL    HW2 7551   4.172   6.960   1.838
 2218SOL     OW 7552   6.410   5.530   7.017
 2218SOL    HW1 7553   6.429   5.604   0.062
 2218SOL    HW2 7554   6.444   5.554   6.926
 2219SOL     OW 7555   5.311   1.816   1.399
 2219SOL    HW1 7556   5.255   1.899   1.400
 2219SOL    HW2 7557   5.252   1.736   1.393
 2220SOL     OW 7558   1.679   0.186   4.932
 2220SOL    HW1 7559   1.619   0.135   4.870
 2220SOL    HW2 7560   1.713   0.124   5.003
 2221SOL     OW 7561   6.260   1.196   5.842
 2221SOL    HW1 7562   6.320   1.273   5.819
 2221SOL    HW2 7563   6.230   1.151   5.758
 2222SOL     OW 7564   4.849   0.913   0.036
 2222SOL    HW1 7565   4.935   0.892   0.084
 2222SOL    HW2 7566   4.772   0.886   0.094
 2223SOL     OW 7567   5.773   0.816   5.011
 2223SOL    HW1 7568   5.723   0.893   4.971
 2223SOL    HW2 7569   5.858   0.849   5.051
 2224SOL     OW 7570   0.022   3.540   0.894
 2224SOL    HW1 7571   0.051   3.593   0.974
 2224SOL    HW2 7572   0.059   3.447   0.900
 2225SOL     OW 7573   6.832   6.397   3.578
 2225SOL    HW1 7574   6.749   6.434   3.536
 2225SOL    HW2 7575   6.833   6.298   3.568
 2226SOL     OW 7576   3.522   4.944   1.122
 2226SOL    HW1 7577   3.513   4.992   1.209
 2226SOL    HW2 7578   3.433   4.938   1.078
 2227SOL     OW 7579   4.865   3.654   6.680
 2227SOL    HW1 7580   4.884   3.556   6.668
 2227SOL    HW2 7581   4.818   3.690   6.600
 2228SOL     OW 7582   3.605   4.606   1.309
 2228SOL    HW1 7583   3.588   4.628   1.213
 2228SOL    HW2 7584   3.656   4.681   1.351
 2229SOL     OW 7585   4.686   2.914   5.238
 2229SOL    HW1 7586   4.755   2.980   5.267
 2229SOL    HW2 7587   4.697   2.894   5.141
 2230SOL     OW 7588   5.249   6.698   6.988
 2230SOL    HW1 7589   5.189   6.619   6.991
 2230SOL    HW2 7590   5.337   6.672   6.948
 2231SOL     OW 7591   0.474   0.732   1.519
 2231SOL    HW1 7592   0.431   0.822   1.512
 2231SOL    HW2 7593   0.491   0.696   1.427
 2232SOL     OW 7594   1.008   2.644   5.299
 2232SOL    HW1 7595   0.983   2.679   5.208
 2232SOL    HW2 7596   0.938   2.579   5.330
 2233SOL     OW 7597   2.197   3.844   0.102
 2233SOL    HW1 7598   2.100   3.820   0.098
 2233SOL    HW2 7599   2.216   3.896   0.185
 2234SOL     OW 7600   4.288   1.890   1.651
 2234SOL    HW1 7601   4.258   1.955   1.721
 2234SOL    HW2 7602   4.287   1.797   1.690
 2235SOL     OW 7603   2.727   0.041   1.509
 2235SOL    HW1 7604   2.790   0.115   1.484
 2235SOL    HW2 7605   2.691   0.058   1.601
 2236SOL     OW 7606   1.543   4.310   6.372
 2236SOL    HW1 7607   1.635   4.312   6.412
 2236SOL    HW2 7608   1.487   4.246   6.424
 2237SOL     OW 7609   5.652   4.609   4.044
 2237SOL    HW1 7610   5.678   4.694   3.998
 2237SOL    HW2 7611   5.697   4.604   4.133
 2238SOL     OW 7612   4.729   4.769   1.722
 2238SOL    HW1 7613   4.780   4.684   1.715
 2238SOL    HW2 7614   4.642   4.759   1.674
 2239SOL     OW 7615   3.775   5.379   4.124
 2239SOL    HW1 7616   3.751   5.308   4.058
 2239SOL    HW2 7617   3.870   5.405   4.111
 2240SOL     OW 7618   4.549   5.685   3.712
 2240SOL    HW1 7619   4.524   5.782   3.708
 2240SOL    HW2 7620   4.467   5.630   3.723
 2241SOL     OW 7621   0.333   5.417   3.220
 2241SOL    HW1 7622   0.259   5.351   3.208
 2241SOL    HW2 7623   0.333   5.450   3.314
 2242SOL     OW 7624   5.440   2.772   2.953
 2242SOL    HW1 7625   5.358   2.826   2.930
 2242SOL    HW2 7626   5.513   2.793   2.889
 2243SOL     OW 7627   1.981   6.885   6.314
 2243SOL    HW1 7628   1.945   6.832   6.237
 2243SOL    HW2 7629   1.914   6.954   6.341
 2244SOL     OW 7630   1.811   6.484   1.997
 2244SOL    HW1 7631   1.786   6.394   2.031
 2244SOL    HW2 7632   1.766   6.502   1.910
 2245SOL     OW 7633   0.390   2.533   1.029
 2245SOL    HW1 7634   0.334   2.601   1.076
 2245SOL    HW2 7635   0.454   2.491   1.094
 2246SOL     OW 7636   1.112   1.751   4.874
 2246SOL    HW1 7637   1.186   1.745   4.808
 2246SOL    HW2 7638   1.058   1.667   4.871
 2247SOL     OW 7639   3.306   2.938   3.918
 2247SOL    HW1 7640   3.288   2.925   4.015
 2247SOL    HW2 7641   3.402   2.915   3.898
 2248SOL     OW 7642   5.805   3.708   5.687
 2248SOL    HW1 7643   5.713   3.746   5.681
 2248SOL    HW2 7644   5.834   3.676   5.597
 2249SOL     OW 7645   5.777   6.346   2.904
 2249SOL    HW1 7646   5.747   6.440   2.890
 2249SOL    HW2 7647   5.854   6.326   2.844
 2250SOL     OW 7648   4.212   3.932   6.246
 2250SOL    HW1 7649   4.183   3.879   6.325
 2250SOL    HW2 7650   4.159   3.905   6.166
 2251SOL     OW 7651   5.404   0.351   6.817
 2251SOL    HW1 7652   5.351   0.348   6.732
 2251SOL    HW2 7653   5.341   0.349   6.895
 2252SOL     OW 7654   4.912   2.719   2.265
 2252SOL    HW1 7655   4.978   2.669   2.322
 2252SOL    HW2 7656   4.934   2.817   2.267
 2253SOL     OW 7657   0.795   3.553   6.595
 2253SOL    HW1 7658   0.739   3.526   6.674
 2253SOL    HW2 7659   0.791   3.652   6.583
 2254SOL     OW 7660   3.619   2.664   5.704
 2254SOL    HW1 7661   3.555   2.587   5.693
 2254SOL    HW2 7662   3.640   2.702   5.614
 2255SOL     OW 7663   4.840   2.932   6.322
 2255SOL    HW1 7664   4.768   2.878   6.279
 2255SOL    HW2 7665   4.929   2.899   6.291
 2256SOL     OW 7666   5.189   5.906   2.051
 2256SOL    HW1 7667   5.110   5.950   2.093
 2256SOL    HW2 7668   5.170   5.887   1.955
 2257SOL     OW 7669   0.258   1.925   4.720
 2257SOL    HW1 7670   0.205   2.004   4.750
 2257SOL    HW2 7671   0.199   1.860   4.671
 2258SOL     OW 7672   1.157   5.583   5.320
 2258SOL    HW1 7673   1.166   5.633   5.234
 2258SOL    HW2 7674   1.248   5.558   5.353
 2259SOL     OW 7675   5.554   3.958   6.311
 2259SOL    HW1 7676   5.465   3.978   6.353
 2259SOL    HW2 7677   5.541   3.894   6.236
 2260SOL     OW 7678   6.195   4.145   1.813
 2260SOL    HW1 7679   6.176   4.131   1.716
 2260SOL    HW2 7680   6.261   4.077   1.845
 2261SOL     OW 7681   6.420   5.626   0.358
 2261SOL    HW1 7682   6.424   5.650   0.261
 2261SOL    HW2 7683   6.453   5.703   0.413
 2262SOL     OW 7684   5.965   1.341   3.203
 2262SOL    HW1 7685   5.997   1.296   3.120
 2262SOL    HW2 7686   5.919   1.275   3.262
 2263SOL     OW 7687   3.090   5.434   0.197
 2263SOL    HW1 7688   3.091   5.430   0.297
 2263SOL    HW2 7689   3.049   5.351   0.160
 2264SOL     OW 7690   2.550   4.392   0.331
 2264SOL    HW1 7691   2.636   4.385   0.280
 2264SOL    HW2 7692   2.569   4.421   0.425
 2265SOL     OW 7693   0.505   0.819   4.237
 2265SOL    HW1 7694   0.411   0.835   4.207
 2265SOL    HW2 7695   0.544   0.905   4.270
 2266SOL     OW 7696   5.087   1.902   0.053
 2266SOL    HW1 7697   5.114   1.853   6.989
 2266SOL    HW2 7698   4.990   1.883   0.073
 2267SOL     OW 7699   4.891   2.434   4.757
 2267SOL    HW1 7700   4.902   2.334   4.758
 2267SOL    HW2 7701   4.793   2.456   4.750
 2268SOL     OW 7702   6.450   3.580   6.979
 2268SOL    HW1 7703   6.434   3.595   6.881
 2268SOL    HW2 7704   6.423   3.487   7.004
 2269SOL     OW 7705   5.855   5.280   5.116
 2269SOL    HW1 7706   5.914   5.295   5.036
 2269SOL    HW2 7707   5.812   5.366   5.143
 2270SOL     OW 7708   3.261   2.749   6.187
 2270SOL    HW1 7709   3.353   2.778   6.164
 2270SOL    HW2 7710   3.244   2.764   6.284
 2271SOL     OW 7711   5.577   3.822   0.787
 2271SOL    HW1 7712   5.536   3.848   0.699
 2271SOL    HW2 7713   5.625   3.735   0.777
 2272SOL     OW 7714   5.885   2.799   6.342
 2272SOL    HW1 7715   5.922   2.862   6.410
 2272SOL    HW2 7716   5.953   2.730   6.318
 2273SOL     OW 7717   1.526   0.667   1.866
 2273SOL    HW1 7718   1.442   0.646   1.914
 2273SOL    HW2 7719   1.588   0.718   1.926
 2274SOL     OW 7720   6.941   2.585   6.414
 2274SOL    HW1 7721   6.985   2.507   6.458
 2274SOL    HW2 7722   6.892   2.639   6.482
 2275SOL     OW 7723   6.323   0.373   4.122
 2275SOL    HW1 7724   6.245   0.390   4.184
 2275SOL    HW2 7725   6.407   0.404   4.166
 2276SOL     OW 7726   2.512   4.823   0.915
 2276SOL    HW1 7727   2.579   4.884   0.958
 2276SOL    HW2 7728   2.434   4.876   0.883
 2277SOL     OW 7729   3.821   4.113   4.605
 2277SOL    HW1 7730   3.863   4.192   4.648
 2277SOL    HW2 7731   3.724   4.109   4.630
 2278SOL     OW 7732   6.365   4.912   4.403
 2278SOL    HW1 7733   6.347   4.929   4.306
 2278SOL    HW2 7734   6.295   4.959   4.458
 2279SOL     OW 7735   5.235   6.685   4.747
 2279SOL    HW1 7736   5.252   6.721   4.655
 2279SOL    HW2 7737   5.310   6.623   4.772
 2280SOL     OW 7738   6.649   6.762   4.778
 2280SOL    HW1 7739   6.712   6.824   4.731
 2280SOL    HW2 7740   6.699   6.685   4.816
 2281SOL     OW 7741   3.256   1.313   2.346
 2281SOL    HW1 7742   3.355   1.301   2.346
 2281SOL    HW2 7743   3.224   1.323   2.252
 2282SOL     OW 7744   5.120   0.290   4.622
 2282SOL    HW1 7745   5.164   0.214   4.670
 2282SOL    HW2 7746   5.024   0.297   4.652
 2283SOL     OW 7747   0.345   4.781   1.645
 2283SOL    HW1 7748   0.308   4.871   1.619
 2283SOL    HW2 7749   0.399   4.791   1.728
 2284SOL     OW 7750   0.891   2.487   6.675
 2284SOL    HW1 7751   0.962   2.484   6.745
 2284SOL    HW2 7752   0.804   2.459   6.714
 2285SOL     OW 7753   2.374   2.151   0.761
 2285SOL    HW1 7754   2.309   2.133   0.687
 2285SOL    HW2 7755   2.421   2.066   0.786
 2286SOL     OW 7756   0.228   0.112   4.189
 2286SOL    HW1 7757   0.163   0.158   4.250
 2286SOL    HW2 7758   0.319   0.115   4.230
 2287SOL     OW 7759   1.171   0.830   3.223
 2287SOL    HW1 7760   1.254   0.812   3.275
 2287SOL    HW2 7761   1.153   0.755   3.160
 2288SOL     OW 7762   5.825   5.428   4.670
 2288SOL    HW1 7763   5.737   5.467   4.641
 2288SOL    HW2 7764   5.895   5.450   4.602
 2289SOL     OW 7765   0.846   4.915   1.679
 2289SOL    HW1 7766   0.801   4.977   1.743
 2289SOL    HW2 7767   0.849   4.958   1.588
 2290SOL     OW 7768   1.272   4.546   1.019
 2290SOL    HW1 7769   1.364   4.560   1.057
 2290SOL    HW2 7770   1.230   4.467   1.063
 2291SOL     OW 7771   2.814   2.599   6.314
 2291SOL    HW1 7772   2.840   2.550   6.230
 2291SOL    HW2 7773   2.842   2.545   6.394
 2292SOL     OW 7774   6.281   1.878   5.230
 2292SOL    HW1 7775   6.218   1.811   5.270
 2292SOL    HW2 7776   6.352   1.829   5.177
 2293SOL     OW 7777   5.272   6.842   1.305
 2293SOL    HW1 7778   5.358   6.814   1.262
 2293SOL    HW2 7779   5.291   6.884   1.394
 2294SOL     OW 7780   3.079   1.203   6.468
 2294SOL    HW1 7781   3.069   1.235   6.373
 2294SOL    HW2 7782   3.028   1.118   6.480
 2295SOL     OW 7783   0.503   2.474   2.908
 2295SOL    HW1 7784   0.535   2.405   2.972
 2295SOL    HW2 7785   0.444   2.431   2.839
 2296SOL     OW 7786   3.822   5.472   1.411
 2296SOL    HW1 7787   3.781   5.438   1.496
 2296SOL    HW2 7788   3.755   5.528   1.362
 2297SOL     OW 7789   4.564   4.783   5.708
 2297SOL    HW1 7790   4.533   4.851   5.641
 2297SOL    HW2 7791   4.642   4.820   5.759
 2298SOL     OW 7792   4.136   3.159   1.643
 2298SOL    HW1 7793   4.093   3.139   1.732
 2298SOL    HW2 7794   4.144   3.258   1.632
 2299SOL     OW 7795   4.311   5.347   5.331
 2299SOL    HW1 7796   4.299   5.261   5.382
 2299SOL    HW2 7797   4.390   5.338   5.271
 2300SOL     OW 7798   2.475   5.885   1.690
 2300SOL    HW1 7799   2.472   5.787   1.709
 2300SOL    HW2 7800   2.389   5.927   1.717
 2301SOL     OW 7801   3.393   2.896   2.699
 2301SOL    HW1 7802   3.297   2.920   2.712
 2301SOL    HW2 7803   3.438   2.888   2.788
 2302SOL     OW 7804   3.763   0.432   0.858
 2302SOL    HW1 7805   3.770   0.532   0.854
 2302SOL    HW2 7806   3.672   0.404   0.828
 2303SOL     OW 7807   2.723   3.269   6.280
 2303SOL    HW1 7808   2.771   3.187   6.310
 2303SOL    HW2 7809   2.629   3.266   6.311
 2304SOL     OW 7810   4.470   6.471   3.317
 2304SOL    HW1 7811   4.493   6.495   3.411
 2304SOL    HW2 7812   4.444   6.554   3.267
 2305SOL     OW 7813   2.477   6.492   2.531
 2305SOL    HW1 7814   2.399   6.433   2.549
 2305SOL    HW2 7815   2.448   6.573   2.481
 2306SOL     OW 7816   2.820   5.007   2.273
 2306SOL    HW1 7817   2.799   4.911   2.253
 2306SOL    HW2 7818   2.891   5.038   2.211
 2307SOL     OW 7819   6.746   4.025   2.895
 2307SOL    HW1 7820   6.760   4.123   2.911
 2307SOL    HW2 7821   6.660   3.997   2.936
 2308SOL     OW 7822   1.006   5.123   1.313
 2308SOL    HW1 7823   0.933   5.087   1.371
 2308SOL    HW2 7824   0.970   5.141   1.222
 2309SOL     OW 7825   1.811   0.844   6.794
 2309SOL    HW1 7826   1.836   0.883   6.705
 2309SOL    HW2 7827   1.883   0.782   6.825
 2310SOL     OW 7828   5.074   6.439   0.440
 2310SOL    HW1 7829   5.029   6.498   0.371
 2310SOL    HW2 7830   5.009   6.419   0.513
 2311SOL     OW 7831   2.066   6.595   1.396
 2311SOL    HW1 7832   2.008   6.673   1.374
 2311SOL    HW2 7833   2.056   6.571   1.492
 2312SOL     OW 7834   4.107   6.449   3.040
 2312SOL    HW1 7835   4.169   6.521   3.009
 2312SOL    HW2 7836   4.113   6.371   2.977
 2313SOL     OW 7837   5.996   5.979   1.326
 2313SOL    HW1 7838   6.003   6.065   1.276
 2313SOL    HW2 7839   6.087   5.939   1.336
 2314SOL     OW 7840   6.025   6.750   4.149
 2314SOL    HW1 7841   5.935   6.707   4.147
 2314SOL    HW2 7842   6.088   6.700   4.090
 2315SOL     OW 7843   5.002   3.401   6.294
 2315SOL    HW1 7844   5.016   3.441   6.203
 2315SOL    HW2 7845   4.917   3.436   6.333
 2316SOL     OW 7846   3.624   0.868   4.075
 2316SOL    HW1 7847   3.637   0.908   4.166
 2316SOL    HW2 7848   3.664   0.777   4.073
 2317SOL     OW 7849   0.143   5.542   3.439
 2317SOL    HW1 7850   0.217   5.593   3.483
 2317SOL    HW2 7851   0.069   5.529   3.505
 2318SOL     OW 7852   1.996   2.957   4.504
 2318SOL    HW1 7853   1.925   2.920   4.563
 2318SOL    HW2 7854   2.047   3.027   4.553
 2319SOL     OW 7855   1.722   4.813   4.013
 2319SOL    HW1 7856   1.762   4.863   3.936
 2319SOL    HW2 7857   1.691   4.879   4.082
 2320SOL     OW 7858   0.758   2.327   4.826
 2320SOL    HW1 7859   0.691   2.382   4.775
 2320SOL    HW2 7860   0.850   2.350   4.795
 2321SOL     OW 7861   2.336   0.379   0.259
 2321SOL    HW1 7862   2.308   0.463   0.214
 2321SOL    HW2 7863   2.267   0.354   0.327
 2322SOL     OW 7864   2.364   1.883   3.780
 2322SOL    HW1 7865   2.326   1.803   3.733
 2322SOL    HW2 7866   2.449   1.858   3.825
 2323SOL     OW 7867   2.598   5.079   2.152
 2323SOL    HW1 7868   2.679   5.050   2.202
 2323SOL    HW2 7869   2.618   5.081   2.054
 2324SOL     OW 7870   6.468   6.745   0.967
 2324SOL    HW1 7871   6.390   6.765   0.908
 2324SOL    HW2 7872   6.540   6.701   0.912
 2325SOL     OW 7873   1.195   4.928   1.297
 2325SOL    HW1 7874   1.274   4.967   1.344
 2325SOL    HW2 7875   1.122   4.997   1.294
 2326SOL     OW 7876   3.403   5.438   6.101
 2326SOL    HW1 7877   3.376   5.489   6.019
 2326SOL    HW2 7878   3.502   5.438   6.110
 2327SOL     OW 7879   6.659   2.321   4.092
 2327SOL    HW1 7880   6.690   2.392   4.029
 2327SOL    HW2 7881   6.734   2.296   4.154
 2328SOL     OW 7882   2.952   2.204   2.564
 2328SOL    HW1 7883   2.951   2.298   2.530
 2328SOL    HW2 7884   2.872   2.155   2.529
 2329SOL     OW 7885   1.571   3.844   5.266
 2329SOL    HW1 7886   1.648   3.827   5.205
 2329SOL    HW2 7887   1.601   3.840   5.361
 2330SOL     OW 7888   0.435   4.292   1.573
 2330SOL    HW1 7889   0.532   4.311   1.560
 2330SOL    HW2 7890   0.384   4.378   1.578
 2331SOL     OW 7891   5.055   5.144   0.847
 2331SOL    HW1 7892   5.041   5.048   0.873
 2331SOL    HW2 7893   5.092   5.195   0.925
 2332SOL     OW 7894   4.584   2.000   5.010
 2332SOL    HW1 7895   4.589   2.040   5.101
 2332SOL    HW2 7896   4.493   1.961   4.995
 2333SOL     OW 7897   0.804   5.164   2.635
 2333SOL    HW1 7898   0.735   5.138   2.703
 2333SOL    HW2 7899   0.892   5.124   2.660
 2334SOL     OW 7900   2.433   0.304   6.890
 2334SOL    HW1 7901   2.344   0.286   6.932
 2334SOL    HW2 7902   2.483   0.370   6.946
 2335SOL     OW 7903   5.948   1.029   2.979
 2335SOL    HW1 7904   5.961   1.128   2.976
 2335SOL    HW2 7905   5.886   1.001   2.906
 2336SOL     OW 7906   4.483   2.427   4.949
 2336SOL    HW1 7907   4.394   2.418   4.994
 2336SOL    HW2 7908   4.541   2.490   5.001
 2337SOL     OW 7909   4.668   1.075   2.800
 2337SOL    HW1 7910   4.696   1.100   2.893
 2337SOL    HW2 7911   4.652   1.158   2.747
 2338SOL     OW 7912   1.385   2.047   6.140
 2338SOL    HW1 7913   1.466   2.021   6.086
 2338SOL    HW2 7914   1.324   1.969   6.148
 2339SOL     OW 7915   4.009   3.861   4.874
 2339SOL    HW1 7916   3.917   3.834   4.904
 2339SOL    HW2 7917   4.077   3.823   4.937
 2340SOL     OW 7918   5.622   4.575   0.422
 2340SOL    HW1 7919   5.535   4.625   0.416
 2340SOL    HW2 7920   5.678   4.598   0.343
 2341SOL     OW 7921   4.937   4.604   1.224
 2341SOL    HW1 7922   4.846   4.586   1.187
 2341SOL    HW2 7923   4.998   4.635   1.150
 2342SOL     OW 7924   0.624   0.002   4.943
 2342SOL    HW1 7925   0.659   6.937   4.899
 2342SOL    HW2 7926   0.687   0.031   5.014
 2343SOL     OW 7927   2.535   5.929   2.880
 2343SOL    HW1 7928   2.456   5.882   2.840
 2343SOL    HW2 7929   2.517   5.948   2.976
 2344SOL     OW 7930   1.455   0.701   0.931
 2344SOL    HW1 7931   1.480   0.796   0.952
 2344SOL    HW2 7932   1.491   0.640   1.001
 2345SOL     OW 7933   3.228   5.646   5.356
 2345SOL    HW1 7934   3.157   5.578   5.338
 2345SOL    HW2 7935   3.318   5.602   5.354
 2346SOL     OW 7936   5.046   2.624   4.624
 2346SOL    HW1 7937   5.025   2.537   4.671
 2346SOL    HW2 7938   5.126   2.612   4.566
 2347SOL     OW 7939   2.483   3.241   1.617
 2347SOL    HW1 7940   2.443   3.242   1.526
 2347SOL    HW2 7941   2.442   3.313   1.673
 2348SOL     OW 7942   3.560   6.532   3.234
 2348SOL    HW1 7943   3.632   6.600   3.240
 2348SOL    HW2 7944   3.476   6.568   3.275
 2349SOL     OW 7945   0.934   4.773   6.335
 2349SOL    HW1 7946   0.990   4.748   6.256
 2349SOL    HW2 7947   0.889   4.692   6.372
 2350SOL     OW 7948   4.749   6.914   6.505
 2350SOL    HW1 7949   4.712   6.991   6.557
 2350SOL    HW2 7950   4.728   6.926   6.408
 2351SOL     OW 7951   3.734   5.208   2.771
 2351SOL    HW1 7952   3.741   5.209   2.871
 2351SOL    HW2 7953   3.664   5.273   2.743
 2352SOL     OW 7954   1.335   4.341   2.157
 2352SOL    HW1 7955   1.355   4.309   2.249
 2352SOL    HW2 7956   1.273   4.276   2.112
 2353SOL     OW 7957   3.147   4.571   5.313
 2353SOL    HW1 7958   3.112   4.578   5.406
 2353SOL    HW2 7959   3.070   4.556   5.250
 2354SOL     OW 7960   2.529   1.817   6.287
 2354SOL    HW1 7961   2.530   1.824   6.386
 2354SOL    HW2 7962   2.517   1.908   6.247
 2355SOL     OW 7963   1.292   5.583   6.929
 2355SOL    HW1 7964   1.234   5.631   6.863
 2355SOL    HW2 7965   1.359   5.648   6.968
 2356SOL     OW 7966   2.204   4.008   0.571
 2356SOL    HW1 7967   2.225   3.994   0.667
 2356SOL    HW2 7968   2.133   3.944   0.543
 2357SOL     OW 7969   4.720   5.203   4.114
 2357SOL    HW1 7970   4.701   5.133   4.183
 2357SOL    HW2 7971   4.652   5.197   4.041
 2358SOL     OW 7972   2.748   5.135   5.420
 2358SOL    HW1 7973   2.811   5.069   5.380
 2358SOL    HW2 7974   2.660   5.091   5.438
 2359SOL     OW 7975   7.005   0.937   5.925
 2359SOL    HW1 7976   7.005   0.920   6.024
 2359SOL    HW2 7977   6.956   1.022   5.906
 2360SOL     OW 7978   5.095   6.043   6.202
 2360SOL    HW1 7979   5.044   6.052   6.117
 2360SOL    HW2 7980   5.033   6.018   6.276
 2361SOL     OW 7981   2.579   1.313   5.439
 2361SOL    HW1 7982   2.519   1.234   5.428
 2361SOL    HW2 7983   2.525   1.397   5.436
 2362SOL     OW 7984   3.016   1.093   5.008
 2362SOL    HW1 7985   3.075   1.166   5.041
 2362SOL    HW2 7986   2.922   1.127   4.999
 2363SOL     OW 7987   4.400   2.747   5.595
 2363SOL    HW1 7988   4.350   2.716   5.514
 2363SOL    HW2 7989   4.422   2.845   5.585
 2364SOL     OW 7990   0.826   2.197   2.930
 2364SOL    HW1 7991   0.809   2.100   2.946
 2364SOL    HW2 7992   0.806   2.219   2.834
 2365SOL     OW 7993   6.094   2.375   6.816
 2365SOL    HW1 7994   6.019   2.433   6.786
 2365SOL    HW2 7995   6.173   2.389   6.756
 2366SOL     OW 7996   1.485   4.565   5.966
 2366SOL    HW1 7997   1.503   4.505   5.888
 2366SOL    HW2 7998   1.554   4.550   6.036
 2367SOL     OW 7999   3.750   3.667   6.738
 2367SOL    HW1 8000   3.820   3.601   6.765
 2367SOL    HW2 8001   3.660   3.622   6.738
 2368SOL     OW 8002   4.976   6.839   3.156
 2368SOL    HW1 8003   4.986   6.855   3.058
 2368SOL    HW2 8004   5.046   6.891   3.206
 2369SOL     OW 8005   2.046   2.888   5.352
 2369SOL    HW1 8006   1.960   2.927   5.319
 2369SOL    HW2 8007   2.034   2.856   5.447
 2370SOL     OW 8008   4.886   4.362   6.521
 2370SOL    HW1 8009   4.908   4.335   6.427
 2370SOL    HW2 8010   4.964   4.342   6.581
 2371SOL     OW 8011   0.710   5.940   1.398
 2371SOL    HW1 8012   0.802   5.978   1.396
 2371SOL    HW2 8013   0.712   5.852   1.446
 2372SOL     OW 8014   0.266   2.267   1.147
 2372SOL    HW1 8015   0.228   2.217   1.225
 2372SOL    HW2 8016   0.336   2.331   1.180
 2373SOL     OW 8017   0.202   6.995   6.823
 2373SOL    HW1 8018   0.106   7.018   6.809
 2373SOL    HW2 8019   0.249   6.998   6.735
 2374SOL     OW 8020   6.333   0.557   3.875
 2374SOL    HW1 8021   6.372   0.537   3.965
 2374SOL    HW2 8022   6.248   0.506   3.864
 2375SOL     OW 8023   1.850   6.519   4.531
 2375SOL    HW1 8024   1.873   6.506   4.434
 2375SOL    HW2 8025   1.911   6.588   4.571
 2376SOL     OW 8026   5.734   2.096   4.301
 2376SOL    HW1 8027   5.636   2.105   4.317
 2376SOL    HW2 8028   5.773   2.184   4.274
 2377SOL     OW 8029   3.322   4.102   3.116
 2377SOL    HW1 8030   3.234   4.059   3.135
 2377SOL    HW2 8031   3.337   4.178   3.179
 2378SOL     OW 8032   4.755   2.348   0.047
 2378SOL    HW1 8033   4.731   2.392   6.979
 2378SOL    HW2 8034   4.686   2.371   0.116
 2379SOL     OW 8035   6.486   1.649   6.866
 2379SOL    HW1 8036   6.565   1.681   6.814
 2379SOL    HW2 8037   6.414   1.719   6.864
 2380SOL     OW 8038   0.126   6.869   5.256
 2380SOL    HW1 8039   0.061   6.835   5.323
 2380SOL    HW2 8040   0.168   6.793   5.207
 2381SOL     OW 8041   2.104   4.224   4.307
 2381SOL    HW1 8042   2.187   4.277   4.287
 2381SOL    HW2 8043   2.032   4.249   4.242
 2382SOL     OW 8044   2.555   5.327   3.686
 2382SOL    HW1 8045   2.459   5.345   3.661
 2382SOL    HW2 8046   2.615   5.369   3.617
 2383SOL     OW 8047   5.913   6.393   6.977
 2383SOL    HW1 8048   5.894   6.319   0.023
 2383SOL    HW2 8049   5.993   6.444   7.007
 2384SOL     OW 8050   6.880   6.167   2.165
 2384SOL    HW1 8051   6.852   6.112   2.244
 2384SOL    HW2 8052   6.804   6.225   2.137
 2385SOL     OW 8053   6.291   6.470   1.106
 2385SOL    HW1 8054   6.390   6.476   1.109
 2385SOL    HW2 8055   6.255   6.466   1.200
 2386SOL     OW 8056   5.347   4.865   4.378
 2386SOL    HW1 8057   5.390   4.850   4.468
 2386SOL    HW2 8058   5.275   4.798   4.363
 2387SOL     OW 8059   0.289   2.307   3.837
 2387SOL    HW1 8060   0.320   2.224   3.885
 2387SOL    HW2 8061   0.360   2.377   3.842
 2388SOL     OW 8062   1.297   2.150   3.567
 2388SOL    HW1 8063   1.368   2.161   3.498
 2388SOL    HW2 8064   1.302   2.058   3.606
 2389SOL     OW 8065   5.478   3.259   3.435
 2389SOL    HW1 8066   5.521   3.336   3.482
 2389SOL    HW2 8067   5.429   3.202   3.501
 2390SOL     OW 8068   3.191   3.994   4.252
 2390SOL    HW1 8069   3.264   3.976   4.186
 2390SOL    HW2 8070   3.113   3.934   4.233
 2391SOL     OW 8071   4.751   4.245   5.654
 2391SOL    HW1 8072   4.698   4.212   5.576
 2391SOL    HW2 8073   4.734   4.343   5.667
 2392SOL     OW 8074   3.775   0.076   5.118
 2392SOL    HW1 8075   3.835   0.001   5.145
 2392SOL    HW2 8076   3.818   0.129   5.045
 2393SOL     OW 8077   4.067   4.963   0.177
 2393SOL    HW1 8078   4.043   4.867   0.164
 2393SOL    HW2 8079   4.064   5.011   0.089
 2394SOL     OW 8080   1.891   3.275   4.329
 2394SOL    HW1 8081   1.897   3.233   4.239
 2394SOL    HW2 8082   1.979   3.317   4.352
 2395SOL     OW 8083   6.188   2.845   0.675
 2395SOL    HW1 8084   6.160   2.838   0.771
 2395SOL    HW2 8085   6.151   2.768   0.623
 2396SOL     OW 8086   4.183   5.239   0.897
 2396SOL    HW1 8087   4.163   5.319   0.954
 2396SOL    HW2 8088   4.269   5.255   0.847
 2397SOL     OW 8089   0.191   3.706   0.241
 2397SOL    HW1 8090   0.107   3.727   0.291
 2397SOL    HW2 8091   0.221   3.787   0.191
 2398SOL     OW 8092   3.018   4.117   6.488
 2398SOL    HW1 8093   2.978   4.101   6.578
 2398SOL    HW2 8094   2.959   4.179   6.437
 2399SOL     OW 8095   4.936   1.202   2.432
 2399SOL    HW1 8096   4.948   1.240   2.524
 2399SOL    HW2 8097   5.024   1.199   2.385
 2400SOL     OW 8098   3.763   5.349   6.977
 2400SOL    HW1 8099   3.767   5.448   6.992
 2400SOL    HW2 8100   3.855   5.315   6.955
 2401SOL     OW 8101   4.539   0.343   6.515
 2401SOL    HW1 8102   4.636   0.345   6.538
 2401SOL    HW2 8103   4.493   0.423   6.553
 2402SOL     OW 8104   0.956   1.870   4.227
 2402SOL    HW1 8105   1.013   1.788   4.228
 2402SOL    HW2 8106   0.912   1.879   4.138
 2403SOL     OW 8107   2.459   2.326   0.174
 2403SOL    HW1 8108   2.536   2.311   0.111
 2403SOL    HW2 8109   2.491   2.316   0.268
 2404SOL     OW 8110   5.633   1.412   1.623
 2404SOL    HW1 8111   5.696   1.476   1.666
 2404SOL    HW2 8112   5.577   1.368   1.693
 2405SOL     OW 8113   3.261   3.514   3.514
 2405SOL    HW1 8114   3.311   3.463   3.584
 2405SOL    HW2 8115   3.170   3.473   3.502
 2406SOL     OW 8116   2.177   0.006   3.428
 2406SOL    HW1 8117   2.081   7.017   3.400
 2406SOL    HW2 8118   2.231   6.955   3.381
 2407SOL     OW 8119   5.383   2.645   2.515
 2407SOL    HW1 8120   5.381   2.734   2.559
 2407SOL    HW2 8121   5.433   2.651   2.429
 2408SOL     OW 8122   3.881   4.826   3.472
 2408SOL    HW1 8123   3.817   4.801   3.399
 2408SOL    HW2 8124   3.974   4.802   3.445
 2409SOL     OW 8125   1.574   2.853   1.309
 2409SOL    HW1 8126   1.567   2.832   1.407
 2409SOL    HW2 8127   1.663   2.894   1.290
 2410SOL     OW 8128   4.697   2.366   6.502
 2410SOL    HW1 8129   4.606   2.359   6.460
 2410SOL    HW2 8130   4.724   2.462   6.508
 2411SOL     OW 8131   4.657   5.393   5.928
 2411SOL    HW1 8132   4.594   5.355   5.860
 2411SOL    HW2 8133   4.616   5.385   6.019
 2412SOL     OW 8134   3.624   4.725   0.420
 2412SOL    HW1 8135   3.618   4.727   0.519
 2412SOL    HW2 8136   3.553   4.665   0.383
 2413SOL     OW 8137   6.396   2.361   0.056
 2413SOL    HW1 8138   6.358   2.269   0.062
 2413SOL    HW2 8139   6.490   2.360   0.091
 2414SOL     OW 8140   4.922   4.104   2.153
 2414SOL    HW1 8141   5.000   4.042   2.154
 2414SOL    HW2 8142   4.949   4.192   2.116
 2415SOL     OW 8143   0.945   6.744   1.389
 2415SOL    HW1 8144   1.013   6.816   1.373
 2415SOL    HW2 8145   0.859   6.770   1.346
 2416SOL     OW 8146   3.663   2.155   5.199
 2416SOL    HW1 8147   3.573   2.146   5.156
 2416SOL    HW2 8148   3.734   2.143   5.130
 2417SOL     OW 8149   4.356   3.289   5.918
 2417SOL    HW1 8150   4.276   3.261   5.971
 2417SOL    HW2 8151   4.333   3.291   5.821
 2418SOL     OW 8152   2.954   3.785   3.803
 2418SOL    HW1 8153   3.047   3.787   3.842
 2418SOL    HW2 8154   2.947   3.855   3.731
 2419SOL     OW 8155   0.701   6.070   3.444
 2419SOL    HW1 8156   0.734   6.116   3.361
 2419SOL    HW2 8157   0.623   6.119   3.481
 2420SOL     OW 8158   3.949   1.874   1.638
 2420SOL    HW1 8159   4.028   1.826   1.599
 2420SOL    HW2 8160   3.865   1.827   1.613
 2421SOL     OW 8161   2.808   1.279   4.900
 2421SOL    HW1 8162   2.815   1.360   4.959
 2421SOL    HW2 8163   2.869   1.288   4.822
 2422SOL     OW 8164   6.502   0.426   2.118
 2422SOL    HW1 8165   6.520   0.488   2.194
 2422SOL    HW2 8166   6.504   0.477   2.032
 2423SOL     OW 8167   1.748   6.250   3.698
 2423SOL    HW1 8168   1.748   6.303   3.782
 2423SOL    HW2 8169   1.656   6.218   3.678
 2424SOL     OW 8170   5.702   6.408   6.213
 2424SOL    HW1 8171   5.670   6.411   6.119
 2424SOL    HW2 8172   5.798   6.436   6.217
 2425SOL     OW 8173   6.172   0.084   4.422
 2425SOL    HW1 8174   6.190   0.015   4.351
 2425SOL    HW2 8175   6.228   0.164   4.405
 2426SOL     OW 8176   0.566   4.658   4.105
 2426SOL    HW1 8177   0.595   4.676   4.199
 2426SOL    HW2 8178   0.483   4.602   4.105
 2427SOL     OW 8179   5.597   5.396   6.791
 2427SOL    HW1 8180   5.607   5.369   6.887
 2427SOL    HW2 8181   5.574   5.493   6.785
 2428SOL     OW 8182   0.158   0.377   3.352
 2428SOL    HW1 8183   0.218   0.308   3.393
 2428SOL    HW2 8184   0.080   0.332   3.309
 2429SOL     OW 8185   6.450   5.876   4.842
 2429SOL    HW1 8186   6.548   5.877   4.821
 2429SOL    HW2 8187   6.411   5.789   4.813
 2430SOL     OW 8188   6.218   1.782   0.999
 2430SOL    HW1 8189   6.147   1.823   1.056
 2430SOL    HW2 8190   6.292   1.748   1.057
 2431SOL     OW 8191   3.626   0.139   1.994
 2431SOL    HW1 8192   3.634   0.209   2.065
 2431SOL    HW2 8193   3.530   0.114   1.984
 2432SOL     OW 8194   3.408   6.770   3.294
 2432SOL    HW1 8195   3.473   6.845   3.306
 2432SOL    HW2 8196   3.350   6.763   3.376
 2433SOL     OW 8197   3.355   6.241   0.957
 2433SOL    HW1 8198   3.282   6.184   0.996
 2433SOL    HW2 8199   3.341   6.336   0.984
 2434SOL     OW 8200   5.053   1.256   3.864
 2434SOL    HW1 8201   5.034   1.241   3.767
 2434SOL    HW2 8202   5.152   1.267   3.878
 2435SOL     OW 8203   4.681   5.458   6.245
 2435SOL    HW1 8204   4.693   5.556   6.230
 2435SOL    HW2 8205   4.771   5.413   6.245
 2436SOL     OW 8206   2.091   6.239   1.551
 2436SOL    HW1 8207   2.052   6.331   1.548
 2436SOL    HW2 8208   2.189   6.245   1.566
 2437SOL     OW 8209   3.898   6.168   1.068
 2437SOL    HW1 8210   3.864   6.252   1.027
 2437SOL    HW2 8211   3.995   6.157   1.048
 2438SOL     OW 8212   3.850   1.658   5.525
 2438SOL    HW1 8213   3.759   1.628   5.498
 2438SOL    HW2 8214   3.849   1.756   5.544
 2439SOL     OW 8215   1.142   4.269   6.880
 2439SOL    HW1 8216   1.210   4.336   6.909
 2439SOL    HW2 8217   1.187   4.181   6.865
 2440SOL     OW 8218   4.443   6.463   5.115
 2440SOL    HW1 8219   4.460   6.561   5.116
 2440SOL    HW2 8220   4.528   6.413   5.098
 2441SOL     OW 8221   6.922   0.619   6.910
 2441SOL    HW1 8222   6.986   0.553   6.870
 2441SOL    HW2 8223   6.860   0.572   6.973
 2442SOL     OW 8224   6.578   5.859   4.304
 2442SOL    HW1 8225   6.571   5.873   4.206
 2442SOL    HW2 8226   6.498   5.807   4.336
 2443SOL     OW 8227   3.367   6.718   6.129
 2443SOL    HW1 8228   3.280   6.761   6.108
 2443SOL    HW2 8229   3.358   6.663   6.212
 2444SOL     OW 8230   3.821   4.750   6.085
 2444SOL    HW1 8231   3.886   4.692   6.036
 2444SOL    HW2 8232   3.857   4.772   6.175
 2445SOL     OW 8233   0.229   0.806   1.841
 2445SOL    HW1 8234   0.245   0.904   1.852
 2445SOL    HW2 8235   0.316   0.757   1.844
 2446SOL     OW 8236   0.043   3.248   4.072
 2446SOL    HW1 8237   6.982   3.257   4.013
 2446SOL    HW2 8238   0.126   3.247   4.015
 2447SOL     OW 8239   2.443   1.031   0.755
 2447SOL    HW1 8240   2.432   1.075   0.666
 2447SOL    HW2 8241   2.530   1.059   0.796
 2448SOL     OW 8242   0.967   0.525   5.163
 2448SOL    HW1 8243   0.996   0.610   5.208
 2448SOL    HW2 8244   0.953   0.542   5.065
 2449SOL     OW 8245   0.391   4.732   2.251
 2449SOL    HW1 8246   0.408   4.818   2.203
 2449SOL    HW2 8247   0.299   4.733   2.291
 2450SOL     OW 8248   2.878   4.799   4.306
 2450SOL    HW1 8249   2.967   4.763   4.276
 2450SOL    HW2 8250   2.813   4.792   4.230
 2451SOL     OW 8251   0.864   0.175   3.870
 2451SOL    HW1 8252   0.850   0.084   3.908
 2451SOL    HW2 8253   0.854   0.243   3.943
 2452SOL     OW 8254   2.284   2.296   3.114
 2452SOL    HW1 8255   2.200   2.276   3.063
 2452SOL    HW2 8256   2.355   2.326   3.051
 2453SOL     OW 8257   6.625   3.924   1.255
 2453SOL    HW1 8258   6.700   3.979   1.218
 2453SOL    HW2 8259   6.633   3.830   1.223
 2454SOL     OW 8260   3.527   1.476   0.465
 2454SOL    HW1 8261   3.433   1.486   0.433
 2454SOL    HW2 8262   3.536   1.519   0.554
 2455SOL     OW 8263   5.563   6.596   0.542
 2455SOL    HW1 8264   5.467   6.573   0.552
 2455SOL    HW2 8265   5.577   6.692   0.564
 2456SOL     OW 8266   6.046   0.589   0.494
 2456SOL    HW1 8267   6.031   0.688   0.492
 2456SOL    HW2 8268   6.063   0.557   0.401
 2457SOL     OW 8269   6.096   6.100   0.011
 2457SOL    HW1 8270   6.032   6.129   0.082
 2457SOL    HW2 8271   6.141   6.015   0.039
 2458SOL     OW 8272   2.611   5.505   3.965
 2458SOL    HW1 8273   2.662   5.425   3.934
 2458SOL    HW2 8274   2.646   5.586   3.917
 2459SOL     OW 8275   2.825   6.533   0.395
 2459SOL    HW1 8276   2.744   6.588   0.375
 2459SOL    HW2 8277   2.853   6.483   0.313
 2460SOL     OW 8278   2.276   0.614   1.344
 2460SOL    HW1 8279   2.371   0.598   1.318
 2460SOL    HW2 8280   2.266   0.706   1.381
 2461SOL     OW 8281   4.193   0.167   2.890
 2461SOL    HW1 8282   4.257   0.145   2.964
 2461SOL    HW2 8283   4.100   0.171   2.926
 2462SOL     OW 8284   2.500   5.158   0.115
 2462SOL    HW1 8285   2.560   5.233   0.141
 2462SOL    HW2 8286   2.499   5.148   0.016
 2463SOL     OW 8287   6.303   2.153   3.601
 2463SOL    HW1 8288   6.267   2.213   3.672
 2463SOL    HW2 8289   6.312   2.060   3.636
 2464SOL     OW 8290   1.665   4.598   1.738
 2464SOL    HW1 8291   1.752   4.609   1.786
 2464SOL    HW2 8292   1.683   4.571   1.643
 2465SOL     OW 8293   0.426   6.370   1.644
 2465SOL    HW1 8294   0.506   6.414   1.605
 2465SOL    HW2 8295   0.382   6.432   1.709
 2466SOL     OW 8296   3.616   1.270   1.902
 2466SOL    HW1 8297   3.671   1.187   1.909
 2466SOL    HW2 8298   3.667   1.347   1.941
 2467SOL     OW 8299   5.306   1.616   5.280
 2467SOL    HW1 8300   5.249   1.564   5.343
 2467SOL    HW2 8301   5.384   1.654   5.331
 2468SOL     OW 8302   5.278   6.156   2.345
 2468SOL    HW1 8303   5.312   6.150   2.251
 2468SOL    HW2 8304   5.349   6.195   2.404
 2469SOL     OW 8305   3.761   4.458   5.312
 2469SOL    HW1 8306   3.788   4.407   5.393
 2469SOL    HW2 8307   3.701   4.533   5.339
 2470SOL     OW 8308   3.358   4.242   5.869
 2470SOL    HW1 8309   3.379   4.203   5.959
 2470SOL    HW2 8310   3.314   4.331   5.881
 2471SOL     OW 8311   2.322   6.251   1.204
 2471SOL    HW1 8312   2.341   6.348   1.217
 2471SOL    HW2 8313   2.359   6.199   1.282
 2472SOL     OW 8314   4.767   1.539   4.012
 2472SOL    HW1 8315   4.817   1.613   3.968
 2472SOL    HW2 8316   4.775   1.456   3.957
 2473SOL     OW 8317   1.539   4.129   5.280
 2473SOL    HW1 8318   1.549   4.032   5.259
 2473SOL    HW2 8319   1.545   4.183   5.196
 2474SOL     OW 8320   0.137   5.437   0.082
 2474SOL    HW1 8321   0.137   5.363   0.015
 2474SOL    HW2 8322   0.217   5.496   0.068
 2475SOL     OW 8323   4.378   1.320   0.663
 2475SOL    HW1 8324   4.315   1.364   0.728
 2475SOL    HW2 8325   4.394   1.382   0.586
 2476SOL     OW 8326   1.067   2.838   3.843
 2476SOL    HW1 8327   1.143   2.776   3.824
 2476SOL    HW2 8328   1.102   2.931   3.855
 2477SOL     OW 8329   6.474   0.591   2.341
 2477SOL    HW1 8330   6.443   0.685   2.329
 2477SOL    HW2 8331   6.568   0.591   2.375
 2478SOL     OW 8332   6.015   6.981   2.445
 2478SOL    HW1 8333   6.068   6.941   2.520
 2478SOL    HW2 8334   5.934   6.926   2.428
 2479SOL     OW 8335   1.204   3.529   1.279
 2479SOL    HW1 8336   1.288   3.581   1.275
 2479SOL    HW2 8337   1.131   3.586   1.317
 2480SOL     OW 8338   5.761   4.176   0.813
 2480SOL    HW1 8339   5.694   4.249   0.802
 2480SOL    HW2 8340   5.752   4.136   0.904
 2481SOL     OW 8341   2.477   6.756   0.123
 2481SOL    HW1 8342   2.443   6.703   0.046
 2481SOL    HW2 8343   2.560   6.806   0.096
 2482SOL     OW 8344   5.530   2.925   5.587
 2482SOL    HW1 8345   5.502   2.830   5.601
 2482SOL    HW2 8346   5.448   2.982   5.574
 2483SOL     OW 8347   2.332   1.133   6.631
 2483SOL    HW1 8348   2.284   1.199   6.688
 2483SOL    HW2 8349   2.428   1.161   6.621
 2484SOL     OW 8350   2.108   0.643   0.394
 2484SOL    HW1 8351   2.204   0.659   0.372
 2484SOL    HW2 8352   2.073   0.718   0.450
 2485SOL     OW 8353   4.450   4.608   2.130
 2485SOL    HW1 8354   4.477   4.678   2.063
 2485SOL    HW2 8355   4.481   4.518   2.099
 2486SOL     OW 8356   3.594   5.406   2.677
 2486SOL    HW1 8357   3.653   5.485   2.666
 2486SOL    HW2 8358   3.554   5.381   2.589
 2487SOL     OW 8359   3.769   5.170   6.221
 2487SOL    HW1 8360   3.734   5.110   6.149
 2487SOL    HW2 8361   3.785   5.116   6.304
 2488SOL     OW 8362   2.210   3.983   2.199
 2488SOL    HW1 8363   2.167   3.999   2.110
 2488SOL    HW2 8364   2.261   4.064   2.227
 2489SOL     OW 8365   2.337   5.219   3.903
 2489SOL    HW1 8366   2.366   5.160   3.979
 2489SOL    HW2 8367   2.417   5.251   3.853
 2490SOL     OW 8368   6.562   5.404   0.877
 2490SOL    HW1 8369   6.503   5.479   0.909
 2490SOL    HW2 8370   6.533   5.376   0.786
 2491SOL     OW 8371   2.275   6.114   2.541
 2491SOL    HW1 8372   2.213   6.042   2.511
 2491SOL    HW2 8373   2.257   6.137   2.636
 2492SOL     OW 8374   3.839   2.799   6.845
 2492SOL    HW1 8375   3.753   2.850   6.838
 2492SOL    HW2 8376   3.888   2.830   6.927
 2493SOL     OW 8377   5.714   0.553   3.011
 2493SOL    HW1 8378   5.692   0.455   3.014
 2493SOL    HW2 8379   5.805   0.568   3.051
 2494SOL     OW 8380   6.049   3.428   2.543
 2494SOL    HW1 8381   5.953   3.403   2.527
 2494SOL    HW2 8382   6.088   3.466   2.459
 2495SOL     OW 8383   5.230   0.104   4.804
 2495SOL    HW1 8384   5.216   0.167   4.880
 2495SOL    HW2 8385   5.302   0.038   4.828
 2496SOL     OW 8386   1.085   4.816   6.622
 2496SOL    HW1 8387   1.127   4.840   6.709
 2496SOL    HW2 8388   0.986   4.807   6.634
 2497SOL     OW 8389   6.736   1.305   0.625
 2497SOL    HW1 8390   6.737   1.316   0.525
 2497SOL    HW2 8391   6.645   1.276   0.654
 2498SOL     OW 8392   3.143   2.179   3.371
 2498SOL    HW1 8393   3.107   2.221   3.455
 2498SOL    HW2 8394   3.067   2.138   3.320
 2499SOL     OW 8395   5.434   1.538   4.892
 2499SOL    HW1 8396   5.452   1.637   4.888
 2499SOL    HW2 8397   5.500   1.490   4.836
 2500SOL     OW 8398   4.531   3.223   6.170
 2500SOL    HW1 8399   4.476   3.139   6.178
 2500SOL    HW2 8400   4.469   3.302   6.162
 2501SOL     OW 8401   6.836   5.656   6.963
 2501SOL    HW1 8402   6.843   5.561   6.993
 2501SOL    HW2 8403   6.871   5.664   6.869
 2502SOL     OW 8404   2.657   6.024   3.612
 2502SOL    HW1 8405   2.605   6.027   3.527
 2502SOL    HW2 8406   2.733   5.959   3.603
 2503SOL     OW 8407   3.392   6.044   5.378
 2503SOL    HW1 8408   3.336   6.028   5.297
 2503SOL    HW2 8409   3.467   5.978   5.381
 2504SOL     OW 8410   3.114   6.101   4.988
 2504SOL    HW1 8411   3.098   6.096   4.889
 2504SOL    HW2 8412   3.074   6.021   5.032
 2505SOL     OW 8413   1.620   6.650   4.561
 2505SOL    HW1 8414   1.710   6.608   4.555
 2505SOL    HW2 8415   1.571   6.611   4.639
 2506SOL     OW 8416   6.744   2.943   6.000
 2506SOL    HW1 8417   6.662   2.891   6.024
 2506SOL    HW2 8418   6.784   2.982   6.083
 2507SOL     OW 8419   6.441   4.218   0.385
 2507SOL    HW1 8420   6.487   4.207   0.296
 2507SOL    HW2 8421   6.418   4.129   0.422
 2508SOL     OW 8422   2.570   1.782   2.262
 2508SOL    HW1 8423   2.510   1.834   2.201
 2508SOL    HW2 8424   2.665   1.809   2.245
 2509SOL     OW 8425   5.664   2.920   2.791
 2509SOL    HW1 8426   5.671   2.946   2.887
 2509SOL    HW2 8427   5.654   3.002   2.734
 2510SOL     OW 8428   3.584   4.121   0.669
 2510SOL    HW1 8429   3.489   4.111   0.698
 2510SOL    HW2 8430   3.593   4.205   0.615
 2511SOL     OW 8431   2.021   1.890   4.855
 2511SOL    HW1 8432   2.081   1.918   4.780
 2511SOL    HW2 8433   2.064   1.911   4.942
 2512SOL     OW 8434   5.611   5.036   5.448
 2512SOL    HW1 8435   5.635   5.055   5.353
 2512SOL    HW2 8436   5.672   4.965   5.484
 2513SOL     OW 8437   1.532   2.712   6.073
 2513SOL    HW1 8438   1.464   2.668   6.131
 2513SOL    HW2 8439   1.509   2.696   5.977
 2514SOL     OW 8440   0.251   3.241   3.856
 2514SOL    HW1 8441   0.310   3.310   3.897
 2514SOL    HW2 8442   0.302   3.155   3.849
 2515SOL     OW 8443   1.267   6.536   0.657
 2515SOL    HW1 8444   1.323   6.481   0.719
 2515SOL    HW2 8445   1.304   6.527   0.564
 2516SOL     OW 8446   6.564   6.104   2.542
 2516SOL    HW1 8447   6.488   6.112   2.477
 2516SOL    HW2 8448   6.535   6.048   2.619
 2517SOL     OW 8449   1.962   5.629   5.620
 2517SOL    HW1 8450   1.884   5.664   5.568
 2517SOL    HW2 8451   1.929   5.571   5.694
 2518SOL     OW 8452   1.828   3.216   0.428
 2518SOL    HW1 8453   1.770   3.195   0.349
 2518SOL    HW2 8454   1.799   3.161   0.506
 2519SOL     OW 8455   5.356   5.124   4.466
 2519SOL    HW1 8456   5.306   5.117   4.552
 2519SOL    HW2 8457   5.343   5.040   4.413
 2520SOL     OW 8458   0.657   3.147   1.066
 2520SOL    HW1 8459   0.728   3.091   1.024
 2520SOL    HW2 8460   0.679   3.244   1.055
 2521SOL     OW 8461   1.364   6.425   5.545
 2521SOL    HW1 8462   1.267   6.425   5.520
 2521SOL    HW2 8463   1.395   6.519   5.558
 2522SOL     OW 8464   1.034   2.914   5.409
 2522SOL    HW1 8465   1.026   2.831   5.352
 2522SOL    HW2 8466   0.975   2.904   5.489
 2523SOL     OW 8467   0.404   3.193   1.473
 2523SOL    HW1 8468   0.385   3.147   1.386
 2523SOL    HW2 8469   0.318   3.208   1.521
 2524SOL     OW 8470   0.871   6.143   4.122
 2524SOL    HW1 8471   0.970   6.144   4.132
 2524SOL    HW2 8472   0.829   6.173   4.207
 2525SOL     OW 8473   1.443   2.468   4.223
 2525SOL    HW1 8474   1.399   2.521   4.151
 2525SOL    HW2 8475   1.493   2.529   4.284
 2526SOL     OW 8476   0.862   3.657   5.732
 2526SOL    HW1 8477   0.905   3.661   5.822
 2526SOL    HW2 8478   0.898   3.731   5.675
 2527SOL     OW 8479   5.046   6.915   5.129
 2527SOL    HW1 8480   4.967   6.942   5.074
 2527SOL    HW2 8481   5.015   6.880   5.217
 2528SOL     OW 8482   6.068   4.582   1.262
 2528SOL    HW1 8483   6.107   4.675   1.261
 2528SOL    HW2 8484   5.977   4.584   1.302
 2529SOL     OW 8485   5.705   5.158   6.402
 2529SOL    HW1 8486   5.782   5.096   6.389
 2529SOL    HW2 8487   5.620   5.105   6.409
 2530SOL     OW 8488   1.328   6.270   5.123
 2530SOL    HW1 8489   1.358   6.255   5.217
 2530SOL    HW2 8490   1.233   6.300   5.123
 2531SOL     OW 8491   5.411   5.721   4.655
 2531SOL    HW1 8492   5.462   5.725   4.741
 2531SOL    HW2 8493   5.315   5.742   4.672
 2532SOL     OW 8494   0.399   5.897   0.644
 2532SOL    HW1 8495   0.481   5.936   0.602
 2532SOL    HW2 8496   0.393   5.927   0.739
 2533SOL     OW 8497   5.292   6.550   4.399
 2533SOL    HW1 8498   5.275   6.552   4.301
 2533SOL    HW2 8499   5.234   6.481   4.442
 2534SOL     OW 8500   2.394   0.760   3.095
 2534SOL    HW1 8501   2.428   0.759   3.001
 2534SOL    HW2 8502   2.446   0.826   3.149
 2535SOL     OW 8503   2.135   2.196   6.735
 2535SOL    HW1 8504   2.229   2.231   6.737
 2535SOL    HW2 8505   2.078   2.258   6.682
 2536SOL     OW 8506   0.637   1.957   3.800
 2536SOL    HW1 8507   0.615   2.050   3.771
 2536SOL    HW2 8508   0.630   1.896   3.721
 2537SOL     OW 8509   4.924   6.184   0.329
 2537SOL    HW1 8510   4.827   6.201   0.310
 2537SOL    HW2 8511   4.974   6.270   0.324
 2538SOL     OW 8512   2.010   4.112   5.325
 2538SOL    HW1 8513   2.078   4.052   5.365
 2538SOL    HW2 8514   2.031   4.126   5.228
 2539SOL     OW 8515   3.799   0.119   5.819
 2539SOL    HW1 8516   3.711   0.080   5.845
 2539SOL    HW2 8517   3.798   0.144   5.722
 2540SOL     OW 8518   5.054   0.657   1.396
 2540SOL    HW1 8519   5.061   0.666   1.296
 2540SOL    HW2 8520   4.981   0.592   1.418
 2541SOL     OW 8521   1.366   0.602   5.901
 2541SOL    HW1 8522   1.295   0.608   5.971
 2541SOL    HW2 8523   1.421   0.686   5.901
 2542SOL     OW 8524   3.940   2.139   4.684
 2542SOL    HW1 8525   3.891   2.141   4.597
 2542SOL    HW2 8526   4.028   2.184   4.674
 2543SOL     OW 8527   2.309   0.566   2.712
 2543SOL    HW1 8528   2.372   0.558   2.790
 2543SOL    HW2 8529   2.358   0.602   2.633
 2544SOL     OW 8530   0.256   5.125   2.232
 2544SOL    HW1 8531   0.203   5.187   2.174
 2544SOL    HW2 8532   0.337   5.173   2.266
 2545SOL     OW 8533   1.688   0.642   1.393
 2545SOL    HW1 8534   1.764   0.585   1.425
 2545SOL    HW2 8535   1.648   0.691   1.471
 2546SOL     OW 8536   5.970   3.232   1.316
 2546SOL    HW1 8537   5.924   3.158   1.267
 2546SOL    HW2 8538   6.052   3.197   1.360
 2547SOL     OW 8539   5.065   5.738   6.984
 2547SOL    HW1 8540   5.044   5.676   0.041
 2547SOL    HW2 8541   4.998   5.725   6.911
 2548SOL     OW 8542   2.595   0.761   5.050
 2548SOL    HW1 8543   2.525   0.793   5.114
 2548SOL    HW2 8544   2.646   0.839   5.015
 2549SOL     OW 8545   1.929   2.358   1.908
 2549SOL    HW1 8546   2.006   2.328   1.964
 2549SOL    HW2 8547   1.844   2.321   1.946
 2550SOL     OW 8548   5.622   1.130   6.680
 2550SOL    HW1 8549   5.704   1.073   6.677
 2550SOL    HW2 8550   5.541   1.072   6.692
 2551SOL     OW 8551   3.322   5.641   0.241
 2551SOL    HW1 8552   3.269   5.567   0.199
 2551SOL    HW2 8553   3.284   5.662   0.330
 2552SOL     OW 8554   1.826   5.131   6.567
 2552SOL    HW1 8555   1.782   5.140   6.477
 2552SOL    HW2 8556   1.774   5.183   6.634
 2553SOL     OW 8557   3.054   3.034   6.107
 2553SOL    HW1 8558   3.027   2.938   6.115
 2553SOL    HW2 8559   2.977   3.088   6.075
 2554SOL     OW 8560   2.064   5.941   6.872
 2554SOL    HW1 8561   1.999   5.952   6.947
 2554SOL    HW2 8562   2.036   5.865   6.814
 2555SOL     OW 8563   6.073   6.501   6.452
 2555SOL    HW1 8564   6.123   6.555   6.520
 2555SOL    HW2 8565   6.092   6.404   6.466
 2556SOL     OW 8566   4.295   6.215   1.102
 2556SOL    HW1 8567   4.391   6.231   1.078
 2556SOL    HW2 8568   4.245   6.186   1.020
 2557SOL     OW 8569   2.597   1.212   6.639
 2557SOL    HW1 8570   2.625   1.284   6.703
 2557SOL    HW2 8571   2.679   1.172   6.597
 2558SOL     OW 8572   4.180   3.694   5.037
 2558SOL    HW1 8573   4.213   3.649   5.120
 2558SOL    HW2 8574   4.258   3.722   4.981
 2559SOL     OW 8575   5.890   2.811   3.994
 2559SOL    HW1 8576   5.875   2.900   3.950
 2559SOL    HW2 8577   5.961   2.761   3.944
 2560SOL     OW 8578   4.894   3.320   3.489
 2560SOL    HW1 8579   4.898   3.364   3.399
 2560SOL    HW2 8580   4.940   3.232   3.485
 2561SOL     OW 8581   3.507   1.252   3.805
 2561SOL    HW1 8582   3.501   1.295   3.715
 2561SOL    HW2 8583   3.601   1.257   3.837
 2562SOL     OW 8584   2.741   5.386   3.493
 2562SOL    HW1 8585   2.824   5.440   3.506
 2562SOL    HW2 8586   2.707   5.401   3.400
 2563SOL     OW 8587   3.719   1.489   5.828
 2563SOL    HW1 8588   3.756   1.557   5.765
 2563SOL    HW2 8589   3.786   1.471   5.900
 2564SOL     OW 8590   1.596   6.422   0.084
 2564SOL    HW1 8591   1.577   6.460   0.174
 2564SOL    HW2 8592   1.634   6.493   0.025
 2565SOL     OW 8593   0.485   0.448   0.302
 2565SOL    HW1 8594   0.489   0.547   0.315
 2565SOL    HW2 8595   0.457   0.403   0.387
 2566SOL     OW 8596   1.337   6.742   0.802
 2566SOL    HW1 8597   1.284   6.824   0.779
 2566SOL    HW2 8598   1.300   6.664   0.751
 2567SOL     OW 8599   1.352   1.463   1.908
 2567SOL    HW1 8600   1.253   1.467   1.917
 2567SOL    HW2 8601   1.393   1.536   1.964
 2568SOL     OW 8602   3.373   0.070   0.508
 2568SOL    HW1 8603   3.346   0.098   0.600
 2568SOL    HW2 8604   3.382   6.990   0.504
 2569SOL     OW 8605   2.119   1.638   2.294
 2569SOL    HW1 8606   2.167   1.612   2.377
 2569SOL    HW2 8607   2.170   1.710   2.247
 2570SOL     OW 8608   4.510   6.447   6.109
 2570SOL    HW1 8609   4.434   6.382   6.111
 2570SOL    HW2 8610   4.502   6.510   6.186
 2571SOL     OW 8611   3.264   2.948   4.487
 2571SOL    HW1 8612   3.327   3.008   4.536
 2571SOL    HW2 8613   3.257   2.860   4.534
 2572SOL     OW 8614   1.755   6.559   0.960
 2572SOL    HW1 8615   1.707   6.484   1.005
 2572SOL    HW2 8616   1.853   6.539   0.956
 2573SOL     OW 8617   6.528   1.117   1.959
 2573SOL    HW1 8618   6.502   1.156   1.871
 2573SOL    HW2 8619   6.590   1.180   2.006
 2574SOL     OW 8620   5.965   3.223   0.136
 2574SOL    HW1 8621   5.907   3.180   0.066
 2574SOL    HW2 8622   5.913   3.232   0.221
 2575SOL     OW 8623   5.228   3.616   1.655
 2575SOL    HW1 8624   5.305   3.572   1.608
 2575SOL    HW2 8625   5.158   3.547   1.674
 2576SOL     OW 8626   4.116   6.662   3.676
 2576SOL    HW1 8627   4.051   6.624   3.742
 2576SOL    HW2 8628   4.160   6.743   3.716
 2577SOL     OW 8629   5.110   0.620   3.164
 2577SOL    HW1 8630   5.050   0.681   3.217
 2577SOL    HW2 8631   5.200   0.616   3.208
 2578SOL     OW 8632   4.456   3.030   5.883
 2578SOL    HW1 8633   4.440   3.125   5.909
 2578SOL    HW2 8634   4.513   2.985   5.951
 2579SOL     OW 8635   1.199   1.348   4.737
 2579SOL    HW1 8636   1.181   1.307   4.647
 2579SOL    HW2 8637   1.264   1.292   4.787
 2580SOL     OW 8638   1.684   2.882   6.351
 2580SOL    HW1 8639   1.628   2.837   6.282
 2580SOL    HW2 8640   1.696   2.821   6.430
 2581SOL     OW 8641   5.855   4.514   1.701
 2581SOL    HW1 8642   5.954   4.498   1.703
 2581SOL    HW2 8643   5.809   4.448   1.761
 2582SOL     OW 8644   1.900   4.788   2.827
 2582SOL    HW1 8645   1.822   4.839   2.862
 2582SOL    HW2 8646   1.984   4.820   2.870
 2583SOL     OW 8647   1.616   1.162   1.206
 2583SOL    HW1 8648   1.543   1.207   1.257
 2583SOL    HW2 8649   1.670   1.105   1.268
 2584SOL     OW 8650   3.843   5.754   0.198
 2584SOL    HW1 8651   3.918   5.706   0.155
 2584SOL    HW2 8652   3.811   5.827   0.138
 2585SOL     OW 8653   3.539   0.491   0.422
 2585SOL    HW1 8654   3.466   0.559   0.434
 2585SOL    HW2 8655   3.501   0.399   0.434
 2586SOL     OW 8656   4.897   1.562   4.459
 2586SOL    HW1 8657   4.857   1.521   4.541
 2586SOL    HW2 8658   4.935   1.652   4.480
 2587SOL     OW 8659   0.059   1.165   4.520
 2587SOL    HW1 8660   0.144   1.113   4.510
 2587SOL    HW2 8661   7.002   1.102   4.539
 2588SOL     OW 8662   4.581   0.317   0.289
 2588SOL    HW1 8663   4.525   0.310   0.372
 2588SOL    HW2 8664   4.671   0.275   0.306
 2589SOL     OW 8665   0.659   6.562   5.900
 2589SOL    HW1 8666   0.621   6.522   5.816
 2589SOL    HW2 8667   0.587   6.612   5.948
 2590SOL     OW 8668   3.355   6.498   2.630
 2590SOL    HW1 8669   3.425   6.444   2.676
 2590SOL    HW2 8670   3.358   6.481   2.532
 2591SOL     OW 8671   5.828   6.063   2.349
 2591SOL    HW1 8672   5.837   5.967   2.376
 2591SOL    HW2 8673   5.748   6.073   2.290
 2592SOL     OW 8674   2.518   0.088   1.367
 2592SOL    HW1 8675   2.600   0.053   1.411
 2592SOL    HW2 8676   2.469   0.013   1.322
 2593SOL     OW 8677   3.241   6.435   2.366
 2593SOL    HW1 8678   3.197   6.509   2.417
 2593SOL    HW2 8679   3.283   6.472   2.283
 2594SOL     OW 8680   6.987   6.143   5.850
 2594SOL    HW1 8681   0.056   6.170   5.889
 2594SOL    HW2 8682   6.914   6.196   5.894
 2595SOL     OW 8683   6.020   1.783   5.770
 2595SOL    HW1 8684   6.053   1.852   5.834
 2595SOL    HW2 8685   6.044   1.692   5.803
 2596SOL     OW 8686   3.993   2.200   1.895
 2596SOL    HW1 8687   3.965   2.123   1.952
 2596SOL    HW2 8688   3.915   2.261   1.881
 2597SOL     OW 8689   1.859   4.327   0.419
 2597SOL    HW1 8690   1.844   4.415   0.374
 2597SOL    HW2 8691   1.781   4.305   0.477
 2598SOL     OW 8692   6.184   1.221   4.553
 2598SOL    HW1 8693   6.147   1.157   4.619
 2598SOL    HW2 8694   6.179   1.181   4.461
 2599SOL     OW 8695   3.336   6.102   0.624
 2599SOL    HW1 8696   3.278   6.075   0.700
 2599SOL    HW2 8697   3.278   6.129   0.546
 2600SOL     OW 8698   4.913   3.829   4.888
 2600SOL    HW1 8699   4.970   3.821   4.806
 2600SOL    HW2 8700   4.892   3.738   4.923
 2601SOL     OW 8701   3.294   1.716   6.850
 2601SOL    HW1 8702   3.317   1.707   6.753
 2601SOL    HW2 8703   3.283   1.626   6.891
 2602SOL     OW 8704   6.791   4.836   4.143
 2602SOL    HW1 8705   6.698   4.802   4.147
 2602SOL    HW2 8706   6.793   4.933   4.169
 2603SOL     OW 8707   2.359   2.569   1.487
 2603SOL    HW1 8708   2.396   2.660   1.508
 2603SOL    HW2 8709   2.289   2.577   1.416
 2604SOL     OW 8710   5.147   1.472   2.591
 2604SOL    HW1 8711   5.149   1.551   2.529
 2604SOL    HW2 8712   5.233   1.468   2.642
 2605SOL     OW 8713   3.474   5.280   3.603
 2605SOL    HW1 8714   3.538   5.220   3.554
 2605SOL    HW2 8715   3.497   5.376   3.585
 2606SOL     OW 8716   6.444   4.478   0.677
 2606SOL    HW1 8717   6.486   4.494   0.588
 2606SOL    HW2 8718   6.436   4.565   0.726
 2607SOL     OW 8719   0.388   1.835   6.424
 2607SOL    HW1 8720   0.473   1.801   6.385
 2607SOL    HW2 8721   0.386   1.818   6.522
 2608SOL     OW 8722   3.758   6.070   2.680
 2608SOL    HW1 8723   3.833   6.027   2.731
 2608SOL    HW2 8724   3.726   6.007   2.609
 2609SOL     OW 8725   0.285   2.685   1.371
 2609SOL    HW1 8726   0.362   2.737   1.408
 2609SOL    HW2 8727   0.240   2.739   1.300
 2610SOL     OW 8728   6.831   4.956   4.416
 2610SOL    HW1 8729   6.747   4.901   4.420
 2610SOL    HW2 8730   6.830   5.013   4.334
 2611SOL     OW 8731   5.671   6.730   1.306
 2611SOL    HW1 8732   5.591   6.744   1.365
 2611SOL    HW2 8733   5.642   6.731   1.210
 2612SOL     OW 8734   0.097   6.477   5.997
 2612SOL    HW1 8735   0.128   6.390   5.960
 2612SOL    HW2 8736   0.050   6.462   6.084
 2613SOL     OW 8737   2.930   6.304   1.356
 2613SOL    HW1 8738   2.964   6.214   1.385
 2613SOL    HW2 8739   2.996   6.374   1.383
 2614SOL     OW 8740   6.556   6.893   6.223
 2614SOL    HW1 8741   6.456   6.896   6.231
 2614SOL    HW2 8742   6.586   6.965   6.161
 2615SOL     OW 8743   5.629   4.720   2.728
 2615SOL    HW1 8744   5.645   4.748   2.633
 2615SOL    HW2 8745   5.634   4.620   2.734
 2616SOL     OW 8746   3.659   3.271   3.867
 2616SOL    HW1 8747   3.649   3.245   3.963
 2616SOL    HW2 8748   3.568   3.281   3.826
 2617SOL     OW 8749   3.612   6.421   1.444
 2617SOL    HW1 8750   3.701   6.437   1.403
 2617SOL    HW2 8751   3.604   6.324   1.469
 2618SOL     OW 8752   0.512   6.231   3.544
 2618SOL    HW1 8753   0.486   6.280   3.461
 2618SOL    HW2 8754   0.486   6.285   3.624
 2619SOL     OW 8755   2.732   1.603   3.860
 2619SOL    HW1 8756   2.700   1.593   3.765
 2619SOL    HW2 8757   2.830   1.624   3.859
 2620SOL     OW 8758   0.778   5.547   3.388
 2620SOL    HW1 8759   0.802   5.527   3.483
 2620SOL    HW2 8760   0.711   5.480   3.356
 2621SOL     OW 8761   2.184   6.303   2.994
 2621SOL    HW1 8762   2.085   6.296   3.005
 2621SOL    HW2 8763   2.225   6.333   3.080
 2622SOL     OW 8764   2.657   1.888   6.874
 2622SOL    HW1 8765   2.597   1.957   6.914
 2622SOL    HW2 8766   2.641   1.800   6.918
 2623SOL     OW 8767   3.254   1.663   4.810
 2623SOL    HW1 8768   3.278   1.725   4.885
 2623SOL    HW2 8769   3.237   1.717   4.727
 2624SOL     OW 8770   6.551   3.362   4.757
 2624SOL    HW1 8771   6.547   3.265   4.779
 2624SOL    HW2 8772   6.481   3.384   4.689
 2625SOL     OW 8773   2.546   2.788   6.003
 2625SOL    HW1 8774   2.604   2.803   6.083
 2625SOL    HW2 8775   2.594   2.816   5.920
 2626SOL     OW 8776   0.711   0.340   4.338
 2626SOL    HW1 8777   0.720   0.293   4.250
 2626SOL    HW2 8778   0.668   0.429   4.325
 2627SOL     OW 8779   0.312   0.599   4.664
 2627SOL    HW1 8780   0.322   0.601   4.564
 2627SOL    HW2 8781   0.394   0.559   4.705
 2628SOL     OW 8782   2.868   5.480   6.805
 2628SOL    HW1 8783   2.961   5.463   6.836
 2628SOL    HW2 8784   2.855   5.578   6.790
 2629SOL     OW 8785   3.111   4.059   2.092
 2629SOL    HW1 8786   3.175   4.024   2.159
 2629SOL    HW2 8787   3.077   4.148   2.122
 2630SOL     OW 8788   3.219   1.685   3.485
 2630SOL    HW1 8789   3.245   1.646   3.573
 2630SOL    HW2 8790   3.140   1.636   3.448
 2631SOL     OW 8791   5.059   0.705   4.241
 2631SOL    HW1 8792   5.066   0.791   4.190
 2631SOL    HW2 8793   5.086   0.721   4.336
 2632SOL     OW 8794   2.754   2.021   6.335
 2632SOL    HW1 8795   2.803   2.014   6.248
 2632SOL    HW2 8796   2.789   1.953   6.399
 2633SOL     OW 8797   6.034   2.074   5.983
 2633SOL    HW1 8798   6.015   2.147   6.049
 2633SOL    HW2 8799   6.113   2.100   5.927
 2634SOL     OW 8800   1.827   4.397   2.658
 2634SOL    HW1 8801   1.748   4.341   2.682
 2634SOL    HW2 8802   1.846   4.388   2.560
 2635SOL     OW 8803   5.598   6.237   4.561
 2635SOL    HW1 8804   5.611   6.316   4.620
 2635SOL    HW2 8805   5.669   6.236   4.490
 2636SOL     OW 8806   4.826   0.647   5.595
 2636SOL    HW1 8807   4.846   0.631   5.498
 2636SOL    HW2 8808   4.727   0.641   5.609
 2637SOL     OW 8809   6.572   1.222   3.953
 2637SOL    HW1 8810   6.473   1.221   3.949
 2637SOL    HW2 8811   6.609   1.190   3.865
 2638SOL     OW 8812   0.191   6.999   3.079
 2638SOL    HW1 8813   0.174   0.039   3.158
 2638SOL    HW2 8814   0.281   0.002   3.041
 2639SOL     OW 8815   0.922   6.910   2.140
 2639SOL    HW1 8816   0.859   6.868   2.205
 2639SOL    HW2 8817   0.943   7.003   2.168
 2640SOL     OW 8818   6.888   6.087   5.143
 2640SOL    HW1 8819   6.893   6.010   5.079
 2640SOL    HW2 8820   6.792   6.110   5.160
 2641SOL     OW 8821   5.160   2.661   1.938
 2641SOL    HW1 8822   5.173   2.603   1.857
 2641SOL    HW2 8823   5.063   2.669   1.959
 2642SOL     OW 8824   5.073   6.917   4.246
 2642SOL    HW1 8825   5.165   6.957   4.240
 2642SOL    HW2 8826   5.043   6.918   4.342
 2643SOL     OW 8827   1.700   4.587   3.219
 2643SOL    HW1 8828   1.739   4.580   3.127
 2643SOL    HW2 8829   1.601   4.597   3.213
 2644SOL     OW 8830   6.616   4.952   5.914
 2644SOL    HW1 8831   6.695   5.012   5.922
 2644SOL    HW2 8832   6.532   5.005   5.919
 2645SOL     OW 8833   4.291   5.831   4.321
 2645SOL    HW1 8834   4.350   5.808   4.398
 2645SOL    HW2 8835   4.243   5.749   4.290
 2646SOL     OW 8836   5.644   6.969   6.782
 2646SOL    HW1 8837   5.738   6.938   6.789
 2646SOL    HW2 8838   5.600   6.926   6.703
 2647SOL     OW 8839   5.969   0.252   1.730
 2647SOL    HW1 8840   5.976   0.328   1.794
 2647SOL    HW2 8841   5.873   0.238   1.705
 2648SOL     OW 8842   0.263   0.620   3.425
 2648SOL    HW1 8843   0.360   0.612   3.403
 2648SOL    HW2 8844   0.217   0.534   3.404
 2649SOL     OW 8845   5.210   3.071   5.815
 2649SOL    HW1 8846   5.206   3.151   5.875
 2649SOL    HW2 8847   5.126   3.017   5.826
 2650SOL     OW 8848   1.024   3.672   4.598
 2650SOL    HW1 8849   0.974   3.628   4.523
 2650SOL    HW2 8850   1.106   3.619   4.619
 2651SOL     OW 8851   0.219   1.992   0.024
 2651SOL    HW1 8852   0.234   1.975   0.122
 2651SOL    HW2 8853   0.287   2.059   7.011
 2652SOL     OW 8854   2.928   3.514   3.868
 2652SOL    HW1 8855   2.891   3.489   3.958
 2652SOL    HW2 8856   2.916   3.613   3.854
 2653SOL     OW 8857   4.897   6.793   5.396
 2653SOL    HW1 8858   4.988   6.771   5.432
 2653SOL    HW2 8859   4.849   6.708   5.374
 2654SOL     OW 8860   4.410   4.155   1.146
 2654SOL    HW1 8861   4.412   4.254   1.134
 2654SOL    HW2 8862   4.336   4.131   1.209
 2655SOL     OW 8863   5.478   4.870   4.626
 2655SOL    HW1 8864   5.410   4.799   4.644
 2655SOL    HW2 8865   5.467   4.945   4.691
 2656SOL     OW 8866   4.011   4.890   4.380
 2656SOL    HW1 8867   3.914   4.877   4.401
 2656SOL    HW2 8868   4.020   4.958   4.307
 2657SOL     OW 8869   2.596   4.331   6.489
 2657SOL    HW1 8870   2.556   4.241   6.501
 2657SOL    HW2 8871   2.533   4.390   6.439
 2658SOL     OW 8872   4.995   3.844   0.559
 2658SOL    HW1 8873   5.028   3.827   0.466
 2658SOL    HW2 8874   4.905   3.889   0.555
 2659SOL     OW 8875   6.103   2.553   4.716
 2659SOL    HW1 8876   6.168   2.597   4.653
 2659SOL    HW2 8877   6.110   2.454   4.707
 2660SOL     OW 8878   0.725   1.338   0.990
 2660SOL    HW1 8879   0.659   1.327   0.915
 2660SOL    HW2 8880   0.800   1.273   0.979
 2661SOL     OW 8881   2.310   6.517   1.288
 2661SOL    HW1 8882   2.376   6.538   1.359
 2661SOL    HW2 8883   2.219   6.545   1.318
 2662SOL     OW 8884   4.308   0.606   5.519
 2662SOL    HW1 8885   4.270   0.515   5.509
 2662SOL    HW2 8886   4.278   0.665   5.444
 2663SOL     OW 8887   2.926   3.598   1.388
 2663SOL    HW1 8888   3.026   3.608   1.382
 2663SOL    HW2 8889   2.901   3.580   1.483
 2664SOL     OW 8890   3.533   3.856   4.784
 2664SOL    HW1 8891   3.578   3.784   4.731
 2664SOL    HW2 8892   3.520   3.937   4.726
 2665SOL     OW 8893   2.785   2.490   5.240
 2665SOL    HW1 8894   2.723   2.446   5.305
 2665SOL    HW2 8895   2.878   2.486   5.275
 2666SOL     OW 8896   5.204   3.714   1.910
 2666SOL    HW1 8897   5.141   3.642   1.939
 2666SOL    HW2 8898   5.264   3.679   1.839
 2667SOL     OW 8899   1.519   6.105   4.293
 2667SOL    HW1 8900   1.608   6.074   4.260
 2667SOL    HW2 8901   1.503   6.068   4.385
 2668SOL     OW 8902   6.168   3.180   3.553
 2668SOL    HW1 8903   6.080   3.164   3.509
 2668SOL    HW2 8904   6.153   3.228   3.640
 2669SOL     OW 8905   3.273   4.816   5.230
 2669SOL    HW1 8906   3.271   4.858   5.321
 2669SOL    HW2 8907   3.240   4.722   5.235
 2670SOL     OW 8908   5.503   1.661   6.437
 2670SOL    HW1 8909   5.559   1.713   6.500
 2670SOL    HW2 8910   5.459   1.723   6.371
 2671SOL     OW 8911   3.592   5.145   6.873
 2671SOL    HW1 8912   3.623   5.227   6.923
 2671SOL    HW2 8913   3.577   5.070   6.937
 2672SOL     OW 8914   6.691   5.422   6.936
 2672SOL    HW1 8915   6.755   5.427   7.013
 2672SOL    HW2 8916   6.628   5.500   6.941
 2673SOL     OW 8917   6.324   1.812   3.421
 2673SOL    HW1 8918   6.244   1.863   3.454
 2673SOL    HW2 8919   6.321   1.806   3.321
 2674SOL     OW 8920   1.785   4.078   3.932
 2674SOL    HW1 8921   1.826   4.084   3.841
 2674SOL    HW2 8922   1.773   4.171   3.969
 2675SOL     OW 8923   6.458   4.906   4.765
 2675SOL    HW1 8924   6.502   4.822   4.796
 2675SOL    HW2 8925   6.506   4.942   4.685
 2676SOL     OW 8926   4.666   1.169   1.669
 2676SOL    HW1 8927   4.733   1.191   1.741
 2676SOL    HW2 8928   4.594   1.111   1.707
 2677SOL     OW 8929   3.251   4.385   0.034
 2677SOL    HW1 8930   3.207   4.471   0.061
 2677SOL    HW2 8931   3.203   4.345   6.975
 2678SOL     OW 8932   0.002   4.777   1.409
 2678SOL    HW1 8933   0.067   4.743   1.340
 2678SOL    HW2 8934   7.005   4.706   1.477
 2679SOL     OW 8935   3.572   5.173   0.690
 2679SOL    HW1 8936   3.615   5.132   0.771
 2679SOL    HW2 8937   3.638   5.174   0.615
 2680SOL     OW 8938   0.988   1.771   1.347
 2680SOL    HW1 8939   1.041   1.733   1.271
 2680SOL    HW2 8940   0.907   1.715   1.363
 2681SOL     OW 8941   1.545   2.266   4.056
 2681SOL    HW1 8942   1.583   2.197   4.118
 2681SOL    HW2 8943   1.505   2.340   4.110
 2682SOL     OW 8944   5.332   3.640   2.805
 2682SOL    HW1 8945   5.317   3.706   2.732
 2682SOL    HW2 8946   5.284   3.670   2.887
 2683SOL     OW 8947   1.432   4.162   0.109
 2683SOL    HW1 8948   1.463   4.089   0.050
 2683SOL    HW2 8949   1.359   4.128   0.169
 2684SOL     OW 8950   4.675   5.499   1.892
 2684SOL    HW1 8951   4.738   5.467   1.963
 2684SOL    HW2 8952   4.657   5.596   1.906
 2685SOL     OW 8953   6.111   6.008   6.256
 2685SOL    HW1 8954   6.115   6.020   6.157
 2685SOL    HW2 8955   6.090   5.913   6.277
 2686SOL     OW 8956   1.634   1.515   5.715
 2686SOL    HW1 8957   1.550   1.495   5.665
 2686SOL    HW2 8958   1.612   1.529   5.812
 2687SOL     OW 8959   4.628   4.282   2.937
 2687SOL    HW1 8960   4.667   4.217   2.872
 2687SOL    HW2 8961   4.611   4.369   2.891
 2688SOL     OW 8962   4.616   5.893   0.096
 2688SOL    HW1 8963   4.576   5.889   0.004
 2688SOL    HW2 8964   4.708   5.931   0.090
 2689SOL     OW 8965   2.331   2.286   3.540
 2689SOL    HW1 8966   2.403   2.216   3.533
 2689SOL    HW2 8967   2.285   2.278   3.628
 2690SOL     OW 8968   3.248   3.655   4.304
 2690SOL    HW1 8969   3.290   3.728   4.358
 2690SOL    HW2 8970   3.152   3.646   4.329
 2691SOL     OW 8971   1.151   5.819   2.252
 2691SOL    HW1 8972   1.122   5.727   2.228
 2691SOL    HW2 8973   1.115   5.884   2.185
 2692SOL     OW 8974   4.241   4.682   3.786
 2692SOL    HW1 8975   4.243   4.771   3.831
 2692SOL    HW2 8976   4.323   4.630   3.810
 2693SOL     OW 8977   1.962   4.140   3.040
 2693SOL    HW1 8978   1.981   4.042   3.046
 2693SOL    HW2 8979   1.907   4.168   3.119
 2694SOL     OW 8980   4.184   6.806   2.796
 2694SOL    HW1 8981   4.128   6.773   2.719
 2694SOL    HW2 8982   4.249   6.874   2.763
 2695SOL     OW 8983   5.615   0.855   2.585
 2695SOL    HW1 8984   5.589   0.768   2.625
 2695SOL    HW2 8985   5.594   0.855   2.487
 2696SOL     OW 8986   3.951   3.640   5.182
 2696SOL    HW1 8987   3.887   3.615   5.109
 2696SOL    HW2 8988   4.033   3.679   5.141
 2697SOL     OW 8989   4.087   1.181   3.293
 2697SOL    HW1 8990   4.018   1.252   3.279
 2697SOL    HW2 8991   4.065   1.129   3.376
 2698SOL     OW 8992   2.091   5.564   0.468
 2698SOL    HW1 8993   2.079   5.468   0.442
 2698SOL    HW2 8994   2.030   5.621   0.414
 2699SOL     OW 8995   3.492   5.918   0.316
 2699SOL    HW1 8996   3.412   5.865   0.347
 2699SOL    HW2 8997   3.575   5.877   0.354
 2700SOL     OW 8998   2.066   4.039   1.446
 2700SOL    HW1 8999   2.034   4.021   1.352
 2700SOL    HW2 9000   2.008   4.109   1.488
 2701SOL     OW 9001   3.110   0.420   6.680
 2701SOL    HW1 9002   3.135   0.350   6.747
 2701SOL    HW2 9003   3.032   0.388   6.626
 2702SOL     OW 9004   0.492   2.792   2.652
 2702SOL    HW1 9005   0.509   2.699   2.620
 2702SOL    HW2 9006   0.537   2.858   2.591
 2703SOL     OW 9007   2.345   0.402   2.406
 2703SOL    HW1 9008   2.380   0.411   2.313
 2703SOL    HW2 9009   2.247   0.382   2.403
 2704SOL     OW 9010   0.489   6.131   1.079
 2704SOL    HW1 9011   0.404   6.164   1.039
 2704SOL    HW2 9012   0.490   6.150   1.177
 2705SOL     OW 9013   1.486   5.608   4.742
 2705SOL    HW1 9014   1.495   5.701   4.776
 2705SOL    HW2 9015   1.535   5.600   4.655
 2706SOL     OW 9016   0.212   0.715   0.967
 2706SOL    HW1 9017   0.137   0.654   0.992
 2706SOL    HW2 9018   0.178   0.788   0.908
 2707SOL     OW 9019   2.256   1.050   5.156
 2707SOL    HW1 9020   2.300   1.124   5.206
 2707SOL    HW2 9021   2.287   0.962   5.192
 2708SOL     OW 9022   1.200   1.868   1.097
 2708SOL    HW1 9023   1.120   1.909   1.052
 2708SOL    HW2 9024   1.252   1.940   1.143
 2709SOL     OW 9025   5.628   6.543   0.190
 2709SOL    HW1 9026   5.705   6.606   0.192
 2709SOL    HW2 9027   5.646   6.467   0.253
 2710SOL     OW 9028   0.754   3.518   2.496
 2710SOL    HW1 9029   0.727   3.611   2.471
 2710SOL    HW2 9030   0.682   3.476   2.551
 2711SOL     OW 9031   2.497   1.208   3.172
 2711SOL    HW1 9032   2.537   1.120   3.195
 2711SOL    HW2 9033   2.538   1.241   3.086
 2712SOL     OW 9034   3.284   4.843   1.042
 2712SOL    HW1 9035   3.251   4.803   0.957
 2712SOL    HW2 9036   3.297   4.770   1.110
 2713SOL     OW 9037   2.022   2.331   5.134
 2713SOL    HW1 9038   2.019   2.330   5.034
 2713SOL    HW2 9039   2.047   2.423   5.165
 2714SOL     OW 9040   4.731   2.053   6.940
 2714SOL    HW1 9041   4.656   2.120   6.939
 2714SOL    HW2 9042   4.817   2.099   6.917
 2715SOL     OW 9043   5.544   0.554   0.179
 2715SOL    HW1 9044   5.597   0.472   0.158
 2715SOL    HW2 9045   5.597   0.613   0.241
 2716SOL     OW 9046   5.362   5.074   2.776
 2716SOL    HW1 9047   5.420   5.075   2.694
 2716SOL    HW2 9048   5.380   4.991   2.829
 2717SOL     OW 9049   1.920   4.989   2.174
 2717SOL    HW1 9050   1.929   4.964   2.078
 2717SOL    HW2 9051   1.982   5.065   2.195
 2718SOL     OW 9052   1.705   3.528   5.175
 2718SOL    HW1 9053   1.726   3.513   5.272
 2718SOL    HW2 9054   1.773   3.589   5.136
 2719SOL     OW 9055   6.031   5.622   1.391
 2719SOL    HW1 9056   6.046   5.554   1.463
 2719SOL    HW2 9057   6.056   5.713   1.425
 2720SOL     OW 9058   1.878   6.168   2.738
 2720SOL    HW1 9059   1.850   6.145   2.831
 2720SOL    HW2 9060   1.868   6.267   2.724
 2721SOL     OW 9061   3.272   0.739   3.896
 2721SOL    HW1 9062   3.214   0.719   3.816
 2721SOL    HW2 9063   3.321   0.825   3.880
 2722SOL     OW 9064   6.609   5.592   2.036
 2722SOL    HW1 9065   6.697   5.638   2.028
 2722SOL    HW2 9066   6.594   5.563   2.130
 2723SOL     OW 9067   1.323   6.580   5.902
 2723SOL    HW1 9068   1.287   6.491   5.875
 2723SOL    HW2 9069   1.354   6.576   5.997
 2724SOL     OW 9070   2.482   0.018   6.237
 2724SOL    HW1 9071   2.409   6.968   6.233
 2724SOL    HW2 9072   2.519   0.032   6.145
 2725SOL     OW 9073   6.090   4.730   3.999
 2725SOL    HW1 9074   6.045   4.642   3.984
 2725SOL    HW2 9075   6.140   4.757   3.916
 2726SOL     OW 9076   7.003   4.271   1.032
 2726SOL    HW1 9077   0.035   4.269   0.945
 2726SOL    HW2 9078   0.049   4.267   1.108
 2727SOL     OW 9079   0.499   4.777   3.211
 2727SOL    HW1 9080   0.495   4.830   3.126
 2727SOL    HW2 9081   0.485   4.680   3.190
 2728SOL     OW 9082   3.520   0.039   5.804
 2728SOL    HW1 9083   3.552   6.980   5.751
 2728SOL    HW2 9084   3.484   0.008   5.892
 2729SOL     OW 9085   6.131   5.807   1.034
 2729SOL    HW1 9086   6.164   5.759   1.114
 2729SOL    HW2 9087   6.202   5.808   0.964
 2730SOL     OW 9088   1.467   5.455   1.818
 2730SOL    HW1 9089   1.383   5.454   1.766
 2730SOL    HW2 9090   1.459   5.522   1.893
 2731SOL     OW 9091   3.937   3.497   1.816
 2731SOL    HW1 9092   3.928   3.596   1.804
 2731SOL    HW2 9093   4.032   3.474   1.834
 2732SOL     OW 9094   5.524   3.203   1.996
 2732SOL    HW1 9095   5.449   3.142   2.024
 2732SOL    HW2 9096   5.498   3.298   2.014
 2733SOL     OW 9097   0.537   0.230   4.826
 2733SOL    HW1 9098   0.562   0.140   4.861
 2733SOL    HW2 9099   0.479   0.219   4.745
 2734SOL     OW 9100   2.270   5.787   2.193
 2734SOL    HW1 9101   2.225   5.848   2.128
 2734SOL    HW2 9102   2.364   5.768   2.162
 2735SOL     OW 9103   0.849   3.688   2.782
 2735SOL    HW1 9104   0.802   3.650   2.862
 2735SOL    HW2 9105   0.946   3.700   2.804
 2736SOL     OW 9106   4.472   0.060   4.450
 2736SOL    HW1 9107   4.491   0.154   4.420
 2736SOL    HW2 9108   4.486   0.053   4.549
 2737SOL     OW 9109   3.749   3.698   5.382
 2737SOL    HW1 9110   3.824   3.689   5.316
 2737SOL    HW2 9111   3.712   3.607   5.403
 2738SOL     OW 9112   5.705   4.871   3.973
 2738SOL    HW1 9113   5.793   4.919   3.968
 2738SOL    HW2 9114   5.661   4.892   4.060
 2739SOL     OW 9115   6.609   5.103   0.214
 2739SOL    HW1 9116   6.614   5.111   0.115
 2739SOL    HW2 9117   6.585   5.192   0.253
 2740SOL     OW 9118   6.121   3.743   2.087
 2740SOL    HW1 9119   6.062   3.780   2.016
 2740SOL    HW2 9120   6.217   3.748   2.057
 2741SOL     OW 9121   6.919   0.859   5.259
 2741SOL    HW1 9122   6.858   0.896   5.189
 2741SOL    HW2 9123   7.008   0.837   5.217
 2742SOL     OW 9124   1.746   4.465   6.768
 2742SOL    HW1 9125   1.755   4.551   6.716
 2742SOL    HW2 9126   1.684   4.404   6.720
 2743SOL     OW 9127   6.243   5.309   2.083
 2743SOL    HW1 9128   6.239   5.211   2.063
 2743SOL    HW2 9129   6.309   5.325   2.158
 2744SOL     OW 9130   4.791   1.863   0.122
 2744SOL    HW1 9131   4.737   1.779   0.112
 2744SOL    HW2 9132   4.779   1.919   0.040
 2745SOL     OW 9133   0.846   6.459   6.687
 2745SOL    HW1 9134   0.876   6.452   6.592
 2745SOL    HW2 9135   0.833   6.368   6.725
 2746SOL     OW 9136   2.701   1.996   3.719
 2746SOL    HW1 9137   2.643   2.062   3.768
 2746SOL    HW2 9138   2.774   1.964   3.780
 2747SOL     OW 9139   5.335   3.493   5.823
 2747SOL    HW1 9140   5.367   3.578   5.863
 2747SOL    HW2 9141   5.334   3.502   5.723
 2748SOL     OW 9142   3.810   1.950   0.977
 2748SOL    HW1 9143   3.737   1.941   0.909
 2748SOL    HW2 9144   3.891   1.900   0.946
 2749SOL     OW 9145   5.936   4.517   3.936
 2749SOL    HW1 9146   5.876   4.491   4.012
 2749SOL    HW2 9147   5.890   4.500   3.849
 2750SOL     OW 9148   0.691   5.387   1.488
 2750SOL    HW1 9149   0.666   5.450   1.414
 2750SOL    HW2 9150   0.659   5.424   1.575
 2751SOL     OW 9151   0.882   5.903   0.476
 2751SOL    HW1 9152   0.785   5.927   0.467
 2751SOL    HW2 9153   0.916   5.871   0.388
 2752SOL     OW 9154   4.973   4.647   5.276
 2752SOL    HW1 9155   4.904   4.624   5.345
 2752SOL    HW2 9156   4.944   4.613   5.186
 2753SOL     OW 9157   1.355   0.186   6.335
 2753SOL    HW1 9158   1.276   0.135   6.371
 2753SOL    HW2 9159   1.399   0.133   6.262
 2754SOL     OW 9160   6.762   0.837   4.073
 2754SOL    HW1 9161   6.810   0.923   4.092
 2754SOL    HW2 9162   6.677   0.857   4.024
 2755SOL     OW 9163   3.105   6.778   3.420
 2755SOL    HW1 9164   3.087   6.822   3.508
 2755SOL    HW2 9165   3.056   6.691   3.415
 2756SOL     OW 9166   6.457   3.830   5.275
 2756SOL    HW1 9167   6.524   3.756   5.270
 2756SOL    HW2 9168   6.374   3.797   5.319
 2757SOL     OW 9169   2.012   1.295   6.287
 2757SOL    HW1 9170   2.038   1.372   6.229
 2757SOL    HW2 9171   1.991   1.216   6.229
 2758SOL     OW 9172   5.036   6.108   3.736
 2758SOL    HW1 9173   5.095   6.118   3.816
 2758SOL    HW2 9174   4.967   6.039   3.755
 2759SOL     OW 9175   4.440   5.474   5.536
 2759SOL    HW1 9176   4.424   5.553   5.596
 2759SOL    HW2 9177   4.368   5.470   5.467
 2760SOL     OW 9178   6.709   5.175   2.894
 2760SOL    HW1 9179   6.628   5.127   2.862
 2760SOL    HW2 9180   6.688   5.271   2.911
 2761SOL     OW 9181   1.940   4.116   4.514
 2761SOL    HW1 9182   2.026   4.165   4.509
 2761SOL    HW2 9183   1.896   4.117   4.424
 2762SOL     OW 9184   1.766   1.888   6.693
 2762SOL    HW1 9185   1.777   1.979   6.732
 2762SOL    HW2 9186   1.711   1.893   6.610
 2763SOL     OW 9187   4.740   2.332   5.346
 2763SOL    HW1 9188   4.814   2.366   5.287
 2763SOL    HW2 9189   4.677   2.407   5.365
 2764SOL     OW 9190   0.126   5.968   2.310
 2764SOL    HW1 9191   0.125   6.066   2.328
 2764SOL    HW2 9192   0.214   5.942   2.270
 2765SOL     OW 9193   6.811   0.254   0.738
 2765SOL    HW1 9194   6.771   0.234   0.649
 2765SOL    HW2 9195   6.909   0.237   0.735
 2766SOL     OW 9196   3.815   2.045   6.441
 2766SOL    HW1 9197   3.790   1.966   6.496
 2766SOL    HW2 9198   3.841   2.121   6.502
 2767SOL     OW 9199   6.227   5.460   6.174
 2767SOL    HW1 9200   6.228   5.382   6.111
 2767SOL    HW2 9201   6.137   5.466   6.217
 2768SOL     OW 9202   4.475   0.869   0.479
 2768SOL    HW1 9203   4.454   0.897   0.385
 2768SOL    HW2 9204   4.444   0.940   0.543
 2769SOL     OW 9205   2.468   4.510   6.326
 2769SOL    HW1 9206   2.412   4.484   6.247
 2769SOL    HW2 9207   2.468   4.609   6.335
 2770SOL     OW 9208   4.059   5.339   5.537
 2770SOL    HW1 9209   4.118   5.263   5.510
 2770SOL    HW2 9210   4.116   5.417   5.564
 2771SOL     OW 9211   5.838   0.606   4.855
 2771SOL    HW1 9212   5.821   0.688   4.910
 2771SOL    HW2 9213   5.916   0.623   4.794
 2772SOL     OW 9214   3.166   1.196   1.046
 2772SOL    HW1 9215   3.134   1.173   1.138
 2772SOL    HW2 9216   3.159   1.295   1.032
 2773SOL     OW 9217   6.808   2.736   4.196
 2773SOL    HW1 9218   6.844   2.811   4.251
 2773SOL    HW2 9219   6.869   2.657   4.205
 2774SOL     OW 9220   4.940   2.983   2.918
 2774SOL    HW1 9221   4.895   2.906   2.874
 2774SOL    HW2 9222   4.945   3.060   2.853
 2775SOL     OW 9223   6.293   3.195   4.248
 2775SOL    HW1 9224   6.287   3.221   4.345
 2775SOL    HW2 9225   6.380   3.150   4.231
 2776SOL     OW 9226   5.361   4.424   5.620
 2776SOL    HW1 9227   5.288   4.360   5.595
 2776SOL    HW2 9228   5.425   4.432   5.543
 2777SOL     OW 9229   2.496   1.903   0.706
 2777SOL    HW1 9230   2.569   1.889   0.773
 2777SOL    HW2 9231   2.407   1.891   0.750
 2778SOL     OW 9232   1.503   6.171   6.763
 2778SOL    HW1 9233   1.477   6.253   6.713
 2778SOL    HW2 9234   1.527   6.098   6.699
 2779SOL     OW 9235   5.435   6.646   1.750
 2779SOL    HW1 9236   5.460   6.556   1.713
 2779SOL    HW2 9237   5.505   6.676   1.814
 2780SOL     OW 9238   7.013   0.162   5.703
 2780SOL    HW1 9239   6.917   0.162   5.730
 2780SOL    HW2 9240   0.008   0.096   5.630
 2781SOL     OW 9241   6.262   0.560   3.317
 2781SOL    HW1 9242   6.206   0.487   3.355
 2781SOL    HW2 9243   6.207   0.642   3.305
 2782SOL     OW 9244   4.586   1.213   4.567
 2782SOL    HW1 9245   4.496   1.193   4.607
 2782SOL    HW2 9246   4.608   1.143   4.499
 2783SOL     OW 9247   6.730   3.966   1.548
 2783SOL    HW1 9248   6.653   3.927   1.498
 2783SOL    HW2 9249   6.804   3.987   1.484
 2784SOL     OW 9250   3.396   1.042   2.050
 2784SOL    HW1 9251   3.355   1.131   2.033
 2784SOL    HW2 9252   3.468   1.052   2.119
 2785SOL     OW 9253   5.227   2.394   0.333
 2785SOL    HW1 9254   5.215   2.457   0.257
 2785SOL    HW2 9255   5.280   2.438   0.406
 2786SOL     OW 9256   6.580   6.677   1.450
 2786SOL    HW1 9257   6.591   6.659   1.352
 2786SOL    HW2 9258   6.565   6.775   1.465
 2787SOL     OW 9259   6.218   6.438   5.457
 2787SOL    HW1 9260   6.210   6.348   5.416
 2787SOL    HW2 9261   6.156   6.502   5.412
 2788SOL     OW 9262   2.742   6.732   5.829
 2788SOL    HW1 9263   2.720   6.741   5.926
 2788SOL    HW2 9264   2.804   6.655   5.816
 2789SOL     OW 9265   2.044   1.609   3.440
 2789SOL    HW1 9266   2.054   1.531   3.377
 2789SOL    HW2 9267   2.022   1.691   3.387
 2790SOL     OW 9268   3.383   5.371   1.060
 2790SOL    HW1 9269   3.321   5.441   1.025
 2790SOL    HW2 9270   3.337   5.319   1.132
 2791SOL     OW 9271   1.099   4.261   2.350
 2791SOL    HW1 9272   1.058   4.173   2.325
 2791SOL    HW2 9273   1.051   4.335   2.303
 2792SOL     OW 9274   3.138   1.067   4.272
 2792SOL    HW1 9275   3.103   1.110   4.189
 2792SOL    HW2 9276   3.205   0.997   4.248
 2793SOL     OW 9277   5.200   3.873   2.194
 2793SOL    HW1 9278   5.296   3.845   2.203
 2793SOL    HW2 9279   5.163   3.835   2.109
 2794SOL     OW 9280   6.595   2.355   6.071
 2794SOL    HW1 9281   6.596   2.306   5.983
 2794SOL    HW2 9282   6.501   2.359   6.105
 2795SOL     OW 9283   0.482   4.146   1.207
 2795SOL    HW1 9284   0.417   4.145   1.284
 2795SOL    HW2 9285   0.523   4.237   1.200
 2796SOL     OW 9286   0.216   5.501   3.725
 2796SOL    HW1 9287   0.244   5.406   3.712
 2796SOL    HW2 9288   0.270   5.543   3.797
 2797SOL     OW 9289   5.584   5.231   5.654
 2797SOL    HW1 9290   5.657   5.300   5.660
 2797SOL    HW2 9291   5.589   5.185   5.566
 2798SOL     OW 9292   5.809   5.566   2.624
 2798SOL    HW1 9293   5.764   5.640   2.674
 2798SOL    HW2 9294   5.870   5.517   2.685
 2799SOL     OW 9295   5.487   6.150   5.843
 2799SOL    HW1 9296   5.490   6.068   5.900
 2799SOL    HW2 9297   5.576   6.163   5.799
 2800SOL     OW 9298   5.540   0.006   5.781
 2800SOL    HW1 9299   5.592   0.088   5.755
 2800SOL    HW2 9300   5.509   0.016   5.876
 2801SOL     OW 9301   0.585   5.424   6.199
 2801SOL    HW1 9302   0.545   5.481   6.127
 2801SOL    HW2 9303   0.567   5.328   6.179
 2802SOL     OW 9304   6.612   6.263   5.394
 2802SOL    HW1 9305   6.698   6.248   5.441
 2802SOL    HW2 9306   6.540   6.279   5.461
 2803SOL     OW 9307   3.378   4.930   5.798
 2803SOL    HW1 9308   3.289   4.886   5.803
 2803SOL    HW2 9309   3.450   4.861   5.812
 2804SOL     OW 9310   0.268   3.822   4.330
 2804SOL    HW1 9311   0.270   3.921   4.317
 2804SOL    HW2 9312   0.182   3.795   4.373
 2805SOL     OW 9313   5.951   3.668   2.754
 2805SOL    HW1 9314   5.895   3.632   2.828
 2805SOL    HW2 9315   5.985   3.592   2.698
 2806SOL     OW 9316   1.890   4.112   6.055
 2806SOL    HW1 9317   1.948   4.189   6.029
 2806SOL    HW2 9318   1.919   4.076   6.144
 2807SOL     OW 9319   4.218   0.368   3.231
 2807SOL    HW1 9320   4.222   0.392   3.328
 2807SOL    HW2 9321   4.151   0.295   3.218
 2808SOL     OW 9322   6.337   5.530   0.676
 2808SOL    HW1 9323   6.365   5.475   0.597
 2808SOL    HW2 9324   6.276   5.477   0.735
 2809SOL     OW 9325   5.500   2.055   1.542
 2809SOL    HW1 9326   5.477   2.148   1.570
 2809SOL    HW2 9327   5.461   2.036   1.452
 2810SOL     OW 9328   2.454   5.553   3.054
 2810SOL    HW1 9329   2.516   5.631   3.049
 2810SOL    HW2 9330   2.424   5.528   2.962
 2811SOL     OW 9331   0.746   1.783   2.735
 2811SOL    HW1 9332   0.689   1.756   2.813
 2811SOL    HW2 9333   0.842   1.777   2.760
 2812SOL     OW 9334   5.892   3.592   0.634
 2812SOL    HW1 9335   5.930   3.546   0.554
 2812SOL    HW2 9336   5.936   3.680   0.647
 2813SOL     OW 9337   0.915   2.122   0.507
 2813SOL    HW1 9338   0.884   2.086   0.596
 2813SOL    HW2 9339   1.014   2.125   0.505
 2814SOL     OW 9340   3.405   4.162   5.488
 2814SOL    HW1 9341   3.410   4.239   5.424
 2814SOL    HW2 9342   3.329   4.177   5.551
 2815SOL     OW 9343   6.411   5.082   6.229
 2815SOL    HW1 9344   6.358   5.019   6.285
 2815SOL    HW2 9345   6.384   5.073   6.133
 2816SOL     OW 9346   6.363   6.212   4.559
 2816SOL    HW1 9347   6.446   6.193   4.612
 2816SOL    HW2 9348   6.283   6.209   4.619
 2817SOL     OW 9349   3.391   1.321   2.760
 2817SOL    HW1 9350   3.331   1.254   2.717
 2817SOL    HW2 9351   3.394   1.306   2.859
 2818SOL     OW 9352   6.637   1.351   2.448
 2818SOL    HW1 9353   6.638   1.444   2.411
 2818SOL    HW2 9354   6.685   1.348   2.536
 2819SOL     OW 9355   1.501   0.399   1.694
 2819SOL    HW1 9356   1.580   0.340   1.677
 2819SOL    HW2 9357   1.532   0.483   1.739
 2820SOL     OW 9358   0.987   2.224   2.244
 2820SOL    HW1 9359   1.019   2.129   2.240
 2820SOL    HW2 9360   1.024   2.276   2.168
 2821SOL     OW 9361   2.670   5.091   5.915
 2821SOL    HW1 9362   2.703   5.002   5.946
 2821SOL    HW2 9363   2.576   5.104   5.946
 2822SOL     OW 9364   4.171   2.103   0.000
 2822SOL    HW1 9365   4.264   2.086   6.987
 2822SOL    HW2 9366   4.165   2.082   0.098
 2823SOL     OW 9367   6.213   0.767   0.039
 2823SOL    HW1 9368   6.132   0.715   0.065
 2823SOL    HW2 9369   6.228   0.842   0.103
 2824SOL     OW 9370   1.642   2.408   5.567
 2824SOL    HW1 9371   1.627   2.470   5.490
 2824SOL    HW2 9372   1.558   2.359   5.587
 2825SOL     OW 9373   5.476   0.499   5.961
 2825SOL    HW1 9374   5.513   0.444   6.036
 2825SOL    HW2 9375   5.394   0.455   5.924
 2826SOL     OW 9376   2.825   3.478   6.448
 2826SOL    HW1 9377   2.793   3.393   6.407
 2826SOL    HW2 9378   2.749   3.521   6.498
 2827SOL     OW 9379   0.380   1.024   6.441
 2827SOL    HW1 9380   0.343   0.934   6.419
 2827SOL    HW2 9381   0.367   1.085   6.362
 2828SOL     OW 9382   2.409   3.780   0.734
 2828SOL    HW1 9383   2.508   3.772   0.746
 2828SOL    HW2 9384   2.379   3.715   0.663
 2829SOL     OW 9385   3.140   3.073   3.446
 2829SOL    HW1 9386   3.124   3.084   3.544
 2829SOL    HW2 9387   3.237   3.083   3.427
 2830SOL     OW 9388   3.371   4.352   5.294
 2830SOL    HW1 9389   3.283   4.331   5.251
 2830SOL    HW2 9390   3.372   4.447   5.324
 2831SOL     OW 9391   0.702   2.970   2.921
 2831SOL    HW1 9392   0.702   2.872   2.905
 2831SOL    HW2 9393   0.629   2.994   2.985
 2832SOL     OW 9394   1.090   2.936   1.929
 2832SOL    HW1 9395   1.187   2.956   1.914
 2832SOL    HW2 9396   1.053   3.001   1.995
 2833SOL     OW 9397   2.516   1.703   1.927
 2833SOL    HW1 9398   2.612   1.718   1.952
 2833SOL    HW2 9399   2.495   1.605   1.929
 2834SOL     OW 9400   4.407   6.204   4.517
 2834SOL    HW1 9401   4.432   6.218   4.613
 2834SOL    HW2 9402   4.486   6.166   4.468
 2835SOL     OW 9403   0.994   6.829   0.463
 2835SOL    HW1 9404   0.997   6.731   0.443
 2835SOL    HW2 9405   1.012   6.880   0.379
 2836SOL     OW 9406   1.675   6.278   1.642
 2836SOL    HW1 9407   1.731   6.196   1.639
 2836SOL    HW2 9408   1.705   6.336   1.718
 2837SOL     OW 9409   5.400   4.452   2.589
 2837SOL    HW1 9410   5.490   4.452   2.633
 2837SOL    HW2 9411   5.383   4.542   2.548
 2838SOL     OW 9412   4.948   3.541   0.629
 2838SOL    HW1 9413   5.019   3.477   0.659
 2838SOL    HW2 9414   4.991   3.627   0.601
 2839SOL     OW 9415   0.238   3.096   2.364
 2839SOL    HW1 9416   0.195   3.064   2.449
 2839SOL    HW2 9417   0.330   3.131   2.385
 2840SOL     OW 9418   1.881   5.614   2.681
 2840SOL    HW1 9419   1.978   5.600   2.662
 2840SOL    HW2 9420   1.869   5.700   2.731
 2841SOL     OW 9421   6.284   2.118   0.061
 2841SOL    HW1 9422   6.214   2.109   7.009
 2841SOL    HW2 9423   6.272   2.046   0.129
 2842SOL     OW 9424   0.802   5.989   4.736
 2842SOL    HW1 9425   0.748   5.925   4.681
 2842SOL    HW2 9426   0.819   5.948   4.826
 2843SOL     OW 9427   2.438   1.513   2.265
 2843SOL    HW1 9428   2.397   1.592   2.218
 2843SOL    HW2 9429   2.498   1.545   2.338
 2844SOL     OW 9430   5.793   5.294   1.181
 2844SOL    HW1 9431   5.788   5.195   1.198
 2844SOL    HW2 9432   5.781   5.311   1.083
 2845SOL     OW 9433   5.196   3.061   2.610
 2845SOL    HW1 9434   5.127   3.101   2.549
 2845SOL    HW2 9435   5.268   3.018   2.556
 2846SOL     OW 9436   3.100   0.455   0.523
 2846SOL    HW1 9437   3.022   0.444   0.584
 2846SOL    HW2 9438   3.110   0.374   0.465
 2847SOL     OW 9439   4.897   3.968   2.537
 2847SOL    HW1 9440   4.825   4.022   2.494
 2847SOL    HW2 9441   4.898   3.986   2.635
 2848SOL     OW 9442   2.728   2.558   5.693
 2848SOL    HW1 9443   2.687   2.606   5.615
 2848SOL    HW2 9444   2.656   2.516   5.747
 2849SOL     OW 9445   3.689   1.106   1.507
 2849SOL    HW1 9446   3.622   1.084   1.436
 2849SOL    HW2 9447   3.653   1.179   1.565
 2850SOL     OW 9448   2.358   6.878   3.294
 2850SOL    HW1 9449   2.373   6.783   3.323
 2850SOL    HW2 9450   2.409   6.895   3.210
 2851SOL     OW 9451   4.508   3.183   6.590
 2851SOL    HW1 9452   4.479   3.266   6.638
 2851SOL    HW2 9453   4.509   3.106   6.654
 2852SOL     OW 9454   6.121   4.101   0.390
 2852SOL    HW1 9455   6.146   4.161   0.467
 2852SOL    HW2 9456   6.203   4.079   0.338
 2853SOL     OW 9457   0.943   3.410   0.094
 2853SOL    HW1 9458   0.854   3.446   0.120
 2853SOL    HW2 9459   0.934   3.358   0.009
 2854SOL     OW 9460   3.460   0.826   6.156
 2854SOL    HW1 9461   3.393   0.763   6.117
 2854SOL    HW2 9462   3.540   0.775   6.187
 2855SOL     OW 9463   0.945   2.631   4.795
 2855SOL    HW1 9464   1.019   2.675   4.744
 2855SOL    HW2 9465   0.926   2.542   4.754
 2856SOL     OW 9466   1.426   2.995   4.152
 2856SOL    HW1 9467   1.470   2.941   4.080
 2856SOL    HW2 9468   1.426   2.942   4.237
 2857SOL     OW 9469   0.203   3.009   0.726
 2857SOL    HW1 9470   0.199   2.933   0.661
 2857SOL    HW2 9471   0.293   3.011   0.769
 2858SOL     OW 9472   5.075   6.338   2.242
 2858SOL    HW1 9473   5.151   6.295   2.290
 2858SOL    HW2 9474   5.000   6.353   2.307
 2859SOL     OW 9475   5.993   6.561   0.364
 2859SOL    HW1 9476   5.933   6.593   0.291
 2859SOL    HW2 9477   6.078   6.614   0.363
 2860SOL     OW 9478   1.917   6.826   2.364
 2860SOL    HW1 9479   1.912   6.919   2.401
 2860SOL    HW2 9480   1.937   6.830   2.266
 2861SOL     OW 9481   3.254   5.868   5.178
 2861SOL    HW1 9482   3.256   5.792   5.243
 2861SOL    HW2 9483   3.167   5.866   5.128
 2862SOL     OW 9484   4.360   2.333   1.934
 2862SOL    HW1 9485   4.409   2.388   2.003
 2862SOL    HW2 9486   4.409   2.339   1.847
 2863SOL     OW 9487   4.916   1.448   6.689
 2863SOL    HW1 9488   4.983   1.522   6.683
 2863SOL    HW2 9489   4.938   1.378   6.622
 2864SOL     OW 9490   4.812   2.711   0.927
 2864SOL    HW1 9491   4.854   2.796   0.960
 2864SOL    HW2 9492   4.766   2.665   1.002
 2865SOL     OW 9493   4.391   6.735   3.951
 2865SOL    HW1 9494   4.331   6.669   3.997
 2865SOL    HW2 9495   4.417   6.807   4.016
 2866SOL     OW 9496   5.741   3.640   0.062
 2866SOL    HW1 9497   5.785   3.569   0.007
 2866SOL    HW2 9498   5.642   3.632   0.053
 2867SOL     OW 9499   6.096   6.188   2.323
 2867SOL    HW1 9500   6.145   6.106   2.352
 2867SOL    HW2 9501   5.998   6.175   2.338
 2868SOL     OW 9502   1.481   1.316   5.452
 2868SOL    HW1 9503   1.414   1.250   5.417
 2868SOL    HW2 9504   1.488   1.393   5.388
 2869SOL     OW 9505   6.541   0.548   3.686
 2869SOL    HW1 9506   6.464   0.570   3.745
 2869SOL    HW2 9507   6.578   0.632   3.646
 2870SOL     OW 9508   0.373   2.047   6.641
 2870SOL    HW1 9509   0.297   2.051   6.576
 2870SOL    HW2 9510   0.360   1.970   6.703
 2871SOL     OW 9511   6.319   0.485   0.255
 2871SOL    HW1 9512   6.342   0.445   0.167
 2871SOL    HW2 9513   6.235   0.540   0.247
 2872SOL     OW 9514   2.671   1.885   0.925
 2872SOL    HW1 9515   2.699   1.954   0.992
 2872SOL    HW2 9516   2.670   1.795   0.969
 2873SOL     OW 9517   6.851   6.370   2.457
 2873SOL    HW1 9518   6.760   6.410   2.452
 2873SOL    HW2 9519   6.881   6.344   2.365
 2874SOL     OW 9520   4.180   6.582   3.274
 2874SOL    HW1 9521   4.209   6.527   3.352
 2874SOL    HW2 9522   4.140   6.522   3.204
 2875SOL     OW 9523   4.363   6.623   2.909
 2875SOL    HW1 9524   4.447   6.674   2.926
 2875SOL    HW2 9525   4.290   6.686   2.883
 2876SOL     OW 9526   1.241   6.865   2.585
 2876SOL    HW1 9527   1.301   6.943   2.603
 2876SOL    HW2 9528   1.216   6.864   2.488
 2877SOL     OW 9529   2.098   0.689   6.188
 2877SOL    HW1 9530   2.157   0.620   6.230
 2877SOL    HW2 9531   2.042   0.646   6.117
 2878SOL     OW 9532   3.248   3.760   5.123
 2878SOL    HW1 9533   3.269   3.727   5.031
 2878SOL    HW2 9534   3.327   3.808   5.161
 2879SOL     OW 9535   4.791   5.166   5.682
 2879SOL    HW1 9536   4.703   5.213   5.691
 2879SOL    HW2 9537   4.779   5.069   5.702
 2880SOL     OW 9538   7.017   2.006   3.825
 2880SOL    HW1 9539   0.054   2.045   3.752
 2880SOL    HW2 9540   6.925   1.986   3.790
 2881SOL     OW 9541   3.270   5.991   6.789
 2881SOL    HW1 9542   3.206   6.019   6.718
 2881SOL    HW2 9543   3.319   6.071   6.824
 2882SOL     OW 9544   6.630   5.925   1.325
 2882SOL    HW1 9545   6.594   5.992   1.261
 2882SOL    HW2 9546   6.556   5.893   1.385
 2883SOL     OW 9547   5.784   6.664   3.169
 2883SOL    HW1 9548   5.697   6.649   3.121
 2883SOL    HW2 9549   5.849   6.592   3.145
 2884SOL     OW 9550   6.941   5.858   2.470
 2884SOL    HW1 9551   0.009   5.863   2.421
 2884SOL    HW2 9552   6.883   5.935   2.445
 2885SOL     OW 9553   1.323   2.277   4.463
 2885SOL    HW1 9554   1.354   2.335   4.389
 2885SOL    HW2 9555   1.227   2.254   4.450
 2886SOL     OW 9556   1.993   4.097   6.313
 2886SOL    HW1 9557   2.069   4.152   6.346
 2886SOL    HW2 9558   1.951   4.048   6.390
 2887SOL     OW 9559   0.134   5.991   4.684
 2887SOL    HW1 9560   0.072   5.999   4.761
 2887SOL    HW2 9561   0.147   6.081   4.642
 2888SOL     OW 9562   0.493   4.999   0.163
 2888SOL    HW1 9563   0.402   4.959   0.171
 2888SOL    HW2 9564   0.547   4.947   0.097
 2889SOL     OW 9565   3.290   6.868   2.886
 2889SOL    HW1 9566   3.211   6.928   2.892
 2889SOL    HW2 9567   3.274   6.785   2.940
 2890SOL     OW 9568   1.848   5.932   1.032
 2890SOL    HW1 9569   1.876   5.918   0.937
 2890SOL    HW2 9570   1.918   5.984   1.080
 2891SOL     OW 9571   1.385   3.165   3.614
 2891SOL    HW1 9572   1.320   3.176   3.540
 2891SOL    HW2 9573   1.345   3.107   3.686
 2892SOL     OW 9574   5.744   3.019   1.533
 2892SOL    HW1 9575   5.681   3.095   1.549
 2892SOL    HW2 9576   5.773   3.020   1.438
 2893SOL     OW 9577   1.486   5.253   4.722
 2893SOL    HW1 9578   1.550   5.302   4.663
 2893SOL    HW2 9579   1.398   5.301   4.723
 2894SOL     OW 9580   1.593   3.795   1.523
 2894SOL    HW1 9581   1.502   3.836   1.523
 2894SOL    HW2 9582   1.659   3.858   1.565
 2895SOL     OW 9583   4.277   0.779   6.158
 2895SOL    HW1 9584   4.222   0.698   6.140
 2895SOL    HW2 9585   4.346   0.758   6.227
 2896SOL     OW 9586   4.228   0.359   5.541
 2896SOL    HW1 9587   4.257   0.264   5.556
 2896SOL    HW2 9588   4.136   0.372   5.578
 2897SOL     OW 9589   3.716   4.943   2.673
 2897SOL    HW1 9590   3.739   5.035   2.707
 2897SOL    HW2 9591   3.762   4.875   2.730
 2898SOL     OW 9592   5.000   4.095   3.991
 2898SOL    HW1 9593   5.035   4.005   3.963
 2898SOL    HW2 9594   4.957   4.087   4.081
 2899SOL     OW 9595   6.477   2.254   0.384
 2899SOL    HW1 9596   6.558   2.196   0.400
 2899SOL    HW2 9597   6.394   2.202   0.406
 2900SOL     OW 9598   3.825   4.752   6.565
 2900SOL    HW1 9599   3.876   4.673   6.529
 2900SOL    HW2 9600   3.786   4.728   6.653
 2901SOL     OW 9601   1.886   4.730   3.537
 2901SOL    HW1 9602   1.848   4.770   3.454
 2901SOL    HW2 9603   1.813   4.715   3.603
 2902SOL     OW 9604   6.461   5.059   3.678
 2902SOL    HW1 9605   6.456   4.961   3.659
 2902SOL    HW2 9606   6.548   5.081   3.720
 2903SOL     OW 9607   4.156   6.354   0.677
 2903SOL    HW1 9608   4.096   6.330   0.753
 2903SOL    HW2 9609   4.232   6.409   0.712
 2904SOL     OW 9610   3.282   5.249   4.942
 2904SOL    HW1 9611   3.213   5.258   5.014
 2904SOL    HW2 9612   3.306   5.153   4.930
 2905SOL     OW 9613   1.196   3.913   4.492
 2905SOL    HW1 9614   1.292   3.890   4.481
 2905SOL    HW2 9615   1.139   3.832   4.478
 2906SOL     OW 9616   5.270   5.969   2.565
 2906SOL    HW1 9617   5.285   6.030   2.642
 2906SOL    HW2 9618   5.227   6.019   2.490
 2907SOL     OW 9619   0.553   1.813   4.225
 2907SOL    HW1 9620   0.551   1.778   4.131
 2907SOL    HW2 9621   0.606   1.897   4.228
 2908SOL     OW 9622   5.399   6.541   3.415
 2908SOL    HW1 9623   5.353   6.587   3.340
 2908SOL    HW2 9624   5.498   6.556   3.408
 2909SOL     OW 9625   1.992   6.190   3.643
 2909SOL    HW1 9626   2.027   6.257   3.576
 2909SOL    HW2 9627   1.893   6.204   3.655
 2910SOL     OW 9628   6.765   0.699   3.496
 2910SOL    HW1 9629   6.731   0.779   3.445
 2910SOL    HW2 9630   6.859   0.716   3.527
 2911SOL     OW 9631   1.658   5.266   3.930
 2911SOL    HW1 9632   1.571   5.221   3.912
 2911SOL    HW2 9633   1.714   5.265   3.847
 2912SOL     OW 9634   6.151   6.443   6.719
 2912SOL    HW1 9635   6.106   6.445   6.808
 2912SOL    HW2 9636   6.243   6.479   6.727
 2913SOL     OW 9637   3.448   5.241   2.133
 2913SOL    HW1 9638   3.496   5.296   2.065
 2913SOL    HW2 9639   3.466   5.144   2.117
 2914SOL     OW 9640   5.975   6.178   0.822
 2914SOL    HW1 9641   6.066   6.165   0.781
 2914SOL    HW2 9642   5.935   6.089   0.843
 2915SOL     OW 9643   2.910   1.874   3.806
 2915SOL    HW1 9644   3.005   1.874   3.837
 2915SOL    HW2 9645   2.904   1.832   3.716
 2916SOL     OW 9646   1.545   5.266   0.304
 2916SOL    HW1 9647   1.642   5.242   0.316
 2916SOL    HW2 9648   1.536   5.329   0.227
 2917SOL     OW 9649   3.378   0.400   4.303
 2917SOL    HW1 9650   3.292   0.448   4.282
 2917SOL    HW2 9651   3.438   0.460   4.356
 2918SOL     OW 9652   5.919   3.756   6.228
 2918SOL    HW1 9653   5.996   3.726   6.172
 2918SOL    HW2 9654   5.940   3.844   6.270
 2919SOL     OW 9655   6.393   0.334   3.177
 2919SOL    HW1 9656   6.356   0.295   3.093
 2919SOL    HW2 9657   6.321   0.382   3.227
 2920SOL     OW 9658   3.687   0.111   1.458
 2920SOL    HW1 9659   3.615   0.169   1.420
 2920SOL    HW2 9660   3.767   0.167   1.481
 2921SOL     OW 9661   0.805   6.735   5.625
 2921SOL    HW1 9662   0.751   6.656   5.595
 2921SOL    HW2 9663   0.745   6.815   5.632
 2922SOL     OW 9664   4.204   5.905   1.448
 2922SOL    HW1 9665   4.168   5.967   1.517
 2922SOL    HW2 9666   4.129   5.870   1.392
 2923SOL     OW 9667   6.905   5.323   4.338
 2923SOL    HW1 9668   6.931   5.259   4.410
 2923SOL    HW2 9669   6.878   5.410   4.380
 2924SOL     OW 9670   0.256   2.343   4.518
 2924SOL    HW1 9671   0.322   2.272   4.543
 2924SOL    HW2 9672   0.198   2.363   4.597
 2925SOL     OW 9673   5.788   2.036   0.325
 2925SOL    HW1 9674   5.841   1.951   0.322
 2925SOL    HW2 9675   5.694   2.016   0.350
 2926SOL     OW 9676   5.968   2.174   6.342
 2926SOL    HW1 9677   6.065   2.196   6.351
 2926SOL    HW2 9678   5.937   2.124   6.423
 2927SOL     OW 9679   1.777   3.733   0.680
 2927SOL    HW1 9680   1.802   3.719   0.776
 2927SOL    HW2 9681   1.811   3.656   0.625
 2928SOL     OW 9682   6.417   1.055   0.032
 2928SOL    HW1 9683   6.514   1.067   0.011
 2928SOL    HW2 9684   6.376   0.992   6.986
 2929SOL     OW 9685   2.309   2.769   5.628
 2929SOL    HW1 9686   2.310   2.781   5.728
 2929SOL    HW2 9687   2.329   2.856   5.584
 2930SOL     OW 9688   5.228   6.257   5.023
 2930SOL    HW1 9689   5.323   6.275   4.996
 2930SOL    HW2 9690   5.193   6.334   5.076
 2931SOL     OW 9691   4.783   4.929   0.101
 2931SOL    HW1 9692   4.825   4.990   0.034
 2931SOL    HW2 9693   4.759   4.842   0.057
 2932SOL     OW 9694   0.812   5.661   1.933
 2932SOL    HW1 9695   0.871   5.726   1.886
 2932SOL    HW2 9696   0.867   5.597   1.987
 2933SOL     OW 9697   1.114   6.252   2.212
 2933SOL    HW1 9698   1.020   6.259   2.180
 2933SOL    HW2 9699   1.167   6.197   2.148
 2934SOL     OW 9700   5.264   2.847   0.662
 2934SOL    HW1 9701   5.193   2.805   0.720
 2934SOL    HW2 9702   5.222   2.879   0.577
 2935SOL     OW 9703   0.156   2.430   6.214
 2935SOL    HW1 9704   0.101   2.364   6.162
 2935SOL    HW2 9705   0.203   2.491   6.151
 2936SOL     OW 9706   3.880   6.243   0.793
 2936SOL    HW1 9707   3.884   6.159   0.737
 2936SOL    HW2 9708   3.785   6.267   0.810
 2937SOL     OW 9709   4.844   5.574   1.318
 2937SOL    HW1 9710   4.853   5.645   1.388
 2937SOL    HW2 9711   4.763   5.592   1.263
 2938SOL     OW 9712   6.700   4.863   0.195
 2938SOL    HW1 9713   6.670   4.958   0.202
 2938SOL    HW2 9714   6.785   4.852   0.246
 2939SOL     OW 9715   2.001   0.721   1.189
 2939SOL    HW1 9716   2.095   0.718   1.156
 2939SOL    HW2 9717   2.000   0.755   1.283
 2940SOL     OW 9718   6.098   5.392   5.300
 2940SOL    HW1 9719   6.037   5.449   5.244
 2940SOL    HW2 9720   6.069   5.396   5.395
 2941SOL     OW 9721   2.234   1.815   3.297
 2941SOL    HW1 9722   2.136   1.814   3.279
 2941SOL    HW2 9723   2.272   1.904   3.271
 2942SOL     OW 9724   3.868   2.433   0.862
 2942SOL    HW1 9725   3.889   2.453   0.958
 2942SOL    HW2 9726   3.860   2.334   0.848
 2943SOL     OW 9727   5.566   4.384   3.664
 2943SOL    HW1 9728   5.565   4.298   3.614
 2943SOL    HW2 9729   5.473   4.412   3.687
 2944SOL     OW 9730   2.467   6.255   4.051
 2944SOL    HW1 9731   2.486   6.193   3.974
 2944SOL    HW2 9732   2.373   6.288   4.045
 2945SOL     OW 9733   4.652   2.706   2.131
 2945SOL    HW1 9734   4.614   2.775   2.070
 2945SOL    HW2 9735   4.723   2.746   2.188
 2946SOL     OW 9736   2.096   4.300   5.867
 2946SOL    HW1 9737   2.175   4.321   5.810
 2946SOL    HW2 9738   2.012   4.316   5.814
 2947SOL     OW 9739   0.384   5.385   0.959
 2947SOL    HW1 9740   0.414   5.420   0.870
 2947SOL    HW2 9741   0.461   5.338   1.003
 2948SOL     OW 9742   6.692   4.469   4.394
 2948SOL    HW1 9743   6.755   4.407   4.347
 2948SOL    HW2 9744   6.599   4.432   4.389
 2949SOL     OW 9745   6.986   5.029   0.003
 2949SOL    HW1 9746   6.989   4.999   0.098
 2949SOL    HW2 9747   0.034   5.102   7.009
 2950SOL     OW 9748   6.054   6.218   4.090
 2950SOL    HW1 9749   6.001   6.292   4.048
 2950SOL    HW2 9750   6.033   6.213   4.188
 2951SOL     OW 9751   5.342   1.973   2.228
 2951SOL    HW1 9752   5.246   2.000   2.231
 2951SOL    HW2 9753   5.349   1.876   2.202
 2952SOL     OW 9754   0.390   6.715   5.544
 2952SOL    HW1 9755   0.418   6.719   5.448
 2952SOL    HW2 9756   0.373   6.808   5.577
 2953SOL     OW 9757   6.643   4.254   3.266
 2953SOL    HW1 9758   6.621   4.215   3.176
 2953SOL    HW2 9759   6.663   4.180   3.330
 2954SOL     OW 9760   0.040   4.336   0.519
 2954SOL    HW1 9761   0.058   4.331   0.420
 2954SOL    HW2 9762   0.108   4.395   0.562
 2955SOL     OW 9763   0.586   4.691   0.991
 2955SOL    HW1 9764   0.594   4.786   0.961
 2955SOL    HW2 9765   0.629   4.681   1.080
 2956SOL     OW 9766   6.176   5.502   3.563
 2956SOL    HW1 9767   6.135   5.436   3.500
 2956SOL    HW2 9768   6.242   5.559   3.514
 2957SOL     OW 9769   4.494   4.719   1.609
 2957SOL    HW1 9770   4.435   4.798   1.597
 2957SOL    HW2 9771   4.445   4.648   1.660
 2958SOL     OW 9772   2.161   4.629   3.271
 2958SOL    HW1 9773   2.204   4.607   3.359
 2958SOL    HW2 9774   2.062   4.622   3.280
 2959SOL     OW 9775   5.383   2.923   2.457
 2959SOL    HW1 9776   5.326   2.892   2.382
 2959SOL    HW2 9777   5.433   3.005   2.429
 2960SOL     OW 9778   3.424   6.900   6.679
 2960SOL    HW1 9779   3.441   6.937   6.588
 2960SOL    HW2 9780   3.404   6.802   6.672
 2961SOL     OW 9781   6.232   4.907   3.117
 2961SOL    HW1 9782   6.332   4.898   3.114
 2961SOL    HW2 9783   6.192   4.873   3.032
 2962SOL     OW 9784   4.963   6.291   3.544
 2962SOL    HW1 9785   4.872   6.254   3.528
 2962SOL    HW2 9786   5.008   6.239   3.617
 2963SOL     OW 9787   0.575   1.186   6.990
 2963SOL    HW1 9788   0.591   1.215   6.895
 2963SOL    HW2 9789   0.477   1.193   7.011
 2964SOL     OW 9790   0.725   1.873   6.000
 2964SOL    HW1 9791   0.746   1.956   5.949
 2964SOL    HW2 9792   0.695   1.801   5.938
 2965SOL     OW 9793   0.865   1.124   4.406
 2965SOL    HW1 9794   0.854   1.216   4.444
 2965SOL    HW2 9795   0.864   1.130   4.306
 2966SOL     OW 9796   4.686   5.957   3.541
 2966SOL    HW1 9797   4.592   5.977   3.510
 2966SOL    HW2 9798   4.703   5.859   3.532
 2967SOL     OW 9799   6.279   0.824   5.362
 2967SOL    HW1 9800   6.182   0.832   5.386
 2967SOL    HW2 9801   6.291   0.839   5.264
 2968SOL     OW 9802   0.865   2.574   0.699
 2968SOL    HW1 9803   0.906   2.531   0.779
 2968SOL    HW2 9804   0.876   2.514   0.620
 2969SOL     OW 9805   4.655   2.676   3.934
 2969SOL    HW1 9806   4.748   2.661   3.968
 2969SOL    HW2 9807   4.658   2.700   3.837
 2970SOL     OW 9808   2.498   3.303   5.329
 2970SOL    HW1 9809   2.455   3.221   5.292
 2970SOL    HW2 9810   2.435   3.380   5.321
 2971SOL     OW 9811   5.194   3.964   0.687
 2971SOL    HW1 9812   5.115   3.907   0.664
 2971SOL    HW2 9813   5.275   3.930   0.640
 2972SOL     OW 9814   5.849   5.377   6.492
 2972SOL    HW1 9815   5.802   5.289   6.481
 2972SOL    HW2 9816   5.859   5.398   6.589
 2973SOL     OW 9817   4.872   6.750   2.004
 2973SOL    HW1 9818   4.835   6.657   2.006
 2973SOL    HW2 9819   4.900   6.772   1.911
 2974SOL     OW 9820   6.845   4.445   3.766
 2974SOL    HW1 9821   6.913   4.395   3.820
 2974SOL    HW2 9822   6.841   4.540   3.797
 2975SOL     OW 9823   5.288   4.539   4.133
 2975SOL    HW1 9824   5.201   4.586   4.115
 2975SOL    HW2 9825   5.327   4.508   4.046
 2976SOL     OW 9826   5.328   1.825   2.706
 2976SOL    HW1 9827   5.282   1.798   2.791
 2976SOL    HW2 9828   5.260   1.864   2.643
 2977SOL     OW 9829   0.764   0.924   2.439
 2977SOL    HW1 9830   0.679   0.924   2.386
 2977SOL    HW2 9831   0.797   0.830   2.450
 2978SOL     OW 9832   3.854   4.561   0.436
 2978SOL    HW1 9833   3.811   4.650   0.421
 2978SOL    HW2 9834   3.798   4.489   0.395
 2979SOL     OW 9835   3.566   1.839   4.102
 2979SOL    HW1 9836   3.637   1.789   4.054
 2979SOL    HW2 9837   3.605   1.921   4.145
 2980SOL     OW 9838   2.298   5.697   5.997
 2980SOL    HW1 9839   2.242   5.646   6.063
 2980SOL    HW2 9840   2.389   5.658   5.994
 2981SOL     OW 9841   2.047   1.167   0.400
 2981SOL    HW1 9842   1.978   1.165   0.472
 2981SOL    HW2 9843   2.056   1.076   0.359
 2982SOL     OW 9844   2.363   6.243   1.585
 2982SOL    HW1 9845   2.432   6.192   1.534
 2982SOL    HW2 9846   2.341   6.194   1.669
 2983SOL     OW 9847   6.611   2.189   1.364
 2983SOL    HW1 9848   6.648   2.281   1.358
 2983SOL    HW2 9849   6.657   2.139   1.438
 2984SOL     OW 9850   5.349   5.262   6.383
 2984SOL    HW1 9851   5.252   5.276   6.404
 2984SOL    HW2 9852   5.369   5.164   6.385
 2985SOL     OW 9853   1.540   1.854   4.524
 2985SOL    HW1 9854   1.630   1.860   4.480
 2985SOL    HW2 9855   1.479   1.799   4.468
 2986SOL     OW 9856   3.600   3.952   2.520
 2986SOL    HW1 9857   3.575   3.862   2.485
 2986SOL    HW2 9858   3.627   3.945   2.616
 2987SOL     OW 9859   1.590   1.451   4.597
 2987SOL    HW1 9860   1.561   1.359   4.620
 2987SOL    HW2 9861   1.674   1.473   4.648
 2988SOL     OW 9862   1.571   6.834   2.091
 2988SOL    HW1 9863   1.658   6.849   2.045
 2988SOL    HW2 9864   1.550   6.914   2.148
 2989SOL     OW 9865   5.230   4.436   5.260
 2989SOL    HW1 9866   5.140   4.444   5.303
 2989SOL    HW2 9867   5.281   4.362   5.303
 2990SOL     OW 9868   4.600   2.144   4.281
 2990SOL    HW1 9869   4.521   2.086   4.262
 2990SOL    HW2 9870   4.684   2.092   4.268
 2991SOL     OW 9871   6.206   2.950   6.264
 2991SOL    HW1 9872   6.233   2.930   6.170
 2991SOL    HW2 9873   6.110   2.978   6.266
 2992SOL     OW 9874   1.830   4.881   4.913
 2992SOL    HW1 9875   1.743   4.906   4.873
 2992SOL    HW2 9876   1.899   4.951   4.892
 2993SOL     OW 9877   0.560   4.924   0.862
 2993SOL    HW1 9878   0.481   4.937   0.803
 2993SOL    HW2 9879   0.644   4.950   0.814
 2994SOL     OW 9880   3.903   6.018   0.637
 2994SOL    HW1 9881   3.893   5.924   0.669
 2994SOL    HW2 9882   3.844   6.033   0.558
 2995SOL     OW 9883   3.977   0.651   6.924
 2995SOL    HW1 9884   3.928   0.639   6.838
 2995SOL    HW2 9885   3.939   0.589   6.993
 2996SOL     OW 9886   0.618   2.148   5.120
 2996SOL    HW1 9887   0.608   2.168   5.023
 2996SOL    HW2 9888   0.680   2.214   5.162
 2997SOL     OW 9889   5.306   0.388   3.266
 2997SOL    HW1 9890   5.364   0.307   3.272
 2997SOL    HW2 9891   5.362   0.467   3.239
 2998SOL     OW 9892   5.012   6.487   3.298
 2998SOL    HW1 9893   5.008   6.442   3.387
 2998SOL    HW2 9894   4.923   6.528   3.277
 2999SOL     OW 9895   2.686   5.343   5.594
 2999SOL    HW1 9896   2.707   5.267   5.532
 2999SOL    HW2 9897   2.666   5.425   5.542
 3000SOL     OW 9898   2.757   3.963   6.359
 3000SOL    HW1 9899   2.800   3.887   6.310
 3000SOL    HW2 9900   2.757   4.044   6.300
 3001SOL     OW 9901   6.160   1.499   6.984
 3001SOL    HW1 9902   6.195   1.456   6.901
 3001SOL    HW2 9903   6.066   1.468   7.000
 3002SOL     OW 9904   3.176   1.985   0.204
 3002SOL    HW1 9905   3.121   2.055   0.249
 3002SOL    HW2 9906   3.253   1.961   0.262
 3003SOL     OW 9907   0.995   6.589   1.036
 3003SOL    HW1 9908   1.076   6.648   1.028
 3003SOL    HW2 9909   1.024   6.493   1.034
 3004SOL     OW 9910   1.281   4.497   2.783
 3004SOL    HW1 9911   1.381   4.497   2.781
 3004SOL    HW2 9912   1.246   4.516   2.691
 3005SOL     OW 9913   1.457   2.986   6.626
 3005SOL    HW1 9914   1.500   3.064   6.581
 3005SOL    HW2 9915   1.366   2.971   6.588
 3006SOL     OW 9916   5.486   1.803   4.851
 3006SOL    HW1 9917   5.572   1.779   4.896
 3006SOL    HW2 9918   5.442   1.878   4.900
 3007SOL     OW 9919   4.778   4.756   0.877
 3007SOL    HW1 9920   4.813   4.828   0.937
 3007SOL    HW2 9921   4.702   4.792   0.823
 3008SOL     OW 9922   2.871   2.366   6.153
 3008SOL    HW1 9923   2.937   2.440   6.139
 3008SOL    HW2 9924   2.880   2.299   6.080
 3009SOL     OW 9925   6.921   3.350   2.502
 3009SOL    HW1 9926   6.903   3.366   2.599
 3009SOL    HW2 9927   6.885   3.260   2.476
 3010SOL     OW 9928   2.916   5.381   4.005
 3010SOL    HW1 9929   2.857   5.316   3.958
 3010SOL    HW2 9930   3.009   5.345   4.009
 3011SOL     OW 9931   6.287   1.129   2.068
 3011SOL    HW1 9932   6.378   1.114   2.029
 3011SOL    HW2 9933   6.217   1.112   1.998
 3012SOL     OW 9934   2.588   3.043   0.246
 3012SOL    HW1 9935   2.519   3.029   0.175
 3012SOL    HW2 9936   2.628   3.134   0.236
 3013SOL     OW 9937   5.928   4.831   3.607
 3013SOL    HW1 9938   5.994   4.831   3.682
 3013SOL    HW2 9939   5.970   4.788   3.526
 3014SOL     OW 9940   5.059   2.150   6.149
 3014SOL    HW1 9941   4.960   2.166   6.140
 3014SOL    HW2 9942   5.078   2.053   6.137
 3015SOL     OW 9943   1.387   2.235   0.610
 3015SOL    HW1 9944   1.440   2.213   0.692
 3015SOL    HW2 9945   1.447   2.237   0.531
 3016SOL     OW 9946   3.211   6.837   4.241
 3016SOL    HW1 9947   3.138   6.859   4.306
 3016SOL    HW2 9948   3.290   6.800   4.290
 3017SOL     OW 9949   5.426   5.793   2.395
 3017SOL    HW1 9950   5.500   5.797   2.462
 3017SOL    HW2 9951   5.342   5.829   2.436
 3018SOL     OW 9952   3.291   0.228   6.460
 3018SOL    HW1 9953   3.223   0.233   6.533
 3018SOL    HW2 9954   3.307   0.320   6.423
 3019SOL     OW 9955   0.842   0.266   6.618
 3019SOL    HW1 9956   0.763   0.314   6.657
 3019SOL    HW2 9957   0.921   0.276   6.678
 3020SOL     OW 9958   4.049   2.975   0.951
 3020SOL    HW1 9959   3.958   2.999   0.985
 3020SOL    HW2 9960   4.043   2.948   0.855
 3021SOL     OW 9961   2.461   0.237   4.212
 3021SOL    HW1 9962   2.392   0.206   4.148
 3021SOL    HW2 9963   2.531   0.290   4.163
 3022SOL     OW 9964   4.322   5.110   5.157
 3022SOL    HW1 9965   4.391   5.180   5.138
 3022SOL    HW2 9966   4.233   5.142   5.124
 3023SOL     OW 9967   4.430   6.967   3.350
 3023SOL    HW1 9968   4.384   0.024   3.396
 3023SOL    HW2 9969   4.372   6.934   3.275
 3024SOL     OW 9970   5.912   6.183   5.110
 3024SOL    HW1 9971   6.005   6.209   5.135
 3024SOL    HW2 9972   5.846   6.239   5.159
 3025SOL     OW 9973   3.922   5.836   1.625
 3025SOL    HW1 9974   3.868   5.920   1.634
 3025SOL    HW2 9975   3.866   5.757   1.651
 3026SOL     OW 9976   0.196   1.169   6.005
 3026SOL    HW1 9977   0.245   1.083   5.994
 3026SOL    HW2 9978   0.169   1.180   6.100
 3027SOL     OW 9979   3.653   1.678   2.011
 3027SOL    HW1 9980   3.642   1.737   2.091
 3027SOL    HW2 9981   3.738   1.701   1.963
 3028SOL     OW 9982   1.173   4.211   6.150
 3028SOL    HW1 9983   1.250   4.276   6.153
 3028SOL    HW2 9984   1.209   4.119   6.135
 3029SOL     OW 9985   1.170   3.010   4.055
 3029SOL    HW1 9986   1.102   3.025   4.127
 3029SOL    HW2 9987   1.261   2.998   4.096
 3030SOL     OW 9988   1.745   3.943   0.950
 3030SOL    HW1 9989   1.820   4.004   0.925
 3030SOL    HW2 9990   1.679   3.938   0.875
 3031SOL     OW 9991   0.298   4.733   1.028
 3031SOL    HW1 9992   0.373   4.729   0.962
 3031SOL    HW2 9993   0.223   4.786   0.989
 3032SOL     OW 9994   2.302   6.933   1.244
 3032SOL    HW1 9995   2.227   6.873   1.214
 3032SOL    HW2 9996   2.316   7.005   1.177
 3033SOL     OW 9997   6.220   1.087   2.315
 3033SOL    HW1 9998   6.149   1.023   2.287
 3033SOL    HW2 9999   6.261   1.129   2.234
 3034SOL     OW10000   0.494   6.492   3.087
 3034SOL    HW110001   0.451   6.568   3.135
 3034SOL    HW210002   0.590   6.514   3.070
 3035SOL     OW10003   0.911   3.420   6.075
 3035SOL    HW110004   0.826   3.440   6.124
 3035SOL    HW210005   0.944   3.502   6.028
 3036SOL     OW10006   1.360   2.019   5.703
 3036SOL    HW110007   1.294   1.956   5.744
 3036SOL    HW210008   1.383   1.987   5.611
 3037SOL     OW10009   6.348   5.116   5.958
 3037SOL    HW110010   6.251   5.139   5.964
 3037SOL    HW210011   6.391   5.173   5.888
 3038SOL     OW10012   5.136   4.265   5.595
 3038SOL    HW110013   5.146   4.166   5.587
 3038SOL    HW210014   5.074   4.299   5.524
 3039SOL     OW10015   0.455   3.025   0.369
 3039SOL    HW110016   0.405   3.081   0.434
 3039SOL    HW210017   0.553   3.033   0.388
 3040SOL     OW10018   3.320   4.905   5.489
 3040SOL    HW110019   3.401   4.932   5.542
 3040SOL    HW210020   3.249   4.974   5.499
 3041SOL     OW10021   1.149   4.740   5.909
 3041SOL    HW110022   1.135   4.679   5.987
 3041SOL    HW210023   1.227   4.800   5.927
 3042SOL     OW10024   5.873   6.070   2.970
 3042SOL    HW110025   5.800   6.003   2.985
 3042SOL    HW210026   5.836   6.149   2.920
 3043SOL     OW10027   2.927   3.835   1.739
 3043SOL    HW110028   2.919   3.759   1.675
 3043SOL    HW210029   2.976   3.806   1.821
 3044SOL     OW10030   3.092   5.788   5.541
 3044SOL    HW110031   3.134   5.765   5.453
 3044SOL    HW210032   3.128   5.875   5.574
 3045SOL     OW10033   5.248   6.645   3.201
 3045SOL    HW110034   5.161   6.613   3.241
 3045SOL    HW210035   5.233   6.731   3.152
 3046SOL     OW10036   3.366   0.203   6.802
 3046SOL    HW110037   3.287   0.202   6.863
 3046SOL    HW210038   3.357   0.130   6.734
 3047SOL     OW10039   5.969   6.815   1.221
 3047SOL    HW110040   5.873   6.810   1.249
 3047SOL    HW210041   5.983   6.897   1.165
 3048SOL     OW10042   4.883   2.421   0.793
 3048SOL    HW110043   4.823   2.351   0.830
 3048SOL    HW210044   4.968   2.379   0.759
 3049SOL     OW10045   1.968   0.401   3.357
 3049SOL    HW110046   2.019   0.462   3.418
 3049SOL    HW210047   1.989   0.423   3.262
 3050SOL     OW10048   3.081   2.118   1.533
 3050SOL    HW110049   2.988   2.151   1.519
 3050SOL    HW210050   3.078   2.030   1.580
 3051SOL     OW10051   1.918   6.455   6.558
 3051SOL    HW110052   1.966   6.522   6.615
 3051SOL    HW210053   1.983   6.389   6.521
 3052SOL     OW10054   4.970   5.686   1.922
 3052SOL    HW110055   5.034   5.677   1.999
 3052SOL    HW210056   4.954   5.596   1.881
 3053SOL     OW10057   7.017   3.600   1.510
 3053SOL    HW110058   0.080   3.569   1.464
 3053SOL    HW210059   6.974   3.523   1.558
 3054SOL     OW10060   5.682   1.385   1.965
 3054SOL    HW110061   5.715   1.317   1.900
 3054SOL    HW210062   5.745   1.392   2.042
 3055SOL     OW10063   5.199   0.346   5.133
 3055SOL    HW110064   5.167   0.274   5.194
 3055SOL    HW210065   5.145   0.344   5.049
 3056SOL     OW10066   6.733   0.677   5.341
 3056SOL    HW110067   6.807   0.744   5.333
 3056SOL    HW210068   6.659   0.715   5.397
 3057SOL     OW10069   4.835   5.449   4.465
 3057SOL    HW110070   4.779   5.532   4.472
 3057SOL    HW210071   4.931   5.474   4.473
 3058SOL     OW10072   6.135   4.746   0.848
 3058SOL    HW110073   6.197   4.718   0.776
 3058SOL    HW210074   6.183   4.806   0.912
 3059SOL     OW10075   2.650   1.424   3.355
 3059SOL    HW110076   2.725   1.444   3.292
 3059SOL    HW210077   2.603   1.342   3.325
 3060SOL     OW10078   2.062   5.319   0.332
 3060SOL    HW110079   2.119   5.251   0.377
 3060SOL    HW210080   2.105   5.346   0.245
 3061SOL     OW10081   5.879   5.769   5.697
 3061SOL    HW110082   5.789   5.736   5.726
 3061SOL    HW210083   5.928   5.805   5.776
 3062SOL     OW10084   2.019   6.553   1.076
 3062SOL    HW110085   2.113   6.537   1.045
 3062SOL    HW210086   2.013   6.530   1.173
 3063SOL     OW10087   1.710   4.684   1.267
 3063SOL    HW110088   1.617   4.714   1.290
 3063SOL    HW210089   1.754   4.645   1.347
 3064SOL     OW10090   4.523   3.620   0.328
 3064SOL    HW110091   4.598   3.633   0.263
 3064SOL    HW210092   4.559   3.602   0.419
 3065SOL     OW10093   0.872   2.055   6.637
 3065SOL    HW110094   0.838   2.102   6.556
 3065SOL    HW210095   0.972   2.044   6.630
 3066SOL     OW10096   5.310   5.322   0.299
 3066SOL    HW110097   5.250   5.259   0.348
 3066SOL    HW210098   5.350   5.275   0.220
 3067SOL     OW10099   3.017   0.843   0.113
 3067SOL    HW110100   3.091   0.904   0.084
 3067SOL    HW210101   3.054   0.753   0.134
 3068SOL     OW10102   6.988   6.651   1.677
 3068SOL    HW110103   6.939   6.687   1.756
 3068SOL    HW210104   6.987   6.719   1.603
 3069SOL     OW10105   6.432   6.300   2.890
 3069SOL    HW110106   6.519   6.277   2.847
 3069SOL    HW210107   6.371   6.342   2.823
 3070SOL     OW10108   2.447   0.725   6.770
 3070SOL    HW110109   2.503   0.783   6.829
 3070SOL    HW210110   2.369   0.778   6.736
 3071SOL     OW10111   6.373   5.883   3.741
 3071SOL    HW110112   6.421   5.935   3.813
 3071SOL    HW210113   6.429   5.805   3.713
 3072SOL     OW10114   2.470   5.508   6.244
 3072SOL    HW110115   2.459   5.479   6.149
 3072SOL    HW210116   2.387   5.553   6.276
 3073SOL     OW10117   6.995   4.415   2.453
 3073SOL    HW110118   6.960   4.326   2.483
 3073SOL    HW210119   6.934   4.487   2.486
 3074SOL     OW10120   0.212   4.457   0.969
 3074SOL    HW110121   0.164   4.389   1.025
 3074SOL    HW210122   0.245   4.530   1.028
 3075SOL     OW10123   3.005   5.484   3.490
 3075SOL    HW110124   3.083   5.426   3.467
 3075SOL    HW210125   3.030   5.580   3.474
 3076SOL     OW10126   6.769   1.849   4.103
 3076SOL    HW110127   6.858   1.889   4.084
 3076SOL    HW210128   6.758   1.765   4.049
 3077SOL     OW10129   5.710   4.322   1.857
 3077SOL    HW110130   5.642   4.255   1.827
 3077SOL    HW210131   5.707   4.330   1.956
 3078SOL     OW10132   6.586   3.230   2.692
 3078SOL    HW110133   6.654   3.292   2.732
 3078SOL    HW210134   6.506   3.283   2.663
 3079SOL     OW10135   3.069   2.199   3.052
 3079SOL    HW110136   3.164   2.220   3.075
 3079SOL    HW210137   3.063   2.180   2.954
 3080SOL     OW10138   5.723   4.438   2.113
 3080SOL    HW110139   5.649   4.448   2.179
 3080SOL    HW210140   5.811   4.448   2.160
 3081SOL     OW10141   0.371   4.336   5.788
 3081SOL    HW110142   0.431   4.257   5.780
 3081SOL    HW210143   0.353   4.374   5.697
 3082SOL     OW10144   1.559   5.758   4.194
 3082SOL    HW110145   1.655   5.741   4.220
 3082SOL    HW210146   1.502   5.755   4.276
 3083SOL     OW10147   3.116   6.331   3.225
 3083SOL    HW110148   3.103   6.233   3.211
 3083SOL    HW210149   3.047   6.382   3.173
 3084SOL     OW10150   6.591   4.934   3.280
 3084SOL    HW110151   6.664   4.954   3.346
 3084SOL    HW210152   6.512   4.993   3.299
 3085SOL     OW10153   5.759   4.608   0.651
 3085SOL    HW110154   5.853   4.581   0.630
 3085SOL    HW210155   5.703   4.601   0.568
 3086SOL     OW10156   4.887   1.156   6.600
 3086SOL    HW110157   4.844   1.160   6.690
 3086SOL    HW210158   4.952   1.081   6.597
 3087SOL     OW10159   2.774   6.583   3.249
 3087SOL    HW110160   2.746   6.508   3.309
 3087SOL    HW210161   2.794   6.664   3.305
 3088SOL     OW10162   1.825   3.222   5.041
 3088SOL    HW110163   1.764   3.247   4.967
 3088SOL    HW210164   1.896   3.292   5.053
 3089SOL     OW10165   4.151   2.266   4.586
 3089SOL    HW110166   4.237   2.216   4.588
 3089SOL    HW210167   4.170   2.365   4.590
 3090SOL     OW10168   2.359   0.850   1.960
 3090SOL    HW110169   2.442   0.795   1.960
 3090SOL    HW210170   2.370   0.928   1.898
 3091SOL     OW10171   1.300   1.238   0.507
 3091SOL    HW110172   1.237   1.312   0.483
 3091SOL    HW210173   1.249   1.153   0.517
 3092SOL     OW10174   5.414   0.126   0.754
 3092SOL    HW110175   5.360   0.042   0.755
 3092SOL    HW210176   5.454   0.139   0.664
 3093SOL     OW10177   5.376   6.039   6.258
 3093SOL    HW110178   5.415   6.098   6.328
 3093SOL    HW210179   5.276   6.044   6.262
 3094SOL     OW10180   2.697   0.068   4.029
 3094SOL    HW110181   2.623   0.003   4.044
 3094SOL    HW210182   2.660   0.161   4.026
 3095SOL     OW10183   2.442   3.728   5.671
 3095SOL    HW110184   2.437   3.723   5.770
 3095SOL    HW210185   2.528   3.687   5.640
 3096SOL     OW10186   1.245   5.136   5.628
 3096SOL    HW110187   1.186   5.057   5.645
 3096SOL    HW210188   1.189   5.217   5.612
 3097SOL     OW10189   5.380   3.309   6.993
 3097SOL    HW110190   5.307   3.300   6.925
 3097SOL    HW210191   5.339   3.312   0.065
 3098SOL     OW10192   1.539   3.464   1.611
 3098SOL    HW110193   1.570   3.537   1.550
 3098SOL    HW210194   1.515   3.384   1.556
 3099SOL     OW10195   0.907   6.054   3.644
 3099SOL    HW110196   0.838   6.063   3.572
 3099SOL    HW210197   0.964   6.137   3.646
 3100SOL     OW10198   6.270   6.177   3.687
 3100SOL    HW110199   6.311   6.263   3.657
 3100SOL    HW210200   6.171   6.188   3.696
 3101SOL     OW10201   4.828   5.713   6.359
 3101SOL    HW110202   4.881   5.664   6.290
 3101SOL    HW210203   4.806   5.651   6.435
 3102SOL     OW10204   6.650   6.721   1.182
 3102SOL    HW110205   6.593   6.710   1.101
 3102SOL    HW210206   6.736   6.672   1.169
 3103SOL     OW10207   4.301   1.383   1.061
 3103SOL    HW110208   4.235   1.388   0.986
 3103SOL    HW210209   4.370   1.314   1.041
 3104SOL     OW10210   3.688   0.645   5.838
 3104SOL    HW110211   3.649   0.735   5.858
 3104SOL    HW210212   3.764   0.627   5.900
 3105SOL     OW10213   4.822   3.508   1.388
 3105SOL    HW110214   4.755   3.523   1.315
 3105SOL    HW210215   4.895   3.576   1.382
 3106SOL     OW10216   5.086   6.494   5.234
 3106SOL    HW110217   5.135   6.581   5.229
 3106SOL    HW210218   4.988   6.511   5.229
 3107SOL     OW10219   4.170   1.122   5.040
 3107SOL    HW110220   4.187   1.047   4.976
 3107SOL    HW210221   4.163   1.085   5.133
 3108SOL     OW10222   1.977   5.104   4.840
 3108SOL    HW110223   2.054   5.154   4.880
 3108SOL    HW210224   1.899   5.165   4.830
 3109SOL     OW10225   6.226   6.977   4.152
 3109SOL    HW110226   6.157   6.919   4.196
 3109SOL    HW210227   6.210   6.979   4.053
 3110SOL     OW10228   1.657   4.323   3.384
 3110SOL    HW110229   1.711   4.370   3.314
 3110SOL    HW210230   1.599   4.254   3.340
 3111SOL     OW10231   0.062   4.941   3.576
 3111SOL    HW110232   0.139   4.881   3.554
 3111SOL    HW210233   0.067   5.024   3.521
 3112SOL     OW10234   2.881   3.153   0.792
 3112SOL    HW110235   2.979   3.136   0.802
 3112SOL    HW210236   2.831   3.068   0.803
 3113SOL     OW10237   3.324   6.021   2.707
 3113SOL    HW110238   3.387   5.997   2.781
 3113SOL    HW210239   3.331   6.119   2.687
 3114SOL     OW10240   3.440   1.877   0.350
 3114SOL    HW110241   3.493   1.839   0.275
 3114SOL    HW210242   3.460   1.975   0.359
 3115SOL     OW10243   4.063   4.714   5.665
 3115SOL    HW110244   4.016   4.628   5.684
 3115SOL    HW210245   4.162   4.699   5.665
 3116SOL     OW10246   6.682   1.989   0.431
 3116SOL    HW110247   6.667   1.921   0.503
 3116SOL    HW210248   6.614   1.976   0.359
 3117SOL     OW10249   4.346   3.557   5.633
 3117SOL    HW110250   4.325   3.460   5.643
 3117SOL    HW210251   4.288   3.597   5.562
 3118SOL     OW10252   0.612   5.584   2.568
 3118SOL    HW110253   0.680   5.654   2.588
 3118SOL    HW210254   0.604   5.522   2.646
 3119SOL     OW10255   2.227   2.442   6.632
 3119SOL    HW110256   2.319   2.415   6.659
 3119SOL    HW210257   2.209   2.408   6.539
 3120SOL     OW10258   2.447   0.655   5.669
 3120SOL    HW110259   2.349   0.660   5.688
 3120SOL    HW210260   2.498   0.661   5.754
 3121SOL     OW10261   5.839   1.673   4.679
 3121SOL    HW110262   5.809   1.701   4.588
 3121SOL    HW210263   5.852   1.574   4.682
 3122SOL     OW10264   4.916   4.906   5.036
 3122SOL    HW110265   4.850   4.944   5.100
 3122SOL    HW210266   5.009   4.931   5.064
 3123SOL     OW10267   1.923   1.348   2.786
 3123SOL    HW110268   1.954   1.429   2.836
 3123SOL    HW210269   1.824   1.353   2.772
 3124SOL     OW10270   4.521   0.285   4.247
 3124SOL    HW110271   4.496   0.377   4.217
 3124SOL    HW210272   4.570   0.238   4.174
 3125SOL     OW10273   1.611   2.915   5.175
 3125SOL    HW110274   1.595   3.013   5.186
 3125SOL    HW210275   1.554   2.879   5.102
 3126SOL     OW10276   5.412   4.591   5.125
 3126SOL    HW110277   5.504   4.555   5.142
 3126SOL    HW210278   5.346   4.544   5.183
 3127SOL     OW10279   2.215   2.001   6.280
 3127SOL    HW110280   2.146   2.072   6.271
 3127SOL    HW210281   2.306   2.041   6.268
 3128SOL     OW10282   3.522   1.150   0.387
 3128SOL    HW110283   3.545   1.134   0.483
 3128SOL    HW210284   3.495   1.063   0.344
 3129SOL     OW10285   5.712   3.595   0.828
 3129SOL    HW110286   5.790   3.589   0.766
 3129SOL    HW210287   5.661   3.509   0.826
 3130SOL     OW10288   2.299   4.284   1.742
 3130SOL    HW110289   2.387   4.330   1.753
 3130SOL    HW210290   2.306   4.216   1.668
 3131SOL     OW10291   0.935   3.815   2.086
 3131SOL    HW110292   0.868   3.820   2.012
 3131SOL    HW210293   0.941   3.904   2.131
 3132SOL     OW10294   4.960   5.350   6.832
 3132SOL    HW110295   4.967   5.387   6.925
 3132SOL    HW210296   5.032   5.390   6.775
 3133SOL     OW10297   3.669   1.154   3.378
 3133SOL    HW110298   3.633   1.080   3.434
 3133SOL    HW210299   3.656   1.133   3.281
 3134SOL     OW10300   4.264   4.841   0.711
 3134SOL    HW110301   4.207   4.913   0.670
 3134SOL    HW210302   4.293   4.778   0.640
 3135SOL     OW10303   5.264   0.460   5.807
 3135SOL    HW110304   5.164   0.460   5.818
 3135SOL    HW210305   5.286   0.471   5.710
 3136SOL     OW10306   5.787   6.863   2.377
 3136SOL    HW110307   5.846   6.792   2.337
 3136SOL    HW210308   5.691   6.832   2.373
 3137SOL     OW10309   0.040   6.534   3.602
 3137SOL    HW110310   7.007   6.459   3.559
 3137SOL    HW210311   6.996   6.604   3.635
 3138SOL     OW10312   5.713   5.409   3.323
 3138SOL    HW110313   5.728   5.502   3.358
 3138SOL    HW210314   5.615   5.388   3.325
 3139SOL     OW10315   3.466   5.051   1.389
 3139SOL    HW110316   3.409   4.969   1.401
 3139SOL    HW210317   3.522   5.063   1.471
 3140SOL     OW10318   6.411   6.226   5.589
 3140SOL    HW110319   6.336   6.169   5.553
 3140SOL    HW210320   6.374   6.315   5.618
 3141SOL     OW10321   0.408   0.035   6.408
 3141SOL    HW110322   0.400   6.978   6.474
 3141SOL    HW210323   0.497   0.079   6.421
 3142SOL     OW10324   2.860   0.387   2.552
 3142SOL    HW110325   2.764   0.376   2.527
 3142SOL    HW210326   2.867   0.418   2.646
 3143SOL     OW10327   5.961   1.175   0.341
 3143SOL    HW110328   6.019   1.248   0.378
 3143SOL    HW210329   5.982   1.161   0.244
 3144SOL     OW10330   4.512   3.543   0.958
 3144SOL    HW110331   4.541   3.616   0.895
 3144SOL    HW210332   4.418   3.516   0.936
 3145SOL     OW10333   1.761   6.548   2.318
 3145SOL    HW110334   1.761   6.640   2.280
 3145SOL    HW210335   1.853   6.509   2.311
 3146SOL     OW10336   1.178   1.187   4.522
 3146SOL    HW110337   1.117   1.109   4.511
 3146SOL    HW210338   1.189   1.234   4.435
 3147SOL     OW10339   2.844   5.000   0.075
 3147SOL    HW110340   2.864   4.924   0.014
 3147SOL    HW210341   2.788   4.969   0.152
 3148SOL     OW10342   0.063   6.707   4.044
 3148SOL    HW110343   0.143   6.724   3.986
 3148SOL    HW210344   6.999   6.716   3.990
 3149SOL     OW10345   3.098   1.309   6.722
 3149SOL    HW110346   3.124   1.270   6.634
 3149SOL    HW210347   3.036   1.247   6.769
 3150SOL     OW10348   6.980   5.893   4.912
 3150SOL    HW110349   0.044   5.927   4.956
 3150SOL    HW210350   6.946   5.812   4.961
 3151SOL     OW10351   0.360   1.421   5.138
 3151SOL    HW110352   0.317   1.342   5.182
 3151SOL    HW210353   0.413   1.473   5.205
 3152SOL     OW10354   0.781   4.495   0.517
 3152SOL    HW110355   0.792   4.454   0.608
 3152SOL    HW210356   0.742   4.587   0.527
 3153SOL     OW10357   6.324   5.828   0.696
 3153SOL    HW110358   6.359   5.736   0.685
 3153SOL    HW210359   6.312   5.870   0.605
 3154SOL     OW10360   6.838   1.570   0.334
 3154SOL    HW110361   6.742   1.593   0.315
 3154SOL    HW210362   6.887   1.653   0.362
 3155SOL     OW10363   6.589   4.966   0.502
 3155SOL    HW110364   6.546   4.955   0.413
 3155SOL    HW210365   6.656   4.894   0.516
 3156SOL     OW10366   2.973   3.529   2.172
 3156SOL    HW110367   2.997   3.581   2.254
 3156SOL    HW210368   3.041   3.458   2.157
 3157SOL     OW10369   1.743   1.805   5.328
 3157SOL    HW110370   1.831   1.764   5.351
 3157SOL    HW210371   1.740   1.899   5.362
 3158SOL     OW10372   2.749   1.514   4.120
 3158SOL    HW110373   2.689   1.550   4.191
 3158SOL    HW210374   2.717   1.544   4.030
 3159SOL     OW10375   5.744   0.100   6.427
 3159SOL    HW110376   5.819   0.100   6.494
 3159SOL    HW210377   5.773   0.151   6.346
 3160SOL     OW10378   1.754   6.074   6.027
 3160SOL    HW110379   1.827   6.121   6.076
 3160SOL    HW210380   1.793   6.018   5.954
 3161SOL     OW10381   2.366   2.300   2.642
 3161SOL    HW110382   2.461   2.276   2.659
 3161SOL    HW210383   2.350   2.302   2.543
 3162SOL     OW10384   1.016   5.823   1.890
 3162SOL    HW110385   1.100   5.777   1.861
 3162SOL    HW210386   0.988   5.889   1.820
 3163SOL     OW10387   4.323   3.533   6.522
 3163SOL    HW110388   4.276   3.480   6.451
 3163SOL    HW210389   4.342   3.473   6.601
 3164SOL     OW10390   3.312   5.487   1.373
 3164SOL    HW110391   3.294   5.394   1.340
 3164SOL    HW210392   3.307   5.489   1.472
 3165SOL     OW10393   2.204   5.741   1.315
 3165SOL    HW110394   2.297   5.761   1.287
 3165SOL    HW210395   2.152   5.826   1.323
 3166SOL     OW10396   4.029   1.859   3.441
 3166SOL    HW110397   4.099   1.872   3.371
 3166SOL    HW210398   4.071   1.863   3.531
 3167SOL     OW10399   5.368   4.179   1.073
 3167SOL    HW110400   5.395   4.218   1.162
 3167SOL    HW210401   5.356   4.081   1.082
 3168SOL     OW10402   5.202   3.224   6.825
 3168SOL    HW110403   5.236   3.206   6.733
 3168SOL    HW210404   5.162   3.141   6.863
 3169SOL     OW10405   2.201   4.318   3.836
 3169SOL    HW110406   2.192   4.309   3.737
 3169SOL    HW210407   2.207   4.227   3.877
 3170SOL     OW10408   3.906   6.008   2.130
 3170SOL    HW110409   4.000   6.009   2.164
 3170SOL    HW210410   3.844   5.992   2.207
 3171SOL     OW10411   6.938   2.101   2.288
 3171SOL    HW110412   6.916   2.115   2.384
 3171SOL    HW210413   6.950   2.189   2.243
 3172SOL     OW10414   6.463   5.541   6.520
 3172SOL    HW110415   6.363   5.548   6.517
 3172SOL    HW210416   6.498   5.514   6.431
 3173SOL     OW10417   3.268   2.233   6.798
 3173SOL    HW110418   3.249   2.148   6.846
 3173SOL    HW210419   3.338   2.217   6.728
 3174SOL     OW10420   2.978   2.584   6.997
 3174SOL    HW110421   2.898   2.639   6.970
 3174SOL    HW210422   3.058   2.616   6.947
 3175SOL     OW10423   5.299   1.410   1.595
 3175SOL    HW110424   5.201   1.410   1.574
 3175SOL    HW210425   5.321   1.487   1.655
 3176SOL     OW10426   0.907   3.904   5.029
 3176SOL    HW110427   0.943   3.881   5.119
 3176SOL    HW210428   0.898   4.004   5.022
 3177SOL     OW10429   5.189   4.282   4.177
 3177SOL    HW110430   5.228   4.374   4.186
 3177SOL    HW210431   5.131   4.278   4.095
 3178SOL     OW10432   6.367   2.503   0.491
 3178SOL    HW110433   6.415   2.564   0.554
 3178SOL    HW210434   6.392   2.408   0.512
 3179SOL     OW10435   1.137   2.401   2.067
 3179SOL    HW110436   1.096   2.488   2.039
 3179SOL    HW210437   1.133   2.337   1.990
 3180SOL     OW10438   5.504   6.892   0.570
 3180SOL    HW110439   5.537   6.985   0.554
 3180SOL    HW210440   5.418   6.895   0.620
 3181SOL     OW10441   6.552   1.987   3.384
 3181SOL    HW110442   6.508   2.076   3.380
 3181SOL    HW210443   6.483   1.916   3.399
 3182SOL     OW10444   2.385   0.219   6.615
 3182SOL    HW110445   2.399   0.250   6.709
 3182SOL    HW210446   2.445   0.270   6.554
 3183SOL     OW10447   4.635   4.361   2.293
 3183SOL    HW110448   4.602   4.332   2.204
 3183SOL    HW210449   4.560   4.404   2.344
 3184SOL     OW10450   0.287   2.899   2.859
 3184SOL    HW110451   0.357   2.871   2.793
 3184SOL    HW210452   0.328   2.957   2.929
 3185SOL     OW10453   4.067   5.806   6.331
 3185SOL    HW110454   4.029   5.848   6.413
 3185SOL    HW210455   4.007   5.824   6.253
 3186SOL     OW10456   3.287   2.223   0.848
 3186SOL    HW110457   3.279   2.294   0.778
 3186SOL    HW210458   3.203   2.168   0.849
 3187SOL     OW10459   4.616   5.442   0.958
 3187SOL    HW110460   4.526   5.421   0.921
 3187SOL    HW210461   4.682   5.376   0.925
 3188SOL     OW10462   1.164   6.568   4.108
 3188SOL    HW110463   1.240   6.509   4.136
 3188SOL    HW210464   1.179   6.660   4.142
 3189SOL     OW10465   1.429   2.402   1.352
 3189SOL    HW110466   1.518   2.422   1.310
 3189SOL    HW210467   1.424   2.448   1.441
 3190SOL     OW10468   6.941   5.084   0.554
 3190SOL    HW110469   0.018   5.105   0.573
 3190SOL    HW210470   6.883   5.127   0.624
 3191SOL     OW10471   4.836   5.443   1.636
 3191SOL    HW110472   4.782   5.527   1.643
 3191SOL    HW210473   4.815   5.383   1.713
 3192SOL     OW10474   0.314   3.725   1.668
 3192SOL    HW110475   0.288   3.630   1.685
 3192SOL    HW210476   0.390   3.728   1.603
 3193SOL     OW10477   3.907   1.423   6.035
 3193SOL    HW110478   3.828   1.377   6.076
 3193SOL    HW210479   3.977   1.356   6.012
 3194SOL     OW10480   1.755   2.099   6.129
 3194SOL    HW110481   1.832   2.100   6.065
 3194SOL    HW210482   1.669   2.104   6.078
 3195SOL     OW10483   1.478   0.847   3.045
 3195SOL    HW110484   1.426   0.929   3.022
 3195SOL    HW210485   1.414   0.771   3.058
 3196SOL     OW10486   0.315   1.211   0.028
 3196SOL    HW110487   0.268   1.274   6.985
 3196SOL    HW210488   0.249   1.167   0.089
 3197SOL     OW10489   2.980   6.651   4.695
 3197SOL    HW110490   3.018   6.741   4.717
 3197SOL    HW210491   3.046   6.580   4.719
 3198SOL     OW10492   6.602   3.038   3.368
 3198SOL    HW110493   6.662   3.024   3.447
 3198SOL    HW210494   6.586   2.950   3.322
 3199SOL     OW10495   5.117   3.952   2.748
 3199SOL    HW110496   5.158   3.890   2.682
 3199SOL    HW210497   5.188   3.986   2.810
 3200SOL     OW10498   5.660   3.148   2.653
 3200SOL    HW110499   5.737   3.205   2.681
 3200SOL    HW210500   5.574   3.190   2.683
 3201SOL     OW10501   6.721   4.559   3.471
 3201SOL    HW110502   6.817   4.579   3.454
 3201SOL    HW210503   6.696   4.472   3.429
 3202SOL     OW10504   1.165   5.105   0.967
 3202SOL    HW110505   1.173   5.118   0.868
 3202SOL    HW210506   1.189   5.010   0.989
 3203SOL     OW10507   5.527   1.952   0.362
 3203SOL    HW110508   5.457   1.978   0.295
 3203SOL    HW210509   5.578   1.873   0.326
 3204SOL     OW10510   4.256   6.839   3.173
 3204SOL    HW110511   4.234   6.746   3.202
 3204SOL    HW210512   4.181   6.876   3.118
 3205SOL     OW10513   5.303   2.867   6.057
 3205SOL    HW110514   5.322   2.965   6.047
 3205SOL    HW210515   5.383   2.814   6.029
 3206SOL     OW10516   1.760   4.806   0.639
 3206SOL    HW110517   1.695   4.739   0.675
 3206SOL    HW210518   1.821   4.761   0.574
 3207SOL     OW10519   1.025   0.672   6.634
 3207SOL    HW110520   1.052   0.760   6.674
 3207SOL    HW210521   1.075   0.657   6.549
 3208SOL     OW10522   4.947   6.276   6.287
 3208SOL    HW110523   4.954   6.274   6.188
 3208SOL    HW210524   5.032   6.243   6.328
 3209SOL     OW10525   3.739   5.195   3.931
 3209SOL    HW110526   3.651   5.235   3.907
 3209SOL    HW210527   3.737   5.096   3.914
 3210SOL     OW10528   1.531   4.596   1.072
 3210SOL    HW110529   1.608   4.616   1.133
 3210SOL    HW210530   1.510   4.677   1.018
 3211SOL     OW10531   1.640   4.195   0.566
 3211SOL    HW110532   1.550   4.152   0.556
 3211SOL    HW210533   1.709   4.123   0.578
 3212SOL     OW10534   3.047   6.651   1.543
 3212SOL    HW110535   3.122   6.591   1.516
 3212SOL    HW210536   3.038   6.651   1.643
 3213SOL     OW10537   1.675   0.096   0.484
 3213SOL    HW110538   1.704   0.055   0.398
 3213SOL    HW210539   1.624   0.028   0.537
 3214SOL     OW10540   4.526   5.908   1.101
 3214SOL    HW110541   4.591   5.983   1.113
 3214SOL    HW210542   4.528   5.876   1.006
 3215SOL     OW10543   0.176   4.328   1.224
 3215SOL    HW110544   0.240   4.264   1.268
 3215SOL    HW210545   0.105   4.354   1.290
 3216SOL     OW10546   5.779   5.455   0.646
 3216SOL    HW110547   5.701   5.509   0.613
 3216SOL    HW210548   5.823   5.409   0.569
 3217SOL     OW10549   0.046   5.462   2.697
 3217SOL    HW110550   0.139   5.456   2.734
 3217SOL    HW210551   0.023   5.558   2.683
 3218SOL     OW10552   5.119   2.537   3.258
 3218SOL    HW110553   5.162   2.500   3.175
 3218SOL    HW210554   5.132   2.472   3.333
 3219SOL     OW10555   0.560   1.771   3.588
 3219SOL    HW110556   0.504   1.702   3.542
 3219SOL    HW210557   0.655   1.740   3.593
 3220SOL     OW10558   0.157   5.195   5.830
 3220SOL    HW110559   0.140   5.199   5.731
 3220SOL    HW210560   0.247   5.233   5.850
 3221SOL     OW10561   3.776   0.146   1.739
 3221SOL    HW110562   3.833   0.070   1.710
 3221SOL    HW210563   3.699   0.111   1.793
 3222SOL     OW10564   2.762   1.565   2.509
 3222SOL    HW110565   2.796   1.479   2.472
 3222SOL    HW210566   2.663   1.561   2.517
 3223SOL     OW10567   2.597   6.763   6.100
 3223SOL    HW110568   2.624   6.789   6.193
 3223SOL    HW210569   2.509   6.715   6.104
 3224SOL     OW10570   4.889   3.103   5.283
 3224SOL    HW110571   4.880   3.194   5.243
 3224SOL    HW210572   4.931   3.041   5.217
 3225SOL     OW10573   5.344   2.760   5.696
 3225SOL    HW110574   5.391   2.791   5.779
 3225SOL    HW210575   5.272   2.695   5.721
 3226SOL     OW10576   2.180   0.969   2.217
 3226SOL    HW110577   2.202   0.934   2.126
 3226SOL    HW210578   2.192   1.068   2.219
 3227SOL     OW10579   2.984   3.226   6.836
 3227SOL    HW110580   2.954   3.132   6.820
 3227SOL    HW210581   2.907   3.288   6.820
 3228SOL     OW10582   6.796   4.040   1.039
 3228SOL    HW110583   6.822   3.957   0.990
 3228SOL    HW210584   6.870   4.107   1.032
 3229SOL     OW10585   3.672   0.449   5.490
 3229SOL    HW110586   3.597   0.466   5.555
 3229SOL    HW210587   3.635   0.408   5.407
 3230SOL     OW10588   2.301   4.373   5.701
 3230SOL    HW110589   2.397   4.394   5.683
 3230SOL    HW210590   2.246   4.402   5.624
 3231SOL     OW10591   3.012   0.305   1.863
 3231SOL    HW110592   2.930   0.361   1.850
 3231SOL    HW210593   3.069   0.345   1.934
 3232SOL     OW10594   4.583   6.625   4.785
 3232SOL    HW110595   4.503   6.583   4.827
 3232SOL    HW210596   4.621   6.695   4.847
 3233SOL     OW10597   6.471   2.663   0.697
 3233SOL    HW110598   6.436   2.686   0.788
 3233SOL    HW210599   6.554   2.608   0.705
 3234SOL     OW10600   0.872   2.778   6.979
 3234SOL    HW110601   0.905   2.819   6.894
 3234SOL    HW210602   0.833   2.849   0.019
 3235SOL     OW10603   0.011   0.332   1.318
 3235SOL    HW110604   7.010   0.370   1.409
 3235SOL    HW210605   0.098   0.369   1.285
 3236SOL     OW10606   1.222   4.062   0.244
 3236SOL    HW110607   1.213   4.001   0.165
 3236SOL    HW210608   1.142   4.052   0.303
 3237SOL     OW10609   6.208   1.626   3.148
 3237SOL    HW110610   6.173   1.600   3.058
 3237SOL    HW210611   6.277   1.698   3.137
 3238SOL     OW10612   6.932   5.599   0.427
 3238SOL    HW110613   6.856   5.547   0.468
 3238SOL    HW210614   6.902   5.640   0.341
 3239SOL     OW10615   6.737   1.325   2.697
 3239SOL    HW110616   6.785   1.340   2.783
 3239SOL    HW210617   6.670   1.252   2.708
 3240SOL     OW10618   6.703   6.396   6.217
 3240SOL    HW110619   6.646   6.464   6.171
 3240SOL    HW210620   6.660   6.369   6.303
 3241SOL     OW10621   4.878   0.628   5.331
 3241SOL    HW110622   4.803   0.567   5.305
 3241SOL    HW210623   4.962   0.599   5.285
 3242SOL     OW10624   4.673   4.416   6.726
 3242SOL    HW110625   4.718   4.373   6.648
 3242SOL    HW210626   4.666   4.514   6.710
 3243SOL     OW10627   4.018   5.195   6.974
 3243SOL    HW110628   4.053   5.153   6.890
 3243SOL    HW210629   4.085   5.261   7.009
 3244SOL     OW10630   4.914   5.869   0.270
 3244SOL    HW110631   4.965   5.811   0.333
 3244SOL    HW210632   4.892   5.956   0.315
 3245SOL     OW10633   5.187   3.435   4.465
 3245SOL    HW110634   5.275   3.433   4.513
 3245SOL    HW210635   5.124   3.371   4.509
 3246SOL     OW10636   6.625   0.303   2.910
 3246SOL    HW110637   6.613   0.398   2.936
 3246SOL    HW210638   6.714   0.292   2.866
 3247SOL     OW10639   5.998   4.565   2.656
 3247SOL    HW110640   6.009   4.581   2.754
 3247SOL    HW210641   6.074   4.510   2.623
 3248SOL     OW10642   5.547   3.184   1.711
 3248SOL    HW110643   5.599   3.265   1.684
 3248SOL    HW210644   5.538   3.181   1.810
 3249SOL     OW10645   3.721   4.072   3.954
 3249SOL    HW110646   3.741   4.083   4.051
 3249SOL    HW210647   3.792   4.016   3.912
 3250SOL     OW10648   6.180   0.585   2.391
 3250SOL    HW110649   6.279   0.570   2.390
 3250SOL    HW210650   6.132   0.497   2.400
 3251SOL     OW10651   3.534   0.956   3.533
 3251SOL    HW110652   3.605   0.930   3.598
 3251SOL    HW210653   3.449   0.973   3.581
 3252SOL     OW10654   2.620   1.141   2.477
 3252SOL    HW110655   2.663   1.069   2.422
 3252SOL    HW210656   2.524   1.118   2.494
 3253SOL     OW10657   4.589   4.003   1.476
 3253SOL    HW110658   4.595   4.055   1.562
 3253SOL    HW210659   4.680   3.998   1.435
 3254SOL     OW10660   4.387   5.571   6.612
 3254SOL    HW110661   4.329   5.596   6.689
 3254SOL    HW210662   4.392   5.647   6.547
 3255SOL     OW10663   4.288   6.721   0.727
 3255SOL    HW110664   4.319   6.814   0.749
 3255SOL    HW210665   4.339   6.686   0.649
 3256SOL     OW10666   3.615   1.295   1.088
 3256SOL    HW110667   3.552   1.218   1.091
 3256SOL    HW210668   3.655   1.303   0.996
 3257SOL     OW10669   1.123   1.974   2.184
 3257SOL    HW110670   1.121   1.922   2.098
 3257SOL    HW210671   1.141   1.912   2.260
 3258SOL     OW10672   4.635   5.943   2.357
 3258SOL    HW110673   4.671   5.982   2.441
 3258SOL    HW210674   4.572   5.868   2.380
 3259SOL     OW10675   5.206   4.785   5.257
 3259SOL    HW110676   5.243   4.732   5.181
 3259SOL    HW210677   5.117   4.747   5.284
 3260SOL     OW10678   1.428   2.675   0.984
 3260SOL    HW110679   1.517   2.721   0.982
 3260SOL    HW210680   1.383   2.692   1.071
 3261SOL     OW10681   5.503   0.364   1.420
 3261SOL    HW110682   5.569   0.291   1.403
 3261SOL    HW210683   5.475   0.405   1.334
 3262SOL     OW10684   3.164   1.749   2.128
 3262SOL    HW110685   3.086   1.696   2.097
 3262SOL    HW210686   3.178   1.735   2.226
 3263SOL     OW10687   2.612   1.243   2.952
 3263SOL    HW110688   2.596   1.317   2.887
 3263SOL    HW210689   2.596   1.155   2.907
 3264SOL     OW10690   1.297   5.778   0.681
 3264SOL    HW110691   1.326   5.816   0.768
 3264SOL    HW210692   1.377   5.753   0.627
 3265SOL     OW10693   4.443   0.710   6.333
 3265SOL    HW110694   4.521   0.769   6.355
 3265SOL    HW210695   4.423   0.650   6.410
 3266SOL     OW10696   2.030   4.332   0.025
 3266SOL    HW110697   2.083   4.255   7.010
 3266SOL    HW210698   2.070   4.366   0.110
 3267SOL     OW10699   3.205   6.231   1.362
 3267SOL    HW110700   3.260   6.292   1.419
 3267SOL    HW210701   3.151   6.171   1.421
 3268SOL     OW10702   2.070   3.884   1.743
 3268SOL    HW110703   2.075   3.788   1.768
 3268SOL    HW210704   2.115   3.940   1.812
 3269SOL     OW10705   4.897   5.881   2.244
 3269SOL    HW110706   4.802   5.887   2.273
 3269SOL    HW210707   4.929   5.787   2.255
 3270SOL     OW10708   1.364   4.393   6.172
 3270SOL    HW110709   1.435   4.390   6.242
 3270SOL    HW210710   1.395   4.451   6.096
 3271SOL     OW10711   5.613   3.691   1.826
 3271SOL    HW110712   5.597   3.737   1.738
 3271SOL    HW210713   5.710   3.667   1.834
 3272SOL     OW10714   2.820   4.438   6.120
 3272SOL    HW110715   2.909   4.444   6.075
 3272SOL    HW210716   2.747   4.453   6.053
 3273SOL     OW10717   6.173   5.539   0.394
 3273SOL    HW110718   6.269   5.565   0.404
 3273SOL    HW210719   6.118   5.590   0.460
 3274SOL     OW10720   5.390   1.145   1.199
 3274SOL    HW110721   5.355   1.239   1.204
 3274SOL    HW210722   5.490   1.147   1.193
 3275SOL     OW10723   5.688   0.823   0.117
 3275SOL    HW110724   5.703   0.894   0.185
 3275SOL    HW210725   5.741   0.844   0.035
 3276SOL     OW10726   3.358   5.921   6.517
 3276SOL    HW110727   3.411   5.951   6.596
 3276SOL    HW210728   3.292   5.851   6.546
 3277SOL     OW10729   3.619   0.195   0.621
 3277SOL    HW110730   3.621   0.115   0.561
 3277SOL    HW210731   3.709   0.238   0.620
 3278SOL     OW10732   0.839   0.713   5.676
 3278SOL    HW110733   0.812   0.803   5.644
 3278SOL    HW210734   0.761   0.670   5.723
 3279SOL     OW10735   4.821   0.175   0.337
 3279SOL    HW110736   4.837   0.198   0.432
 3279SOL    HW210737   4.891   0.109   0.306
 3280SOL     OW10738   5.017   4.304   4.381
 3280SOL    HW110739   4.934   4.248   4.382
 3280SOL    HW210740   5.064   4.291   4.294
 3281SOL     OW10741   1.309   4.816   1.653
 3281SOL    HW110742   1.260   4.901   1.636
 3281SOL    HW210743   1.253   4.755   1.708
 3282SOL     OW10744   0.272   5.115   5.067
 3282SOL    HW110745   0.363   5.141   5.100
 3282SOL    HW210746   0.205   5.132   5.140
 3283SOL     OW10747   3.523   0.695   1.089
 3283SOL    HW110748   3.589   0.626   1.119
 3283SOL    HW210749   3.554   0.785   1.119
 3284SOL     OW10750   0.436   5.448   6.662
 3284SOL    HW110751   0.478   5.357   6.664
 3284SOL    HW210752   0.447   5.488   6.570
 3285SOL     OW10753   4.098   2.231   3.650
 3285SOL    HW110754   4.133   2.207   3.741
 3285SOL    HW210755   4.096   2.330   3.640
 3286SOL     OW10756   3.464   3.211   2.517
 3286SOL    HW110757   3.556   3.231   2.484
 3286SOL    HW210758   3.462   3.120   2.558
 3287SOL     OW10759   0.836   0.348   0.107
 3287SOL    HW110760   0.928   0.317   0.084
 3287SOL    HW210761   0.770   0.274   0.093
 3288SOL     OW10762   1.886   6.194   0.207
 3288SOL    HW110763   1.938   6.280   0.208
 3288SOL    HW210764   1.789   6.214   0.198
 3289SOL     OW10765   2.952   0.849   5.145
 3289SOL    HW110766   2.985   0.937   5.111
 3289SOL    HW210767   2.969   0.779   5.077
 3290SOL     OW10768   0.459   5.682   1.623
 3290SOL    HW110769   0.422   5.674   1.530
 3290SOL    HW210770   0.414   5.759   1.669
 3291SOL     OW10771   1.954   0.161   6.647
 3291SOL    HW110772   2.036   0.148   6.592
 3291SOL    HW210773   1.877   0.185   6.587
 3292SOL     OW10774   0.051   0.861   0.780
 3292SOL    HW110775   0.000   0.946   0.798
 3292SOL    HW210776   7.009   0.795   0.736
 3293SOL     OW10777   6.725   4.235   2.231
 3293SOL    HW110778   6.652   4.201   2.171
 3293SOL    HW210779   6.693   4.234   2.326
 3294SOL     OW10780   6.090   2.643   6.266
 3294SOL    HW110781   6.169   2.688   6.309
 3294SOL    HW210782   6.121   2.585   6.191
 3295SOL     OW10783   1.340   2.716   2.121
 3295SOL    HW110784   1.370   2.688   2.212
 3295SOL    HW210785   1.265   2.657   2.090
 3296SOL     OW10786   1.493   6.995   2.850
 3296SOL    HW110787   1.586   0.014   2.850
 3296SOL    HW210788   1.484   6.927   2.922
 3297SOL     OW10789   2.992   1.564   5.539
 3297SOL    HW110790   2.915   1.509   5.506
 3297SOL    HW210791   3.045   1.598   5.461
 3298SOL     OW10792   6.039   2.156   5.610
 3298SOL    HW110793   5.957   2.202   5.647
 3298SOL    HW210794   6.020   2.059   5.600
 3299SOL     OW10795   3.713   5.843   3.006
 3299SOL    HW110796   3.726   5.765   3.067
 3299SOL    HW210797   3.763   5.921   3.042
 3300SOL     OW10798   0.423   0.827   5.340
 3300SOL    HW110799   0.486   0.871   5.276
 3300SOL    HW210800   0.462   0.828   5.432
 3301SOL     OW10801   2.147   2.983   3.485
 3301SOL    HW110802   2.091   3.019   3.410
 3301SOL    HW210803   2.102   2.906   3.528
 3302SOL     OW10804   0.658   5.027   5.550
 3302SOL    HW110805   0.640   4.940   5.596
 3302SOL    HW210806   0.574   5.062   5.508
 3303SOL     OW10807   3.398   3.567   0.938
 3303SOL    HW110808   3.434   3.567   0.845
 3303SOL    HW210809   3.371   3.660   0.964
 3304SOL     OW10810   1.666   5.369   4.571
 3304SOL    HW110811   1.656   5.292   4.508
 3304SOL    HW210812   1.648   5.455   4.523
 3305SOL     OW10813   2.127   1.213   2.071
 3305SOL    HW110814   2.211   1.219   2.124
 3305SOL    HW210815   2.060   1.280   2.105
 3306SOL     OW10816   2.053   5.433   4.766
 3306SOL    HW110817   1.956   5.411   4.779
 3306SOL    HW210818   2.103   5.415   4.850
 3307SOL     OW10819   6.898   6.090   6.550
 3307SOL    HW110820   6.863   6.000   6.576
 3307SOL    HW210821   6.910   6.094   6.451
 3308SOL     OW10822   2.847   6.011   1.300
 3308SOL    HW110823   2.828   6.011   1.202
 3308SOL    HW210824   2.777   5.959   1.348
 3309SOL     OW10825   6.433   5.614   4.002
 3309SOL    HW110826   6.469   5.551   3.932
 3309SOL    HW210827   6.502   5.684   4.023
 3310SOL     OW10828   0.276   4.096   5.258
 3310SOL    HW110829   0.277   4.073   5.356
 3310SOL    HW210830   0.319   4.185   5.245
 3311SOL     OW10831   4.213   4.016   0.511
 3311SOL    HW110832   4.187   4.027   0.415
 3311SOL    HW210833   4.136   4.040   0.570
 3312SOL     OW10834   4.330   4.642   5.707
 3312SOL    HW110835   4.324   4.580   5.786
 3312SOL    HW210836   4.412   4.699   5.717
 3313SOL     OW10837   1.122   6.235   3.560
 3313SOL    HW110838   1.095   6.305   3.494
 3313SOL    HW210839   1.188   6.273   3.624
 3314SOL     OW10840   2.156   1.223   2.387
 3314SOL    HW110841   2.059   1.199   2.380
 3314SOL    HW210842   2.180   1.238   2.482
 3315SOL     OW10843   6.593   4.503   4.917
 3315SOL    HW110844   6.636   4.584   4.877
 3315SOL    HW210845   6.661   4.451   4.968
 3316SOL     OW10846   5.161   0.947   5.745
 3316SOL    HW110847   5.074   0.950   5.696
 3316SOL    HW210848   5.192   1.040   5.764
 3317SOL     OW10849   4.898   2.898   1.813
 3317SOL    HW110850   4.815   2.871   1.764
 3317SOL    HW210851   4.873   2.946   1.897
 3318SOL     OW10852   1.962   1.967   1.475
 3318SOL    HW110853   1.998   1.898   1.412
 3318SOL    HW210854   1.983   1.942   1.569
 3319SOL     OW10855   6.316   1.897   3.752
 3319SOL    HW110856   6.260   1.854   3.823
 3319SOL    HW210857   6.399   1.934   3.793
 3320SOL     OW10858   6.665   0.544   5.126
 3320SOL    HW110859   6.732   0.476   5.096
 3320SOL    HW210860   6.700   0.594   5.205
 3321SOL     OW10861   4.640   1.474   0.401
 3321SOL    HW110862   4.576   1.545   0.371
 3321SOL    HW210863   4.604   1.384   0.377
 3322SOL     OW10864   6.623   2.624   1.115
 3322SOL    HW110865   6.659   2.535   1.089
 3322SOL    HW210866   6.693   2.694   1.098
 3323SOL     OW10867   3.132   2.611   0.398
 3323SOL    HW110868   3.143   2.573   0.489
 3323SOL    HW210869   3.105   2.538   0.334
 3324SOL     OW10870   4.129   5.039   6.406
 3324SOL    HW110871   4.180   4.996   6.331
 3324SOL    HW210872   4.033   5.010   6.402
 3325SOL     OW10873   0.001   3.386   6.481
 3325SOL    HW110874   0.062   3.422   6.552
 3325SOL    HW210875   0.054   3.336   6.413
 3326SOL     OW10876   5.152   1.872   2.468
 3326SOL    HW110877   5.067   1.825   2.445
 3326SOL    HW210878   5.229   1.822   2.429
 3327SOL     OW10879   3.083   5.302   1.973
 3327SOL    HW110880   3.151   5.350   2.028
 3327SOL    HW210881   3.129   5.245   1.905
 3328SOL     OW10882   4.418   1.946   0.441
 3328SOL    HW110883   4.485   2.003   0.394
 3328SOL    HW210884   4.372   2.000   0.511
 3329SOL     OW10885   5.725   0.370   4.766
 3329SOL    HW110886   5.644   0.403   4.815
 3329SOL    HW210887   5.786   0.447   4.748
 3330SOL     OW10888   6.596   4.514   1.680
 3330SOL    HW110889   6.560   4.535   1.589
 3330SOL    HW210890   6.629   4.598   1.722
 3331SOL     OW10891   2.202   2.733   1.775
 3331SOL    HW110892   2.301   2.722   1.783
 3331SOL    HW210893   2.171   2.804   1.838
 3332SOL     OW10894   5.480   5.643   6.788
 3332SOL    HW110895   5.434   5.630   6.875
 3332SOL    HW210896   5.416   5.682   6.721
 3333SOL     OW10897   4.583   4.684   6.680
 3333SOL    HW110898   4.560   4.637   6.595
 3333SOL    HW210899   4.500   4.704   6.732
 3334SOL     OW10900   2.767   4.055   1.671
 3334SOL    HW110901   2.838   3.991   1.702
 3334SOL    HW210902   2.802   4.149   1.676
 3335SOL     OW10903   4.737   6.193   5.711
 3335SOL    HW110904   4.821   6.175   5.660
 3335SOL    HW210905   4.702   6.108   5.749
 3336SOL     OW10906   2.868   5.989   4.760
 3336SOL    HW110907   2.963   5.964   4.740
 3336SOL    HW210908   2.842   6.068   4.705
 3337SOL     OW10909   2.955   3.786   2.657
 3337SOL    HW110910   2.995   3.877   2.674
 3337SOL    HW210911   2.990   3.722   2.725
 3338SOL     OW10912   5.746   2.592   1.452
 3338SOL    HW110913   5.773   2.633   1.365
 3338SOL    HW210914   5.715   2.498   1.437
 3339SOL     OW10915   6.651   0.281   6.922
 3339SOL    HW110916   6.610   0.197   6.886
 3339SOL    HW210917   6.706   0.324   6.851
 3340SOL     OW10918   3.621   0.718   2.333
 3340SOL    HW110919   3.714   0.757   2.336
 3340SOL    HW210920   3.582   0.720   2.425
 3341SOL     OW10921   0.982   5.706   3.300
 3341SOL    HW110922   0.920   5.642   3.344
 3341SOL    HW210923   0.950   5.800   3.315
 3342SOL     OW10924   2.460   0.004   4.365
 3342SOL    HW110925   2.452   0.078   4.298
 3342SOL    HW210926   2.542   6.969   4.345
 3343SOL     OW10927   4.783   3.013   0.632
 3343SOL    HW110928   4.814   3.004   0.538
 3343SOL    HW210929   4.704   2.953   0.647
 3344SOL     OW10930   5.652   3.501   3.929
 3344SOL    HW110931   5.685   3.426   3.872
 3344SOL    HW210932   5.564   3.476   3.969
 3345SOL     OW10933   1.486   3.597   6.103
 3345SOL    HW110934   1.532   3.511   6.125
 3345SOL    HW210935   1.444   3.635   6.185
 3346SOL     OW10936   1.598   0.486   0.263
 3346SOL    HW110937   1.623   0.582   0.248
 3346SOL    HW210938   1.580   0.472   0.361
 3347SOL     OW10939   0.892   3.756   4.149
 3347SOL    HW110940   0.802   3.795   4.130
 3347SOL    HW210941   0.962   3.820   4.117
 3348SOL     OW10942   2.948   3.245   3.741
 3348SOL    HW110943   2.992   3.324   3.783
 3348SOL    HW210944   2.849   3.254   3.747
 3349SOL     OW10945   1.261   5.706   3.181
 3349SOL    HW110946   1.253   5.709   3.081
 3349SOL    HW210947   1.170   5.701   3.222
 3350SOL     OW10948   1.317   2.409   5.784
 3350SOL    HW110949   1.226   2.448   5.769
 3350SOL    HW210950   1.347   2.364   5.701
 3351SOL     OW10951   5.283   0.428   2.438
 3351SOL    HW110952   5.309   0.521   2.463
 3351SOL    HW210953   5.277   0.372   2.520
 3352SOL     OW10954   0.214   2.730   0.602
 3352SOL    HW110955   0.146   2.691   0.540
 3352SOL    HW210956   0.305   2.697   0.577
 3353SOL     OW10957   1.474   5.678   1.983
 3353SOL    HW110958   1.545   5.626   2.030
 3353SOL    HW210959   1.438   5.748   2.045
 3354SOL     OW10960   4.925   2.669   5.196
 3354SOL    HW110961   4.929   2.577   5.235
 3354SOL    HW210962   4.832   2.705   5.206
 3355SOL     OW10963   2.112   1.533   0.621
 3355SOL    HW110964   2.019   1.501   0.636
 3355SOL    HW210965   2.139   1.593   0.696
 3356SOL     OW10966   1.960   4.390   6.098
 3356SOL    HW110967   2.005   4.368   6.011
 3356SOL    HW210968   2.025   4.432   6.160
 3357SOL     OW10969   2.680   4.855   1.938
 3357SOL    HW110970   2.719   4.781   1.993
 3357SOL    HW210971   2.585   4.869   1.965
 3358SOL     OW10972   5.000   0.578   0.625
 3358SOL    HW110973   5.016   0.676   0.624
 3358SOL    HW210974   5.085   0.530   0.644
 3359SOL     OW10975   0.181   0.445   3.689
 3359SOL    HW110976   0.142   0.374   3.748
 3359SOL    HW210977   0.112   0.473   3.622
 3360SOL     OW10978   0.462   1.302   6.521
 3360SOL    HW110979   0.537   1.280   6.583
 3360SOL    HW210980   0.380   1.252   6.550
 3361SOL     OW10981   0.654   4.355   3.084
 3361SOL    HW110982   0.694   4.263   3.084
 3361SOL    HW210983   0.654   4.391   2.991
 3362SOL     OW10984   3.686   1.629   3.685
 3362SOL    HW110985   3.691   1.602   3.589
 3362SOL    HW210986   3.704   1.727   3.694
 3363SOL     OW10987   6.923   6.996   0.530
 3363SOL    HW110988   7.000   6.954   0.483
 3363SOL    HW210989   6.957   0.046   0.594
 3364SOL     OW10990   1.164   4.544   3.841
 3364SOL    HW110991   1.219   4.624   3.821
 3364SOL    HW210992   1.075   4.573   3.876
 3365SOL     OW10993   0.670   2.449   5.374
 3365SOL    HW110994   0.686   2.428   5.277
 3365SOL    HW210995   0.650   2.546   5.384
 3366SOL     OW10996   6.128   0.618   6.111
 3366SOL    HW110997   6.085   0.695   6.158
 3366SOL    HW210998   6.186   0.651   6.037
 3367SOL     OW10999   3.648   2.778   1.533
 3367SOL    HW111000   3.682   2.713   1.601
 3367SOL    HW211001   3.713   2.786   1.458
 3368SOL     OW11002   0.763   4.970   5.911
 3368SOL    HW111003   0.859   4.953   5.886
 3368SOL    HW211004   0.747   5.069   5.911
 3369SOL     OW11005   3.864   2.605   5.842
 3369SOL    HW111006   3.799   2.636   5.772
 3369SOL    HW211007   3.818   2.546   5.908
 3370SOL     OW11008   6.722   5.972   6.160
 3370SOL    HW111009   6.661   5.903   6.119
 3370SOL    HW211010   6.721   6.054   6.103
 3371SOL     OW11011   1.664   3.560   2.179
 3371SOL    HW111012   1.712   3.562   2.092
 3371SOL    HW211013   1.567   3.542   2.163
 3372SOL     OW11014   0.946   1.212   1.144
 3372SOL    HW111015   1.008   1.166   1.208
 3372SOL    HW211016   0.995   1.284   1.096
 3373SOL     OW11017   0.013   1.933   2.951
 3373SOL    HW111018   6.970   1.898   3.022
 3373SOL    HW211019   0.096   1.877   2.950
 3374SOL     OW11020   1.538   6.353   4.381
 3374SOL    HW111021   1.627   6.392   4.357
 3374SOL    HW211022   1.527   6.264   4.337
 3375SOL     OW11023   6.037   5.730   6.275
 3375SOL    HW111024   5.940   5.752   6.274
 3375SOL    HW211025   6.051   5.643   6.324
 3376SOL     OW11026   3.978   3.158   3.600
 3376SOL    HW111027   3.900   3.215   3.574
 3376SOL    HW211028   3.970   3.134   3.696
 3377SOL     OW11029   0.352   6.470   4.799
 3377SOL    HW111030   0.370   6.481   4.897
 3377SOL    HW211031   0.341   6.560   4.757
 3378SOL     OW11032   6.931   1.052   0.247
 3378SOL    HW111033   6.861   0.981   0.256
 3378SOL    HW211034   6.895   1.139   0.279
 3379SOL     OW11035   6.612   6.210   6.770
 3379SOL    HW111036   6.574   6.273   6.837
 3379SOL    HW211037   6.711   6.217   6.771
 3380SOL     OW11038   6.007   6.764   6.208
 3380SOL    HW111039   5.982   6.668   6.196
 3380SOL    HW211040   5.948   6.806   6.277
 3381SOL     OW11041   1.070   2.777   1.323
 3381SOL    HW111042   0.979   2.779   1.281
 3381SOL    HW211043   1.061   2.791   1.422
 3382SOL     OW11044   0.451   1.372   0.936
 3382SOL    HW111045   0.474   1.344   0.843
 3382SOL    HW211046   0.397   1.456   0.933
 3383SOL     OW11047   4.447   5.840   2.066
 3383SOL    HW111048   4.493   5.877   1.985
 3383SOL    HW211049   4.348   5.849   2.055
 3384SOL     OW11050   2.170   3.404   5.752
 3384SOL    HW111051   2.245   3.440   5.808
 3384SOL    HW211052   2.102   3.360   5.811
 3385SOL     OW11053   0.017   2.998   3.879
 3385SOL    HW111054   0.091   3.013   3.945
 3385SOL    HW211055   0.041   2.921   3.819
 3386SOL     OW11056   6.404   3.575   6.700
 3386SOL    HW111057   6.352   3.516   6.638
 3386SOL    HW211058   6.440   3.653   6.648
 3387SOL     OW11059   3.139   1.270   3.661
 3387SOL    HW111060   3.060   1.246   3.717
 3387SOL    HW211061   3.108   1.305   3.573
 3388SOL     OW11062   5.080   3.113   1.999
 3388SOL    HW111063   5.002   3.166   1.964
 3388SOL    HW211064   5.130   3.072   1.923
 3389SOL     OW11065   5.420   4.758   5.445
 3389SOL    HW111066   5.362   4.750   5.364
 3389SOL    HW211067   5.454   4.852   5.452
 3390SOL     OW11068   5.076   4.706   5.884
 3390SOL    HW111069   5.090   4.614   5.920
 3390SOL    HW211070   5.114   4.712   5.792
 3391SOL     OW11071   4.962   3.138   4.956
 3391SOL    HW111072   4.983   3.235   4.953
 3391SOL    HW211073   5.027   3.091   5.015
 3392SOL     OW11074   2.876   6.787   4.018
 3392SOL    HW111075   2.849   6.875   3.978
 3392SOL    HW211076   2.973   6.772   4.002
 3393SOL     OW11077   0.111   6.348   6.965
 3393SOL    HW111078   0.186   6.334   0.010
 3393SOL    HW211079   0.091   6.445   6.957
 3394SOL     OW11080   6.184   3.163   1.444
 3394SOL    HW111081   6.117   3.093   1.468
 3394SOL    HW211082   6.269   3.145   1.494
 3395SOL     OW11083   5.602   3.045   3.340
 3395SOL    HW111084   5.558   3.128   3.372
 3395SOL    HW211085   5.572   2.967   3.396
 3396SOL     OW11086   5.062   1.663   3.327
 3396SOL    HW111087   4.976   1.696   3.366
 3396SOL    HW211088   5.135   1.673   3.395
 3397SOL     OW11089   2.284   0.796   5.252
 3397SOL    HW111090   2.264   0.724   5.185
 3397SOL    HW211091   2.220   0.790   5.328
 3398SOL     OW11092   1.018   0.204   4.488
 3398SOL    HW111093   0.935   0.149   4.494
 3398SOL    HW211094   1.092   0.148   4.451
 3399SOL     OW11095   5.752   4.343   4.447
 3399SOL    HW111096   5.758   4.403   4.368
 3399SOL    HW211097   5.758   4.397   4.531
 3400SOL     OW11098   4.868   2.422   6.071
 3400SOL    HW111099   4.927   2.474   6.009
 3400SOL    HW211100   4.880   2.454   6.164
 3401SOL     OW11101   6.766   3.610   1.097
 3401SOL    HW111102   6.727   3.612   1.190
 3401SOL    HW211103   6.853   3.561   1.098
 3402SOL     OW11104   3.551   6.147   6.689
 3402SOL    HW111105   3.598   6.059   6.682
 3402SOL    HW211106   3.505   6.153   6.778
 3403SOL     OW11107   4.101   6.679   4.911
 3403SOL    HW111108   4.003   6.665   4.929
 3403SOL    HW211109   4.123   6.776   4.923
 3404SOL     OW11110   5.069   1.558   6.993
 3404SOL    HW111111   4.974   1.587   7.000
 3404SOL    HW211112   5.072   1.465   6.957
 3405SOL     OW11113   0.097   3.536   4.256
 3405SOL    HW111114   0.157   3.512   4.180
 3405SOL    HW211115   0.004   3.551   4.221
 3406SOL     OW11116   0.643   4.231   2.038
 3406SOL    HW111117   0.686   4.195   1.955
 3406SOL    HW211118   0.602   4.319   2.019
 3407SOL     OW11119   1.382   5.163   6.802
 3407SOL    HW111120   1.308   5.162   6.736
 3407SOL    HW211121   1.355   5.214   6.884
 3408SOL     OW11122   4.908   3.820   5.517
 3408SOL    HW111123   4.908   3.725   5.484
 3408SOL    HW211124   4.820   3.863   5.497
 3409SOL     OW11125   3.107   6.058   6.588
 3409SOL    HW111126   3.009   6.052   6.567
 3409SOL    HW211127   3.155   6.101   6.511
 3410SOL     OW11128   0.095   6.134   6.754
 3410SOL    HW111129   0.086   6.222   6.798
 3410SOL    HW211130   0.035   6.130   6.674
 3411SOL     OW11131   0.512   2.958   1.724
 3411SOL    HW111132   0.598   3.007   1.736
 3411SOL    HW211133   0.435   3.016   1.751
 3412SOL     OW11134   4.088   2.607   6.862
 3412SOL    HW111135   4.075   2.525   6.917
 3412SOL    HW211136   4.002   2.658   6.857
 3413SOL     OW11137   5.520   1.519   1.065
 3413SOL    HW111138   5.552   1.601   1.111
 3413SOL    HW211139   5.462   1.466   1.127
 3414SOL     OW11140   1.893   0.589   5.984
 3414SOL    HW111141   1.877   0.560   5.889
 3414SOL    HW211142   1.823   0.551   6.043
 3415SOL     OW11143   1.656   3.855   4.830
 3415SOL    HW111144   1.647   3.943   4.785
 3415SOL    HW211145   1.617   3.783   4.773
 3416SOL     OW11146   0.120   5.605   0.833
 3416SOL    HW111147   0.208   5.618   0.787
 3416SOL    HW211148   0.122   5.652   0.922
 3417SOL     OW11149   0.509   5.753   3.149
 3417SOL    HW111150   0.524   5.842   3.193
 3417SOL    HW211151   0.462   5.692   3.213
 3418SOL     OW11152   3.870   0.873   4.382
 3418SOL    HW111153   3.839   0.782   4.408
 3418SOL    HW211154   3.962   0.866   4.342
 3419SOL     OW11155   4.068   5.867   5.041
 3419SOL    HW111156   4.122   5.864   5.125
 3419SOL    HW211157   4.011   5.949   5.041
 3420SOL     OW11158   5.352   2.866   4.191
 3420SOL    HW111159   5.387   2.940   4.248
 3420SOL    HW211160   5.427   2.809   4.160
 3421SOL     OW11161   5.730   0.874   6.188
 3421SOL    HW111162   5.661   0.835   6.249
 3421SOL    HW211163   5.691   0.951   6.138
 3422SOL     OW11164   1.846   0.511   1.144
 3422SOL    HW111165   1.749   0.520   1.126
 3422SOL    HW211166   1.886   0.602   1.160
 3423SOL     OW11167   1.627   5.134   0.011
 3423SOL    HW111168   1.671   5.191   6.960
 3423SOL    HW211169   1.569   5.191   0.068
 3424SOL     OW11170   2.789   6.465   1.775
 3424SOL    HW111171   2.864   6.530   1.787
 3424SOL    HW211172   2.703   6.509   1.799
 3425SOL     OW11173   5.056   4.848   2.508
 3425SOL    HW111174   5.145   4.892   2.495
 3425SOL    HW211175   5.047   4.820   2.604
 3426SOL     OW11176   3.655   2.595   0.867
 3426SOL    HW111177   3.730   2.530   0.878
 3426SOL    HW211178   3.674   2.655   0.790
 3427SOL     OW11179   6.508   0.069   0.179
 3427SOL    HW111180   6.510   7.009   0.240
 3427SOL    HW211181   6.426   0.064   0.122
 3428SOL     OW11182   2.950   4.677   0.584
 3428SOL    HW111183   2.989   4.767   0.564
 3428SOL    HW211184   2.961   4.617   0.505
 3429SOL     OW11185   0.325   2.296   0.369
 3429SOL    HW111186   0.420   2.310   0.399
 3429SOL    HW211187   0.313   2.336   0.279
 3430SOL     OW11188   0.352   6.489   5.078
 3430SOL    HW111189   0.353   6.411   5.140
 3430SOL    HW211190   0.274   6.547   5.099
 3431SOL     OW11191   1.094   0.051   1.392
 3431SOL    HW111192   1.027   0.085   1.326
 3431SOL    HW211193   1.072   0.086   1.482
 3432SOL     OW11194   1.908   2.474   0.005
 3432SOL    HW111195   1.934   2.385   0.040
 3432SOL    HW211196   1.922   2.544   0.075
 3433SOL     OW11197   0.919   0.369   6.299
 3433SOL    HW111198   0.958   0.277   6.303
 3433SOL    HW211199   0.882   0.394   6.388
 3434SOL     OW11200   4.678   2.127   0.669
 3434SOL    HW111201   4.636   2.036   0.682
 3434SOL    HW211202   4.609   2.190   0.634
 3435SOL     OW11203   0.846   1.861   1.093
 3435SOL    HW111204   0.760   1.906   1.065
 3435SOL    HW211205   0.836   1.762   1.085
 3436SOL     OW11206   3.411   5.809   6.254
 3436SOL    HW111207   3.377   5.847   6.340
 3436SOL    HW211208   3.338   5.760   6.207
 3437SOL     OW11209   1.984   1.272   5.871
 3437SOL    HW111210   1.948   1.208   5.939
 3437SOL    HW211211   1.971   1.366   5.904
 3438SOL     OW11212   1.332   2.741   0.295
 3438SOL    HW111213   1.266   2.691   0.240
 3438SOL    HW211214   1.293   2.762   0.384
 3439SOL     OW11215   2.067   6.414   4.884
 3439SOL    HW111216   2.158   6.385   4.913
 3439SOL    HW211217   2.054   6.388   4.788
 3440SOL     OW11218   3.782   3.355   1.596
 3440SOL    HW111219   3.813   3.410   1.674
 3440SOL    HW211220   3.836   3.377   1.516
 3441SOL     OW11221   5.305   0.015   4.101
 3441SOL    HW111222   5.366   6.959   4.073
 3441SOL    HW211223   5.274   0.064   4.019
 3442SOL     OW11224   3.513   5.690   1.996
 3442SOL    HW111225   3.478   5.689   2.089
 3442SOL    HW211226   3.529   5.784   1.967
 3443SOL     OW11227   5.159   6.423   1.972
 3443SOL    HW111228   5.112   6.393   2.054
 3443SOL    HW211229   5.257   6.407   1.982
 3444SOL     OW11230   5.291   5.587   0.261
 3444SOL    HW111231   5.290   5.498   0.307
 3444SOL    HW211232   5.197   5.617   0.246
 3445SOL     OW11233   6.031   5.958   4.596
 3445SOL    HW111234   6.101   5.955   4.667
 3445SOL    HW211235   5.943   5.986   4.636
 3446SOL     OW11236   6.281   0.139   2.666
 3446SOL    HW111237   6.300   0.146   2.764
 3446SOL    HW211238   6.304   0.226   2.621
 3447SOL     OW11239   5.449   5.826   1.016
 3447SOL    HW111240   5.429   5.809   1.112
 3447SOL    HW211241   5.458   5.739   0.968
 3448SOL     OW11242   3.283   0.114   0.770
 3448SOL    HW111243   3.280   0.208   0.804
 3448SOL    HW211244   3.344   0.059   0.827
 3449SOL     OW11245   6.624   6.888   3.932
 3449SOL    HW111246   6.580   6.975   3.953
 3449SOL    HW211247   6.724   6.900   3.930
 3450SOL     OW11248   6.876   1.927   6.672
 3450SOL    HW111249   6.929   2.009   6.650
 3450SOL    HW211250   6.811   1.908   6.598
 3451SOL     OW11251   2.129   6.335   1.857
 3451SOL    HW111252   2.227   6.323   1.870
 3451SOL    HW211253   2.079   6.268   1.911
 3452SOL     OW11254   5.961   0.919   6.000
 3452SOL    HW111255   5.927   0.900   6.093
 3452SOL    HW211256   5.889   0.963   5.947
 3453SOL     OW11257   6.763   5.950   5.778
 3453SOL    HW111258   6.775   5.866   5.724
 3453SOL    HW211259   6.806   6.027   5.731
 3454SOL     OW11260   1.116   2.031   6.567
 3454SOL    HW111261   1.152   2.112   6.520
 3454SOL    HW211262   1.193   1.973   6.595
 3455SOL     OW11263   2.561   2.185   4.470
 3455SOL    HW111264   2.506   2.157   4.549
 3455SOL    HW211265   2.611   2.106   4.434
 3456SOL     OW11266   5.960   5.338   2.715
 3456SOL    HW111267   5.911   5.332   2.802
 3456SOL    HW211268   6.055   5.309   2.728
 3457SOL     OW11269   3.182   5.712   3.806
 3457SOL    HW111270   3.107   5.647   3.792
 3457SOL    HW211271   3.214   5.746   3.718
 3458SOL     OW11272   4.784   0.386   1.044
 3458SOL    HW111273   4.788   0.443   0.962
 3458SOL    HW211274   4.704   0.327   1.041
 3459SOL     OW11275   5.932   4.023   2.822
 3459SOL    HW111276   6.030   4.015   2.804
 3459SOL    HW211277   5.882   4.006   2.737
 3460SOL     OW11278   2.686   3.238   0.026
 3460SOL    HW111279   2.686   3.281   0.116
 3460SOL    HW211280   2.604   3.265   6.995
 3461SOL     OW11281   4.447   6.751   5.169
 3461SOL    HW111282   4.507   6.795   5.235
 3461SOL    HW211283   4.354   6.747   5.205
 3462SOL     OW11284   0.649   3.644   2.178
 3462SOL    HW111285   0.617   3.583   2.106
 3462SOL    HW211286   0.749   3.645   2.180
 3463SOL     OW11287   0.943   3.985   2.905
 3463SOL    HW111288   1.029   4.023   2.938
 3463SOL    HW211289   0.924   3.899   2.954
 3464SOL     OW11290   6.550   3.340   6.782
 3464SOL    HW111291   6.523   3.318   6.876
 3464SOL    HW211292   6.508   3.426   6.754
 3465SOL     OW11293   1.489   2.649   2.339
 3465SOL    HW111294   1.516   2.731   2.389
 3465SOL    HW211295   1.562   2.581   2.345
 3466SOL     OW11296   6.908   4.533   6.984
 3466SOL    HW111297   6.895   4.569   0.057
 3466SOL    HW211298   6.869   4.597   6.918
 3467SOL     OW11299   2.268   2.565   0.806
 3467SOL    HW111300   2.326   2.503   0.859
 3467SOL    HW211301   2.212   2.620   0.868
 3468SOL     OW11302   5.982   0.009   2.847
 3468SOL    HW111303   6.078   7.015   2.871
 3468SOL    HW211304   5.947   6.945   2.802
 3469SOL     OW11305   4.706   6.985   3.614
 3469SOL    HW111306   4.670   6.914   3.674
 3469SOL    HW211307   4.760   0.030   3.668
 3470SOL     OW11308   6.562   2.689   2.029
 3470SOL    HW111309   6.534   2.701   1.934
 3470SOL    HW211310   6.611   2.603   2.039
 3471SOL     OW11311   4.683   4.821   4.607
 3471SOL    HW111312   4.609   4.888   4.600
 3471SOL    HW211313   4.673   4.754   4.534
 3472SOL     OW11314   3.033   1.202   3.130
 3472SOL    HW111315   2.951   1.167   3.173
 3472SOL    HW211316   3.008   1.252   3.046
 3473SOL     OW11317   0.003   2.706   1.416
 3473SOL    HW111318   0.006   2.750   1.326
 3473SOL    HW211319   0.096   2.692   1.449
 3474SOL     OW11320   1.200   4.750   2.478
 3474SOL    HW111321   1.237   4.657   2.478
 3474SOL    HW211322   1.139   4.761   2.399
 3475SOL     OW11323   1.080   4.380   4.431
 3475SOL    HW111324   1.142   4.308   4.462
 3475SOL    HW211325   1.128   4.468   4.432
 3476SOL     OW11326   2.047   1.569   2.918
 3476SOL    HW111327   2.018   1.652   2.965
 3476SOL    HW211328   2.117   1.523   2.972
 3477SOL     OW11329   1.659   5.401   0.832
 3477SOL    HW111330   1.720   5.479   0.821
 3477SOL    HW211331   1.606   5.388   0.748
 3478SOL     OW11332   2.717   5.334   5.223
 3478SOL    HW111333   2.727   5.302   5.129
 3478SOL    HW211334   2.736   5.258   5.286
 3479SOL     OW11335   0.613   0.641   3.169
 3479SOL    HW111336   0.603   0.723   3.114
 3479SOL    HW211337   0.593   0.560   3.114
 3480SOL     OW11338   0.509   6.243   4.817
 3480SOL    HW111339   0.603   6.275   4.827
 3480SOL    HW211340   0.451   6.318   4.784
 3481SOL     OW11341   4.621   0.793   0.157
 3481SOL    HW111342   4.537   0.744   0.135
 3481SOL    HW211343   4.663   0.752   0.239
 3482SOL     OW11344   6.384   1.615   1.949
 3482SOL    HW111345   6.301   1.670   1.946
 3482SOL    HW211346   6.381   1.555   2.029
 3483SOL     OW11347   4.878   2.189   1.951
 3483SOL    HW111348   4.905   2.101   1.913
 3483SOL    HW211349   4.797   2.177   2.009
 3484SOL     OW11350   1.115   3.044   0.045
 3484SOL    HW111351   1.120   2.970   6.996
 3484SOL    HW211352   1.121   3.132   7.018
 3485SOL     OW11353   2.098   1.629   4.084
 3485SOL    HW111354   2.035   1.699   4.052
 3485SOL    HW211355   2.049   1.544   4.100
 3486SOL     OW11356   2.791   0.248   3.773
 3486SOL    HW111357   2.744   0.253   3.861
 3486SOL    HW211358   2.816   0.340   3.744
 3487SOL     OW11359   5.929   2.589   5.602
 3487SOL    HW111360   5.996   2.521   5.574
 3487SOL    HW211361   5.970   2.680   5.598
 3488SOL     OW11362   6.504   0.489   4.554
 3488SOL    HW111363   6.556   0.561   4.599
 3488SOL    HW211364   6.566   0.419   4.519
 3489SOL     OW11365   4.408   6.908   1.484
 3489SOL    HW111366   4.366   6.946   1.402
 3489SOL    HW211367   4.506   6.929   1.484
 3490SOL     OW11368   4.405   4.552   0.537
 3490SOL    HW111369   4.472   4.625   0.526
 3490SOL    HW211370   4.418   4.483   0.465
 3491SOL     OW11371   4.350   2.557   5.784
 3491SOL    HW111372   4.388   2.466   5.768
 3491SOL    HW211373   4.370   2.615   5.705
 3492SOL     OW11374   6.727   4.803   1.598
 3492SOL    HW111375   6.796   4.800   1.527
 3492SOL    HW211376   6.772   4.806   1.688
 3493SOL     OW11377   5.309   4.031   5.222
 3493SOL    HW111378   5.234   3.965   5.225
 3493SOL    HW211379   5.303   4.084   5.137
 3494SOL     OW11380   3.599   0.366   1.799
 3494SOL    HW111381   3.684   0.349   1.750
 3494SOL    HW211382   3.602   0.320   1.888
 3495SOL     OW11383   5.476   5.053   1.522
 3495SOL    HW111384   5.429   4.972   1.485
 3495SOL    HW211385   5.529   5.027   1.603
 3496SOL     OW11386   5.928   4.563   0.994
 3496SOL    HW111387   5.983   4.521   1.066
 3496SOL    HW211388   5.986   4.589   0.917
 3497SOL     OW11389   2.722   1.278   3.919
 3497SOL    HW111390   2.719   1.377   3.917
 3497SOL    HW211391   2.713   1.246   4.013
 3498SOL     OW11392   2.971   2.122   1.126
 3498SOL    HW111393   2.952   2.217   1.103
 3498SOL    HW211394   3.056   2.117   1.178
 3499SOL     OW11395   4.898   3.703   3.891
 3499SOL    HW111396   4.915   3.619   3.944
 3499SOL    HW211397   4.974   3.766   3.903
 3500SOL     OW11398   1.783   3.821   5.078
 3500SOL    HW111399   1.763   3.820   4.980
 3500SOL    HW211400   1.875   3.857   5.093
 3501SOL     OW11401   1.531   5.667   5.042
 3501SOL    HW111402   1.456   5.729   5.017
 3501SOL    HW211403   1.618   5.711   5.023
 3502SOL     OW11404   6.753   2.801   2.557
 3502SOL    HW111405   6.714   2.840   2.641
 3502SOL    HW211406   6.689   2.815   2.481
 3503SOL     OW11407   6.287   6.685   5.010
 3503SOL    HW111408   6.317   6.592   4.989
 3503SOL    HW211409   6.188   6.687   5.017
 3504SOL     OW11410   2.431   1.531   1.628
 3504SOL    HW111411   2.502   1.507   1.694
 3504SOL    HW211412   2.344   1.542   1.676
 3505SOL     OW11413   5.897   4.185   5.218
 3505SOL    HW111414   5.846   4.111   5.173
 3505SOL    HW211415   5.851   4.209   5.304
 3506SOL     OW11416   5.111   5.508   5.616
 3506SOL    HW111417   5.133   5.528   5.520
 3506SOL    HW211418   5.023   5.550   5.639
 3507SOL     OW11419   1.370   0.749   0.687
 3507SOL    HW111420   1.335   0.840   0.709
 3507SOL    HW211421   1.385   0.698   0.772
 3508SOL     OW11422   2.750   2.156   5.350
 3508SOL    HW111423   2.696   2.239   5.340
 3508SOL    HW211424   2.733   2.095   5.272
 3509SOL     OW11425   5.430   0.027   6.031
 3509SOL    HW111426   5.354   0.091   6.017
 3509SOL    HW211427   5.462   0.035   6.126
 3510SOL     OW11428   1.375   2.145   2.191
 3510SOL    HW111429   1.339   2.236   2.212
 3510SOL    HW211430   1.300   2.078   2.192
 3511SOL     OW11431   2.647   4.986   0.663
 3511SOL    HW111432   2.607   4.911   0.610
 3511SOL    HW211433   2.703   5.043   0.603
 3512SOL     OW11434   0.200   4.625   1.290
 3512SOL    HW111435   0.204   4.525   1.286
 3512SOL    HW211436   0.260   4.664   1.221
 3513SOL     OW11437   5.564   2.613   0.320
 3513SOL    HW111438   5.469   2.587   0.338
 3513SOL    HW211439   5.620   2.530   0.316
 3514SOL     OW11440   0.325   1.592   1.718
 3514SOL    HW111441   0.324   1.646   1.635
 3514SOL    HW211442   0.234   1.555   1.736
 3515SOL     OW11443   5.296   5.963   3.219
 3515SOL    HW111444   5.210   6.004   3.250
 3515SOL    HW211445   5.373   6.019   3.250
 3516SOL     OW11446   4.890   6.857   0.691
 3516SOL    HW111447   4.810   6.883   0.745
 3516SOL    HW211448   4.967   6.838   0.752
 3517SOL     OW11449   1.286   2.576   0.632
 3517SOL    HW111450   1.264   2.493   0.579
 3517SOL    HW211451   1.234   2.653   0.596
 3518SOL     OW11452   6.174   2.296   4.081
 3518SOL    HW111453   6.267   2.302   4.117
 3518SOL    HW211454   6.123   2.227   4.133
 3519SOL     OW11455   1.551   0.684   6.779
 3519SOL    HW111456   1.516   0.757   6.837
 3519SOL    HW211457   1.650   0.680   6.785
 3520SOL     OW11458   3.229   4.535   6.642
 3520SOL    HW111459   3.263   4.621   6.604
 3520SOL    HW211460   3.135   4.549   6.674
 3521SOL     OW11461   4.995   2.127   6.891
 3521SOL    HW111462   5.093   2.108   6.886
 3521SOL    HW211463   4.971   2.159   6.982
 3522SOL     OW11464   0.472   4.795   1.889
 3522SOL    HW111465   0.543   4.726   1.900
 3522SOL    HW211466   0.479   4.862   1.963
 3523SOL     OW11467   2.011   5.338   6.193
 3523SOL    HW111468   2.051   5.427   6.216
 3523SOL    HW211469   1.920   5.352   6.155
 3524SOL     OW11470   4.654   1.482   1.812
 3524SOL    HW111471   4.752   1.497   1.794
 3524SOL    HW211472   4.643   1.399   1.867
 3525SOL     OW11473   1.347   4.182   3.314
 3525SOL    HW111474   1.417   4.111   3.323
 3525SOL    HW211475   1.270   4.162   3.374
 3526SOL     OW11476   1.971   6.570   4.280
 3526SOL    HW111477   1.896   6.609   4.227
 3526SOL    HW211478   2.038   6.641   4.300
 3527SOL     OW11479   6.000   3.132   6.282
 3527SOL    HW111480   5.983   3.158   6.187
 3527SOL    HW211481   5.932   3.177   6.341
 3528SOL     OW11482   0.787   5.845   4.968
 3528SOL    HW111483   0.710   5.786   4.943
 3528SOL    HW211484   0.857   5.790   5.015
 3529SOL     OW11485   3.940   0.436   0.104
 3529SOL    HW111486   3.878   0.432   0.182
 3529SOL    HW211487   4.025   0.389   0.125
 3530SOL     OW11488   0.317   5.228   2.607
 3530SOL    HW111489   0.306   5.299   2.676
 3530SOL    HW211490   0.367   5.265   2.528
 3531SOL     OW11491   5.121   3.152   0.559
 3531SOL    HW111492   5.094   3.104   0.643
 3531SOL    HW211493   5.065   3.119   0.483
 3532SOL     OW11494   2.747   0.641   1.500
 3532SOL    HW111495   2.683   0.632   1.424
 3532SOL    HW211496   2.841   0.635   1.467
 3533SOL     OW11497   1.868   2.003   2.523
 3533SOL    HW111498   1.798   2.049   2.577
 3533SOL    HW211499   1.883   1.911   2.560
 3534SOL     OW11500   6.080   0.845   6.326
 3534SOL    HW111501   6.093   0.773   6.395
 3534SOL    HW211502   6.030   0.921   6.366
 3535SOL     OW11503   1.643   6.119   0.994
 3535SOL    HW111504   1.691   6.035   1.019
 3535SOL    HW211505   1.687   6.161   0.915
 3536SOL     OW11506   2.825   2.317   3.139
 3536SOL    HW111507   2.793   2.379   3.211
 3536SOL    HW211508   2.923   2.299   3.152
 3537SOL     OW11509   3.165   5.456   1.649
 3537SOL    HW111510   3.127   5.369   1.617
 3537SOL    HW211511   3.253   5.439   1.693
 3538SOL     OW11512   1.528   0.440   6.340
 3538SOL    HW111513   1.460   0.371   6.315
 3538SOL    HW211514   1.489   0.500   6.411
 3539SOL     OW11515   5.597   3.267   5.680
 3539SOL    HW111516   5.504   3.300   5.697
 3539SOL    HW211517   5.653   3.343   5.646
 3540SOL     OW11518   2.585   2.263   5.842
 3540SOL    HW111519   2.504   2.246   5.785
 3540SOL    HW211520   2.564   2.335   5.908
 3541SOL     OW11521   1.431   2.248   6.708
 3541SOL    HW111522   1.528   2.242   6.682
 3541SOL    HW211523   1.380   2.292   6.635
 3542SOL     OW11524   1.386   4.948   2.487
 3542SOL    HW111525   1.316   4.879   2.503
 3542SOL    HW211526   1.343   5.033   2.455
 3543SOL     OW11527   0.557   2.142   4.857
 3543SOL    HW111528   0.639   2.198   4.861
 3543SOL    HW211529   0.487   2.189   4.803
 3544SOL     OW11530   2.697   4.173   6.187
 3544SOL    HW111531   2.706   4.116   6.105
 3544SOL    HW211532   2.756   4.254   6.179
 3545SOL     OW11533   4.122   5.293   0.596
 3545SOL    HW111534   4.158   5.263   0.684
 3545SOL    HW211535   4.033   5.337   0.609
 3546SOL     OW11536   0.726   3.939   4.034
 3546SOL    HW111537   0.725   3.942   4.134
 3546SOL    HW211538   0.811   3.979   3.999
 3547SOL     OW11539   6.665   4.946   5.021
 3547SOL    HW111540   6.702   4.897   4.943
 3547SOL    HW211541   6.663   4.887   5.101
 3548SOL     OW11542   5.826   0.698   5.819
 3548SOL    HW111543   5.816   0.796   5.838
 3548SOL    HW211544   5.921   0.672   5.830
 3549SOL     OW11545   6.768   4.351   5.892
 3549SOL    HW111546   6.739   4.370   5.986
 3549SOL    HW211547   6.793   4.436   5.847
 3550SOL     OW11548   5.892   3.575   3.502
 3550SOL    HW111549   5.852   3.654   3.455
 3550SOL    HW211550   5.939   3.606   3.585
 3551SOL     OW11551   3.545   1.794   2.374
 3551SOL    HW111552   3.625   1.850   2.395
 3551SOL    HW211553   3.464   1.853   2.366
 3552SOL     OW11554   6.418   6.337   1.796
 3552SOL    HW111555   6.407   6.406   1.725
 3552SOL    HW211556   6.348   6.350   1.866
 3553SOL     OW11557   4.606   5.632   1.189
 3553SOL    HW111558   4.596   5.592   1.098
 3553SOL    HW211559   4.577   5.728   1.187
 3554SOL     OW11560   4.591   2.144   1.399
 3554SOL    HW111561   4.581   2.077   1.473
 3554SOL    HW211562   4.515   2.209   1.402
 3555SOL     OW11563   0.400   4.495   3.652
 3555SOL    HW111564   0.341   4.479   3.573
 3555SOL    HW211565   0.364   4.446   3.731
 3556SOL     OW11566   4.056   1.484   4.310
 3556SOL    HW111567   4.086   1.430   4.231
 3556SOL    HW211568   4.074   1.433   4.394
 3557SOL     OW11569   1.395   1.633   4.467
 3557SOL    HW111570   1.453   1.571   4.520
 3557SOL    HW211571   1.352   1.582   4.392
 3558SOL     OW11572   1.102   6.315   2.482
 3558SOL    HW111573   1.114   6.303   2.384
 3558SOL    HW211574   1.181   6.276   2.530
 3559SOL     OW11575   0.785   6.291   5.655
 3559SOL    HW111576   0.686   6.296   5.666
 3559SOL    HW211577   0.829   6.358   5.715
 3560SOL     OW11578   1.160   5.885   2.721
 3560SOL    HW111579   1.141   5.951   2.648
 3560SOL    HW211580   1.087   5.888   2.789
 3561SOL     OW11581   4.282   4.709   4.753
 3561SOL    HW111582   4.187   4.741   4.751
 3561SOL    HW211583   4.300   4.666   4.842
 3562SOL     OW11584   4.589   1.244   3.387
 3562SOL    HW111585   4.662   1.254   3.319
 3562SOL    HW211586   4.501   1.233   3.341
 3563SOL     OW11587   5.730   1.236   0.067
 3563SOL    HW111588   5.819   1.202   0.097
 3563SOL    HW211589   5.660   1.208   0.132
 3564SOL     OW11590   1.536   4.437   3.579
 3564SOL    HW111591   1.581   4.391   3.503
 3564SOL    HW211592   1.520   4.372   3.653
 3565SOL     OW11593   2.643   5.828   4.805
 3565SOL    HW111594   2.660   5.754   4.870
 3565SOL    HW211595   2.720   5.891   4.804
 3566SOL     OW11596   6.987   3.689   5.866
 3566SOL    HW111597   0.014   3.649   5.944
 3566SOL    HW211598   6.896   3.650   5.856
 3567SOL     OW11599   0.176   2.914   7.006
 3567SOL    HW111600   0.087   2.955   0.006
 3567SOL    HW211601   0.247   2.969   0.030
 3568SOL     OW11602   4.649   4.928   4.276
 3568SOL    HW111603   4.665   4.882   4.189
 3568SOL    HW211604   4.716   4.896   4.344
 3569SOL     OW11605   1.796   1.734   5.714
 3569SOL    HW111606   1.724   1.664   5.717
 3569SOL    HW211607   1.884   1.691   5.732
 3570SOL     OW11608   5.476   0.847   5.488
 3570SOL    HW111609   5.459   0.938   5.452
 3570SOL    HW211610   5.452   0.778   5.420
 3571SOL     OW11611   0.897   5.564   5.015
 3571SOL    HW111612   0.837   5.560   5.095
 3571SOL    HW211613   0.854   5.513   4.940
 3572SOL     OW11614   5.967   3.463   3.245
 3572SOL    HW111615   6.060   3.498   3.229
 3572SOL    HW211616   5.926   3.510   3.323
 3573SOL     OW11617   0.176   5.181   3.715
 3573SOL    HW111618   0.094   5.164   3.660
 3573SOL    HW211619   0.149   5.212   3.806
 3574SOL     OW11620   0.526   3.354   0.683
 3574SOL    HW111621   0.468   3.366   0.764
 3574SOL    HW211622   0.575   3.267   0.690
 3575SOL     OW11623   5.357   5.450   2.287
 3575SOL    HW111624   5.413   5.422   2.210
 3575SOL    HW211625   5.339   5.549   2.282
 3576SOL     OW11626   0.598   2.611   6.490
 3576SOL    HW111627   0.636   2.704   6.491
 3576SOL    HW211628   0.498   2.616   6.489
 3577SOL     OW11629   1.424   1.805   6.566
 3577SOL    HW111630   1.442   1.713   6.601
 3577SOL    HW211631   1.381   1.860   6.638
 3578SOL     OW11632   3.844   1.766   0.163
 3578SOL    HW111633   3.744   1.773   0.165
 3578SOL    HW211634   3.877   1.789   0.071
 3579SOL     OW11635   0.264   2.247   3.251
 3579SOL    HW111636   0.320   2.329   3.260
 3579SOL    HW211637   0.167   2.272   3.251
 3580SOL     OW11638   6.261   3.429   1.412
 3580SOL    HW111639   6.207   3.510   1.436
 3580SOL    HW211640   6.205   3.347   1.425
 3581SOL     OW11641   1.345   5.257   3.338
 3581SOL    HW111642   1.317   5.352   3.351
 3581SOL    HW211643   1.388   5.222   3.421
 3582SOL     OW11644   1.354   3.439   6.513
 3582SOL    HW111645   1.326   3.440   6.417
 3582SOL    HW211646   1.449   3.407   6.521
 3583SOL     OW11647   1.193   4.595   6.498
 3583SOL    HW111648   1.150   4.684   6.517
 3583SOL    HW211649   1.269   4.581   6.561
 3584SOL     OW11650   5.826   4.817   6.178
 3584SOL    HW111651   5.807   4.725   6.144
 3584SOL    HW211652   5.763   4.882   6.136
 3585SOL     OW11653   3.151   1.375   4.321
 3585SOL    HW111654   3.132   1.403   4.227
 3585SOL    HW211655   3.152   1.275   4.326
 3586SOL     OW11656   6.314   1.469   4.488
 3586SOL    HW111657   6.251   1.396   4.514
 3586SOL    HW211658   6.291   1.501   4.396
 3587SOL     OW11659   2.223   4.745   5.686
 3587SOL    HW111660   2.299   4.756   5.622
 3587SOL    HW211661   2.152   4.812   5.666
 3588SOL     OW11662   0.913   2.961   5.073
 3588SOL    HW111663   0.997   3.014   5.088
 3588SOL    HW211664   0.867   2.946   5.161
 3589SOL     OW11665   5.378   1.088   5.858
 3589SOL    HW111666   5.421   1.119   5.943
 3589SOL    HW211667   5.413   0.997   5.835
 3590SOL     OW11668   0.587   3.660   0.727
 3590SOL    HW111669   0.489   3.655   0.748
 3590SOL    HW211670   0.619   3.571   0.697
 3591SOL     OW11671   5.331   4.216   6.632
 3591SOL    HW111672   5.357   4.147   6.699
 3591SOL    HW211673   5.401   4.288   6.629
 3592SOL     OW11674   0.609   5.659   2.126
 3592SOL    HW111675   0.622   5.581   2.187
 3592SOL    HW211676   0.657   5.643   2.039
 3593SOL     OW11677   0.880   5.443   5.336
 3593SOL    HW111678   0.920   5.507   5.402
 3593SOL    HW211679   0.926   5.355   5.342
 3594SOL     OW11680   4.798   6.644   3.226
 3594SOL    HW111681   4.738   6.686   3.294
 3594SOL    HW211682   4.868   6.709   3.198
 3595SOL     OW11683   4.347   6.223   6.188
 3595SOL    HW111684   4.399   6.157   6.242
 3595SOL    HW211685   4.265   6.180   6.151
 3596SOL     OW11686   6.332   3.235   2.424
 3596SOL    HW111687   6.267   3.248   2.349
 3596SOL    HW211688   6.304   3.156   2.479
 3597SOL     OW11689   1.810   1.994   5.649
 3597SOL    HW111690   1.767   2.008   5.560
 3597SOL    HW211691   1.812   1.897   5.671
 3598SOL     OW11692   1.156   5.821   6.471
 3598SOL    HW111693   1.175   5.911   6.509
 3598SOL    HW211694   1.204   5.811   6.384
 3599SOL     OW11695   5.439   2.389   6.477
 3599SOL    HW111696   5.352   2.438   6.489
 3599SOL    HW211697   5.488   2.426   6.398
 3600SOL     OW11698   0.526   3.307   1.701
 3600SOL    HW111699   0.497   3.262   1.616
 3600SOL    HW211700   0.623   3.331   1.695
 3601SOL     OW11701   5.040   3.129   6.236
 3601SOL    HW111702   5.016   3.211   6.288
 3601SOL    HW211703   5.039   3.150   6.139
 3602SOL     OW11704   0.996   3.679   0.682
 3602SOL    HW111705   0.944   3.699   0.600
 3602SOL    HW211706   1.036   3.587   0.675
 3603SOL     OW11707   3.584   1.532   4.193
 3603SOL    HW111708   3.570   1.592   4.114
 3603SOL    HW211709   3.626   1.584   4.268
 3604SOL     OW11710   6.633   5.989   3.331
 3604SOL    HW111711   6.611   6.035   3.245
 3604SOL    HW211712   6.699   5.916   3.314
 3605SOL     OW11713   6.663   4.022   4.151
 3605SOL    HW111714   6.661   4.052   4.246
 3605SOL    HW211715   6.632   3.928   4.144
 3606SOL     OW11716   0.555   0.321   4.062
 3606SOL    HW111717   0.595   0.412   4.056
 3606SOL    HW211718   0.513   0.308   4.152
 3607SOL     OW11719   5.442   5.258   1.808
 3607SOL    HW111720   5.511   5.314   1.761
 3607SOL    HW211721   5.484   5.211   1.886
 3608SOL     OW11722   4.678   2.156   4.623
 3608SOL    HW111723   4.676   2.064   4.662
 3608SOL    HW211724   4.772   2.178   4.595
 3609SOL     OW11725   1.121   0.592   4.125
 3609SOL    HW111726   1.169   0.592   4.213
 3609SOL    HW211727   1.177   0.639   4.057
 3610SOL     OW11728   1.624   7.018   5.821
 3610SOL    HW111729   1.719   0.025   5.800
 3610SOL    HW211730   1.562   0.065   5.778
 3611SOL     OW11731   4.710   4.657   4.836
 3611SOL    HW111732   4.629   4.600   4.824
 3611SOL    HW211733   4.719   4.718   4.757
 3612SOL     OW11734   0.072   0.269   6.988
 3612SOL    HW111735   0.126   0.287   0.051
 3612SOL    HW211736   7.011   0.213   7.012
 3613SOL     OW11737   4.834   4.787   2.075
 3613SOL    HW111738   4.837   4.690   2.100
 3613SOL    HW211739   4.751   4.828   2.113
 3614SOL     OW11740   3.793   3.325   0.915
 3614SOL    HW111741   3.870   3.327   0.851
 3614SOL    HW211742   3.783   3.415   0.957
 3615SOL     OW11743   4.865   3.998   6.226
 3615SOL    HW111744   4.934   3.939   6.184
 3615SOL    HW211745   4.838   3.960   6.314
 3616SOL     OW11746   0.274   1.735   6.707
 3616SOL    HW111747   0.258   1.668   6.634
 3616SOL    HW211748   0.186   1.762   6.746
 3617SOL     OW11749   4.602   0.904   6.761
 3617SOL    HW111750   4.523   0.960   6.787
 3617SOL    HW211751   4.593   0.813   6.802
 3618SOL     OW11752   2.364   2.990   5.470
 3618SOL    HW111753   2.419   3.020   5.392
 3618SOL    HW211754   2.277   3.039   5.470
 3619SOL     OW11755   6.050   2.815   4.772
 3619SOL    HW111756   6.049   2.717   4.751
 3619SOL    HW211757   5.986   2.863   4.712
 3620SOL     OW11758   6.230   5.974   5.570
 3620SOL    HW111759   6.168   6.043   5.534
 3620SOL    HW211760   6.182   5.887   5.580
 3621SOL     OW11761   3.462   3.044   5.439
 3621SOL    HW111762   3.531   3.035   5.511
 3621SOL    HW211763   3.371   3.055   5.480
 3622SOL     OW11764   0.916   1.904   6.851
 3622SOL    HW111765   0.878   1.960   6.778
 3622SOL    HW211766   0.848   1.837   6.881
 3623SOL     OW11767   6.630   6.219   4.640
 3623SOL    HW111768   6.617   6.318   4.630
 3623SOL    HW211769   6.727   6.200   4.658
 3624SOL     OW11770   1.460   0.004   2.246
 3624SOL    HW111771   1.440   0.084   2.189
 3624SOL    HW211772   1.374   6.985   2.281
 3625SOL     OW11773   0.283   3.252   6.672
 3625SOL    HW111774   0.226   3.177   6.638
 3625SOL    HW211775   0.244   3.339   6.643
 3626SOL     OW11776   1.225   2.687   5.444
 3626SOL    HW111777   1.238   2.786   5.452
 3626SOL    HW211778   1.153   2.669   5.378
 3627SOL     OW11779   3.936   3.465   1.370
 3627SOL    HW111780   3.940   3.512   1.282
 3627SOL    HW211781   4.025   3.471   1.415
 3628SOL     OW11782   1.159   1.254   2.649
 3628SOL    HW111783   1.193   1.209   2.567
 3628SOL    HW211784   1.065   1.284   2.634
 3629SOL     OW11785   0.869   1.193   5.474
 3629SOL    HW111786   0.882   1.139   5.391
 3629SOL    HW211787   0.946   1.256   5.486
 3630SOL     OW11788   5.124   2.223   4.123
 3630SOL    HW111789   5.074   2.164   4.187
 3630SOL    HW211790   5.200   2.267   4.171
 3631SOL     OW11791   2.026   0.696   3.124
 3631SOL    HW111792   1.929   0.718   3.135
 3631SOL    HW211793   2.078   0.780   3.111
 3632SOL     OW11794   5.394   5.568   0.873
 3632SOL    HW111795   5.368   5.561   0.970
 3632SOL    HW211796   5.464   5.500   0.853
 3633SOL     OW11797   4.018   2.194   5.668
 3633SOL    HW111798   4.060   2.257   5.734
 3633SOL    HW211799   4.012   2.103   5.708
 3634SOL     OW11800   1.760   5.441   5.765
 3634SOL    HW111801   1.709   5.521   5.733
 3634SOL    HW211802   1.753   5.367   5.698
 3635SOL     OW11803   3.397   6.968   0.963
 3635SOL    HW111804   3.354   6.954   1.052
 3635SOL    HW211805   3.488   7.007   0.976
 3636SOL     OW11806   6.876   5.858   0.910
 3636SOL    HW111807   6.892   5.838   1.007
 3636SOL    HW211808   6.848   5.774   0.863
 3637SOL     OW11809   0.293   2.490   2.102
 3637SOL    HW111810   0.337   2.421   2.044
 3637SOL    HW211811   0.266   2.448   2.189
 3638SOL     OW11812   0.398   3.982   3.032
 3638SOL    HW111813   0.333   4.050   3.067
 3638SOL    HW211814   0.465   3.961   3.103
 3639SOL     OW11815   4.149   5.799   0.403
 3639SOL    HW111816   4.061   5.762   0.435
 3639SOL    HW211817   4.135   5.891   0.366
 3640SOL     OW11818   4.496   1.274   0.288
 3640SOL    HW111819   4.454   1.320   0.210
 3640SOL    HW211820   4.469   1.178   0.288
 3641SOL     OW11821   5.952   3.470   2.083
 3641SOL    HW111822   5.942   3.520   1.997
 3641SOL    HW211823   5.916   3.378   2.072
 3642SOL     OW11824   5.229   2.283   0.089
 3642SOL    HW111825   5.146   2.231   0.069
 3642SOL    HW211826   5.221   2.323   0.180
 3643SOL     OW11827   2.337   5.750   4.835
 3643SOL    HW111828   2.281   5.695   4.897
 3643SOL    HW211829   2.416   5.787   4.884
 3644SOL     OW11830   1.804   1.832   2.045
 3644SOL    HW111831   1.796   1.769   1.968
 3644SOL    HW211832   1.776   1.924   2.016
 3645SOL     OW11833   1.568   2.083   3.858
 3645SOL    HW111834   1.594   2.116   3.767
 3645SOL    HW211835   1.574   2.157   3.924
 3646SOL     OW11836   1.603   4.205   6.063
 3646SOL    HW111837   1.684   4.152   6.088
 3646SOL    HW211838   1.586   4.275   6.133
 3647SOL     OW11839   2.570   6.223   6.543
 3647SOL    HW111840   2.594   6.234   6.447
 3647SOL    HW211841   2.651   6.193   6.594
 3648SOL     OW11842   4.486   6.250   2.460
 3648SOL    HW111843   4.498   6.205   2.548
 3648SOL    HW211844   4.509   6.347   2.468
 3649SOL     OW11845   5.876   2.979   1.279
 3649SOL    HW111846   5.790   2.956   1.233
 3649SOL    HW211847   5.923   2.895   1.306
 3650SOL     OW11848   6.650   5.236   1.841
 3650SOL    HW111849   6.720   5.257   1.910
 3650SOL    HW211850   6.575   5.302   1.849
 3651SOL     OW11851   0.896   0.795   3.858
 3651SOL    HW111852   0.852   0.860   3.796
 3651SOL    HW211853   0.952   0.844   3.924
 3652SOL     OW11854   6.169   0.196   3.439
 3652SOL    HW111855   6.144   0.154   3.526
 3652SOL    HW211856   6.267   0.213   3.437
 3653SOL     OW11857   1.199   1.653   3.077
 3653SOL    HW111858   1.184   1.633   2.980
 3653SOL    HW211859   1.258   1.733   3.085
 3654SOL     OW11860   3.704   5.006   0.444
 3654SOL    HW111861   3.668   4.915   0.427
 3654SOL    HW211862   3.678   5.067   0.368
 3655SOL     OW11863   3.308   0.393   3.781
 3655SOL    HW111864   3.248   0.350   3.713
 3655SOL    HW211865   3.328   0.487   3.754
 3656SOL     OW11866   0.425   4.986   1.236
 3656SOL    HW111867   0.422   4.890   1.207
 3656SOL    HW211868   0.346   5.035   1.199
 3657SOL     OW11869   5.243   5.315   5.349
 3657SOL    HW111870   5.240   5.239   5.283
 3657SOL    HW211871   5.156   5.319   5.399
 3658SOL     OW11872   2.962   4.688   6.659
 3658SOL    HW111873   2.937   4.593   6.680
 3658SOL    HW211874   2.878   4.741   6.642
 3659SOL     OW11875   2.021   2.577   6.004
 3659SOL    HW111876   1.935   2.525   6.005
 3659SOL    HW211877   2.073   2.553   5.921
 3660SOL     OW11878   5.610   6.258   4.014
 3660SOL    HW111879   5.554   6.268   4.096
 3660SOL    HW211880   5.644   6.164   4.010
 3661SOL     OW11881   0.032   0.604   4.783
 3661SOL    HW111882   0.119   0.596   4.735
 3661SOL    HW211883   0.049   0.630   4.878
 3662SOL     OW11884   4.095   0.478   4.310
 3662SOL    HW111885   4.131   0.411   4.376
 3662SOL    HW211886   4.167   0.504   4.246
 3663SOL     OW11887   1.680   3.022   0.610
 3663SOL    HW111888   1.602   3.013   0.548
 3663SOL    HW211889   1.651   3.068   0.694
 3664SOL     OW11890   4.675   2.199   2.114
 3664SOL    HW111891   4.652   2.152   2.200
 3664SOL    HW211892   4.625   2.285   2.110
 3665SOL     OW11893   1.051   6.175   4.883
 3665SOL    HW111894   1.133   6.118   4.877
 3665SOL    HW211895   1.031   6.214   4.794
 3666SOL     OW11896   1.172   4.066   3.010
 3666SOL    HW111897   1.133   4.143   3.061
 3666SOL    HW211898   1.199   3.994   3.074
 3667SOL     OW11899   0.325   1.596   3.699
 3667SOL    HW111900   0.239   1.581   3.749
 3667SOL    HW211901   0.374   1.674   3.740
 3668SOL     OW11902   1.159   1.131   1.321
 3668SOL    HW111903   1.179   1.149   1.417
 3668SOL    HW211904   1.177   1.035   1.300
 3669SOL     OW11905   5.675   1.929   3.496
 3669SOL    HW111906   5.728   1.879   3.564
 3669SOL    HW211907   5.735   1.959   3.422
 3670SOL     OW11908   2.283   5.185   6.521
 3670SOL    HW111909   2.353   5.235   6.470
 3670SOL    HW211910   2.195   5.193   6.474
 3671SOL     OW11911   0.168   1.756   4.521
 3671SOL    HW111912   0.084   1.704   4.506
 3671SOL    HW211913   0.220   1.760   4.435
 3672SOL     OW11914   4.285   1.888   2.547
 3672SOL    HW111915   4.292   1.815   2.479
 3672SOL    HW211916   4.374   1.902   2.590
 3673SOL     OW11917   3.734   5.899   6.979
 3673SOL    HW111918   3.718   5.976   0.022
 3673SOL    HW211919   3.646   5.862   6.948
 3674SOL     OW11920   1.934   5.909   5.837
 3674SOL    HW111921   1.911   5.951   5.749
 3674SOL    HW211922   2.033   5.901   5.846
 3675SOL     OW11923   1.740   2.468   4.273
 3675SOL    HW111924   1.685   2.544   4.307
 3675SOL    HW211925   1.738   2.393   4.339
 3676SOL     OW11926   6.196   4.434   2.513
 3676SOL    HW111927   6.227   4.417   2.420
 3676SOL    HW211928   6.256   4.387   2.578
 3677SOL     OW11929   2.716   6.655   4.615
 3677SOL    HW111930   2.687   6.571   4.569
 3677SOL    HW211931   2.805   6.641   4.659
 3678SOL     OW11932   1.313   1.581   4.737
 3678SOL    HW111933   1.250   1.504   4.742
 3678SOL    HW211934   1.319   1.613   4.643
 3679SOL     OW11935   6.942   0.578   3.142
 3679SOL    HW111936   6.985   0.500   3.189
 3679SOL    HW211937   6.901   0.639   3.210
 3680SOL     OW11938   5.379   2.459   4.039
 3680SOL    HW111939   5.376   2.408   4.125
 3680SOL    HW211940   5.430   2.406   3.971
 3681SOL     OW11941   1.058   1.221   6.744
 3681SOL    HW111942   1.035   1.288   6.814
 3681SOL    HW211943   0.990   1.225   6.670
 3682SOL     OW11944   5.977   2.596   0.321
 3682SOL    HW111945   5.998   2.678   0.269
 3682SOL    HW211946   6.034   2.520   0.289
 3683SOL     OW11947   0.629   1.591   4.337
 3683SOL    HW111948   0.590   1.675   4.299
 3683SOL    HW211949   0.699   1.556   4.276
 3684SOL     OW11950   0.903   5.347   0.459
 3684SOL    HW111951   0.863   5.435   0.432
 3684SOL    HW211952   0.994   5.362   0.497
 3685SOL     OW11953   2.193   5.864   5.797
 3685SOL    HW111954   2.232   5.784   5.844
 3685SOL    HW211955   2.225   5.865   5.702
 3686SOL     OW11956   6.145   4.976   4.539
 3686SOL    HW111957   6.084   5.054   4.530
 3686SOL    HW211958   6.129   4.931   4.627
 3687SOL     OW11959   4.138   6.202   4.471
 3687SOL    HW111960   4.236   6.223   4.471
 3687SOL    HW211961   4.096   6.242   4.552
 3688SOL     OW11962   6.597   2.694   6.957
 3688SOL    HW111963   6.657   2.683   0.017
 3688SOL    HW211964   6.579   2.791   6.941
 3689SOL     OW11965   2.054   0.886   5.994
 3689SOL    HW111966   1.983   0.843   5.940
 3689SOL    HW211967   2.075   0.828   6.074
 3690SOL     OW11968   3.737   5.863   0.432
 3690SOL    HW111969   3.700   5.786   0.484
 3690SOL    HW211970   3.795   5.828   0.358
 3691SOL     OW11971   2.413   1.703   0.172
 3691SOL    HW111972   2.395   1.790   0.217
 3691SOL    HW211973   2.327   1.663   0.141
 3692SOL     OW11974   6.396   5.341   5.340
 3692SOL    HW111975   6.407   5.384   5.251
 3692SOL    HW211976   6.445   5.254   5.342
 3693SOL     OW11977   2.389   2.766   3.200
 3693SOL    HW111978   2.392   2.765   3.300
 3693SOL    HW211979   2.319   2.830   3.170
 3694SOL     OW11980   0.942   6.542   2.223
 3694SOL    HW111981   1.026   6.580   2.263
 3694SOL    HW211982   0.963   6.507   2.132
 3695SOL     OW11983   5.252   2.566   0.997
 3695SOL    HW111984   5.199   2.521   1.069
 3695SOL    HW211985   5.286   2.654   1.031
 3696SOL     OW11986   3.996   0.377   4.056
 3696SOL    HW111987   4.026   0.447   4.121
 3696SOL    HW211988   3.920   0.326   4.096
 3697SOL     OW11989   0.100   5.921   2.820
 3697SOL    HW111990   0.022   5.928   2.881
 3697SOL    HW211991   0.182   5.898   2.873
 3698SOL     OW11992   2.430   1.086   3.564
 3698SOL    HW111993   2.407   1.019   3.634
 3698SOL    HW211994   2.516   1.131   3.589
 3699SOL     OW11995   1.841   1.221   3.548
 3699SOL    HW111996   1.915   1.170   3.504
 3699SOL    HW211997   1.877   1.306   3.586
 3700SOL     OW11998   1.934   4.765   5.105
 3700SOL    HW111999   1.909   4.668   5.103
 3700SOL    HW212000   1.889   4.812   5.029
 3701SOL     OW12001   1.781   0.324   3.549
 3701SOL    HW112002   1.807   0.239   3.595
 3701SOL    HW212003   1.854   0.351   3.486
 3702SOL     OW12004   5.626   6.671   3.446
 3702SOL    HW112005   5.683   6.620   3.382
 3702SOL    HW212006   5.679   6.695   3.527
 3703SOL     OW12007   0.163   0.623   6.548
 3703SOL    HW112008   0.134   0.552   6.485
 3703SOL    HW212009   0.166   0.587   6.641
 3704SOL     OW12010   3.936   2.125   1.292
 3704SOL    HW112011   3.914   2.221   1.275
 3704SOL    HW212012   3.954   2.111   1.389
 3705SOL     OW12013   5.817   4.031   4.696
 3705SOL    HW112014   5.732   4.044   4.646
 3705SOL    HW212015   5.849   3.937   4.685
 3706SOL     OW12016   0.469   3.751   6.909
 3706SOL    HW112017   0.423   3.690   6.974
 3706SOL    HW212018   0.500   3.833   6.957
 3707SOL     OW12019   4.996   5.490   4.802
 3707SOL    HW112020   5.081   5.455   4.764
 3707SOL    HW212021   4.997   5.590   4.799
 3708SOL     OW12022   5.365   6.688   0.914
 3708SOL    HW112023   5.364   6.623   0.991
 3708SOL    HW212024   5.273   6.725   0.900
 3709SOL     OW12025   3.569   6.874   1.417
 3709SOL    HW112026   3.617   6.961   1.431
 3709SOL    HW212027   3.629   6.811   1.367
 3710SOL     OW12028   6.479   5.450   5.105
 3710SOL    HW112029   6.510   5.474   5.013
 3710SOL    HW212030   6.557   5.447   5.167
 3711SOL     OW12031   1.788   5.745   5.427
 3711SOL    HW112032   1.843   5.689   5.365
 3711SOL    HW212033   1.714   5.789   5.377
 3712SOL     OW12034   0.981   5.384   6.573
 3712SOL    HW112035   0.923   5.436   6.511
 3712SOL    HW212036   1.006   5.297   6.530
 3713SOL     OW12037   0.468   0.211   5.108
 3713SOL    HW112038   0.562   0.242   5.124
 3713SOL    HW212039   0.454   0.198   5.010
 3714SOL     OW12040   5.534   5.957   6.508
 3714SOL    HW112041   5.570   6.047   6.532
 3714SOL    HW212042   5.584   5.887   6.559
 3715SOL     OW12043   1.528   4.121   2.357
 3715SOL    HW112044   1.593   4.079   2.420
 3715SOL    HW212045   1.464   4.178   2.408
 3716SOL     OW12046   6.340   6.501   4.364
 3716SOL    HW112047   6.404   6.424   4.358
 3716SOL    HW212048   6.308   6.510   4.458
 3717SOL     OW12049   5.653   0.315   0.117
 3717SOL    HW112050   5.580   0.260   0.158
 3717SOL    HW212051   5.736   0.260   0.112
 3718SOL     OW12052   0.158   0.301   0.471
 3718SOL    HW112053   0.232   0.368   0.476
 3718SOL    HW212054   0.173   0.239   0.394
 3719SOL     OW12055   4.488   2.998   0.521
 3719SOL    HW112056   4.397   3.002   0.562
 3719SOL    HW212057   4.527   2.907   0.535
 3720SOL     OW12058   5.392   3.248   0.534
 3720SOL    HW112059   5.377   3.285   0.442
 3720SOL    HW212060   5.311   3.197   0.563
 3721SOL     OW12061   6.961   5.448   1.119
 3721SOL    HW112062   0.028   5.461   1.168
 3721SOL    HW212063   6.964   5.361   1.070
 3722SOL     OW12064   5.531   6.333   0.937
 3722SOL    HW112065   5.563   6.245   0.972
 3722SOL    HW212066   5.608   6.386   0.903
 3723SOL     OW12067   4.749   4.999   0.576
 3723SOL    HW112068   4.670   4.981   0.634
 3723SOL    HW212069   4.733   5.082   0.523
 3724SOL     OW12070   1.907   4.427   5.362
 3724SOL    HW112071   1.994   4.379   5.372
 3724SOL    HW212072   1.904   4.504   5.426
 3725SOL     OW12073   6.899   5.302   6.671
 3725SOL    HW112074   6.978   5.262   6.626
 3725SOL    HW212075   6.923   5.392   6.707
 3726SOL     OW12076   5.601   3.497   6.073
 3726SOL    HW112077   5.558   3.420   6.028
 3726SOL    HW212078   5.700   3.485   6.073
 3727SOL     OW12079   6.678   2.379   5.611
 3727SOL    HW112080   6.647   2.378   5.516
 3727SOL    HW212081   6.772   2.413   5.614
 3728SOL     OW12082   1.138   2.919   6.798
 3728SOL    HW112083   1.174   2.948   6.709
 3728SOL    HW212084   1.040   2.899   6.790
 3729SOL     OW12085   1.817   1.604   4.354
 3729SOL    HW112086   1.754   1.530   4.377
 3729SOL    HW212087   1.782   1.654   4.275
 3730SOL     OW12088   3.575   5.862   5.487
 3730SOL    HW112089   3.648   5.896   5.546
 3730SOL    HW212090   3.548   5.771   5.518
 3731SOL     OW12091   6.932   1.504   0.638
 3731SOL    HW112092   6.959   1.507   0.542
 3731SOL    HW212093   6.864   1.432   0.651
 3732SOL     OW12094   2.277   1.885   0.368
 3732SOL    HW112095   2.193   1.871   0.421
 3732SOL    HW212096   2.357   1.865   0.426
 3733SOL     OW12097   2.044   2.550   3.046
 3733SOL    HW112098   2.051   2.568   3.144
 3733SOL    HW212099   2.119   2.596   2.998
 3734SOL     OW12100   5.043   0.072   0.917
 3734SOL    HW112101   5.038   0.118   0.828
 3734SOL    HW212102   5.076   0.136   0.986
 3735SOL     OW12103   3.068   0.634   2.785
 3735SOL    HW112104   3.163   0.650   2.811
 3735SOL    HW212105   3.045   0.689   2.705
 3736SOL     OW12106   0.559   1.422   1.224
 3736SOL    HW112107   0.545   1.521   1.222
 3736SOL    HW212108   0.559   1.387   1.131
 3737SOL     OW12109   5.715   1.334   3.707
 3737SOL    HW112110   5.812   1.352   3.724
 3737SOL    HW212111   5.706   1.260   3.640
 3738SOL     OW12112   6.308   0.449   1.426
 3738SOL    HW112113   6.277   0.540   1.452
 3738SOL    HW212114   6.233   0.384   1.436
 3739SOL     OW12115   2.478   4.791   1.344
 3739SOL    HW112116   2.571   4.814   1.373
 3739SOL    HW212117   2.436   4.730   1.411
 3740SOL     OW12118   6.569   6.897   0.354
 3740SOL    HW112119   6.556   6.932   0.446
 3740SOL    HW212120   6.643   6.829   0.354
 3741SOL     OW12121   4.911   2.573   6.296
 3741SOL    HW112122   4.851   2.601   6.370
 3741SOL    HW212123   4.967   2.651   6.267
 3742SOL     OW12124   3.944   1.258   0.188
 3742SOL    HW112125   3.941   1.198   0.108
 3742SOL    HW212126   3.889   1.340   0.170
 3743SOL     OW12127   5.661   3.299   0.551
 3743SOL    HW112128   5.570   3.258   0.542
 3743SOL    HW212129   5.656   3.397   0.533
 3744SOL     OW12130   1.174   6.142   1.616
 3744SOL    HW112131   1.238   6.202   1.663
 3744SOL    HW212132   1.222   6.091   1.544
 3745SOL     OW12133   4.667   4.324   3.209
 3745SOL    HW112134   4.638   4.283   3.122
 3745SOL    HW212135   4.719   4.257   3.262
 3746SOL     OW12136   6.972   0.029   3.665
 3746SOL    HW112137   7.012   7.001   3.587
 3746SOL    HW212138   0.019   0.096   3.701
 3747SOL     OW12139   4.263   5.880   5.209
 3747SOL    HW112140   4.338   5.814   5.209
 3747SOL    HW212141   4.291   5.963   5.162
 3748SOL     OW12142   5.481   1.240   1.775
 3748SOL    HW112143   5.507   1.158   1.725
 3748SOL    HW212144   5.399   1.281   1.733
 3749SOL     OW12145   2.741   4.728   3.123
 3749SOL    HW112146   2.757   4.661   3.195
 3749SOL    HW212147   2.656   4.706   3.075
 3750SOL     OW12148   6.617   4.652   1.097
 3750SOL    HW112149   6.665   4.586   1.155
 3750SOL    HW212150   6.552   4.705   1.151
 3751SOL     OW12151   6.507   3.562   0.982
 3751SOL    HW112152   6.596   3.606   0.990
 3751SOL    HW212153   6.504   3.481   1.041
 3752SOL     OW12154   0.205   6.829   0.016
 3752SOL    HW112155   0.298   6.828   0.052
 3752SOL    HW212156   0.196   6.904   6.969
 3753SOL     OW12157   0.401   1.301   3.776
 3753SOL    HW112158   0.309   1.262   3.779
 3753SOL    HW212159   0.399   1.394   3.812
 3754SOL     OW12160   4.101   6.637   1.209
 3754SOL    HW112161   4.065   6.730   1.209
 3754SOL    HW212162   4.105   6.603   1.116
 3755SOL     OW12163   5.520   5.795   4.316
 3755SOL    HW112164   5.425   5.769   4.329
 3755SOL    HW212165   5.576   5.712   4.309
 3756SOL     OW12166   2.383   6.450   5.965
 3756SOL    HW112167   2.455   6.384   5.986
 3756SOL    HW212168   2.371   6.455   5.865
 3757SOL     OW12169   3.773   6.808   6.625
 3757SOL    HW112170   3.766   6.722   6.675
 3757SOL    HW212171   3.856   6.807   6.569
 3758SOL     OW12172   1.886   1.445   4.650
 3758SOL    HW112173   1.890   1.544   4.667
 3758SOL    HW212174   1.967   1.417   4.598
 3759SOL     OW12175   4.327   5.889   6.130
 3759SOL    HW112176   4.348   5.833   6.210
 3759SOL    HW212177   4.261   5.959   6.154
 3760SOL     OW12178   1.805   2.289   4.490
 3760SOL    HW112179   1.886   2.345   4.503
 3760SOL    HW212180   1.754   2.283   4.576
 3761SOL     OW12181   0.817   0.906   5.351
 3761SOL    HW112182   0.872   0.927   5.432
 3761SOL    HW212183   0.781   0.813   5.359
 3762SOL     OW12184   1.154   4.690   0.070
 3762SOL    HW112185   1.153   4.789   0.083
 3762SOL    HW212186   1.242   4.663   0.031
 3763SOL     OW12187   6.867   4.528   0.506
 3763SOL    HW112188   6.772   4.499   0.520
 3763SOL    HW212189   6.929   4.453   0.526
 3764SOL     OW12190   1.769   6.685   4.157
 3764SOL    HW112191   1.739   6.633   4.076
 3764SOL    HW212192   1.689   6.723   4.203
 3765SOL     OW12193   5.049   0.890   0.864
 3765SOL    HW112194   4.979   0.896   0.794
 3765SOL    HW212195   5.007   0.866   0.952
 3766SOL     OW12196   1.085   1.368   3.640
 3766SOL    HW112197   1.157   1.326   3.585
 3766SOL    HW212198   0.997   1.358   3.593
 3767SOL     OW12199   2.280   4.664   0.514
 3767SOL    HW112200   2.303   4.659   0.417
 3767SOL    HW212201   2.203   4.727   0.527
 3768SOL     OW12202   1.777   5.752   4.975
 3768SOL    HW112203   1.802   5.832   5.029
 3768SOL    HW212204   1.801   5.768   4.879
 3769SOL     OW12205   6.037   6.189   5.568
 3769SOL    HW112206   6.005   6.265   5.512
 3769SOL    HW212207   5.970   6.115   5.566
 3770SOL     OW12208   1.965   0.506   6.373
 3770SOL    HW112209   1.939   0.603   6.375
 3770SOL    HW212210   2.065   0.499   6.368
 3771SOL     OW12211   5.865   3.072   6.942
 3771SOL    HW112212   5.815   2.986   6.934
 3771SOL    HW212213   5.947   3.069   6.885
 3772SOL     OW12214   6.949   0.787   0.461
 3772SOL    HW112215   6.867   0.780   0.403
 3772SOL    HW212216   6.964   0.699   0.507
 3773SOL     OW12217   6.537   2.824   6.185
 3773SOL    HW112218   6.583   2.744   6.224
 3773SOL    HW212219   6.484   2.797   6.105
 3774SOL     OW12220   0.057   5.923   6.933
 3774SOL    HW112221   0.059   6.012   6.889
 3774SOL    HW212222   0.147   5.902   6.971
 3775SOL     OW12223   5.226   5.065   2.140
 3775SOL    HW112224   5.317   5.080   2.103
 3775SOL    HW212225   5.182   5.153   2.156
 3776SOL     OW12226   3.873   1.603   0.982
 3776SOL    HW112227   3.852   1.524   1.040
 3776SOL    HW212228   3.787   1.643   0.949
 3777SOL     OW12229   3.289   4.957   4.816
 3777SOL    HW112230   3.220   4.893   4.781
 3777SOL    HW212231   3.276   5.046   4.773
 3778SOL     OW12232   3.214   4.988   2.519
 3778SOL    HW112233   3.209   4.968   2.617
 3778SOL    HW212234   3.216   4.902   2.467
 3779SOL     OW12235   2.166   5.268   0.818
 3779SOL    HW112236   2.229   5.215   0.875
 3779SOL    HW212237   2.072   5.240   0.838
 3780SOL     OW12238   5.145   5.836   5.868
 3780SOL    HW112239   5.202   5.799   5.941
 3780SOL    HW212240   5.049   5.830   5.895
 3781SOL     OW12241   1.328   0.151   4.211
 3781SOL    HW112242   1.390   0.206   4.267
 3781SOL    HW212243   1.373   0.064   4.187
 3782SOL     OW12244   2.908   1.119   4.107
 3782SOL    HW112245   2.944   1.212   4.101
 3782SOL    HW212246   2.809   1.121   4.112
 3783SOL     OW12247   5.315   5.733   4.046
 3783SOL    HW112248   5.269   5.650   4.078
 3783SOL    HW212249   5.252   5.810   4.050
 3784SOL     OW12250   4.685   2.649   2.689
 3784SOL    HW112251   4.610   2.595   2.729
 3784SOL    HW212252   4.657   2.683   2.600
 3785SOL     OW12253   1.072   1.515   6.878
 3785SOL    HW112254   1.145   1.493   6.942
 3785SOL    HW212255   0.985   1.522   6.927
 3786SOL     OW12256   2.085   6.792   2.994
 3786SOL    HW112257   2.120   6.861   3.056
 3786SOL    HW212258   1.999   6.823   2.954
 3787SOL     OW12259   6.579   0.179   2.311
 3787SOL    HW112260   6.624   0.128   2.238
 3787SOL    HW212261   6.537   0.262   2.273
 3788SOL     OW12262   1.117   4.016   4.243
 3788SOL    HW112263   1.104   3.988   4.338
 3788SOL    HW212264   1.077   4.106   4.229
 3789SOL     OW12265   0.319   3.245   5.266
 3789SOL    HW112266   0.355   3.238   5.174
 3789SOL    HW212267   0.328   3.340   5.298
 3790SOL     OW12268   1.687   4.687   5.668
 3790SOL    HW112269   1.688   4.630   5.587
 3790SOL    HW212270   1.599   4.735   5.674
 3791SOL     OW12271   6.144   0.106   0.370
 3791SOL    HW112272   6.162   0.047   0.292
 3791SOL    HW212273   6.189   0.194   0.357
 3792SOL     OW12274   0.941   1.671   4.560
 3792SOL    HW112275   0.846   1.663   4.529
 3792SOL    HW212276   0.953   1.624   4.647
 3793SOL     OW12277   4.436   6.916   2.655
 3793SOL    HW112278   4.461   6.822   2.631
 3793SOL    HW212279   4.383   6.957   2.581
 3794SOL     OW12280   2.433   4.205   1.176
 3794SOL    HW112281   2.345   4.250   1.162
 3794SOL    HW212282   2.448   4.139   1.103
 3795SOL     OW12283   3.860   5.961   6.206
 3795SOL    HW112284   3.819   5.887   6.152
 3795SOL    HW212285   3.799   6.040   6.206
 3796SOL     OW12286   2.661   1.614   0.881
 3796SOL    HW112287   2.712   1.566   0.810
 3796SOL    HW212288   2.564   1.589   0.876
 3797SOL     OW12289   0.301   4.224   2.671
 3797SOL    HW112290   0.374   4.227   2.739
 3797SOL    HW212291   0.332   4.270   2.588
 3798SOL     OW12292   3.539   5.928   2.819
 3798SOL    HW112293   3.592   6.010   2.797
 3798SOL    HW212294   3.591   5.870   2.881
 3799SOL     OW12295   0.665   2.455   4.173
 3799SOL    HW112296   0.691   2.523   4.104
 3799SOL    HW212297   0.566   2.461   4.190
 3800SOL     OW12298   5.738   3.174   4.565
 3800SOL    HW112299   5.792   3.255   4.586
 3800SOL    HW212300   5.659   3.169   4.627
 3801SOL     OW12301   5.974   6.284   2.714
 3801SOL    HW112302   5.953   6.280   2.617
 3801SOL    HW212303   6.063   6.328   2.727
 3802SOL     OW12304   1.103   2.516   2.676
 3802SOL    HW112305   1.162   2.557   2.606
 3802SOL    HW212306   1.141   2.428   2.703
 3803SOL     OW12307   3.696   1.868   1.262
 3803SOL    HW112308   3.692   1.820   1.174
 3803SOL    HW212309   3.739   1.957   1.248
 3804SOL     OW12310   5.391   1.414   3.475
 3804SOL    HW112311   5.453   1.468   3.419
 3804SOL    HW212312   5.421   1.416   3.570
 3805SOL     OW12313   2.948   3.237   2.118
 3805SOL    HW112314   2.882   3.303   2.156
 3805SOL    HW212315   2.936   3.232   2.019
 3806SOL     OW12316   3.481   3.961   6.574
 3806SOL    HW112317   3.401   3.923   6.620
 3806SOL    HW212318   3.474   4.061   6.573
 3807SOL     OW12319   2.281   6.546   3.616
 3807SOL    HW112320   2.317   6.475   3.675
 3807SOL    HW212321   2.235   6.504   3.538
 3808SOL     OW12322   4.801   6.941   1.051
 3808SOL    HW112323   4.870   6.876   1.022
 3808SOL    HW212324   4.843   7.010   1.110
 3809SOL     OW12325   5.638   2.825   0.647
 3809SOL    HW112326   5.597   2.891   0.710
 3809SOL    HW212327   5.628   2.733   0.684
 3810SOL     OW12328   4.708   2.556   4.990
 3810SOL    HW112329   4.801   2.524   4.973
 3810SOL    HW212330   4.701   2.652   4.963
 3811SOL     OW12331   0.985   3.988   3.979
 3811SOL    HW112332   0.977   4.075   3.930
 3811SOL    HW212333   1.052   3.998   4.053
 3812SOL     OW12334   5.287   6.954   5.725
 3812SOL    HW112335   5.385   6.967   5.741
 3812SOL    HW212336   5.267   6.972   5.629
 3813SOL     OW12337   4.468   4.043   0.209
 3813SOL    HW112338   4.395   4.039   0.141
 3813SOL    HW212339   4.554   4.067   0.164
 3814SOL     OW12340   0.135   6.910   0.425
 3814SOL    HW112341   0.179   6.821   0.413
 3814SOL    HW212342   0.202   6.982   0.406
 3815SOL     OW12343   4.421   2.685   0.055
 3815SOL    HW112344   4.329   2.665   0.091
 3815SOL    HW212345   4.489   2.636   0.109
 3816SOL     OW12346   0.386   6.116   7.000
 3816SOL    HW112347   0.316   6.084   0.044
 3816SOL    HW212348   0.416   6.040   6.942
 3817SOL     OW12349   5.196   3.644   3.052
 3817SOL    HW112350   5.114   3.681   3.097
 3817SOL    HW212351   5.193   3.544   3.054
 3818SOL     OW12352   5.487   0.137   0.267
 3818SOL    HW112353   5.506   0.044   0.235
 3818SOL    HW212354   5.389   0.156   0.260
 3819SOL     OW12355   5.081   5.434   1.272
 3819SOL    HW112356   5.096   5.359   1.336
 3819SOL    HW212357   4.992   5.476   1.289
 3820SOL     OW12358   6.398   6.542   3.045
 3820SOL    HW112359   6.434   6.456   3.008
 3820SOL    HW212360   6.370   6.601   2.970
 3821SOL     OW12361   2.742   2.137   0.767
 3821SOL    HW112362   2.763   2.109   0.673
 3821SOL    HW212363   2.705   2.059   0.817
 3822SOL     OW12364   1.434   6.494   2.645
 3822SOL    HW112365   1.465   6.565   2.581
 3822SOL    HW212366   1.335   6.500   2.655
 3823SOL     OW12367   2.985   2.773   6.089
 3823SOL    HW112368   3.062   2.720   6.124
 3823SOL    HW212369   2.974   2.755   5.991
 3824SOL     OW12370   5.801   2.084   0.053
 3824SOL    HW112371   5.814   2.030   0.136
 3824SOL    HW212372   5.843   2.174   0.066
 3825SOL     OW12373   0.525   6.611   0.598
 3825SOL    HW112374   0.462   6.660   0.537
 3825SOL    HW212375   0.608   6.589   0.548
 3826SOL     OW12376   0.651   3.210   0.077
 3826SOL    HW112377   0.569   3.157   0.100
 3826SOL    HW212378   0.686   3.180   7.007
 3827SOL     OW12379   2.762   2.782   1.222
 3827SOL    HW112380   2.859   2.765   1.201
 3827SOL    HW212381   2.748   2.879   1.237
 3828SOL     OW12382   3.910   2.377   1.661
 3828SOL    HW112383   3.816   2.349   1.643
 3828SOL    HW212384   3.939   2.443   1.592
 3829SOL     OW12385   2.201   4.245   4.719
 3829SOL    HW112386   2.229   4.280   4.808
 3829SOL    HW212387   2.190   4.146   4.724
 3830SOL     OW12388   0.680   0.111   4.533
 3830SOL    HW112389   0.697   0.169   4.454
 3830SOL    HW212390   0.645   0.167   4.608
 3831SOL     OW12391   4.945   1.706   2.431
 3831SOL    HW112392   4.972   1.693   2.336
 3831SOL    HW212393   4.918   1.618   2.470
 3832SOL     OW12394   5.721   0.377   2.621
 3832SOL    HW112395   5.692   0.464   2.661
 3832SOL    HW212396   5.801   0.343   2.669
 3833SOL     OW12397   0.576   5.812   6.178
 3833SOL    HW112398   0.670   5.780   6.194
 3833SOL    HW212399   0.526   5.743   6.126
 3834SOL     OW12400   4.030   2.760   1.118
 3834SOL    HW112401   4.037   2.848   1.071
 3834SOL    HW212402   3.956   2.764   1.185
 3835SOL     OW12403   2.936   5.590   5.060
 3835SOL    HW112404   3.005   5.543   5.116
 3835SOL    HW212405   2.977   5.619   4.974
 3836SOL     OW12406   1.395   3.998   6.111
 3836SOL    HW112407   1.428   3.949   6.030
 3836SOL    HW212408   1.448   4.082   6.123
 3837SOL     OW12409   4.496   3.794   6.897
 3837SOL    HW112410   4.585   3.837   6.912
 3837SOL    HW212411   4.424   3.855   6.929
 3838SOL     OW12412   0.080   3.215   4.364
 3838SOL    HW112413   0.075   3.236   4.267
 3838SOL    HW212414   7.007   3.207   4.402
 3839SOL     OW12415   3.834   0.596   4.395
 3839SOL    HW112416   3.786   0.542   4.463
 3839SOL    HW212417   3.915   0.546   4.364
 3840SOL     OW12418   2.215   1.340   5.031
 3840SOL    HW112419   2.116   1.355   5.031
 3840SOL    HW212420   2.235   1.249   4.995
 3841SOL     OW12421   0.275   2.996   5.420
 3841SOL    HW112422   0.275   3.050   5.336
 3841SOL    HW212423   0.221   3.042   5.490
 3842SOL     OW12424   0.798   3.820   6.578
 3842SOL    HW112425   0.824   3.897   6.519
 3842SOL    HW212426   0.713   3.842   6.626
 3843SOL     OW12427   6.429   4.498   2.043
 3843SOL    HW112428   6.391   4.454   1.962
 3843SOL    HW212429   6.519   4.458   2.062
 3844SOL     OW12430   6.969   3.531   6.121
 3844SOL    HW112431   0.020   3.573   6.179
 3844SOL    HW212432   6.881   3.576   6.136
 3845SOL     OW12433   3.875   2.958   2.997
 3845SOL    HW112434   3.813   2.903   3.052
 3845SOL    HW212435   3.886   3.048   3.038
 3846SOL     OW12436   0.639   4.770   3.863
 3846SOL    HW112437   0.614   4.736   3.954
 3846SOL    HW212438   0.579   4.846   3.838
 3847SOL     OW12439   5.970   0.478   5.065
 3847SOL    HW112440   5.943   0.391   5.106
 3847SOL    HW212441   5.903   0.505   4.996
 3848SOL     OW12442   3.229   5.613   2.708
 3848SOL    HW112443   3.157   5.557   2.667
 3848SOL    HW212444   3.311   5.608   2.651
 3849SOL     OW12445   1.076   1.338   5.504
 3849SOL    HW112446   1.128   1.287   5.572
 3849SOL    HW212447   1.115   1.430   5.495
 3850SOL     OW12448   2.739   3.430   1.251
 3850SOL    HW112449   2.821   3.486   1.264
 3850SOL    HW212450   2.662   3.473   1.300
 3851SOL     OW12451   1.424   4.585   3.180
 3851SOL    HW112452   1.343   4.631   3.142
 3851SOL    HW212453   1.421   4.488   3.158
 3852SOL     OW12454   4.835   6.793   4.197
 3852SOL    HW112455   4.917   6.848   4.214
 3852SOL    HW212456   4.857   6.696   4.208
 3853SOL     OW12457   1.731   2.804   2.891
 3853SOL    HW112458   1.642   2.809   2.935
 3853SOL    HW212459   1.734   2.725   2.830
 3854SOL     OW12460   1.525   3.528   3.050
 3854SOL    HW112461   1.553   3.476   3.131
 3854SOL    HW212462   1.566   3.487   2.969
 3855SOL     OW12463   4.275   6.027   6.854
 3855SOL    HW112464   4.368   5.992   6.846
 3855SOL    HW212465   4.270   6.120   6.818
 3856SOL     OW12466   6.810   5.960   5.439
 3856SOL    HW112467   6.843   6.051   5.414
 3856SOL    HW212468   6.711   5.962   5.452
 3857SOL     OW12469   1.048   5.901   6.111
 3857SOL    HW112470   1.134   5.897   6.163
 3857SOL    HW212471   1.068   5.897   6.013
 3858SOL     OW12472   1.602   5.994   5.729
 3858SOL    HW112473   1.670   6.032   5.666
 3858SOL    HW212474   1.575   6.064   5.795
 3859SOL     OW12475   6.303   2.177   3.122
 3859SOL    HW112476   6.354   2.194   3.037
 3859SOL    HW212477   6.352   2.220   3.198
 3860SOL     OW12478   0.932   0.481   5.509
 3860SOL    HW112479   0.833   0.479   5.496
 3860SOL    HW212480   0.978   0.479   5.421
 3861SOL     OW12481   5.197   4.286   1.782
 3861SOL    HW112482   5.103   4.318   1.772
 3861SOL    HW212483   5.227   4.301   1.876
 3862SOL     OW12484   0.575   6.774   4.776
 3862SOL    HW112485   0.578   6.706   4.850
 3862SOL    HW212486   0.481   6.782   4.743
 3863SOL     OW12487   3.788   4.051   6.407
 3863SOL    HW112488   3.815   3.968   6.358
 3863SOL    HW212489   3.772   4.029   6.504
 3864SOL     OW12490   3.821   1.724   5.205
 3864SOL    HW112491   3.753   1.766   5.265
 3864SOL    HW212492   3.907   1.775   5.209
 3865SOL     OW12493   3.979   0.300   1.444
 3865SOL    HW112494   4.035   0.377   1.476
 3865SOL    HW212495   4.011   0.272   1.353
 3866SOL     OW12496   4.368   0.759   0.795
 3866SOL    HW112497   4.375   0.823   0.871
 3866SOL    HW212498   4.446   0.770   0.734
 3867SOL     OW12499   1.599   3.137   3.804
 3867SOL    HW112500   1.535   3.180   3.868
 3867SOL    HW212501   1.577   3.163   3.711
 3868SOL     OW12502   2.525   6.579   1.497
 3868SOL    HW112503   2.484   6.584   1.588
 3868SOL    HW212504   2.597   6.509   1.497
 3869SOL     OW12505   6.842   3.342   4.997
 3869SOL    HW112506   6.914   3.367   4.932
 3869SOL    HW212507   6.851   3.400   5.079
 3870SOL     OW12508   4.640   4.686   0.521
 3870SOL    HW112509   4.663   4.779   0.548
 3870SOL    HW212510   4.688   4.663   0.436
 3871SOL     OW12511   3.791   0.883   2.685
 3871SOL    HW112512   3.868   0.841   2.636
 3871SOL    HW212513   3.817   0.902   2.779
 3872SOL     OW12514   3.315   2.785   1.938
 3872SOL    HW112515   3.294   2.830   2.025
 3872SOL    HW212516   3.230   2.753   1.896
 3873SOL     OW12517   6.231   5.597   1.203
 3873SOL    HW112518   6.166   5.605   1.279
 3873SOL    HW212519   6.299   5.527   1.225
 3874SOL     OW12520   3.918   6.074   6.887
 3874SOL    HW112521   4.001   6.088   6.941
 3874SOL    HW212522   3.878   5.985   6.910
 3875SOL     OW12523   1.034   3.269   2.376
 3875SOL    HW112524   0.942   3.305   2.358
 3875SOL    HW212525   1.041   3.176   2.339
 3876SOL     OW12526   5.791   5.838   6.217
 3876SOL    HW112527   5.767   5.829   6.313
 3876SOL    HW212528   5.766   5.929   6.184
 3877SOL     OW12529   6.526   1.755   0.514
 3877SOL    HW112530   6.571   1.732   0.601
 3877SOL    HW212531   6.559   1.692   0.443
 3878SOL     OW12532   2.354   6.452   5.691
 3878SOL    HW112533   2.272   6.504   5.664
 3878SOL    HW212534   2.348   6.360   5.653
 3879SOL     OW12535   4.088   6.400   1.543
 3879SOL    HW112536   4.048   6.355   1.463
 3879SOL    HW212537   4.187   6.386   1.544
 3880SOL     OW12538   6.015   4.132   3.247
 3880SOL    HW112539   6.090   4.082   3.289
 3880SOL    HW212540   5.951   4.162   3.318
 3881SOL     OW12541   1.429   5.090   0.597
 3881SOL    HW112542   1.452   5.016   0.660
 3881SOL    HW212543   1.464   5.068   0.506
 3882SOL     OW12544   6.403   1.095   5.051
 3882SOL    HW112545   6.442   1.170   5.105
 3882SOL    HW212546   6.462   1.077   4.972
 3883SOL     OW12547   4.707   0.883   3.978
 3883SOL    HW112548   4.787   0.858   3.923
 3883SOL    HW212549   4.668   0.968   3.944
 3884SOL     OW12550   1.106   5.872   4.506
 3884SOL    HW112551   1.071   5.778   4.513
 3884SOL    HW212552   1.124   5.908   4.597
 3885SOL     OW12553   6.398   0.879   4.680
 3885SOL    HW112554   6.472   0.904   4.618
 3885SOL    HW212555   6.359   0.791   4.653
 3886SOL     OW12556   6.291   0.145   5.367
 3886SOL    HW112557   6.236   0.218   5.325
 3886SOL    HW212558   6.320   0.081   5.297
 3887SOL     OW12559   5.360   2.180   5.491
 3887SOL    HW112560   5.421   2.259   5.497
 3887SOL    HW212561   5.340   2.146   5.583
 3888SOL     OW12562   0.318   0.508   5.928
 3888SOL    HW112563   0.304   0.601   5.962
 3888SOL    HW212564   0.278   0.500   5.837
 3889SOL     OW12565   0.047   3.948   0.052
 3889SOL    HW112566   0.031   4.043   0.079
 3889SOL    HW212567   7.000   3.922   7.000
 3890SOL     OW12568   6.571   6.638   3.243
 3890SOL    HW112569   6.638   6.687   3.188
 3890SOL    HW212570   6.502   6.597   3.184
 3891SOL     OW12571   5.595   4.371   4.829
 3891SOL    HW112572   5.508   4.419   4.844
 3891SOL    HW212573   5.588   4.313   4.748
 3892SOL     OW12574   0.991   0.125   2.242
 3892SOL    HW112575   1.037   0.207   2.210
 3892SOL    HW212576   1.004   0.117   2.341
 3893SOL     OW12577   3.497   5.781   2.594
 3893SOL    HW112578   3.584   5.745   2.560
 3893SOL    HW212579   3.511   5.821   2.685
 3894SOL     OW12580   3.482   2.382   1.120
 3894SOL    HW112581   3.390   2.360   1.087
 3894SOL    HW212582   3.540   2.300   1.113
 3895SOL     OW12583   0.987   0.923   5.554
 3895SOL    HW112584   1.019   0.851   5.616
 3895SOL    HW212585   1.038   1.007   5.571
 3896SOL     OW12586   0.758   2.491   6.232
 3896SOL    HW112587   0.797   2.413   6.183
 3896SOL    HW212588   0.701   2.544   6.170
 3897SOL     OW12589   3.032   6.802   2.149
 3897SOL    HW112590   3.048   6.885   2.095
 3897SOL    HW212591   3.066   6.816   2.242
 3898SOL     OW12592   3.242   2.926   3.228
 3898SOL    HW112593   3.239   2.978   3.143
 3898SOL    HW212594   3.167   2.957   3.288
 3899SOL     OW12595   5.045   1.386   4.814
 3899SOL    HW112596   5.100   1.348   4.888
 3899SOL    HW212597   4.951   1.400   4.846
 3900SOL     OW12598   5.719   2.759   3.274
 3900SOL    HW112599   5.622   2.783   3.276
 3900SOL    HW212600   5.729   2.660   3.284
 3901SOL     OW12601   1.731   6.460   5.989
 3901SOL    HW112602   1.732   6.476   6.088
 3901SOL    HW212603   1.825   6.463   5.953
 3902SOL     OW12604   4.590   4.375   2.646
 3902SOL    HW112605   4.662   4.342   2.585
 3902SOL    HW212606   4.524   4.428   2.593
 3903SOL     OW12607   4.119   4.169   6.790
 3903SOL    HW112608   4.174   4.173   6.707
 3903SOL    HW212609   4.022   4.164   6.766
 3904SOL     OW12610   0.850   6.923   6.796
 3904SOL    HW112611   0.860   6.824   6.811
 3904SOL    HW212612   0.915   6.953   6.727
 3905SOL     OW12613   6.199   6.812   6.502
 3905SOL    HW112614   6.243   6.735   6.455
 3905SOL    HW212615   6.123   6.777   6.557
 3906SOL     OW12616   1.953   4.613   4.833
 3906SOL    HW112617   1.914   4.705   4.844
 3906SOL    HW212618   1.977   4.599   4.737
 3907SOL     OW12619   0.747   1.094   4.783
 3907SOL    HW112620   0.751   1.014   4.724
 3907SOL    HW212621   0.840   1.126   4.803
 3908SOL     OW12622   0.703   0.485   6.098
 3908SOL    HW112623   0.650   0.516   6.176
 3908SOL    HW212624   0.784   0.437   6.129
 3909SOL     OW12625   5.089   3.888   6.127
 3909SOL    HW112626   5.131   3.974   6.097
 3909SOL    HW212627   5.159   3.825   6.159
 3910SOL     OW12628   3.876   3.979   1.919
 3910SOL    HW112629   3.967   3.954   1.952
 3910SOL    HW212630   3.813   3.987   1.996
 3911SOL     OW12631   5.800   0.107   0.956
 3911SOL    HW112632   5.807   0.028   0.895
 3911SOL    HW212633   5.706   0.118   0.986
 3912SOL     OW12634   3.158   1.368   5.622
 3912SOL    HW112635   3.092   1.315   5.676
 3912SOL    HW212636   3.111   1.445   5.578
 3913SOL     OW12637   3.507   5.770   6.869
 3913SOL    HW112638   3.416   5.809   6.852
 3913SOL    HW212639   3.499   5.695   6.935
 3914SOL     OW12640   5.346   1.714   1.684
 3914SOL    HW112641   5.363   1.802   1.728
 3914SOL    HW212642   5.324   1.729   1.588
 3915SOL     OW12643   3.360   6.781   0.186
 3915SOL    HW112644   3.278   6.835   0.166
 3915SOL    HW212645   3.342   6.685   0.169
 3916SOL     OW12646   2.865   6.838   3.018
 3916SOL    HW112647   2.942   6.890   2.982
 3916SOL    HW212648   2.831   6.882   3.102
 3917SOL     OW12649   2.700   5.369   0.081
 3917SOL    HW112650   2.723   5.464   0.106
 3917SOL    HW212651   2.785   5.317   0.072
 3918SOL     OW12652   4.778   1.253   0.445
 3918SOL    HW112653   4.808   1.215   0.358
 3918SOL    HW212654   4.746   1.347   0.431
 3919SOL     OW12655   4.089   1.007   0.910
 3919SOL    HW112656   4.176   0.990   0.864
 3919SOL    HW212657   4.021   1.036   0.843
 3920SOL     OW12658   2.239   1.315   6.820
 3920SOL    HW112659   2.149   1.329   6.861
 3920SOL    HW212660   2.287   1.403   6.813
 3921SOL     OW12661   6.533   2.957   6.909
 3921SOL    HW112662   6.535   3.030   6.977
 3921SOL    HW212663   6.548   2.995   6.818
 3922SOL     OW12664   4.782   5.200   1.849
 3922SOL    HW112665   4.848   5.125   1.853
 3922SOL    HW212666   4.692   5.164   1.827
 3923SOL     OW12667   5.935   1.325   1.113
 3923SOL    HW112668   5.848   1.365   1.141
 3923SOL    HW212669   5.918   1.240   1.063
 3924SOL     OW12670   0.217   4.172   3.088
 3924SOL    HW112671   0.211   4.231   3.007
 3924SOL    HW212672   0.144   4.105   3.086
 3925SOL     OW12673   4.734   4.224   0.778
 3925SOL    HW112674   4.808   4.219   0.844
 3925SOL    HW212675   4.771   4.214   0.685
 3926SOL     OW12676   1.030   0.224   5.827
 3926SOL    HW112677   0.956   0.289   5.844
 3926SOL    HW212678   1.117   0.273   5.827
 3927SOL     OW12679   1.086   3.386   3.801
 3927SOL    HW112680   1.044   3.469   3.837
 3927SOL    HW212681   1.185   3.399   3.793
 3928SOL     OW12682   2.708   6.767   2.825
 3928SOL    HW112683   2.712   6.819   2.740
 3928SOL    HW212684   2.769   6.809   2.892
 3929SOL     OW12685   6.889   1.596   0.009
 3929SOL    HW112686   6.962   1.635   6.971
 3929SOL    HW212687   6.825   1.668   0.035
 3930SOL     OW12688   1.014   2.063   3.727
 3930SOL    HW112689   1.033   2.149   3.774
 3930SOL    HW212690   1.096   2.006   3.727
 3931SOL     OW12691   1.667   1.888   1.676
 3931SOL    HW112692   1.744   1.825   1.678
 3931SOL    HW212693   1.694   1.976   1.716
 3932SOL     OW12694   2.342   5.567   4.001
 3932SOL    HW112695   2.423   5.512   4.020
 3932SOL    HW212696   2.333   5.583   3.903
 3933SOL     OW12697   0.799   5.588   0.333
 3933SOL    HW112698   0.878   5.636   0.294
 3933SOL    HW212699   0.738   5.559   0.259
 3934SOL     OW12700   0.151   2.171   2.993
 3934SOL    HW112701   0.104   2.088   2.962
 3934SOL    HW212702   0.212   2.148   3.069
 3935SOL     OW12703   6.202   2.733   6.793
 3935SOL    HW112704   6.272   2.662   6.804
 3935SOL    HW212705   6.128   2.698   6.735
 3936SOL     OW12706   6.579   5.724   5.276
 3936SOL    HW112707   6.510   5.763   5.216
 3936SOL    HW212708   6.573   5.766   5.367
 3937SOL     OW12709   0.313   5.448   2.780
 3937SOL    HW112710   0.346   5.480   2.691
 3937SOL    HW212711   0.295   5.526   2.839
 3938SOL     OW12712   0.022   3.443   4.824
 3938SOL    HW112713   6.991   3.529   4.834
 3938SOL    HW212714   0.041   3.426   4.727
 3939SOL     OW12715   1.509   1.034   2.648
 3939SOL    HW112716   1.443   1.062   2.718
 3939SOL    HW212717   1.601   1.031   2.688
 3940SOL     OW12718   2.963   4.912   1.895
 3940SOL    HW112719   2.993   4.968   1.972
 3940SOL    HW212720   2.884   4.857   1.922
 3941SOL     OW12721   6.214   6.970   4.719
 3941SOL    HW112722   6.285   6.901   4.703
 3941SOL    HW212723   6.145   6.964   4.646
 3942SOL     OW12724   1.580   6.221   5.881
 3942SOL    HW112725   1.655   6.186   5.938
 3942SOL    HW212726   1.597   6.318   5.861
 3943SOL     OW12727   1.072   3.742   1.706
 3943SOL    HW112728   1.150   3.803   1.714
 3943SOL    HW212729   1.100   3.649   1.729
 3944SOL     OW12730   5.513   2.970   6.274
 3944SOL    HW112731   5.480   3.056   6.237
 3944SOL    HW212732   5.442   2.929   6.332
 3945SOL     OW12733   0.898   2.477   2.852
 3945SOL    HW112734   0.858   2.386   2.843
 3945SOL    HW212735   0.942   2.503   2.766
 3946SOL     OW12736   6.736   3.535   0.302
 3946SOL    HW112737   6.745   3.454   0.359
 3946SOL    HW212738   6.703   3.612   0.356
 3947SOL     OW12739   5.770   5.736   0.196
 3947SOL    HW112740   5.674   5.763   0.190
 3947SOL    HW212741   5.802   5.748   0.291
 3948SOL     OW12742   1.654   3.642   0.048
 3948SOL    HW112743   1.574   3.664   0.103
 3948SOL    HW212744   1.709   3.573   0.096
 3949SOL     OW12745   6.736   6.805   2.511
 3949SOL    HW112746   6.779   6.802   2.421
 3949SOL    HW212747   6.733   6.900   2.543
 3950SOL     OW12748   4.232   4.127   1.699
 3950SOL    HW112749   4.233   4.027   1.701
 3950SOL    HW212750   4.303   4.163   1.760
 3951SOL     OW12751   0.586   2.634   6.021
 3951SOL    HW112752   0.626   2.725   6.009
 3951SOL    HW212753   0.596   2.582   5.936
 3952SOL     OW12754   5.924   2.486   4.345
 3952SOL    HW112755   5.981   2.406   4.359
 3952SOL    HW212756   5.849   2.486   4.410
 3953SOL     OW12757   3.046   4.121   6.023
 3953SOL    HW112758   3.100   4.087   6.100
 3953SOL    HW212759   3.045   4.221   6.024
 3954SOL     OW12760   6.572   3.644   5.619
 3954SOL    HW112761   6.473   3.642   5.638
 3954SOL    HW212762   6.622   3.631   5.704
 3955SOL     OW12763   4.680   6.298   0.277
 3955SOL    HW112764   4.627   6.245   0.211
 3955SOL    HW212765   4.660   6.395   0.266
 3956SOL     OW12766   0.849   2.614   5.593
 3956SOL    HW112767   0.776   2.629   5.526
 3956SOL    HW212768   0.818   2.550   5.663
 3957SOL     OW12769   3.130   6.685   4.036
 3957SOL    HW112770   3.138   6.602   4.090
 3957SOL    HW212771   3.166   6.763   4.088
 3958SOL     OW12772   6.265   6.669   0.348
 3958SOL    HW112773   6.321   6.592   0.378
 3958SOL    HW212774   6.266   6.741   0.418
 3959SOL     OW12775   3.043   5.269   0.808
 3959SOL    HW112776   2.982   5.276   0.887
 3959SOL    HW212777   3.138   5.265   0.840
 3960SOL     OW12778   4.321   2.574   6.517
 3960SOL    HW112779   4.392   2.556   6.448
 3960SOL    HW212780   4.345   2.529   6.603
 3961SOL     OW12781   5.073   2.180   2.263
 3961SOL    HW112782   5.000   2.248   2.247
 3961SOL    HW212783   5.060   2.103   2.201
 3962SOL     OW12784   0.596   5.542   0.153
 3962SOL    HW112785   0.526   5.568   0.086
 3962SOL    HW212786   0.601   5.442   0.158
 3963SOL     OW12787   5.492   5.461   3.050
 3963SOL    HW112788   5.469   5.443   3.145
 3963SOL    HW212789   5.419   5.427   2.991
 3964SOL     OW12790   4.593   6.175   5.005
 3964SOL    HW112791   4.663   6.171   5.076
 3964SOL    HW212792   4.623   6.123   4.925
 3965SOL     OW12793   3.477   4.667   6.760
 3965SOL    HW112794   3.424   4.728   6.701
 3965SOL    HW212795   3.490   4.579   6.714
 3966SOL     OW12796   6.599   4.408   6.428
 3966SOL    HW112797   6.639   4.322   6.459
 3966SOL    HW212798   6.584   4.468   6.506
 3967SOL     OW12799   0.914   5.357   3.851
 3967SOL    HW112800   0.831   5.302   3.857
 3967SOL    HW212801   0.940   5.389   3.943
 3968SOL     OW12802   5.311   0.323   2.940
 3968SOL    HW112803   5.273   0.364   3.023
 3968SOL    HW212804   5.350   0.234   2.962
 3969SOL     OW12805   1.417   4.896   2.998
 3969SOL    HW112806   1.450   4.889   2.904
 3969SOL    HW212807   1.361   4.816   3.020
 3970SOL     OW12808   4.738   4.732   3.918
 3970SOL    HW112809   4.709   4.735   3.823
 3970SOL    HW212810   4.658   4.723   3.977
 3971SOL     OW12811   2.975   5.518   3.148
 3971SOL    HW112812   2.993   5.603   3.196
 3971SOL    HW212813   2.877   5.498   3.152
 3972SOL     OW12814   0.362   6.393   0.649
 3972SOL    HW112815   0.421   6.470   0.627
 3972SOL    HW212816   0.410   6.332   0.712
 3973SOL     OW12817   3.218   3.427   5.130
 3973SOL    HW112818   3.148   3.493   5.103
 3973SOL    HW212819   3.253   3.451   5.221
 3974SOL     OW12820   0.400   1.466   6.326
 3974SOL    HW112821   0.441   1.419   6.405
 3974SOL    HW212822   0.375   1.559   6.352
 3975SOL     OW12823   6.776   0.434   5.729
 3975SOL    HW112824   6.702   0.498   5.748
 3975SOL    HW212825   6.858   0.460   5.781
 3976SOL     OW12826   0.734   4.172   1.077
 3976SOL    HW112827   0.823   4.215   1.062
 3976SOL    HW212828   0.675   4.235   1.128
 3977SOL     OW12829   2.522   6.012   5.691
 3977SOL    HW112830   2.518   5.953   5.610
 3977SOL    HW212831   2.539   5.956   5.772
 3978SOL     OW12832   5.684   1.366   5.957
 3978SOL    HW112833   5.646   1.291   6.012
 3978SOL    HW212834   5.769   1.335   5.915
 3979SOL     OW12835   2.084   0.185   1.384
 3979SOL    HW112836   2.083   0.133   1.299
 3979SOL    HW212837   2.083   0.283   1.364
 3980SOL     OW12838   5.832   3.413   4.632
 3980SOL    HW112839   5.797   3.371   4.715
 3980SOL    HW212840   5.916   3.463   4.652
 3981SOL     OW12841   6.856   2.207   6.506
 3981SOL    HW112842   6.791   2.246   6.440
 3981SOL    HW212843   6.858   2.264   6.588
 3982SOL     OW12844   2.376   0.994   4.913
 3982SOL    HW112845   2.333   1.016   5.001
 3982SOL    HW212846   2.349   1.063   4.846
 3983SOL     OW12847   3.696   6.595   4.663
 3983SOL    HW112848   3.770   6.565   4.601
 3983SOL    HW212849   3.734   6.611   4.754
 3984SOL     OW12850   1.805   6.941   2.018
 3984SOL    HW112851   1.881   6.968   2.076
 3984SOL    HW212852   1.764   0.004   1.977
 3985SOL     OW12853   2.231   4.134   6.920
 3985SOL    HW112854   2.217   4.056   6.981
 3985SOL    HW212855   2.232   4.102   6.825
 3986SOL     OW12856   0.313   1.915   2.154
 3986SOL    HW112857   0.214   1.916   2.141
 3986SOL    HW212858   0.336   1.968   2.236
 3987SOL     OW12859   1.532   5.842   5.311
 3987SOL    HW112860   1.519   5.851   5.212
 3987SOL    HW212861   1.473   5.907   5.359
 3988SOL     OW12862   3.337   2.151   6.138
 3988SOL    HW112863   3.367   2.094   6.215
 3988SOL    HW212864   3.261   2.209   6.166
 3989SOL     OW12865   6.171   0.060   6.525
 3989SOL    HW112866   6.240   0.107   6.470
 3989SOL    HW212867   6.180   6.981   6.512
 3990SOL     OW12868   6.326   2.384   5.095
 3990SOL    HW112869   6.229   2.381   5.116
 3990SOL    HW212870   6.342   2.446   5.018
 3991SOL     OW12871   0.247   2.599   3.476
 3991SOL    HW112872   0.335   2.551   3.479
 3991SOL    HW212873   0.247   2.663   3.400
 3992SOL     OW12874   3.998   2.935   6.615
 3992SOL    HW112875   4.089   2.903   6.589
 3992SOL    HW212876   3.958   2.871   6.680
 3993SOL     OW12877   2.619   2.256   2.629
 3993SOL    HW112878   2.625   2.168   2.582
 3993SOL    HW212879   2.667   2.250   2.717
 3994SOL     OW12880   2.345   2.410   5.243
 3994SOL    HW112881   2.252   2.448   5.248
 3994SOL    HW212882   2.394   2.453   5.167
 3995SOL     OW12883   2.414   4.399   3.466
 3995SOL    HW112884   2.433   4.432   3.373
 3995SOL    HW212885   2.323   4.357   3.468
 3996SOL     OW12886   2.092   1.461   4.378
 3996SOL    HW112887   2.176   1.515   4.380
 3996SOL    HW212888   2.013   1.521   4.385
 3997SOL     OW12889   4.938   3.654   3.121
 3997SOL    HW112890   4.906   3.560   3.126
 3997SOL    HW212891   4.936   3.694   3.213
 3998SOL     OW12892   5.964   2.188   2.131
 3998SOL    HW112893   5.983   2.201   2.034
 3998SOL    HW212894   5.874   2.225   2.152
 3999SOL     OW12895   6.396   4.166   3.543
 3999SOL    HW112896   6.433   4.231   3.610
 3999SOL    HW212897   6.297   4.159   3.555
 4000SOL     OW12898   3.268   5.767   2.930
 4000SOL    HW112899   3.270   5.731   2.837
 4000SOL    HW212900   3.360   5.798   2.956
 4001SOL     OW12901   2.233   4.073   6.028
 4001SOL    HW112902   2.306   4.049   5.964
 4001SOL    HW212903   2.159   4.118   5.978
 4002SOL     OW12904   3.579   2.893   4.336
 4002SOL    HW112905   3.600   2.850   4.424
 4002SOL    HW212906   3.558   2.990   4.351
 4003SOL     OW12907   1.753   1.285   6.431
 4003SOL    HW112908   1.836   1.320   6.387
 4003SOL    HW212909   1.753   1.312   6.527
 4004SOL     OW12910   6.775   3.286   3.944
 4004SOL    HW112911   6.692   3.319   3.988
 4004SOL    HW212912   6.788   3.189   3.967
 4005SOL     OW12913   4.050   4.840   0.880
 4005SOL    HW112914   4.150   4.834   0.883
 4005SOL    HW212915   4.017   4.811   0.790
 4006SOL     OW12916   5.569   4.770   1.903
 4006SOL    HW112917   5.565   4.739   1.997
 4006SOL    HW212918   5.499   4.723   1.849
 4007SOL     OW12919   0.667   2.689   2.929
 4007SOL    HW112920   0.751   2.662   2.881
 4007SOL    HW212921   0.603   2.613   2.928
 4008SOL     OW12922   3.275   0.498   6.376
 4008SOL    HW112923   3.267   0.523   6.279
 4008SOL    HW212924   3.221   0.562   6.431
 4009SOL     OW12925   4.831   1.959   1.201
 4009SOL    HW112926   4.779   1.967   1.116
 4009SOL    HW212927   4.874   1.868   1.205
 4010SOL     OW12928   3.180   3.348   1.933
 4010SOL    HW112929   3.207   3.262   1.888
 4010SOL    HW212930   3.256   3.381   1.988
 4011SOL     OW12931   0.002   6.540   2.107
 4011SOL    HW112932   6.989   6.609   2.041
 4011SOL    HW212933   0.018   6.584   2.195
 4012SOL     OW12934   4.484   6.666   2.553
 4012SOL    HW112935   4.441   6.597   2.611
 4012SOL    HW212936   4.516   6.623   2.468
 4013SOL     OW12937   2.269   0.792   1.116
 4013SOL    HW112938   2.238   0.875   1.163
 4013SOL    HW212939   2.360   0.808   1.076
 4014SOL     OW12940   3.331   5.794   4.087
 4014SOL    HW112941   3.337   5.719   4.152
 4014SOL    HW212942   3.304   5.758   3.997
 4015SOL     OW12943   4.914   5.065   6.193
 4015SOL    HW112944   4.857   5.083   6.112
 4015SOL    HW212945   4.868   4.998   6.251
 4016SOL     OW12946   2.923   5.999   0.148
 4016SOL    HW112947   3.010   5.949   0.154
 4016SOL    HW212948   2.918   6.046   0.060
 4017SOL     OW12949   0.548   5.538   5.554
 4017SOL    HW112950   0.467   5.503   5.602
 4017SOL    HW212951   0.630   5.507   5.601
 4018SOL     OW12952   4.532   0.097   1.912
 4018SOL    HW112953   4.535   0.165   1.985
 4018SOL    HW212954   4.495   0.139   1.829
 4019SOL     OW12955   5.662   3.815   2.393
 4019SOL    HW112956   5.714   3.732   2.374
 4019SOL    HW212957   5.692   3.855   2.479
 4020SOL     OW12958   6.477   3.046   5.509
 4020SOL    HW112959   6.442   3.104   5.435
 4020SOL    HW212960   6.570   3.018   5.487
 4021SOL     OW12961   3.631   4.268   5.179
 4021SOL    HW112962   3.534   4.282   5.199
 4021SOL    HW212963   3.684   4.347   5.210
 4022SOL     OW12964   3.194   6.308   6.428
 4022SOL    HW112965   3.226   6.375   6.494
 4022SOL    HW212966   3.094   6.307   6.427
 4023SOL     OW12967   0.040   0.409   5.205
 4023SOL    HW112968   6.970   0.371   5.230
 4023SOL    HW212969   0.107   0.335   5.195
 4024SOL     OW12970   2.194   4.596   4.154
 4024SOL    HW112971   2.236   4.506   4.147
 4024SOL    HW212972   2.173   4.615   4.250
 4025SOL     OW12973   0.778   6.288   4.328
 4025SOL    HW112974   0.820   6.305   4.417
 4025SOL    HW212975   0.719   6.365   4.304
 4026SOL     OW12976   6.070   6.937   3.924
 4026SOL    HW112977   6.116   6.852   3.898
 4026SOL    HW212978   5.979   6.916   3.959
 4027SOL     OW12979   2.736   2.820   0.194
 4027SOL    HW112980   2.733   2.759   0.273
 4027SOL    HW212981   2.680   2.901   0.213
 4028SOL     OW12982   4.799   1.278   3.897
 4028SOL    HW112983   4.898   1.267   3.886
 4028SOL    HW212984   4.752   1.208   3.843
 4029SOL     OW12985   3.194   4.134   5.679
 4029SOL    HW112986   3.111   4.190   5.673
 4029SOL    HW212987   3.253   4.169   5.752
 4030SOL     OW12988   7.002   1.062   2.143
 4030SOL    HW112989   6.926   1.061   2.208
 4030SOL    HW212990   6.983   1.000   2.068
 4031SOL     OW12991   5.468   6.152   3.287
 4031SOL    HW112992   5.411   6.220   3.332
 4031SOL    HW212993   5.527   6.197   3.220
 4032SOL     OW12994   0.047   6.962   1.803
 4032SOL    HW112995   6.971   6.983   1.778
 4032SOL    HW212996   0.087   0.021   1.849
 4033SOL     OW12997   1.876   3.272   1.573
 4033SOL    HW112998   1.862   3.356   1.521
 4033SOL    HW212999   1.967   3.274   1.616
 4034SOL     OW13000   6.165   1.612   4.943
 4034SOL    HW113001   6.085   1.656   4.982
 4034SOL    HW213002   6.178   1.522   4.984
 4035SOL     OW13003   5.938   1.517   0.724
 4035SOL    HW113004   5.852   1.569   0.730
 4035SOL    HW213005   5.922   1.423   0.752
 4036SOL     OW13006   4.047   4.759   2.360
 4036SOL    HW113007   4.085   4.782   2.271
 4036SOL    HW213008   3.951   4.788   2.363
 4037SOL     OW13009   1.747   1.626   0.335
 4037SOL    HW113010   1.682   1.699   0.317
 4037SOL    HW213011   1.836   1.649   0.294
 4038SOL     OW13012   4.066   2.771   1.489
 4038SOL    HW113013   4.136   2.841   1.504
 4038SOL    HW213014   3.992   2.784   1.555
 4039SOL     OW13015   5.797   5.461   1.380
 4039SOL    HW113016   5.815   5.394   1.307
 4039SOL    HW213017   5.870   5.530   1.379
 4040SOL     OW13018   3.374   6.745   5.130
 4040SOL    HW113019   3.345   6.665   5.076
 4040SOL    HW213020   3.360   6.828   5.076
 4041SOL     OW13021   1.178   5.133   0.686
 4041SOL    HW113022   1.105   5.097   0.629
 4041SOL    HW213023   1.266   5.118   0.640
 4042SOL     OW13024   6.001   6.391   4.346
 4042SOL    HW113025   6.053   6.360   4.425
 4042SOL    HW213026   6.063   6.404   4.268
 4043SOL     OW13027   6.902   2.518   5.959
 4043SOL    HW113028   6.951   2.599   5.926
 4043SOL    HW213029   6.804   2.539   5.965
 4044SOL     OW13030   4.570   6.559   3.556
 4044SOL    HW113031   4.580   6.657   3.534
 4044SOL    HW213032   4.658   6.522   3.584
 4045SOL     OW13033   3.983   5.938   5.867
 4045SOL    HW113034   3.962   5.858   5.924
 4045SOL    HW213035   3.935   6.017   5.904
 4046SOL     OW13036   1.372   1.670   3.550
 4046SOL    HW113037   1.413   1.618   3.625
 4046SOL    HW213038   1.414   1.640   3.463
 4047SOL     OW13039   2.129   2.681   0.243
 4047SOL    HW113040   2.182   2.609   0.197
 4047SOL    HW213041   2.118   2.657   0.340
 4048SOL     OW13042   4.930   1.910   1.900
 4048SOL    HW113043   4.991   1.831   1.901
 4048SOL    HW213044   4.872   1.906   1.818
 4049SOL     OW13045   5.417   5.014   6.424
 4049SOL    HW113046   5.327   4.972   6.438
 4049SOL    HW213047   5.485   4.943   6.409
 4050SOL     OW13048   1.233   6.572   1.580
 4050SOL    HW113049   1.208   6.667   1.598
 4050SOL    HW213050   1.332   6.561   1.590
 4051SOL     OW13051   3.815   1.558   6.391
 4051SOL    HW113052   3.785   1.484   6.452
 4051SOL    HW213053   3.905   1.537   6.354
 4052SOL     OW13054   6.649   1.362   2.100
 4052SOL    HW113055   6.629   1.398   2.192
 4052SOL    HW213056   6.745   1.336   2.094
 4053SOL     OW13057   3.169   6.230   4.176
 4053SOL    HW113058   3.227   6.156   4.209
 4053SOL    HW213059   3.202   6.261   4.086
 4054SOL     OW13060   5.674   3.968   1.016
 4054SOL    HW113061   5.622   3.945   1.098
 4054SOL    HW213062   5.622   3.939   0.935
 4055SOL     OW13063   2.937   3.283   0.253
 4055SOL    HW113064   2.846   3.295   0.291
 4055SOL    HW213065   3.004   3.330   0.310
 4056SOL     OW13066   5.116   3.811   0.929
 4056SOL    HW113067   5.173   3.828   0.848
 4056SOL    HW213068   5.042   3.877   0.932
 4057SOL     OW13069   6.439   2.359   1.042
 4057SOL    HW113070   6.536   2.380   1.030
 4057SOL    HW213071   6.393   2.363   0.953
 4058SOL     OW13072   2.268   0.126   5.164
 4058SOL    HW113073   2.343   0.076   5.206
 4058SOL    HW213074   2.304   0.189   5.095
 4059SOL     OW13075   0.582   1.729   2.953
 4059SOL    HW113076   0.586   1.718   3.053
 4059SOL    HW213077   0.495   1.692   2.920
 4060SOL     OW13078   5.486   5.702   4.920
 4060SOL    HW113079   5.527   5.774   4.977
 4060SOL    HW213080   5.449   5.631   4.980
 4061SOL     OW13081   2.592   4.616   2.409
 4061SOL    HW113082   2.583   4.711   2.437
 4061SOL    HW213083   2.626   4.562   2.486
 4062SOL     OW13084   2.512   1.019   1.791
 4062SOL    HW113085   2.442   1.084   1.820
 4062SOL    HW213086   2.600   1.064   1.787
 4063SOL     OW13087   6.182   6.542   0.025
 4063SOL    HW113088   6.264   6.534   6.988
 4063SOL    HW213089   6.206   6.582   0.114
 4064SOL     OW13090   2.482   0.541   3.612
 4064SOL    HW113091   2.394   0.505   3.580
 4064SOL    HW213092   2.556   0.500   3.559
 4065SOL     OW13093   1.727   6.709   1.480
 4065SOL    HW113094   1.740   6.807   1.494
 4065SOL    HW213095   1.725   6.689   1.382
 4066SOL     OW13096   6.104   4.772   3.310
 4066SOL    HW113097   6.025   4.730   3.266
 4066SOL    HW213098   6.149   4.834   3.245
 4067SOL     OW13099   6.473   3.527   3.012
 4067SOL    HW113100   6.392   3.483   2.972
 4067SOL    HW213101   6.447   3.615   3.052
 4068SOL     OW13102   1.728   1.217   4.709
 4068SOL    HW113103   1.767   1.309   4.700
 4068SOL    HW213104   1.725   1.173   4.620
 4069SOL     OW13105   2.957   5.470   6.535
 4069SOL    HW113106   2.939   5.469   6.633
 4069SOL    HW213107   3.019   5.396   6.511
 4070SOL     OW13108   0.699   3.865   1.893
 4070SOL    HW113109   0.600   3.857   1.903
 4070SOL    HW213110   0.732   3.797   1.827
 4071SOL     OW13111   1.296   1.155   4.920
 4071SOL    HW113112   1.254   1.137   5.009
 4071SOL    HW213113   1.395   1.158   4.930
 4072SOL     OW13114   0.264   5.785   4.145
 4072SOL    HW113115   0.316   5.819   4.223
 4072SOL    HW213116   0.180   5.838   4.135
 4073SOL     OW13117   2.894   6.009   6.120
 4073SOL    HW113118   2.973   5.971   6.072
 4073SOL    HW213119   2.923   6.089   6.173
 4074SOL     OW13120   6.940   4.091   2.144
 4074SOL    HW113121   6.873   4.128   2.208
 4074SOL    HW213122   6.991   4.167   2.102
 4075SOL     OW13123   4.284   2.105   2.122
 4075SOL    HW113124   4.284   2.046   2.041
 4075SOL    HW213125   4.302   2.199   2.095
 4076SOL     OW13126   2.924   2.715   5.814
 4076SOL    HW113127   2.857   2.644   5.792
 4076SOL    HW213128   3.004   2.704   5.756
 4077SOL     OW13129   3.129   1.406   6.997
 4077SOL    HW113130   3.155   1.401   6.900
 4077SOL    HW213131   3.040   1.452   7.005
 4078SOL     OW13132   0.527   5.776   1.169
 4078SOL    HW113133   0.503   5.815   1.080
 4078SOL    HW213134   0.591   5.837   1.216
 4079SOL     OW13135   1.720   0.804   3.638
 4079SOL    HW113136   1.719   0.724   3.698
 4079SOL    HW213137   1.812   0.815   3.599
 4080SOL     OW13138   3.995   4.503   5.999
 4080SOL    HW113139   4.045   4.587   5.980
 4080SOL    HW213140   4.047   4.447   6.064
 4081SOL     OW13141   1.862   2.570   4.667
 4081SOL    HW113142   1.866   2.540   4.763
 4081SOL    HW213143   1.825   2.663   4.663
 4082SOL     OW13144   0.730   3.878   0.592
 4082SOL    HW113145   0.702   3.786   0.619
 4082SOL    HW213146   0.748   3.933   0.673
 4083SOL     OW13147   6.709   3.921   1.932
 4083SOL    HW113148   6.786   3.861   1.912
 4083SOL    HW213149   6.690   3.919   2.030
 4084SOL     OW13150   5.440   1.983   3.359
 4084SOL    HW113151   5.522   1.960   3.411
 4084SOL    HW213152   5.467   2.023   3.272
 4085SOL     OW13153   2.814   5.712   1.603
 4085SOL    HW113154   2.791   5.708   1.701
 4085SOL    HW213155   2.911   5.691   1.591
 4086SOL     OW13156   0.963   5.462   2.051
 4086SOL    HW113157   0.989   5.507   2.137
 4086SOL    HW213158   1.043   5.416   2.012
 4087SOL     OW13159   1.603   1.762   3.249
 4087SOL    HW113160   1.550   1.683   3.277
 4087SOL    HW213161   1.639   1.809   3.329
 4088SOL     OW13162   6.683   0.761   6.793
 4088SOL    HW113163   6.755   0.699   6.826
 4088SOL    HW213164   6.711   0.802   6.707
 4089SOL     OW13165   6.118   5.740   4.462
 4089SOL    HW113166   6.067   5.815   4.504
 4089SOL    HW213167   6.066   5.655   4.473
 4090SOL     OW13168   1.645   5.284   5.567
 4090SOL    HW113169   1.598   5.293   5.480
 4090SOL    HW213170   1.578   5.277   5.641
 4091SOL     OW13171   6.854   6.317   7.016
 4091SOL    HW113172   6.831   6.221   0.013
 4091SOL    HW213173   6.952   6.325   7.000
 4092SOL     OW13174   6.586   2.409   5.370
 4092SOL    HW113175   6.523   2.473   5.413
 4092SOL    HW213176   6.610   2.443   5.279
 4093SOL     OW13177   4.544   6.521   2.329
 4093SOL    HW113178   4.494   6.465   2.262
 4093SOL    HW213179   4.640   6.490   2.331
 4094SOL     OW13180   2.229   5.632   5.193
 4094SOL    HW113181   2.174   5.559   5.234
 4094SOL    HW213182   2.176   5.677   5.121
 4095SOL     OW13183   0.424   3.661   0.396
 4095SOL    HW113184   0.423   3.752   0.438
 4095SOL    HW213185   0.353   3.657   0.325
 4096SOL     OW13186   4.612   5.891   5.996
 4096SOL    HW113187   4.588   5.913   5.901
 4096SOL    HW213188   4.531   5.902   6.054
 4097SOL     OW13189   3.979   4.755   5.213
 4097SOL    HW113190   4.059   4.703   5.181
 4097SOL    HW213191   3.919   4.695   5.266
 4098SOL     OW13192   0.161   2.007   1.856
 4098SOL    HW113193   0.259   2.021   1.869
 4098SOL    HW213194   0.119   1.987   1.944
 4099SOL     OW13195   3.139   4.993   1.671
 4099SOL    HW113196   3.077   4.971   1.746
 4099SOL    HW213197   3.119   4.936   1.592
 4100SOL     OW13198   0.030   6.375   4.791
 4100SOL    HW113199   0.006   6.408   4.700
 4100SOL    HW213200   0.130   6.372   4.800
 4101SOL     OW13201   5.717   0.989   0.343
 4101SOL    HW113202   5.626   1.010   0.378
 4101SOL    HW213203   5.778   1.065   0.361
 4102SOL     OW13204   6.394   0.359   1.005
 4102SOL    HW113205   6.392   0.296   0.928
 4102SOL    HW213206   6.471   0.336   1.065
 4103SOL     OW13207   0.284   0.363   0.154
 4103SOL    HW113208   0.218   0.435   0.175
 4103SOL    HW213209   0.376   0.394   0.178
 4104SOL     OW13210   1.016   5.002   2.701
 4104SOL    HW113211   1.036   4.940   2.625
 4104SOL    HW213212   0.995   4.948   2.782
 4105SOL     OW13213   4.806   0.170   1.536
 4105SOL    HW113214   4.883   0.122   1.578
 4105SOL    HW213215   4.721   0.121   1.556
 4106SOL     OW13216   6.072   2.815   2.699
 4106SOL    HW113217   6.131   2.735   2.707
 4106SOL    HW213218   5.978   2.790   2.723
 4107SOL     OW13219   1.546   5.789   0.852
 4107SOL    HW113220   1.533   5.887   0.835
 4107SOL    HW213221   1.524   5.768   0.947
 4108SOL     OW13222   6.430   4.068   5.452
 4108SOL    HW113223   6.335   4.088   5.426
 4108SOL    HW213224   6.461   3.987   5.401
 4109SOL     OW13225   6.360   7.004   5.157
 4109SOL    HW113226   6.277   7.006   5.102
 4109SOL    HW213227   6.423   6.936   5.120
 4110SOL     OW13228   3.915   3.560   5.972
 4110SOL    HW113229   3.981   3.529   6.040
 4110SOL    HW213230   3.826   3.574   6.016
 4111SOL     OW13231   4.281   3.426   0.135
 4111SOL    HW113232   4.286   3.525   0.140
 4111SOL    HW213233   4.186   3.397   0.127
 4112SOL     OW13234   5.112   6.392   4.566
 4112SOL    HW113235   5.100   6.362   4.661
 4112SOL    HW213236   5.069   6.481   4.553
 4113SOL     OW13237   4.738   6.040   4.806
 4113SOL    HW113238   4.702   5.947   4.799
 4113SOL    HW213239   4.825   6.039   4.854
 4114SOL     OW13240   3.388   2.156   3.926
 4114SOL    HW113241   3.354   2.199   4.010
 4114SOL    HW213242   3.326   2.176   3.851
 4115SOL     OW13243   3.637   4.925   2.193
 4115SOL    HW113244   3.652   4.864   2.115
 4115SOL    HW213245   3.544   4.911   2.228
 4116SOL     OW13246   3.341   1.371   1.945
 4116SOL    HW113247   3.376   1.460   1.972
 4116SOL    HW213248   3.415   1.304   1.945
 4117SOL     OW13249   1.532   4.479   2.646
 4117SOL    HW113250   1.620   4.520   2.620
 4117SOL    HW213251   1.546   4.382   2.667
 4118SOL     OW13252   3.097   6.692   0.379
 4118SOL    HW113253   3.041   6.721   0.301
 4118SOL    HW213254   3.038   6.654   0.450
 4119SOL     OW13255   3.423   1.887   3.842
 4119SOL    HW113256   3.509   1.926   3.808
 4119SOL    HW213257   3.380   1.952   3.905
 4120SOL     OW13258   3.679   0.662   6.973
 4120SOL    HW113259   3.615   0.589   6.999
 4120SOL    HW213260   3.629   0.733   6.923
 4121SOL     OW13261   6.173   0.636   4.335
 4121SOL    HW113262   6.106   0.567   4.308
 4121SOL    HW213263   6.188   0.631   4.434
 4122SOL     OW13264   1.379   5.941   5.003
 4122SOL    HW113265   1.435   6.024   5.006
 4122SOL    HW213266   1.302   5.951   5.065
 4123SOL     OW13267   4.297   5.317   5.909
 4123SOL    HW113268   4.313   5.284   6.002
 4123SOL    HW213269   4.242   5.400   5.911
 4124SOL     OW13270   6.092   5.774   7.004
 4124SOL    HW113271   6.066   5.680   6.982
 4124SOL    HW213272   6.175   5.799   6.953
 4125SOL     OW13273   4.706   1.341   2.404
 4125SOL    HW113274   4.791   1.293   2.422
 4125SOL    HW213275   4.712   1.388   2.316
 4126SOL     OW13276   1.287   3.556   4.603
 4126SOL    HW113277   1.283   3.468   4.651
 4126SOL    HW213278   1.293   3.630   4.670
 4127SOL     OW13279   4.335   5.107   4.754
 4127SOL    HW113280   4.381   5.079   4.670
 4127SOL    HW213281   4.357   5.041   4.827
 4128SOL     OW13282   1.204   2.676   1.594
 4128SOL    HW113283   1.208   2.579   1.615
 4128SOL    HW213284   1.114   2.712   1.619
 4129SOL     OW13285   3.796   1.300   6.504
 4129SOL    HW113286   3.765   1.214   6.466
 4129SOL    HW213287   3.723   1.342   6.557
 4130SOL     OW13288   6.750   2.870   6.590
 4130SOL    HW113289   6.678   2.933   6.618
 4130SOL    HW213290   6.776   2.889   6.495
 4131SOL     OW13291   1.584   0.417   3.309
 4131SOL    HW113292   1.622   0.508   3.327
 4131SOL    HW213293   1.642   0.348   3.352
 4132SOL     OW13294   5.225   4.502   3.568
 4132SOL    HW113295   5.143   4.458   3.605
 4132SOL    HW213296   5.281   4.434   3.520
 4133SOL     OW13297   2.896   6.017   0.409
 4133SOL    HW113298   2.815   6.077   0.413
 4133SOL    HW213299   2.911   5.989   0.315
 4134SOL     OW13300   2.650   3.046   1.095
 4134SOL    HW113301   2.716   2.999   1.036
 4134SOL    HW213302   2.557   3.025   1.065
 4135SOL     OW13303   0.960   1.416   3.003
 4135SOL    HW113304   0.861   1.401   2.999
 4135SOL    HW213305   0.995   1.385   3.091
 4136SOL     OW13306   1.178   2.095   2.921
 4136SOL    HW113307   1.150   2.090   3.016
 4136SOL    HW213308   1.158   2.007   2.876
 4137SOL     OW13309   0.569   4.619   0.723
 4137SOL    HW113310   0.597   4.523   0.719
 4137SOL    HW213311   0.588   4.656   0.814
 4138SOL     OW13312   4.448   5.440   3.282
 4138SOL    HW113313   4.407   5.531   3.295
 4138SOL    HW213314   4.468   5.426   3.185
 4139SOL     OW13315   1.770   2.060   5.380
 4139SOL    HW113316   1.864   2.083   5.354
 4139SOL    HW213317   1.708   2.128   5.341
 4140SOL     OW13318   2.951   0.432   5.153
 4140SOL    HW113319   2.938   0.413   5.056
 4140SOL    HW213320   2.882   0.497   5.184
 4141SOL     OW13321   6.383   6.083   1.454
 4141SOL    HW113322   6.326   6.160   1.484
 4141SOL    HW213323   6.385   6.081   1.354
 4142SOL     OW13324   6.402   5.621   1.001
 4142SOL    HW113325   6.343   5.632   1.081
 4142SOL    HW213326   6.417   5.710   0.957
 4143SOL     OW13327   6.382   1.607   1.195
 4143SOL    HW113328   6.365   1.588   1.292
 4143SOL    HW213329   6.476   1.639   1.183
 4144SOL     OW13330   5.152   3.815   6.498
 4144SOL    HW113331   5.068   3.869   6.506
 4144SOL    HW213332   5.128   3.718   6.490
 4145SOL     OW13333   6.599   6.180   1.160
 4145SOL    HW113334   6.565   6.267   1.124
 4145SOL    HW213335   6.687   6.194   1.205
 4146SOL     OW13336   6.831   0.519   4.682
 4146SOL    HW113337   6.911   0.551   4.731
 4146SOL    HW213338   6.756   0.584   4.695
 4147SOL     OW13339   4.782   4.087   5.975
 4147SOL    HW113340   4.761   4.057   6.068
 4147SOL    HW213341   4.767   4.012   5.911
 4148SOL     OW13342   0.892   0.743   4.649
 4148SOL    HW113343   0.807   0.777   4.609
 4148SOL    HW213344   0.903   0.646   4.627
 4149SOL     OW13345   0.113   2.963   0.987
 4149SOL    HW113346   0.022   3.003   0.997
 4149SOL    HW213347   0.139   2.965   0.890
 4150SOL     OW13348   0.963   0.651   6.230
 4150SOL    HW113349   0.939   0.554   6.238
 4150SOL    HW213350   0.879   0.706   6.231
 4151SOL     OW13351   2.891   5.639   5.399
 4151SOL    HW113352   2.793   5.623   5.398
 4151SOL    HW213353   2.914   5.707   5.469
 4152SOL     OW13354   4.115   6.066   1.644
 4152SOL    HW113355   4.025   6.044   1.684
 4152SOL    HW213356   4.155   6.143   1.694
 4153SOL     OW13357   4.318   5.051   6.908
 4153SOL    HW113358   4.224   5.049   6.872
 4153SOL    HW213359   4.379   5.085   6.837
 4154SOL     OW13360   0.356   4.985   4.165
 4154SOL    HW113361   0.403   4.937   4.239
 4154SOL    HW213362   0.257   4.979   4.178
 4155SOL     OW13363   6.896   1.295   2.034
 4155SOL    HW113364   6.951   1.236   2.093
 4155SOL    HW213365   6.889   1.254   1.943
 4156SOL     OW13366   5.700   6.253   5.301
 4156SOL    HW113367   5.739   6.162   5.282
 4156SOL    HW213368   5.601   6.249   5.291
 4157SOL     OW13369   5.196   5.356   4.660
 4157SOL    HW113370   5.296   5.357   4.665
 4157SOL    HW213371   5.162   5.270   4.697
 4158SOL     OW13372   1.739   4.690   2.613
 4158SOL    HW113373   1.797   4.714   2.535
 4158SOL    HW213374   1.779   4.729   2.697
 4159SOL     OW13375   2.156   3.495   4.267
 4159SOL    HW113376   2.199   3.419   4.317
 4159SOL    HW213377   2.158   3.475   4.169
 4160SOL     OW13378   5.872   0.812   0.809
 4160SOL    HW113379   5.883   0.715   0.830
 4160SOL    HW213380   5.948   0.844   0.752
 4161SOL     OW13381   0.789   1.013   0.280
 4161SOL    HW113382   0.829   0.947   0.343
 4161SOL    HW213383   0.758   0.965   0.197
 4162SOL     OW13384   6.302   6.640   6.309
 4162SOL    HW113385   6.269   6.600   6.223
 4162SOL    HW213386   6.400   6.659   6.301
 4163SOL     OW13387   5.755   6.352   3.327
 4163SOL    HW113388   5.800   6.287   3.387
 4163SOL    HW213389   5.805   6.359   3.241
 4164SOL     OW13390   1.482   6.829   6.529
 4164SOL    HW113391   1.508   6.907   6.586
 4164SOL    HW213392   1.565   6.782   6.497
 4165SOL     OW13393   4.036   0.152   6.998
 4165SOL    HW113394   4.104   0.134   6.927
 4165SOL    HW213395   3.958   0.200   6.959
 4166SOL     OW13396   6.343   4.246   1.163
 4166SOL    HW113397   6.366   4.282   1.254
 4166SOL    HW213398   6.414   4.273   1.098
 4167SOL     OW13399   0.997   4.238   1.055
 4167SOL    HW113400   1.048   4.159   1.088
 4167SOL    HW213401   1.005   4.313   1.122
 4168SOL     OW13402   6.518   4.972   0.755
 4168SOL    HW113403   6.540   5.014   0.666
 4168SOL    HW213404   6.521   5.042   0.826
 4169SOL     OW13405   5.870   3.973   3.665
 4169SOL    HW113406   5.785   3.922   3.677
 4169SOL    HW213407   5.874   4.047   3.732
 4170SOL     OW13408   3.957   4.031   5.519
 4170SOL    HW113409   4.054   4.051   5.530
 4170SOL    HW213410   3.932   4.041   5.422
 4171SOL     OW13411   5.968   5.597   0.961
 4171SOL    HW113412   6.011   5.680   0.996
 4171SOL    HW213413   5.872   5.594   0.989
 4172SOL     OW13414   0.415   2.404   6.300
 4172SOL    HW113415   0.324   2.442   6.282
 4172SOL    HW213416   0.447   2.356   6.218
 4173SOL     OW13417   5.116   3.843   5.835
 4173SOL    HW113418   5.144   3.927   5.790
 4173SOL    HW213419   5.083   3.863   5.927
 4174SOL     OW13420   5.499   0.810   3.548
 4174SOL    HW113421   5.407   0.771   3.546
 4174SOL    HW213422   5.525   0.839   3.455
 4175SOL     OW13423   2.049   6.337   4.633
 4175SOL    HW113424   1.998   6.394   4.568
 4175SOL    HW213425   2.119   6.286   4.583
 4176SOL     OW13426   2.954   6.594   2.000
 4176SOL    HW113427   2.989   6.652   2.075
 4176SOL    HW213428   2.859   6.569   2.019
 4177SOL     OW13429   6.429   4.414   5.181
 4177SOL    HW113430   6.437   4.457   5.091
 4177SOL    HW213431   6.482   4.329   5.182
 4178SOL     OW13432   4.739   0.352   4.429
 4178SOL    HW113433   4.674   0.367   4.355
 4178SOL    HW213434   4.779   0.261   4.420
 4179SOL     OW13435   5.509   2.333   3.066
 4179SOL    HW113436   5.425   2.301   3.021
 4179SOL    HW213437   5.485   2.379   3.151
 4180SOL     OW13438   4.890   4.074   1.634
 4180SOL    HW113439   4.961   4.008   1.659
 4180SOL    HW213440   4.817   4.072   1.702
 4181SOL     OW13441   1.836   1.953   0.597
 4181SOL    HW113442   1.771   1.889   0.557
 4181SOL    HW213443   1.788   2.035   0.628
 4182SOL     OW13444   0.562   6.855   3.225
 4182SOL    HW113445   0.652   6.819   3.200
 4182SOL    HW213446   0.569   6.953   3.242
 4183SOL     OW13447   4.568   0.643   6.877
 4183SOL    HW113448   4.632   0.569   6.897
 4183SOL    HW213449   4.507   0.656   6.955
 4184SOL     OW13450   4.275   4.868   1.779
 4184SOL    HW113451   4.222   4.784   1.788
 4184SOL    HW213452   4.262   4.905   1.687
 4185SOL     OW13453   0.337   5.528   2.496
 4185SOL    HW113454   0.283   5.612   2.497
 4185SOL    HW213455   0.434   5.552   2.485
 4186SOL     OW13456   2.289   4.987   0.917
 4186SOL    HW113457   2.288   5.014   1.013
 4186SOL    HW213458   2.198   4.959   0.889
 4187SOL     OW13459   3.751   3.847   5.871
 4187SOL    HW113460   3.794   3.887   5.790
 4187SOL    HW213461   3.720   3.754   5.850
 4188SOL     OW13462   4.873   0.123   4.400
 4188SOL    HW113463   4.882   0.030   4.434
 4188SOL    HW213464   4.961   0.155   4.364
 4189SOL     OW13465   3.816   0.598   5.061
 4189SOL    HW113466   3.866   0.654   5.128
 4189SOL    HW213467   3.782   0.657   4.988
 4190SOL     OW13468   0.494   0.710   0.319
 4190SOL    HW113469   0.460   0.771   0.247
 4190SOL    HW213470   0.463   0.742   0.408
 4191SOL     OW13471   5.246   3.327   3.260
 4191SOL    HW113472   5.249   3.288   3.169
 4191SOL    HW213473   5.324   3.294   3.313
 4192SOL     OW13474   0.603   1.235   3.984
 4192SOL    HW113475   0.578   1.143   3.952
 4192SOL    HW213476   0.563   1.303   3.923
 4193SOL     OW13477   1.730   6.920   3.161
 4193SOL    HW113478   1.647   6.957   3.203
 4193SOL    HW213479   1.797   6.993   3.150
 4194SOL     OW13480   5.762   0.253   5.332
 4194SOL    HW113481   5.748   0.271   5.235
 4194SOL    HW213482   5.810   0.331   5.374
 4195SOL     OW13483   4.288   0.291   2.511
 4195SOL    HW113484   4.256   0.314   2.603
 4195SOL    HW213485   4.378   0.248   2.517
 4196SOL     OW13486   5.735   2.230   3.511
 4196SOL    HW113487   5.737   2.158   3.442
 4196SOL    HW213488   5.793   2.204   3.588
 4197SOL     OW13489   5.088   5.740   5.079
 4197SOL    HW113490   5.118   5.834   5.064
 4197SOL    HW213491   5.167   5.680   5.084
 4198SOL     OW13492   5.358   2.930   6.499
 4198SOL    HW113493   5.449   2.912   6.536
 4198SOL    HW213494   5.289   2.895   6.562
 4199SOL     OW13495   2.188   3.540   6.345
 4199SOL    HW113496   2.111   3.540   6.283
 4199SOL    HW213497   2.190   3.626   6.396
 4200SOL     OW13498   2.886   6.236   5.152
 4200SOL    HW113499   2.985   6.227   5.155
 4200SOL    HW213500   2.845   6.193   5.233
 4201SOL     OW13501   5.998   6.198   3.654
 4201SOL    HW113502   5.941   6.154   3.723
 4201SOL    HW213503   5.973   6.164   3.563
 4202SOL     OW13504   3.904   5.767   5.659
 4202SOL    HW113505   3.925   5.810   5.746
 4202SOL    HW213506   3.884   5.837   5.591
 4203SOL     OW13507   4.940   5.514   0.934
 4203SOL    HW113508   4.936   5.592   0.996
 4203SOL    HW213509   4.953   5.546   0.840
 4204SOL     OW13510   3.787   2.944   2.485
 4204SOL    HW113511   3.778   2.950   2.585
 4204SOL    HW213512   3.710   2.893   2.448
 4205SOL     OW13513   3.633   4.941   3.942
 4205SOL    HW113514   3.666   4.848   3.962
 4205SOL    HW213515   3.551   4.935   3.886
 4206SOL     OW13516   5.894   0.438   5.476
 4206SOL    HW113517   5.838   0.507   5.523
 4206SOL    HW213518   5.961   0.484   5.418
 4207SOL     OW13519   2.093   1.451   1.863
 4207SOL    HW113520   2.041   1.450   1.948
 4207SOL    HW213521   2.055   1.383   1.800
 4208SOL     OW13522   1.193   3.343   6.708
 4208SOL    HW113523   1.117   3.310   6.652
 4208SOL    HW213524   1.261   3.387   6.650
 4209SOL     OW13525   0.519   1.557   5.300
 4209SOL    HW113526   0.454   1.515   5.363
 4209SOL    HW213527   0.612   1.536   5.330
 4210SOL     OW13528   3.394   3.653   2.113
 4210SOL    HW113529   3.332   3.586   2.155
 4210SOL    HW213530   3.415   3.624   2.019
 4211SOL     OW13531   3.674   5.516   5.124
 4211SOL    HW113532   3.767   5.527   5.091
 4211SOL    HW213533   3.619   5.470   5.054
 4212SOL     OW13534   6.330   2.679   2.231
 4212SOL    HW113535   6.275   2.596   2.232
 4212SOL    HW213536   6.400   2.672   2.159
 4213SOL     OW13537   2.711   0.909   2.361
 4213SOL    HW113538   2.618   0.923   2.325
 4213SOL    HW213539   2.714   0.822   2.409
 4214SOL     OW13540   0.922   3.872   5.559
 4214SOL    HW113541   0.900   3.946   5.496
 4214SOL    HW213542   1.007   3.892   5.607
 4215SOL     OW13543   6.715   5.884   4.772
 4215SOL    HW113544   6.790   5.942   4.803
 4215SOL    HW213545   6.711   5.884   4.672
 4216SOL     OW13546   1.398   1.888   3.113
 4216SOL    HW113547   1.475   1.839   3.154
 4216SOL    HW213548   1.406   1.886   3.013
 4217SOL     OW13549   6.895   0.026   2.721
 4217SOL    HW113550   6.821   0.031   2.654
 4217SOL    HW213551   6.971   6.992   2.682
 4218SOL     OW13552   5.263   0.402   1.896
 4218SOL    HW113553   5.173   0.444   1.911
 4218SOL    HW213554   5.285   0.405   1.799
 4219SOL     OW13555   3.016   5.215   3.653
 4219SOL    HW113556   2.997   5.309   3.623
 4219SOL    HW213557   2.931   5.163   3.657
 4220SOL     OW13558   5.717   2.438   3.300
 4220SOL    HW113559   5.807   2.434   3.256
 4220SOL    HW213560   5.718   2.381   3.382
 4221SOL     OW13561   5.774   5.721   6.510
 4221SOL    HW113562   5.748   5.625   6.518
 4221SOL    HW213563   5.758   5.768   6.596
 4222SOL     OW13564   5.891   2.549   2.628
 4222SOL    HW113565   5.984   2.532   2.596
 4222SOL    HW213566   5.868   2.646   2.613
 4223SOL     OW13567   2.967   3.297   4.964
 4223SOL    HW113568   2.963   3.255   5.055
 4223SOL    HW213569   2.967   3.397   4.974
 4224SOL     OW13570   4.913   2.984   3.761
 4224SOL    HW113571   4.859   2.900   3.766
 4224SOL    HW213572   4.976   2.978   3.683
 4225SOL     OW13573   4.972   0.450   5.789
 4225SOL    HW113574   4.895   0.496   5.833
 4225SOL    HW213575   4.999   0.501   5.707
 4226SOL     OW13576   0.808   0.159   3.245
 4226SOL    HW113577   0.709   0.169   3.235
 4226SOL    HW213578   0.839   0.213   3.323
 4227SOL     OW13579   3.793   5.051   6.469
 4227SOL    HW113580   3.806   4.955   6.494
 4227SOL    HW213581   3.801   5.108   6.551
 4228SOL     OW13582   0.825   3.337   3.383
 4228SOL    HW113583   0.841   3.352   3.480
 4228SOL    HW213584   0.885   3.263   3.351
 4229SOL     OW13585   4.818   5.155   5.956
 4229SOL    HW113586   4.825   5.155   5.857
 4229SOL    HW213587   4.828   5.248   5.991
 4230SOL     OW13588   2.411   0.944   4.200
 4230SOL    HW113589   2.419   1.008   4.276
 4230SOL    HW213590   2.315   0.939   4.171
 4231SOL     OW13591   5.197   5.958   4.667
 4231SOL    HW113592   5.185   5.956   4.568
 4231SOL    HW213593   5.279   6.011   4.690
 4232SOL     OW13594   6.650   4.379   1.917
 4232SOL    HW113595   6.631   4.417   1.826
 4232SOL    HW213596   6.744   4.401   1.943
 4233SOL     OW13597   0.043   0.812   0.039
 4233SOL    HW113598   7.014   0.735   7.014
 4233SOL    HW213599   6.997   0.869   0.088
 4234SOL     OW13600   1.478   0.136   5.512
 4234SOL    HW113601   1.552   0.203   5.517
 4234SOL    HW213602   1.515   0.047   5.484
 4235SOL     OW13603   5.559   3.792   5.162
 4235SOL    HW113604   5.504   3.775   5.244
 4235SOL    HW213605   5.529   3.877   5.119
 4236SOL     OW13606   0.414   3.717   2.970
 4236SOL    HW113607   0.405   3.816   2.981
 4236SOL    HW213608   0.505   3.688   3.000
 4237SOL     OW13609   6.328   4.893   4.108
 4237SOL    HW113610   6.367   4.801   4.112
 4237SOL    HW213611   6.235   4.889   4.071
 4238SOL     OW13612   3.968   5.102   3.310
 4238SOL    HW113613   4.043   5.043   3.339
 4238SOL    HW213614   3.883   5.050   3.309
 4239SOL     OW13615   6.059   1.187   3.557
 4239SOL    HW113616   6.019   1.095   3.552
 4239SOL    HW213617   6.032   1.231   3.642
 4240SOL     OW13618   2.140   0.024   0.021
 4240SOL    HW113619   2.130   0.123   0.007
 4240SOL    HW213620   2.235   7.017   0.003
 4241SOL     OW13621   5.496   1.534   1.363
 4241SOL    HW113622   5.449   1.618   1.389
 4241SOL    HW213623   5.561   1.509   1.435
 4242SOL     OW13624   2.080   0.421   3.089
 4242SOL    HW113625   2.090   0.520   3.077
 4242SOL    HW213626   2.168   0.382   3.117
 4243SOL     OW13627   0.586   3.915   3.223
 4243SOL    HW113628   0.583   3.981   3.299
 4243SOL    HW213629   0.571   3.823   3.259
 4244SOL     OW13630   4.809   5.277   0.909
 4244SOL    HW113631   4.873   5.206   0.878
 4244SOL    HW213632   4.860   5.355   0.945
 4245SOL     OW13633   6.382   1.395   6.086
 4245SOL    HW113634   6.371   1.406   6.184
 4245SOL    HW213635   6.294   1.404   6.040
 4246SOL     OW13636   5.483   2.264   3.627
 4246SOL    HW113637   5.512   2.310   3.711
 4246SOL    HW213638   5.564   2.231   3.578
 4247SOL     OW13639   2.095   4.940   3.455
 4247SOL    HW113640   2.051   4.854   3.483
 4247SOL    HW213641   2.046   5.017   3.496
 4248SOL     OW13642   1.289   1.228   3.511
 4248SOL    HW113643   1.337   1.190   3.590
 4248SOL    HW213644   1.306   1.170   3.431
 4249SOL     OW13645   5.635   1.512   3.396
 4249SOL    HW113646   5.724   1.546   3.426
 4249SOL    HW213647   5.587   1.584   3.345
 4250SOL     OW13648   6.427   6.220   4.303
 4250SOL    HW113649   6.377   6.152   4.249
 4250SOL    HW213650   6.402   6.210   4.399
 4251SOL     OW13651   6.399   2.949   0.884
 4251SOL    HW113652   6.388   2.850   0.897
 4251SOL    HW213653   6.395   2.970   0.787
 4252SOL     OW13654   4.838   6.059   6.502
 4252SOL    HW113655   4.814   6.153   6.524
 4252SOL    HW213656   4.825   6.044   6.403
 4253SOL     OW13657   3.098   6.732   1.803
 4253SOL    HW113658   3.088   6.660   1.872
 4253SOL    HW213659   3.062   6.818   1.838
 4254SOL     OW13660   2.119   4.068   1.931
 4254SOL    HW113661   2.181   4.144   1.948
 4254SOL    HW213662   2.026   4.094   1.959
 4255SOL     OW13663   0.230   3.832   3.714
 4255SOL    HW113664   0.228   3.888   3.632
 4255SOL    HW213665   0.140   3.791   3.729
 4256SOL     OW13666   1.208   5.907   0.946
 4256SOL    HW113667   1.191   5.992   0.997
 4256SOL    HW213668   1.218   5.832   1.011
 4257SOL     OW13669   4.924   1.259   4.313
 4257SOL    HW113670   4.841   1.304   4.278
 4257SOL    HW213671   5.001   1.322   4.304
 4258SOL     OW13672   3.165   6.030   0.814
 4258SOL    HW113673   3.146   6.076   0.900
 4258SOL    HW213674   3.092   6.049   0.748
 4259SOL     OW13675   1.436   6.064   0.825
 4259SOL    HW113676   1.494   6.090   0.901
 4259SOL    HW213677   1.343   6.047   0.859
 4260SOL     OW13678   5.787   0.610   3.425
 4260SOL    HW113679   5.765   0.521   3.385
 4260SOL    HW213680   5.703   0.655   3.455
 4261SOL     OW13681   1.754   0.086   2.841
 4261SOL    HW113682   1.775   0.089   2.939
 4261SOL    HW213683   1.824   0.033   2.794
 4262SOL     OW13684   0.894   4.175   6.148
 4262SOL    HW113685   0.830   4.115   6.197
 4262SOL    HW213686   0.987   4.152   6.175
 4263SOL     OW13687   2.693   0.967   3.703
 4263SOL    HW113688   2.772   1.022   3.729
 4263SOL    HW213689   2.621   0.978   3.772
 4264SOL     OW13690   6.375   1.714   4.600
 4264SOL    HW113691   6.359   1.629   4.550
 4264SOL    HW213692   6.371   1.791   4.537
 4265SOL     OW13693   3.677   0.943   1.101
 4265SOL    HW113694   3.774   0.938   1.125
 4265SOL    HW213695   3.626   0.988   1.174
 4266SOL     OW13696   1.958   6.412   6.945
 4266SOL    HW113697   1.866   6.373   6.941
 4266SOL    HW213698   2.024   6.344   6.915
 4267SOL     OW13699   2.107   3.477   3.989
 4267SOL    HW113700   2.101   3.429   3.902
 4267SOL    HW213701   2.046   3.557   3.987
 4268SOL     OW13702   2.022   5.660   6.791
 4268SOL    HW113703   1.944   5.613   6.830
 4268SOL    HW213704   2.106   5.608   6.809
 4269SOL     OW13705   2.798   1.101   3.278
 4269SOL    HW113706   2.789   1.034   3.351
 4269SOL    HW213707   2.773   1.059   3.191
 4270SOL     OW13708   3.358   2.923   2.199
 4270SOL    HW113709   3.426   2.992   2.175
 4270SOL    HW213710   3.382   2.882   2.287
 4271SOL     OW13711   0.000   1.261   7.011
 4271SOL    HW113712   6.977   1.328   0.052
 4271SOL    HW213713   7.003   1.169   0.028
 4272SOL     OW13714   6.984   2.598   4.914
 4272SOL    HW113715   6.995   2.588   5.013
 4272SOL    HW213716   6.903   2.548   4.885
 4273SOL     OW13717   4.873   6.418   5.007
 4273SOL    HW113718   4.936   6.350   4.968
 4273SOL    HW213719   4.879   6.503   4.956
 4274SOL     OW13720   1.160   0.009   1.979
 4274SOL    HW113721   1.065   0.038   1.996
 4274SOL    HW213722   1.176   6.940   2.023
 4275SOL     OW13723   0.080   1.931   4.115
 4275SOL    HW113724   0.161   1.877   4.091
 4275SOL    HW213725   0.067   2.004   4.047
 4276SOL     OW13726   3.120   4.885   3.917
 4276SOL    HW113727   3.046   4.925   3.971
 4276SOL    HW213728   3.207   4.924   3.946
 4277SOL     OW13729   0.236   4.449   2.482
 4277SOL    HW113730   0.237   4.530   2.540
 4277SOL    HW213731   0.141   4.420   2.467
 4278SOL     OW13732   0.738   6.682   3.968
 4278SOL    HW113733   0.665   6.667   4.036
 4278SOL    HW213734   0.716   6.631   3.885
 4279SOL     OW13735   1.729   1.008   2.793
 4279SOL    HW113736   1.815   0.964   2.767
 4279SOL    HW213737   1.742   1.059   2.878
 4280SOL     OW13738   6.636   0.089   6.046
 4280SOL    HW113739   6.631   0.182   6.082
 4280SOL    HW213740   6.655   0.092   5.948
 4281SOL     OW13741   5.351   5.183   3.167
 4281SOL    HW113742   5.349   5.255   3.237
 4281SOL    HW213743   5.275   5.197   3.104
 4282SOL     OW13744   3.337   4.684   0.479
 4282SOL    HW113745   3.356   4.781   0.465
 4282SOL    HW213746   3.332   4.665   0.577
 4283SOL     OW13747   3.491   1.328   3.545
 4283SOL    HW113748   3.533   1.257   3.488
 4283SOL    HW213749   3.508   1.418   3.505
 4284SOL     OW13750   4.420   5.480   0.548
 4284SOL    HW113751   4.391   5.402   0.493
 4284SOL    HW213752   4.518   5.493   0.539
 4285SOL     OW13753   2.179   1.428   5.630
 4285SOL    HW113754   2.192   1.332   5.656
 4285SOL    HW213755   2.252   1.455   5.568
 4286SOL     OW13756   5.941   0.083   5.998
 4286SOL    HW113757   6.038   0.090   6.021
 4286SOL    HW213758   5.921   7.009   5.965
 4287SOL     OW13759   4.828   1.062   5.853
 4287SOL    HW113760   4.849   1.015   5.768
 4287SOL    HW213761   4.806   0.994   5.924
 4288SOL     OW13762   1.010   5.482   3.097
 4288SOL    HW113763   0.989   5.488   3.000
 4288SOL    HW213764   1.005   5.574   3.138
 4289SOL     OW13765   0.863   2.348   6.427
 4289SOL    HW113766   0.903   2.377   6.514
 4289SOL    HW213767   0.911   2.392   6.352
 4290SOL     OW13768   0.470   6.068   5.035
 4290SOL    HW113769   0.488   6.123   4.953
 4290SOL    HW213770   0.513   5.978   5.025
 4291SOL     OW13771   5.201   4.334   6.265
 4291SOL    HW113772   5.259   4.392   6.207
 4291SOL    HW213773   5.251   4.251   6.290
 4292SOL     OW13774   5.631   2.943   0.081
 4292SOL    HW113775   5.622   2.909   0.175
 4292SOL    HW213776   5.709   2.899   0.038
 4293SOL     OW13777   3.786   4.596   0.079
 4293SOL    HW113778   3.695   4.581   0.119
 4293SOL    HW213779   3.832   4.508   0.067
 4294SOL     OW13780   2.098   1.091   6.480
 4294SOL    HW113781   2.188   1.115   6.516
 4294SOL    HW213782   2.065   1.164   6.420
 4295SOL     OW13783   4.835   5.912   3.787
 4295SOL    HW113784   4.771   5.933   3.713
 4295SOL    HW213785   4.853   5.814   3.789
 4296SOL     OW13786   3.137   6.916   0.124
 4296SOL    HW113787   3.192   6.998   0.139
 4296SOL    HW213788   3.040   6.940   0.127
 4297SOL     OW13789   6.767   6.499   2.192
 4297SOL    HW113790   6.863   6.491   2.169
 4297SOL    HW213791   6.711   6.456   2.121
 4298SOL     OW13792   3.498   6.173   1.682
 4298SOL    HW113793   3.420   6.228   1.713
 4298SOL    HW213794   3.521   6.106   1.753
 4299SOL     OW13795   0.932   3.136   0.213
 4299SOL    HW113796   0.989   3.082   0.152
 4299SOL    HW213797   0.924   3.229   0.177
 4300SOL     OW13798   2.458   6.943   0.314
 4300SOL    HW113799   2.498   0.014   0.296
 4300SOL    HW213800   2.455   6.890   0.229
 4301SOL     OW13801   4.547   0.365   1.976
 4301SOL    HW113802   4.492   0.449   1.983
 4301SOL    HW213803   4.604   0.370   1.894
 4302SOL     OW13804   6.844   0.244   6.350
 4302SOL    HW113805   6.863   0.149   6.377
 4302SOL    HW213806   6.748   0.253   6.324
 4303SOL     OW13807   0.157   4.301   4.084
 4303SOL    HW113808   0.176   4.286   4.181
 4303SOL    HW213809   0.243   4.316   4.035
 4304SOL     OW13810   3.571   3.705   2.381
 4304SOL    HW113811   3.482   3.659   2.371
 4304SOL    HW213812   3.616   3.710   2.292
 4305SOL     OW13813   0.267   6.541   6.325
 4305SOL    HW113814   0.360   6.570   6.349
 4305SOL    HW213815   0.244   6.575   6.233
 4306SOL     OW13816   5.139   4.712   4.429
 4306SOL    HW113817   5.088   4.687   4.346
 4306SOL    HW213818   5.095   4.671   4.509
 4307SOL     OW13819   5.281   3.214   5.214
 4307SOL    HW113820   5.355   3.256   5.267
 4307SOL    HW213821   5.266   3.121   5.246
 4308SOL     OW13822   5.704   5.620   1.047
 4308SOL    HW113823   5.699   5.534   1.099
 4308SOL    HW213824   5.639   5.686   1.084
 4309SOL     OW13825   1.234   1.598   0.765
 4309SOL    HW113826   1.284   1.672   0.721
 4309SOL    HW213827   1.272   1.581   0.855
 4310SOL     OW13828   1.676   2.457   1.229
 4310SOL    HW113829   1.752   2.497   1.279
 4310SOL    HW213830   1.701   2.448   1.132
 4311SOL     OW13831   0.470   6.176   2.808
 4311SOL    HW113832   0.453   6.166   2.709
 4311SOL    HW213833   0.427   6.260   2.841
 4312SOL     OW13834   1.952   5.387   2.981
 4312SOL    HW113835   1.861   5.427   2.981
 4312SOL    HW213836   1.946   5.292   2.950
 4313SOL     OW13837   4.416   1.670   0.369
 4313SOL    HW113838   4.412   1.761   0.409
 4313SOL    HW213839   4.356   1.608   0.420
 4314SOL     OW13840   6.406   1.450   4.827
 4314SOL    HW113841   6.494   1.498   4.824
 4314SOL    HW213842   6.362   1.456   4.737
 4315SOL     OW13843   2.335   0.569   3.295
 4315SOL    HW113844   2.430   0.556   3.325
 4315SOL    HW213845   2.334   0.633   3.218
 4316SOL     OW13846   5.264   0.049   2.371
 4316SOL    HW113847   5.307   0.138   2.354
 4316SOL    HW213848   5.312   6.998   2.318
 4317SOL     OW13849   5.299   1.515   5.875
 4317SOL    HW113850   5.301   1.426   5.920
 4317SOL    HW213851   5.390   1.539   5.842
 4318SOL     OW13852   0.976   1.528   4.808
 4318SOL    HW113853   0.882   1.499   4.824
 4318SOL    HW213854   1.037   1.449   4.816
 4319SOL     OW13855   0.981   2.110   1.263
 4319SOL    HW113856   1.022   2.194   1.298
 4319SOL    HW213857   0.991   2.036   1.329
 4320SOL     OW13858   3.832   5.380   1.138
 4320SOL    HW113859   3.880   5.299   1.106
 4320SOL    HW213860   3.863   5.403   1.231
 4321SOL     OW13861   6.859   4.291   4.182
 4321SOL    HW113862   6.882   4.222   4.251
 4321SOL    HW213863   6.925   4.287   4.107
 4322SOL     OW13864   6.560   3.068   6.639
 4322SOL    HW113865   6.547   3.162   6.671
 4322SOL    HW213866   6.550   3.065   6.540
 4323SOL     OW13867   5.001   4.794   0.330
 4323SOL    HW113868   5.031   4.815   0.423
 4323SOL    HW213869   5.052   4.851   0.265
 4324SOL     OW13870   6.652   3.935   5.864
 4324SOL    HW113871   6.705   3.884   5.796
 4324SOL    HW213872   6.558   3.900   5.866
 4325SOL     OW13873   2.980   1.578   2.025
 4325SOL    HW113874   2.970   1.573   1.925
 4325SOL    HW213875   2.889   1.580   2.067
 4326SOL     OW13876   5.319   4.407   2.024
 4326SOL    HW113877   5.280   4.442   2.110
 4326SOL    HW213878   5.414   4.378   2.040
 4327SOL     OW13879   4.609   6.147   2.158
 4327SOL    HW113880   4.647   6.075   2.217
 4327SOL    HW213881   4.511   6.157   2.177
 4328SOL     OW13882   5.576   4.562   5.497
 4328SOL    HW113883   5.633   4.595   5.572
 4328SOL    HW213884   5.519   4.637   5.464
 4329SOL     OW13885   5.692   2.679   5.389
 4329SOL    HW113886   5.740   2.767   5.397
 4329SOL    HW213887   5.674   2.643   5.481
 4330SOL     OW13888   2.248   6.760   4.738
 4330SOL    HW113889   2.260   6.771   4.837
 4330SOL    HW213890   2.329   6.793   4.691
 4331SOL     OW13891   5.776   0.876   1.615
 4331SOL    HW113892   5.742   0.783   1.601
 4331SOL    HW213893   5.840   0.900   1.542
 4332SOL     OW13894   6.139   2.995   2.907
 4332SOL    HW113895   6.106   2.950   2.824
 4332SOL    HW213896   6.155   2.926   2.978
 4333SOL     OW13897   4.514   1.640   4.814
 4333SOL    HW113898   4.444   1.658   4.745
 4333SOL    HW213899   4.594   1.697   4.797
 4334SOL     OW13900   1.776   3.096   2.007
 4334SOL    HW113901   1.734   3.029   2.069
 4334SOL    HW213902   1.798   3.052   1.920
 4335SOL     OW13903   3.585   2.830   2.009
 4335SOL    HW113904   3.487   2.846   2.019
 4335SOL    HW213905   3.622   2.789   2.093
 4336SOL     OW13906   2.640   5.656   5.694
 4336SOL    HW113907   2.609   5.609   5.611
 4336SOL    HW213908   2.712   5.720   5.671
 4337SOL     OW13909   2.180   4.868   1.583
 4337SOL    HW113910   2.199   4.914   1.670
 4337SOL    HW213911   2.179   4.769   1.598
 4338SOL     OW13912   6.595   0.326   6.168
 4338SOL    HW113913   6.500   0.342   6.141
 4338SOL    HW213914   6.650   0.406   6.144
 4339SOL     OW13915   3.725   2.787   6.467
 4339SOL    HW113916   3.631   2.795   6.499
 4339SOL    HW213917   3.758   2.877   6.437
 4340SOL     OW13918   5.945   3.952   1.123
 4340SOL    HW113919   5.991   4.038   1.103
 4340SOL    HW213920   5.852   3.954   1.087
 4341SOL     OW13921   1.205   5.376   0.953
 4341SOL    HW113922   1.170   5.288   0.985
 4341SOL    HW213923   1.133   5.426   0.905
 4342SOL     OW13924   5.338   3.798   3.255
 4342SOL    HW113925   5.321   3.804   3.157
 4342SOL    HW213926   5.306   3.709   3.289
 4343SOL     OW13927   3.367   6.157   4.747
 4343SOL    HW113928   3.423   6.240   4.742
 4343SOL    HW213929   3.383   6.111   4.834
 4344SOL     OW13930   1.140   3.072   2.929
 4344SOL    HW113931   1.090   3.159   2.936
 4344SOL    HW213932   1.234   3.085   2.960
 4345SOL     OW13933   3.293   3.355   4.867
 4345SOL    HW113934   3.253   3.373   4.956
 4345SOL    HW213935   3.242   3.404   4.796
 4346SOL     OW13936   1.943   2.592   2.552
 4346SOL    HW113937   1.931   2.514   2.490
 4346SOL    HW213938   1.916   2.676   2.504
 4347SOL     OW13939   5.668   6.479   2.601
 4347SOL    HW113940   5.726   6.402   2.574
 4347SOL    HW213941   5.717   6.536   2.667
 4348SOL     OW13942   0.519   5.895   4.221
 4348SOL    HW113943   0.570   5.954   4.283
 4348SOL    HW213944   0.497   5.945   4.137
 4349SOL     OW13945   6.418   2.411   4.148
 4349SOL    HW113946   6.509   2.370   4.142
 4349SOL    HW213947   6.426   2.502   4.190
 4350SOL     OW13948   4.553   1.665   4.140
 4350SOL    HW113949   4.627   1.607   4.108
 4350SOL    HW213950   4.581   1.712   4.224
 4351SOL     OW13951   1.456   6.589   1.244
 4351SOL    HW113952   1.504   6.537   1.315
 4351SOL    HW213953   1.455   6.686   1.268
 4352SOL     OW13954   6.492   4.033   1.719
 4352SOL    HW113955   6.485   4.057   1.622
 4352SOL    HW213956   6.587   4.012   1.741
 4353SOL     OW13957   3.484   3.394   0.660
 4353SOL    HW113958   3.549   3.318   0.656
 4353SOL    HW213959   3.478   3.438   0.571
 4354SOL     OW13960   1.899   1.585   6.335
 4354SOL    HW113961   1.943   1.607   6.421
 4354SOL    HW213962   1.967   1.580   6.262
 4355SOL     OW13963   1.939   6.932   2.745
 4355SOL    HW113964   1.877   6.854   2.759
 4355SOL    HW213965   1.988   6.920   2.659
 4356SOL     OW13966   4.629   3.528   5.596
 4356SOL    HW113967   4.580   3.466   5.658
 4356SOL    HW213968   4.563   3.579   5.541
 4357SOL     OW13969   6.709   1.108   1.620
 4357SOL    HW113970   6.669   1.034   1.675
 4357SOL    HW213971   6.647   1.131   1.546
 4358SOL     OW13972   6.687   0.490   0.466
 4358SOL    HW113973   6.761   0.492   0.399
 4358SOL    HW213974   6.640   0.402   0.460
 4359SOL     OW13975   1.090   1.313   0.220
 4359SOL    HW113976   1.130   1.224   0.241
 4359SOL    HW213977   1.075   1.364   0.305
 4360SOL     OW13978   0.591   2.671   4.479
 4360SOL    HW113979   0.591   2.736   4.555
 4360SOL    HW213980   0.651   2.705   4.406
 4361SOL     OW13981   2.090   3.764   1.406
 4361SOL    HW113982   2.131   3.845   1.448
 4361SOL    HW213983   2.121   3.682   1.454
 4362SOL     OW13984   7.018   5.881   4.096
 4362SOL    HW113985   6.991   5.960   4.042
 4362SOL    HW213986   6.954   5.806   4.078
 4363SOL     OW13987   4.863   1.417   1.516
 4363SOL    HW113988   4.814   1.376   1.593
 4363SOL    HW213989   4.932   1.353   1.483
 4364SOL     OW13990   3.243   4.088   3.454
 4364SOL    HW113991   3.223   4.022   3.382
 4364SOL    HW213992   3.338   4.120   3.445
 4365SOL     OW13993   2.848   0.859   2.119
 4365SOL    HW113994   2.922   0.907   2.072
 4365SOL    HW213995   2.829   0.904   2.207
 4366SOL     OW13996   6.399   6.557   6.623
 4366SOL    HW113997   6.487   6.605   6.623
 4366SOL    HW213998   6.394   6.495   6.545
 4367SOL     OW13999   2.595   4.988   3.677
 4367SOL    HW114000   2.516   4.982   3.616
 4367SOL    HW214001   2.676   5.014   3.625
 4368SOL     OW14002   3.839   5.483   1.747
 4368SOL    HW114003   3.780   5.417   1.700
 4368SOL    HW214004   3.787   5.566   1.768
 4369SOL     OW14005   4.738   5.114   3.326
 4369SOL    HW114006   4.672   5.038   3.331
 4369SOL    HW214007   4.694   5.198   3.359
 4370SOL     OW14008   3.530   4.080   1.488
 4370SOL    HW114009   3.578   4.077   1.575
 4370SOL    HW214010   3.588   4.044   1.415
 4371SOL     OW14011   2.267   1.802   2.994
 4371SOL    HW114012   2.260   1.772   3.090
 4371SOL    HW214013   2.345   1.864   2.985
 4372SOL     OW14014   2.441   2.641   4.253
 4372SOL    HW114015   2.426   2.732   4.214
 4372SOL    HW214016   2.527   2.640   4.303
 4373SOL     OW14017   4.470   0.586   6.601
 4373SOL    HW114018   4.409   0.665   6.609
 4373SOL    HW214019   4.550   0.600   6.660
 4374SOL     OW14020   1.957   1.863   1.717
 4374SOL    HW114021   1.950   1.930   1.791
 4374SOL    HW214022   2.032   1.800   1.736
 4375SOL     OW14023   3.934   5.900   2.836
 4375SOL    HW114024   3.853   5.887   2.893
 4375SOL    HW214025   3.969   5.811   2.806
 4376SOL     OW14026   6.494   0.638   1.899
 4376SOL    HW114027   6.516   0.722   1.948
 4376SOL    HW214028   6.395   0.635   1.882
 4377SOL     OW14029   5.883   5.799   0.460
 4377SOL    HW114030   5.806   5.858   0.484
 4377SOL    HW214031   5.948   5.795   0.536
 4378SOL     OW14032   2.015   3.870   3.009
 4378SOL    HW114033   2.052   3.832   2.925
 4378SOL    HW214034   1.955   3.803   3.052
 4379SOL     OW14035   2.290   1.143   1.876
 4379SOL    HW114036   2.226   1.104   1.810
 4379SOL    HW214037   2.239   1.193   1.946
 4380SOL     OW14038   1.769   6.430   3.893
 4380SOL    HW114039   1.856   6.442   3.940
 4380SOL    HW214040   1.741   6.517   3.852
 4381SOL     OW14041   2.164   3.956   4.817
 4381SOL    HW114042   2.122   3.866   4.812
 4381SOL    HW214043   2.236   3.956   4.886
 4382SOL     OW14044   6.290   3.802   6.274
 4382SOL    HW114045   6.262   3.725   6.332
 4382SOL    HW214046   6.383   3.786   6.242
 4383SOL     OW14047   0.602   2.704   5.455
 4383SOL    HW114048   0.573   2.775   5.391
 4383SOL    HW214049   0.572   2.727   5.547
 4384SOL     OW14050   5.396   0.944   6.759
 4384SOL    HW114051   5.325   0.944   6.689
 4384SOL    HW214052   5.427   0.850   6.775
 4385SOL     OW14053   6.858   2.873   4.650
 4385SOL    HW114054   6.846   2.774   4.663
 4385SOL    HW214055   6.920   2.908   4.720
 4386SOL     OW14056   0.792   3.807   6.933
 4386SOL    HW114057   0.873   3.777   6.884
 4386SOL    HW214058   0.742   3.873   6.877
 4387SOL     OW14059   1.018   1.588   1.753
 4387SOL    HW114060   1.065   1.648   1.689
 4387SOL    HW214061   0.936   1.551   1.709
 4388SOL     OW14062   4.919   1.046   6.220
 4388SOL    HW114063   4.861   1.027   6.300
 4388SOL    HW214064   4.918   0.968   6.158
 4389SOL     OW14065   5.170   1.743   0.422
 4389SOL    HW114066   5.156   1.840   0.439
 4389SOL    HW214067   5.213   1.730   0.333
 4390SOL     OW14068   3.976   1.708   2.360
 4390SOL    HW114069   3.996   1.705   2.262
 4390SOL    HW214070   4.061   1.693   2.411
 4391SOL     OW14071   1.597   5.663   6.235
 4391SOL    HW114072   1.611   5.572   6.197
 4391SOL    HW214073   1.637   5.668   6.326
 4392SOL     OW14074   6.331   3.589   5.081
 4392SOL    HW114075   6.418   3.635   5.063
 4392SOL    HW214076   6.283   3.635   5.156
 4393SOL     OW14077   5.556   6.355   3.124
 4393SOL    HW114078   5.613   6.326   3.047
 4393SOL    HW214079   5.610   6.354   3.208
 4394SOL     OW14080   6.233   5.299   2.770
 4394SOL    HW114081   6.250   5.298   2.672
 4394SOL    HW214082   6.282   5.223   2.813
 4395SOL     OW14083   3.982   1.446   1.949
 4395SOL    HW114084   3.920   1.461   1.872
 4395SOL    HW214085   4.052   1.379   1.924
 4396SOL     OW14086   2.680   1.974   4.329
 4396SOL    HW114087   2.623   1.995   4.250
 4396SOL    HW214088   2.773   1.953   4.298
 4397SOL     OW14089   0.715   1.512   4.857
 4397SOL    HW114090   0.731   1.568   4.938
 4397SOL    HW214091   0.668   1.566   4.787
 4398SOL     OW14092   1.391   4.685   5.147
 4398SOL    HW114093   1.478   4.679   5.097
 4398SOL    HW214094   1.316   4.683   5.081
 4399SOL     OW14095   1.723   0.390   2.103
 4399SOL    HW114096   1.760   0.326   2.170
 4399SOL    HW214097   1.644   0.437   2.143
 4400SOL     OW14098   2.364   0.347   5.003
 4400SOL    HW114099   2.346   0.444   4.985
 4400SOL    HW214100   2.395   0.302   4.919
 4401SOL     OW14101   5.162   6.724   6.577
 4401SOL    HW114102   5.181   6.812   6.621
 4401SOL    HW214103   5.137   6.740   6.481
 4402SOL     OW14104   2.000   6.442   2.310
 4402SOL    HW114105   2.071   6.462   2.242
 4402SOL    HW214106   2.039   6.447   2.402
 4403SOL     OW14107   0.331   0.160   3.435
 4403SOL    HW114108   0.386   0.166   3.518
 4403SOL    HW214109   0.277   0.076   3.437
 4404SOL     OW14110   0.831   4.026   5.341
 4404SOL    HW114111   0.778   3.960   5.288
 4404SOL    HW214112   0.820   4.117   5.301
 4405SOL     OW14113   2.764   4.039   0.231
 4405SOL    HW114114   2.838   4.104   0.210
 4405SOL    HW214115   2.768   4.013   0.327
 4406SOL     OW14116   5.812   4.772   1.598
 4406SOL    HW114117   5.739   4.826   1.640
 4406SOL    HW214118   5.849   4.708   1.665
 4407SOL     OW14119   0.121   4.532   0.728
 4407SOL    HW114120   0.031   4.500   0.757
 4407SOL    HW214121   0.184   4.530   0.805
 4408SOL     OW14122   4.487   1.073   0.920
 4408SOL    HW114123   4.461   1.068   1.016
 4408SOL    HW214124   4.545   1.153   0.905
 4409SOL     OW14125   4.201   0.630   2.409
 4409SOL    HW114126   4.274   0.646   2.343
 4409SOL    HW214127   4.169   0.536   2.401
 4410SOL     OW14128   1.751   5.527   0.289
 4410SOL    HW114129   1.774   5.431   0.304
 4410SOL    HW214130   1.700   5.561   0.369
 4411SOL     OW14131   3.880   3.092   3.847
 4411SOL    HW114132   3.930   3.063   3.928
 4411SOL    HW214133   3.833   3.178   3.866
 4412SOL     OW14134   3.495   1.237   4.389
 4412SOL    HW114135   3.448   1.297   4.454
 4412SOL    HW214136   3.477   1.267   4.296
 4413SOL     OW14137   4.656   5.680   4.607
 4413SOL    HW114138   4.653   5.635   4.696
 4413SOL    HW214139   4.752   5.697   4.582
 4414SOL     OW14140   4.106   4.818   2.109
 4414SOL    HW114141   4.118   4.779   2.017
 4414SOL    HW214142   4.027   4.879   2.108
 4415SOL     OW14143   4.036   4.164   6.337
 4415SOL    HW114144   4.074   4.092   6.279
 4415SOL    HW214145   3.947   4.136   6.372
 4416SOL     OW14146   3.230   1.402   3.895
 4416SOL    HW114147   3.290   1.469   3.852
 4416SOL    HW214148   3.187   1.346   3.824
 4417SOL     OW14149   6.689   4.671   3.219
 4417SOL    HW114150   6.726   4.641   3.306
 4417SOL    HW214151   6.617   4.739   3.235
 4418SOL     OW14152   5.402   0.517   3.750
 4418SOL    HW114153   5.414   0.439   3.688
 4418SOL    HW214154   5.491   0.544   3.787
 4419SOL     OW14155   5.604   6.264   0.335
 4419SOL    HW114156   5.505   6.263   0.351
 4419SOL    HW214157   5.650   6.223   0.413
 4420SOL     OW14158   5.000   1.735   1.115
 4420SOL    HW114159   5.044   1.646   1.129
 4420SOL    HW214160   4.974   1.745   1.019
 4421SOL     OW14161   1.976   1.073   3.368
 4421SOL    HW114162   1.908   1.027   3.311
 4421SOL    HW214163   2.064   1.074   3.321
 4422SOL     OW14164   2.043   3.817   5.810
 4422SOL    HW114165   2.103   3.835   5.731
 4422SOL    HW214166   2.098   3.814   5.893
 4423SOL     OW14167   1.400   2.671   5.857
 4423SOL    HW114168   1.360   2.732   5.789
 4423SOL    HW214169   1.388   2.576   5.828
 4424SOL     OW14170   5.066   6.772   3.995
 4424SOL    HW114171   5.059   6.784   4.094
 4424SOL    HW214172   5.162   6.780   3.967
 4425SOL     OW14173   3.336   5.825   5.823
 4425SOL    HW114174   3.297   5.892   5.759
 4425SOL    HW214175   3.339   5.865   5.915
 4426SOL     OW14176   0.022   1.985   4.968
 4426SOL    HW114177   6.991   2.003   5.053
 4426SOL    HW214178   6.976   1.974   4.893
 4427SOL     OW14179   6.724   6.763   3.048
 4427SOL    HW114180   6.632   6.795   3.025
 4427SOL    HW214181   6.789   6.839   3.039
 4428SOL     OW14182   3.019   5.060   2.105
 4428SOL    HW114183   3.022   5.159   2.090
 4428SOL    HW214184   3.102   5.030   2.152
 4429SOL     OW14185   2.864   0.752   3.698
 4429SOL    HW114186   2.841   0.803   3.782
 4429SOL    HW214187   2.799   0.775   3.626
 4430SOL     OW14188   5.388   3.040   4.430
 4430SOL    HW114189   5.406   3.071   4.523
 4430SOL    HW214190   5.295   3.002   4.426
 4431SOL     OW14191   1.390   1.029   2.239
 4431SOL    HW114192   1.355   1.099   2.177
 4431SOL    HW214193   1.315   0.998   2.299
 4432SOL     OW14194   3.375   4.176   3.688
 4432SOL    HW114195   3.450   4.112   3.669
 4432SOL    HW214196   3.330   4.200   3.602
 4433SOL     OW14197   6.030   0.449   4.622
 4433SOL    HW114198   6.102   0.470   4.689
 4433SOL    HW214199   6.008   0.352   4.627
 4434SOL     OW14200   3.818   1.899   3.245
 4434SOL    HW114201   3.898   1.890   3.305
 4434SOL    HW214202   3.847   1.893   3.149
 4435SOL     OW14203   4.153   3.905   0.887
 4435SOL    HW114204   4.204   3.860   0.961
 4435SOL    HW214205   4.203   3.895   0.801
 4436SOL     OW14206   3.848   1.796   0.526
 4436SOL    HW114207   3.763   1.837   0.559
 4436SOL    HW214208   3.830   1.743   0.444
 4437SOL     OW14209   5.725   1.078   3.885
 4437SOL    HW114210   5.729   0.991   3.836
 4437SOL    HW214211   5.711   1.153   3.820
 4438SOL     OW14212   4.326   1.300   6.950
 4438SOL    HW114213   4.235   1.336   6.971
 4438SOL    HW214214   4.395   1.357   6.994
 4439SOL     OW14215   0.512   6.116   1.344
 4439SOL    HW114216   0.583   6.050   1.370
 4439SOL    HW214217   0.424   6.086   1.383
 4440SOL     OW14218   1.867   4.474   0.810
 4440SOL    HW114219   1.865   4.508   0.904
 4440SOL    HW214220   1.946   4.511   0.762
 4441SOL     OW14221   6.606   1.975   2.890
 4441SOL    HW114222   6.557   2.060   2.910
 4441SOL    HW214223   6.572   1.937   2.805
 4442SOL     OW14224   2.984   5.911   4.267
 4442SOL    HW114225   2.930   5.831   4.293
 4442SOL    HW214226   3.059   5.884   4.207
 4443SOL     OW14227   6.806   2.857   0.659
 4443SOL    HW114228   6.852   2.873   0.572
 4443SOL    HW214229   6.726   2.917   0.666
 4444SOL     OW14230   3.746   5.446   6.272
 4444SOL    HW114231   3.757   5.347   6.264
 4444SOL    HW214232   3.764   5.489   6.184
 4445SOL     OW14233   6.983   0.451   0.889
 4445SOL    HW114234   6.982   0.520   0.961
 4445SOL    HW214235   0.056   0.446   0.849
 4446SOL     OW14236   6.330   1.512   1.702
 4446SOL    HW114237   6.270   1.576   1.655
 4446SOL    HW214238   6.376   1.558   1.778
 4447SOL     OW14239   5.944   3.478   6.141
 4447SOL    HW114240   5.920   3.511   6.232
 4447SOL    HW214241   5.993   3.550   6.090
 4448SOL     OW14242   3.332   4.057   0.741
 4448SOL    HW114243   3.313   3.962   0.717
 4448SOL    HW214244   3.251   4.113   0.724
 4449SOL     OW14245   4.483   0.918   6.040
 4449SOL    HW114246   4.503   1.012   6.068
 4449SOL    HW214247   4.394   0.890   6.075
 4450SOL     OW14248   4.080   3.378   4.126
 4450SOL    HW114249   4.043   3.374   4.033
 4450SOL    HW214250   4.081   3.473   4.158
 4451SOL     OW14251   5.760   4.396   3.169
 4451SOL    HW114252   5.829   4.368   3.102
 4451SOL    HW214253   5.671   4.357   3.144
 4452SOL     OW14254   5.601   6.426   4.763
 4452SOL    HW114255   5.553   6.499   4.714
 4452SOL    HW214256   5.690   6.460   4.794
 4453SOL     OW14257   7.015   3.032   1.300
 4453SOL    HW114258   7.004   3.080   1.387
 4453SOL    HW214259   6.933   2.978   1.281
 4454SOL     OW14260   5.533   2.102   6.862
 4454SOL    HW114261   5.612   2.052   6.899
 4454SOL    HW214262   5.565   2.170   6.795
 4455SOL     OW14263   3.860   0.587   6.052
 4455SOL    HW114264   3.845   0.488   6.046
 4455SOL    HW214265   3.943   0.605   6.105
 4456SOL     OW14266   3.126   5.376   2.603
 4456SOL    HW114267   3.028   5.388   2.619
 4456SOL    HW214268   3.168   5.334   2.683
 4457SOL     OW14269   4.448   2.362   0.266
 4457SOL    HW114270   4.371   2.410   0.223
 4457SOL    HW214271   4.438   2.365   0.365
 4458SOL     OW14272   1.022   3.900   0.088
 4458SOL    HW114273   0.940   3.907   0.031
 4458SOL    HW214274   1.060   3.808   0.079
 4459SOL     OW14275   4.785   0.546   3.786
 4459SOL    HW114276   4.806   0.469   3.846
 4459SOL    HW214277   4.707   0.523   3.728
 4460SOL     OW14278   2.987   3.246   5.243
 4460SOL    HW114279   2.975   3.153   5.277
 4460SOL    HW214280   3.082   3.274   5.257
 4461SOL     OW14281   0.765   0.541   2.875
 4461SOL    HW114282   0.781   0.473   2.803
 4461SOL    HW214283   0.723   0.496   2.953
 4462SOL     OW14284   0.043   3.245   2.138
 4462SOL    HW114285   0.048   3.147   2.160
 4462SOL    HW214286   7.001   3.258   2.060
 4463SOL     OW14287   3.240   2.647   6.963
 4463SOL    HW114288   3.243   2.665   0.043
 4463SOL    HW214289   3.255   2.732   6.913
 4464SOL     OW14290   6.356   4.349   0.003
 4464SOL    HW114291   6.382   4.392   6.936
 4464SOL    HW214292   6.413   4.384   0.077
 4465SOL     OW14293   2.312   5.207   2.642
 4465SOL    HW114294   2.234   5.269   2.650
 4465SOL    HW214295   2.391   5.257   2.606
 4466SOL     OW14296   1.003   0.604   2.525
 4466SOL    HW114297   0.934   0.538   2.494
 4466SOL    HW214298   1.067   0.559   2.587
 4467SOL     OW14299   1.495   6.717   3.856
 4467SOL    HW114300   1.420   6.652   3.841
 4467SOL    HW214301   1.457   6.807   3.874
 4468SOL     OW14302   1.241   2.894   0.930
 4468SOL    HW114303   1.278   2.801   0.934
 4468SOL    HW214304   1.224   2.927   1.023
 4469SOL     OW14305   3.924   0.375   1.759
 4469SOL    HW114306   3.873   0.292   1.735
 4469SOL    HW214307   3.980   0.404   1.682
 4470SOL     OW14308   6.230   3.354   1.960
 4470SOL    HW114309   6.196   3.448   1.952
 4470SOL    HW214310   6.329   3.353   1.948
 4471SOL     OW14311   6.965   1.823   0.359
 4471SOL    HW114312   6.906   1.904   0.360
 4471SOL    HW214313   0.033   1.844   0.404
 4472SOL     OW14314   2.027   2.769   3.621
 4472SOL    HW114315   2.077   2.790   3.705
 4472SOL    HW214316   1.930   2.790   3.633
 4473SOL     OW14317   6.744   2.531   3.572
 4473SOL    HW114318   6.662   2.563   3.620
 4473SOL    HW214319   6.813   2.603   3.573
 4474SOL     OW14320   3.725   0.687   2.076
 4474SOL    HW114321   3.698   0.724   2.165
 4474SOL    HW214322   3.760   0.594   2.087
 4475SOL     OW14323   1.816   3.830   2.676
 4475SOL    HW114324   1.783   3.752   2.622
 4475SOL    HW214325   1.916   3.827   2.680
 4476SOL     OW14326   4.647   6.257   4.118
 4476SOL    HW114327   4.636   6.283   4.213
 4476SOL    HW214328   4.735   6.291   4.084
 4477SOL     OW14329   1.259   0.300   5.482
 4477SOL    HW114330   1.230   0.309   5.387
 4477SOL    HW214331   1.349   0.256   5.486
 4478SOL     OW14332   3.523   6.070   2.483
 4478SOL    HW114333   3.455   6.012   2.528
 4478SOL    HW214334   3.535   6.154   2.536
 4479SOL     OW14335   0.473   0.705   0.899
 4479SOL    HW114336   0.375   0.703   0.916
 4479SOL    HW214337   0.512   0.615   0.918
 4480SOL     OW14338   1.347   3.458   5.427
 4480SOL    HW114339   1.406   3.427   5.501
 4480SOL    HW214340   1.339   3.558   5.430
 4481SOL     OW14341   2.805   6.858   4.893
 4481SOL    HW114342   2.829   6.838   4.798
 4481SOL    HW214343   2.878   6.824   4.953
 4482SOL     OW14344   0.481   4.339   4.074
 4482SOL    HW114345   0.395   4.385   4.096
 4482SOL    HW214346   0.554   4.373   4.134
 4483SOL     OW14347   5.099   3.471   2.278
 4483SOL    HW114348   5.094   3.552   2.337
 4483SOL    HW214349   5.062   3.392   2.327
 4484SOL     OW14350   3.428   2.777   5.444
 4484SOL    HW114351   3.436   2.876   5.430
 4484SOL    HW214352   3.388   2.759   5.533
 4485SOL     OW14353   5.331   2.126   5.766
 4485SOL    HW114354   5.321   2.222   5.792
 4485SOL    HW214355   5.332   2.069   5.849
 4486SOL     OW14356   5.286   3.659   4.336
 4486SOL    HW114357   5.228   3.580   4.356
 4486SOL    HW214358   5.264   3.733   4.400
 4487SOL     OW14359   2.395   3.018   6.540
 4487SOL    HW114360   2.393   3.103   6.593
 4487SOL    HW214361   2.390   2.940   6.603
 4488SOL     OW14362   6.098   3.482   5.217
 4488SOL    HW114363   6.107   3.447   5.310
 4488SOL    HW214364   6.180   3.461   5.164
 4489SOL     OW14365   5.665   5.560   4.292
 4489SOL    HW114366   5.604   5.486   4.261
 4489SOL    HW214367   5.747   5.560   4.235
 4490SOL     OW14368   6.192   2.542   2.603
 4490SOL    HW114369   6.174   2.448   2.631
 4490SOL    HW214370   6.276   2.575   2.647
 4491SOL     OW14371   0.159   2.950   4.158
 4491SOL    HW114372   0.113   2.983   4.240
 4491SOL    HW214373   0.115   2.865   4.127
 4492SOL     OW14374   5.099   3.335   1.113
 4492SOL    HW114375   5.022   3.300   1.060
 4492SOL    HW214376   5.088   3.310   1.209
 4493SOL     OW14377   4.744   5.948   5.434
 4493SOL    HW114378   4.775   5.915   5.345
 4493SOL    HW214379   4.647   5.927   5.446
 4494SOL     OW14380   6.825   1.502   5.611
 4494SOL    HW114381   6.786   1.592   5.631
 4494SOL    HW214382   6.904   1.512   5.551
 4495SOL     OW14383   4.702   5.715   4.123
 4495SOL    HW114384   4.688   5.634   4.180
 4495SOL    HW214385   4.627   5.779   4.136
 4496SOL     OW14386   4.257   5.871   1.097
 4496SOL    HW114387   4.219   5.954   1.056
 4496SOL    HW214388   4.354   5.885   1.115
 4497SOL     OW14389   4.921   0.507   6.560
 4497SOL    HW114390   5.019   0.513   6.579
 4497SOL    HW214391   4.898   0.414   6.534
 4498SOL     OW14392   0.121   3.057   6.605
 4498SOL    HW114393   0.030   3.035   6.640
 4498SOL    HW214394   0.119   3.057   6.505
 4499SOL     OW14395   0.391   3.574   3.595
 4499SOL    HW114396   0.330   3.495   3.604
 4499SOL    HW214397   0.346   3.655   3.632
 4500SOL     OW14398   2.942   3.493   4.130
 4500SOL    HW114399   2.908   3.440   4.208
 4500SOL    HW214400   3.037   3.469   4.112
 4501SOL     OW14401   6.779   2.992   5.527
 4501SOL    HW114402   6.816   2.975   5.436
 4501SOL    HW214403   6.810   3.081   5.559
 4502SOL     OW14404   1.596   1.860   0.256
 4502SOL    HW114405   1.595   1.879   0.157
 4502SOL    HW214406   1.608   1.946   0.306
 4503SOL     OW14407   3.543   6.809   2.945
 4503SOL    HW114408   3.455   6.842   2.910
 4503SOL    HW214409   3.540   6.805   3.045
 4504SOL     OW14410   6.670   1.265   4.710
 4504SOL    HW114411   6.655   1.334   4.781
 4504SOL    HW214412   6.768   1.260   4.689
 4505SOL     OW14413   6.325   5.692   3.414
 4505SOL    HW114414   6.297   5.684   3.318
 4505SOL    HW214415   6.309   5.786   3.446
 4506SOL     OW14416   4.364   2.390   4.218
 4506SOL    HW114417   4.304   2.310   4.219
 4506SOL    HW214418   4.376   2.424   4.311
 4507SOL     OW14419   5.355   4.702   2.474
 4507SOL    HW114420   5.384   4.797   2.478
 4507SOL    HW214421   5.336   4.677   2.379
 4508SOL     OW14422   1.008   5.163   5.884
 4508SOL    HW114423   1.090   5.139   5.935
 4508SOL    HW214424   0.955   5.229   5.937
 4509SOL     OW14425   5.044   2.031   3.716
 4509SOL    HW114426   5.070   1.938   3.688
 4509SOL    HW214427   4.995   2.076   3.642
 4510SOL     OW14428   4.796   0.012   5.103
 4510SOL    HW114429   4.787   0.076   5.027
 4510SOL    HW214430   4.798   0.063   5.189
 4511SOL     OW14431   6.882   3.635   6.558
 4511SOL    HW114432   6.860   3.628   6.655
 4511SOL    HW214433   6.938   3.557   6.530
 4512SOL     OW14434   2.806   0.043   5.759
 4512SOL    HW114435   2.795   0.113   5.689
 4512SOL    HW214436   2.864   6.989   5.723
 4513SOL     OW14437   4.909   6.299   0.621
 4513SOL    HW114438   4.840   6.313   0.692
 4513SOL    HW214439   4.894   6.211   0.577
 4514SOL     OW14440   5.072   0.965   5.184
 4514SOL    HW114441   5.048   0.971   5.087
 4514SOL    HW214442   5.074   1.057   5.223
 4515SOL     OW14443   0.424   3.502   5.726
 4515SOL    HW114444   0.511   3.468   5.691
 4515SOL    HW214445   0.437   3.546   5.814
 4516SOL     OW14446   1.733   0.735   6.436
 4516SOL    HW114447   1.681   0.653   6.461
 4516SOL    HW214448   1.670   0.803   6.398
 4517SOL     OW14449   2.240   0.893   6.946
 4517SOL    HW114450   2.223   0.863   6.852
 4517SOL    HW214451   2.160   0.872   7.002
 4518SOL     OW14452   6.763   1.078   3.488
 4518SOL    HW114453   6.861   1.061   3.474
 4518SOL    HW214454   6.711   1.038   3.413
 4519SOL     OW14455   5.770   0.106   2.225
 4519SOL    HW114456   5.825   0.060   2.295
 4519SOL    HW214457   5.692   0.151   2.269
 4520SOL     OW14458   5.648   6.205   3.642
 4520SOL    HW114459   5.673   6.142   3.569
 4520SOL    HW214460   5.549   6.204   3.654
 4521SOL     OW14461   5.176   1.772   3.862
 4521SOL    HW114462   5.196   1.776   3.764
 4521SOL    HW214463   5.209   1.855   3.906
 4522SOL     OW14464   5.839   6.956   3.598
 4522SOL    HW114465   5.936   6.973   3.585
 4522SOL    HW214466   5.824   6.914   3.688
 4523SOL     OW14467   1.389   4.375   6.950
 4523SOL    HW114468   1.419   4.464   6.984
 4523SOL    HW214469   1.413   4.304   7.017
 4524SOL     OW14470   5.465   2.162   4.385
 4524SOL    HW114471   5.389   2.099   4.367
 4524SOL    HW214472   5.513   2.133   4.468
 4525SOL     OW14473   5.593   1.260   2.855
 4525SOL    HW114474   5.621   1.275   2.950
 4525SOL    HW214475   5.669   1.281   2.794
 4526SOL     OW14476   5.440   0.464   0.799
 4526SOL    HW114477   5.360   0.524   0.809
 4526SOL    HW214478   5.522   0.514   0.826
 4527SOL     OW14479   4.638   1.106   3.748
 4527SOL    HW114480   4.681   1.055   3.674
 4527SOL    HW214481   4.574   1.173   3.709
 4528SOL     OW14482   4.466   6.830   6.661
 4528SOL    HW114483   4.439   6.919   6.623
 4528SOL    HW214484   4.521   6.780   6.594
 4529SOL     OW14485   3.215   1.840   4.585
 4529SOL    HW114486   3.310   1.824   4.557
 4529SOL    HW214487   3.163   1.877   4.509
 4530SOL     OW14488   0.100   3.645   5.481
 4530SOL    HW114489   0.064   3.733   5.511
 4530SOL    HW214490   0.123   3.649   5.384
 4531SOL     OW14491   0.599   3.386   3.696
 4531SOL    HW114492   0.535   3.455   3.664
 4531SOL    HW214493   0.620   3.323   3.621
 4532SOL     OW14494   6.194   1.518   3.444
 4532SOL    HW114495   6.099   1.487   3.451
 4532SOL    HW214496   6.203   1.583   3.369
 4533SOL     OW14497   1.209   0.527   2.704
 4533SOL    HW114498   1.162   0.472   2.773
 4533SOL    HW214499   1.307   0.508   2.706
 4534SOL     OW14500   5.781   4.008   4.975
 4534SOL    HW114501   5.777   3.981   4.878
 4534SOL    HW214502   5.734   4.096   4.987
 4535SOL     OW14503   4.888   1.747   2.831
 4535SOL    HW114504   4.927   1.829   2.791
 4535SOL    HW214505   4.789   1.757   2.839
 4536SOL     OW14506   4.374   2.201   4.011
 4536SOL    HW114507   4.400   2.146   4.090
 4536SOL    HW214508   4.388   2.298   4.032
 4537SOL     OW14509   3.661   3.176   5.971
 4537SOL    HW114510   3.623   3.116   5.901
 4537SOL    HW214511   3.746   3.216   5.938
 4538SOL     OW14512   2.822   0.862   3.996
 4538SOL    HW114513   2.852   0.955   4.020
 4538SOL    HW214514   2.723   0.859   3.990
 4539SOL     OW14515   2.160   0.914   4.108
 4539SOL    HW114516   2.142   1.013   4.113
 4539SOL    HW214517   2.133   0.879   4.019
 4540SOL     OW14518   3.129   3.199   4.558
 4540SOL    HW114519   3.114   3.101   4.541
 4540SOL    HW214520   3.051   3.236   4.609
 4541SOL     OW14521   5.522   1.368   0.353
 4541SOL    HW114522   5.535   1.285   0.300
 4541SOL    HW214523   5.424   1.388   0.360
 4542SOL     OW14524   6.726   6.847   2.029
 4542SOL    HW114525   6.705   6.944   2.023
 4542SOL    HW214526   6.652   6.794   1.986
 4543SOL     OW14527   5.207   1.888   0.888
 4543SOL    HW114528   5.138   1.959   0.875
 4543SOL    HW214529   5.163   1.798   0.886
 4544SOL     OW14530   3.355   6.412   6.057
 4544SOL    HW114531   3.259   6.411   6.086
 4544SOL    HW214532   3.414   6.401   6.137
 4545SOL     OW14533   5.860   2.417   4.619
 4545SOL    HW114534   5.933   2.356   4.651
 4545SOL    HW214535   5.895   2.511   4.616
 4546SOL     OW14536   1.403   1.338   6.296
 4546SOL    HW114537   1.394   1.278   6.375
 4546SOL    HW214538   1.329   1.404   6.295
 4547SOL     OW14539   6.642   2.784   3.266
 4547SOL    HW114540   6.713   2.716   3.285
 4547SOL    HW214541   6.558   2.738   3.237
 4548SOL     OW14542   1.101   4.291   4.729
 4548SOL    HW114543   1.077   4.233   4.651
 4548SOL    HW214544   1.198   4.279   4.751
 4549SOL     OW14545   5.860   3.616   2.332
 4549SOL    HW114546   5.935   3.681   2.343
 4549SOL    HW214547   5.879   3.557   2.254
 4550SOL     OW14548   0.953   6.185   2.901
 4550SOL    HW114549   0.956   6.184   2.801
 4550SOL    HW214550   0.974   6.277   2.934
 4551SOL     OW14551   6.242   1.870   6.402
 4551SOL    HW114552   6.258   1.960   6.360
 4551SOL    HW214553   6.149   1.840   6.382
 4552SOL     OW14554   6.621   3.036   0.663
 4552SOL    HW114555   6.570   3.091   0.597
 4552SOL    HW214556   6.688   3.093   0.709
 4553SOL     OW14557   3.841   4.171   6.724
 4553SOL    HW114558   3.780   4.196   6.799
 4553SOL    HW214559   3.819   4.079   6.692
 4554SOL     OW14560   4.473   0.666   1.510
 4554SOL    HW114561   4.408   0.727   1.555
 4554SOL    HW214562   4.462   0.672   1.411
 4555SOL     OW14563   3.547   1.733   5.623
 4555SOL    HW114564   3.612   1.775   5.686
 4555SOL    HW214565   3.462   1.786   5.623
 4556SOL     OW14566   4.473   2.208   3.756
 4556SOL    HW114567   4.431   2.195   3.846
 4556SOL    HW214568   4.436   2.291   3.713
 4557SOL     OW14569   5.250   6.719   5.013
 4557SOL    HW114570   5.236   6.695   4.916
 4557SOL    HW214571   5.174   6.775   5.045
 4558SOL     OW14572   6.992   3.461   5.666
 4558SOL    HW114573   6.976   3.533   5.733
 4558SOL    HW214574   0.043   3.490   5.601
 4559SOL     OW14575   0.672   4.618   1.957
 4559SOL    HW114576   0.606   4.543   1.958
 4559SOL    HW214577   0.698   4.641   2.050
 4560SOL     OW14578   4.666   4.810   3.668
 4560SOL    HW114579   4.598   4.852   3.608
 4560SOL    HW214580   4.733   4.879   3.697
 4561SOL     OW14581   2.914   0.556   1.175
 4561SOL    HW114582   2.943   0.652   1.169
 4561SOL    HW214583   2.932   0.522   1.267
 4562SOL     OW14584   2.908   6.245   5.534
 4562SOL    HW114585   2.887   6.310   5.461
 4562SOL    HW214586   3.007   6.243   5.549
 4563SOL     OW14587   0.333   4.202   0.444
 4563SOL    HW114588   0.373   4.223   0.533
 4563SOL    HW214589   0.312   4.286   0.395
 4564SOL     OW14590   0.452   6.954   0.871
 4564SOL    HW114591   0.485   6.861   0.855
 4564SOL    HW214592   0.399   6.956   0.956
 4565SOL     OW14593   0.047   1.309   5.770
 4565SOL    HW114594   0.084   1.242   5.834
 4565SOL    HW214595   6.995   1.267   5.714
 4566SOL     OW14596   6.747   1.410   0.956
 4566SOL    HW114597   6.747   1.310   0.961
 4566SOL    HW214598   6.661   1.442   0.916
 4567SOL     OW14599   0.303   0.865   0.085
 4567SOL    HW114600   0.208   0.836   0.072
 4567SOL    HW214601   0.307   0.940   0.151
 4568SOL     OW14602   0.940   4.982   5.458
 4568SOL    HW114603   0.845   5.000   5.484
 4568SOL    HW214604   0.987   4.935   5.532
 4569SOL     OW14605   1.796   0.981   3.172
 4569SOL    HW114606   1.779   1.069   3.128
 4569SOL    HW214607   1.762   0.908   3.113
 4570SOL     OW14608   0.483   5.283   3.014
 4570SOL    HW114609   0.431   5.348   3.071
 4570SOL    HW214610   0.421   5.212   2.981
 4571SOL     OW14611   2.795   3.293   5.818
 4571SOL    HW114612   2.710   3.299   5.766
 4571SOL    HW214613   2.871   3.328   5.761
 4572SOL     OW14614   0.771   6.844   6.455
 4572SOL    HW114615   0.827   6.771   6.416
 4572SOL    HW214616   0.706   6.806   6.520
 4573SOL     OW14617   6.344   6.355   0.517
 4573SOL    HW114618   6.282   6.423   0.555
 4573SOL    HW214619   6.436   6.394   0.510
 4574SOL     OW14620   6.403   3.967   1.077
 4574SOL    HW114621   6.413   4.066   1.072
 4574SOL    HW214622   6.467   3.931   1.145
 4575SOL     OW14623   6.225   2.068   6.610
 4575SOL    HW114624   6.255   1.984   6.565
 4575SOL    HW214625   6.251   2.146   6.554
 4576SOL     OW14626   2.243   6.372   6.880
 4576SOL    HW114627   2.336   6.368   6.917
 4576SOL    HW214628   2.247   6.395   6.782
 4577SOL     OW14629   0.768   2.230   3.805
 4577SOL    HW114630   0.855   2.187   3.783
 4577SOL    HW214631   0.756   2.230   3.905
 4578SOL     OW14632   1.357   3.427   3.774
 4578SOL    HW114633   1.368   3.389   3.682
 4578SOL    HW214634   1.375   3.356   3.842
 4579SOL     OW14635   5.472   2.448   2.727
 4579SOL    HW114636   5.568   2.426   2.742
 4579SOL    HW214637   5.459   2.480   2.634
 4580SOL     OW14638   4.784   5.626   0.027
 4580SOL    HW114639   4.751   5.709   0.072
 4580SOL    HW214640   4.873   5.601   0.064
 4581SOL     OW14641   3.366   5.551   3.138
 4581SOL    HW114642   3.289   5.597   3.093
 4581SOL    HW214643   3.333   5.471   3.187
 4582SOL     OW14644   5.608   6.076   4.941
 4582SOL    HW114645   5.563   6.068   4.852
 4582SOL    HW214646   5.580   6.000   4.999
 4583SOL     OW14647   3.191   0.984   4.819
 4583SOL    HW114648   3.159   1.044   4.893
 4583SOL    HW214649   3.133   0.997   4.739
 4584SOL     OW14650   0.270   4.929   5.527
 4584SOL    HW114651   0.231   4.843   5.494
 4584SOL    HW214652   0.352   4.950   5.474
 4585SOL     OW14653   3.024   6.662   2.913
 4585SOL    HW114654   3.109   6.649   2.965
 4585SOL    HW214655   2.960   6.715   2.969
 4586SOL     OW14656   3.945   5.439   0.213
 4586SOL    HW114657   3.849   5.425   0.189
 4586SOL    HW214658   3.981   5.356   0.255
 4587SOL     OW14659   4.094   3.896   2.044
 4587SOL    HW114660   4.074   3.935   2.134
 4587SOL    HW214661   4.191   3.907   2.024
 4588SOL     OW14662   4.212   4.118   5.528
 4588SOL    HW114663   4.170   4.147   5.442
 4588SOL    HW214664   4.244   4.198   5.578
 4589SOL     OW14665   5.778   1.162   1.851
 4589SOL    HW114666   5.869   1.159   1.891
 4589SOL    HW214667   5.784   1.147   1.752
 4590SOL     OW14668   5.117   5.696   1.575
 4590SOL    HW114669   5.146   5.727   1.484
 4590SOL    HW214670   5.019   5.676   1.574
 4591SOL     OW14671   0.200   5.849   5.316
 4591SOL    HW114672   0.156   5.781   5.375
 4591SOL    HW214673   0.287   5.812   5.283
 4592SOL     OW14674   3.974   2.058   2.124
 4592SOL    HW114675   3.885   2.015   2.133
 4592SOL    HW214676   4.005   2.089   2.214
 4593SOL     OW14677   3.812   5.950   4.252
 4593SOL    HW114678   3.741   5.891   4.215
 4593SOL    HW214679   3.890   5.952   4.190
 4594SOL     OW14680   3.138   1.296   1.657
 4594SOL    HW114681   3.194   1.368   1.698
 4594SOL    HW214682   3.082   1.336   1.584
 4595SOL     OW14683   3.580   2.547   6.132
 4595SOL    HW114684   3.524   2.502   6.201
 4595SOL    HW214685   3.557   2.644   6.127
 4596SOL     OW14686   5.845   6.290   2.463
 4596SOL    HW114687   5.806   6.352   2.394
 4596SOL    HW214688   5.819   6.196   2.442
 4597SOL     OW14689   5.123   4.661   6.715
 4597SOL    HW114690   5.064   4.726   6.668
 4597SOL    HW214691   5.110   4.669   6.814
 4598SOL     OW14692   2.243   4.958   0.244
 4598SOL    HW114693   2.245   5.020   0.165
 4598SOL    HW214694   2.291   4.873   0.221
 4599SOL     OW14695   1.786   5.061   0.589
 4599SOL    HW114696   1.789   4.962   0.601
 4599SOL    HW214697   1.808   5.106   0.676
 4600SOL     OW14698   1.500   5.029   5.474
 4600SOL    HW114699   1.520   5.126   5.459
 4600SOL    HW214700   1.409   5.008   5.440
 4601SOL     OW14701   1.709   0.076   5.184
 4601SOL    HW114702   1.796   0.039   5.153
 4601SOL    HW214703   1.699   0.060   5.282
 4602SOL     OW14704   0.986   5.818   0.750
 4602SOL    HW114705   0.925   5.839   0.674
 4602SOL    HW214706   1.081   5.821   0.718
 4603SOL     OW14707   3.485   6.634   1.571
 4603SOL    HW114708   3.537   6.554   1.540
 4603SOL    HW214709   3.526   6.717   1.536
 4604SOL     OW14710   4.427   0.634   2.026
 4604SOL    HW114711   4.395   0.624   2.121
 4604SOL    HW214712   4.501   0.701   2.023
 4605SOL     OW14713   4.252   1.073   3.088
 4605SOL    HW114714   4.190   1.119   3.152
 4605SOL    HW214715   4.253   0.975   3.108
 4606SOL     OW14716   1.316   6.891   1.339
 4606SOL    HW114717   1.251   6.952   1.384
 4606SOL    HW214718   1.269   6.840   1.267
 4607SOL     OW14719   2.353   2.791   1.183
 4607SOL    HW114720   2.350   2.851   1.263
 4607SOL    HW214721   2.261   2.765   1.156
 4608SOL     OW14722   0.509   5.410   3.737
 4608SOL    HW114723   0.504   5.509   3.724
 4608SOL    HW214724   0.493   5.363   3.651
 4609SOL     OW14725   4.146   5.017   5.924
 4609SOL    HW114726   4.226   4.960   5.902
 4609SOL    HW214727   4.165   5.072   6.004
 4610SOL     OW14728   5.029   2.273   0.498
 4610SOL    HW114729   5.051   2.278   0.596
 4610SOL    HW214730   5.092   2.333   0.448
 4611SOL     OW14731   6.605   6.177   5.781
 4611SOL    HW114732   6.526   6.179   5.720
 4611SOL    HW214733   6.643   6.084   5.782
 4612SOL     OW14734   0.846   5.770   6.878
 4612SOL    HW114735   0.917   5.714   6.835
 4612SOL    HW214736   0.757   5.743   6.841
 4613SOL     OW14737   2.872   5.827   2.357
 4613SOL    HW114738   2.796   5.891   2.358
 4613SOL    HW214739   2.930   5.842   2.437
 4614SOL     OW14740   0.888   4.165   4.987
 4614SOL    HW114741   0.949   4.244   4.985
 4614SOL    HW214742   0.847   4.152   4.897
 4615SOL     OW14743   1.868   0.594   0.047
 4615SOL    HW114744   1.919   0.534   0.109
 4615SOL    HW214745   1.829   0.540   6.991
 4616SOL     OW14746   5.761   0.234   5.716
 4616SOL    HW114747   5.800   0.287   5.641
 4616SOL    HW214748   5.815   0.248   5.799
 4617SOL     OW14749   1.336   2.436   2.260
 4617SOL    HW114750   1.266   2.437   2.188
 4617SOL    HW214751   1.415   2.489   2.230
 4618SOL     OW14752   2.075   2.563   5.284
 4618SOL    HW114753   2.029   2.600   5.364
 4618SOL    HW214754   2.131   2.634   5.241
 4619SOL     OW14755   3.612   6.268   3.118
 4619SOL    HW114756   3.689   6.204   3.106
 4619SOL    HW214757   3.647   6.361   3.122
 4620SOL     OW14758   3.593   4.113   0.189
 4620SOL    HW114759   3.596   4.015   0.166
 4620SOL    HW214760   3.498   4.142   0.194
 4621SOL     OW14761   4.764   1.542   3.355
 4621SOL    HW114762   4.783   1.448   3.327
 4621SOL    HW214763   4.672   1.546   3.396
 4622SOL     OW14764   2.011   3.857   0.427
 4622SOL    HW114765   2.049   3.767   0.410
 4622SOL    HW214766   1.919   3.863   0.387
 4623SOL     OW14767   6.716   6.406   0.712
 4623SOL    HW114768   6.778   6.335   0.678
 4623SOL    HW214769   6.627   6.366   0.733
 4624SOL     OW14770   5.466   0.180   3.199
 4624SOL    HW114771   5.471   0.132   3.286
 4624SOL    HW214772   5.444   0.115   3.126
 4625SOL     OW14773   1.733   4.538   0.284
 4625SOL    HW114774   1.673   4.618   0.292
 4625SOL    HW214775   1.705   4.484   0.205
 4626SOL     OW14776   5.773   5.541   2.349
 4626SOL    HW114777   5.823   5.621   2.313
 4626SOL    HW214778   5.763   5.551   2.448
 4627SOL     OW14779   3.538   5.366   3.858
 4627SOL    HW114780   3.508   5.334   3.768
 4627SOL    HW214781   3.458   5.390   3.913
 4628SOL     OW14782   5.578   3.729   3.661
 4628SOL    HW114783   5.510   3.789   3.703
 4628SOL    HW214784   5.583   3.747   3.563
 4629SOL     OW14785   2.339   4.985   4.884
 4629SOL    HW114786   2.349   5.013   4.980
 4629SOL    HW214787   2.338   5.067   4.826
 4630SOL     OW14788   3.837   5.798   2.521
 4630SOL    HW114789   3.805   5.742   2.598
 4630SOL    HW214790   3.926   5.765   2.491
 4631SOL     OW14791   2.498   6.416   3.781
 4631SOL    HW114792   2.518   6.351   3.854
 4631SOL    HW214793   2.508   6.509   3.816
 4632SOL     OW14794   4.169   5.061   2.595
 4632SOL    HW114795   4.254   5.057   2.542
 4632SOL    HW214796   4.188   5.106   2.683
 4633SOL     OW14797   5.837   1.725   3.571
 4633SOL    HW114798   5.902   1.717   3.647
 4633SOL    HW214799   5.886   1.754   3.489
 4634SOL     OW14800   1.973   4.729   6.448
 4634SOL    HW114801   2.059   4.771   6.419
 4634SOL    HW214802   1.937   4.779   6.526
 4635SOL     OW14803   5.497   3.484   1.992
 4635SOL    HW114804   5.404   3.506   1.964
 4635SOL    HW214805   5.561   3.550   1.952
 4636SOL     OW14806   2.201   5.258   6.792
 4636SOL    HW114807   2.227   5.244   6.696
 4636SOL    HW214808   2.208   5.355   6.814
 4637SOL     OW14809   1.098   0.294   0.112
 4637SOL    HW114810   1.167   0.366   0.106
 4637SOL    HW214811   1.128   0.214   0.059
 4638SOL     OW14812   4.345   2.546   6.846
 4638SOL    HW114813   4.405   2.592   6.911
 4638SOL    HW214814   4.252   2.584   6.853
 4639SOL     OW14815   2.259   4.419   5.110
 4639SOL    HW114816   2.307   4.446   5.026
 4639SOL    HW214817   2.244   4.499   5.167
 4640SOL     OW14818   5.283   5.044   4.052
 4640SOL    HW114819   5.230   5.088   4.124
 4640SOL    HW214820   5.280   5.099   3.969
 4641SOL     OW14821   2.776   6.165   4.575
 4641SOL    HW114822   2.755   6.263   4.575
 4641SOL    HW214823   2.848   6.147   4.508
 4642SOL     OW14824   0.933   6.181   4.627
 4642SOL    HW114825   0.952   6.161   4.531
 4642SOL    HW214826   0.884   6.104   4.669
 4643SOL     OW14827   5.332   2.849   1.021
 4643SOL    HW114828   5.395   2.876   0.949
 4643SOL    HW214829   5.293   2.930   1.064
 4644SOL     OW14830   0.891   4.948   5.136
 4644SOL    HW114831   0.904   4.925   5.039
 4644SOL    HW214832   0.906   5.046   5.148
 4645SOL     OW14833   1.013   0.970   4.558
 4645SOL    HW114834   0.943   1.021   4.508
 4645SOL    HW214835   0.978   0.880   4.582
 4646SOL     OW14836   2.981   6.211   3.463
 4646SOL    HW114837   2.991   6.302   3.422
 4646SOL    HW214838   2.999   6.141   3.394
 4647SOL     OW14839   1.562   0.255   3.705
 4647SOL    HW114840   1.615   0.247   3.790
 4647SOL    HW214841   1.624   0.271   3.628
 4648SOL     OW14842   4.098   0.667   1.751
 4648SOL    HW114843   4.003   0.694   1.767
 4648SOL    HW214844   4.135   0.622   1.832
 4649SOL     OW14845   5.270   6.763   5.951
 4649SOL    HW114846   5.267   6.838   5.886
 4649SOL    HW214847   5.338   6.782   6.022
 4650SOL     OW14848   4.796   5.639   3.885
 4650SOL    HW114849   4.769   5.686   3.969
 4650SOL    HW214850   4.718   5.633   3.823
 4651SOL     OW14851   6.973   1.327   1.196
 4651SOL    HW114852   0.015   1.402   1.219
 4651SOL    HW214853   6.910   1.356   1.124
 4652SOL     OW14854   0.408   0.124   4.361
 4652SOL    HW114855   0.419   0.025   4.377
 4652SOL    HW214856   0.397   0.171   4.448
 4653SOL     OW14857   5.840   5.124   6.998
 4653SOL    HW114858   5.885   5.160   0.061
 4653SOL    HW214859   5.741   5.138   7.005
 4654SOL     OW14860   0.344   6.732   0.383
 4654SOL    HW114861   0.378   6.640   0.367
 4654SOL    HW214862   0.382   6.794   0.314
 4655SOL     OW14863   6.667   5.775   1.632
 4655SOL    HW114864   6.719   5.853   1.597
 4655SOL    HW214865   6.700   5.750   1.722
 4656SOL     OW14866   0.993   0.701   3.547
 4656SOL    HW114867   0.944   0.717   3.461
 4656SOL    HW214868   0.954   0.620   3.592
 4657SOL     OW14869   4.929   6.161   1.246
 4657SOL    HW114870   4.917   6.114   1.333
 4657SOL    HW214871   4.972   6.250   1.263
 4658SOL     OW14872   4.649   1.577   2.609
 4658SOL    HW114873   4.727   1.520   2.585
 4658SOL    HW214874   4.573   1.558   2.547
 4659SOL     OW14875   2.664   4.133   5.338
 4659SOL    HW114876   2.622   4.221   5.320
 4659SOL    HW214877   2.612   4.061   5.292
 4660SOL     OW14878   1.395   2.909   5.399
 4660SOL    HW114879   1.474   2.953   5.442
 4660SOL    HW214880   1.427   2.846   5.328
 4661SOL     OW14881   3.928   3.783   5.597
 4661SOL    HW114882   3.853   3.744   5.544
 4661SOL    HW214883   3.933   3.882   5.579
 4662SOL     OW14884   4.230   0.598   4.928
 4662SOL    HW114885   4.320   0.606   4.884
 4662SOL    HW214886   4.234   0.530   5.001
 4663SOL     OW14887   0.798   2.004   2.555
 4663SOL    HW114888   0.780   1.907   2.571
 4663SOL    HW214889   0.789   2.024   2.457
 4664SOL     OW14890   2.102   2.092   0.788
 4664SOL    HW114891   2.080   2.151   0.866
 4664SOL    HW214892   2.018   2.069   0.739
 4665SOL     OW14893   4.024   0.229   0.829
 4665SOL    HW114894   3.970   0.208   0.747
 4665SOL    HW214895   3.962   0.242   0.906
 4666SOL     OW14896   1.294   2.422   0.900
 4666SOL    HW114897   1.222   2.438   0.832
 4666SOL    HW214898   1.346   2.507   0.914
 4667SOL     OW14899   6.142   4.367   1.426
 4667SOL    HW114900   6.106   4.418   1.348
 4667SOL    HW214901   6.097   4.278   1.431
 4668SOL     OW14902   5.660   2.562   2.980
 4668SOL    HW114903   5.570   2.598   2.959
 4668SOL    HW214904   5.654   2.499   3.058
 4669SOL     OW14905   3.598   6.894   0.104
 4669SOL    HW114906   3.509   6.865   0.137
 4669SOL    HW214907   3.592   6.917   0.007
 4670SOL     OW14908   3.045   2.421   5.366
 4670SOL    HW114909   3.117   2.407   5.298
 4670SOL    HW214910   3.054   2.351   5.437
 4671SOL     OW14911   6.464   2.377   2.708
 4671SOL    HW114912   6.481   2.465   2.751
 4671SOL    HW214913   6.539   2.355   2.645
 4672SOL     OW14914   2.743   4.834   5.988
 4672SOL    HW114915   2.701   4.808   6.075
 4672SOL    HW214916   2.712   4.771   5.917
 4673SOL     OW14917   4.803   6.429   1.093
 4673SOL    HW114918   4.725   6.472   1.138
 4673SOL    HW214919   4.876   6.413   1.159
 4674SOL     OW14920   4.804   0.129   6.938
 4674SOL    HW114921   4.754   0.053   6.980
 4674SOL    HW214922   4.880   0.093   6.884
 4675SOL     OW14923   0.360   2.758   6.386
 4675SOL    HW114924   0.272   2.777   6.344
 4675SOL    HW214925   0.420   2.837   6.376
 4676SOL     OW14926   6.627   5.835   3.620
 4676SOL    HW114927   6.626   5.742   3.584
 4676SOL    HW214928   6.649   5.899   3.546
 4677SOL     OW14929   2.730   1.468   0.651
 4677SOL    HW114930   2.818   1.484   0.606
 4677SOL    HW214931   2.678   1.400   0.599
 4678SOL     OW14932   1.953   4.415   3.104
 4678SOL    HW114933   2.000   4.327   3.101
 4678SOL    HW214934   1.871   4.411   3.046
 4679SOL     OW14935   4.420   0.206   1.680
 4679SOL    HW114936   4.424   0.255   1.594
 4679SOL    HW214937   4.347   0.138   1.677
 4680SOL     OW14938   3.654   1.123   6.365
 4680SOL    HW114939   3.560   1.139   6.394
 4680SOL    HW214940   3.678   1.187   6.292
 4681SOL     OW14941   5.241   4.372   0.059
 4681SOL    HW114942   5.278   4.280   0.071
 4681SOL    HW214943   5.313   4.432   0.025
 4682SOL     OW14944   4.774   4.799   5.506
 4682SOL    HW114945   4.840   4.866   5.470
 4682SOL    HW214946   4.791   4.785   5.603
 4683SOL     OW14947   5.292   5.474   2.810
 4683SOL    HW114948   5.324   5.464   2.716
 4683SOL    HW214949   5.257   5.386   2.843
 4684SOL     OW14950   5.004   6.727   5.694
 4684SOL    HW114951   5.076   6.716   5.625
 4684SOL    HW214952   4.982   6.638   5.734
 4685SOL     OW14953   1.763   4.749   6.283
 4685SOL    HW114954   1.712   4.822   6.328
 4685SOL    HW214955   1.857   4.747   6.318
 4686SOL     OW14956   3.966   5.558   6.691
 4686SOL    HW114957   3.871   5.557   6.721
 4686SOL    HW214958   3.979   5.489   6.620
 4687SOL     OW14959   4.956   3.053   4.029
 4687SOL    HW114960   4.917   3.040   3.938
 4687SOL    HW214961   5.049   3.015   4.031
 4688SOL     OW14962   5.736   3.317   4.868
 4688SOL    HW114963   5.763   3.250   4.937
 4688SOL    HW214964   5.684   3.391   4.910
 4689SOL     OW14965   4.777   0.711   0.361
 4689SOL    HW114966   4.712   0.668   0.424
 4689SOL    HW214967   4.870   0.685   0.387
 4690SOL     OW14968   1.324   0.296   0.495
 4690SOL    HW114969   1.227   0.309   0.517
 4690SOL    HW214970   1.375   0.380   0.515
 4691SOL     OW14971   2.827   3.445   0.847
 4691SOL    HW114972   2.912   3.470   0.894
 4691SOL    HW214973   2.827   3.347   0.827
 4692SOL     OW14974   5.649   5.299   2.649
 4692SOL    HW114975   5.655   5.264   2.742
 4692SOL    HW214976   5.683   5.393   2.646
 4693SOL     OW14977   1.196   1.316   2.904
 4693SOL    HW114978   1.192   1.294   2.806
 4693SOL    HW214979   1.104   1.333   2.939
 4694SOL     OW14980   2.531   1.327   0.080
 4694SOL    HW114981   2.498   1.233   0.086
 4694SOL    HW214982   2.551   1.362   0.172
 4695SOL     OW14983   1.293   4.830   1.019
 4695SOL    HW114984   1.251   4.760   1.076
 4695SOL    HW214985   1.373   4.868   1.066
 4696SOL     OW14986   6.925   4.769   6.731
 4696SOL    HW114987   7.008   4.824   6.718
 4696SOL    HW214988   6.851   4.828   6.763
 4697SOL     OW14989   1.235   3.871   1.234
 4697SOL    HW114990   1.190   3.906   1.152
 4697SOL    HW214991   1.169   3.819   1.289
 4698SOL     OW14992   4.634   6.001   2.939
 4698SOL    HW114993   4.625   5.982   3.036
 4698SOL    HW214994   4.586   5.931   2.886
 4699SOL     OW14995   0.849   6.227   2.146
 4699SOL    HW114996   0.830   6.265   2.056
 4699SOL    HW214997   0.904   6.144   2.137
 4700SOL     OW14998   6.903   1.874   2.672
 4700SOL    HW114999   6.850   1.790   2.663
 4700SOL    HW215000   6.990   1.855   2.716
 4701SOL     OW15001   2.969   1.869   0.070
 4701SOL    HW115002   3.045   1.910   0.120
 4701SOL    HW215003   2.928   1.936   0.009
 4702SOL     OW15004   5.037   4.978   0.577
 4702SOL    HW115005   4.938   4.987   0.580
 4702SOL    HW215006   5.070   4.947   0.666
 4703SOL     OW15007   0.593   0.232   2.694
 4703SOL    HW115008   0.502   0.266   2.673
 4703SOL    HW215009   0.587   0.152   2.753
 4704SOL     OW15010   6.368   6.039   6.397
 4704SOL    HW115011   6.300   6.030   6.324
 4704SOL    HW215012   6.328   6.008   6.484
 4705SOL     OW15013   4.249   2.387   1.244
 4705SOL    HW115014   4.239   2.386   1.343
 4705SOL    HW215015   4.170   2.432   1.203
 4706SOL     OW15016   2.820   0.478   0.263
 4706SOL    HW115017   2.840   0.510   0.170
 4706SOL    HW215018   2.723   0.491   0.283
 4707SOL     OW15019   1.233   6.944   1.018
 4707SOL    HW115020   1.263   6.848   1.019
 4707SOL    HW215021   1.312   7.004   1.024
 4708SOL     OW15022   1.215   1.819   6.058
 4708SOL    HW115023   1.188   1.850   5.967
 4708SOL    HW215024   1.134   1.795   6.111
 4709SOL     OW15025   4.672   5.540   5.195
 4709SOL    HW115026   4.688   5.588   5.108
 4709SOL    HW215027   4.685   5.442   5.181
 4710SOL     OW15028   5.019   6.995   5.782
 4710SOL    HW115029   4.960   6.918   5.760
 4710SOL    HW215030   5.115   6.968   5.773
 4711SOL     OW15031   6.221   1.749   1.602
 4711SOL    HW115032   6.259   1.824   1.549
 4711SOL    HW215033   6.149   1.785   1.663
 4712SOL     OW15034   3.005   4.797   6.105
 4712SOL    HW115035   2.927   4.840   6.059
 4712SOL    HW215036   2.996   4.806   6.204
 4713SOL     OW15037   3.603   4.409   0.571
 4713SOL    HW115038   3.670   4.476   0.606
 4713SOL    HW215039   3.635   4.373   0.483
 4714SOL     OW15040   1.096   1.314   6.181
 4714SOL    HW115041   1.105   1.410   6.210
 4714SOL    HW215042   1.074   1.257   6.260
 4715SOL     OW15043   5.904   3.315   1.824
 4715SOL    HW115044   5.978   3.261   1.784
 4715SOL    HW215045   5.862   3.264   1.899
 4716SOL     OW15046   3.855   6.754   5.815
 4716SOL    HW115047   3.920   6.830   5.819
 4716SOL    HW215048   3.900   6.674   5.775
 4717SOL     OW15049   0.753   6.018   3.884
 4717SOL    HW115050   0.807   6.038   3.966
 4717SOL    HW215051   0.808   6.032   3.802
 4718SOL     OW15052   5.957   1.763   1.121
 4718SOL    HW115053   5.878   1.721   1.077
 4718SOL    HW215054   5.926   1.837   1.180
 4719SOL     OW15055   4.892   3.285   1.923
 4719SOL    HW115056   4.829   3.225   1.972
 4719SOL    HW215057   4.845   3.326   1.845
 4720SOL     OW15058   2.191   5.469   5.581
 4720SOL    HW115059   2.118   5.528   5.615
 4720SOL    HW215060   2.192   5.384   5.635
 4721SOL     OW15061   0.046   1.878   2.426
 4721SOL    HW115062   0.107   1.958   2.420
 4721SOL    HW215063   0.004   1.876   2.517
 4722SOL     OW15064   1.232   5.965   6.812
 4722SOL    HW115065   1.244   5.998   6.719
 4722SOL    HW215066   1.167   6.025   6.860
 4723SOL     OW15067   2.135   3.345   5.470
 4723SOL    HW115068   2.163   3.367   5.564
 4723SOL    HW215069   2.199   3.387   5.406
 4724SOL     OW15070   6.559   0.222   4.452
 4724SOL    HW115071   6.602   0.137   4.422
 4724SOL    HW215072   6.488   0.201   4.519
 4725SOL     OW15073   6.599   5.285   0.639
 4725SOL    HW115074   6.626   5.265   0.545
 4725SOL    HW215075   6.663   5.240   0.701
 4726SOL     OW15076   1.633   3.379   6.189
 4726SOL    HW115077   1.610   3.356   6.284
 4726SOL    HW215078   1.720   3.335   6.165
 4727SOL     OW15079   1.179   6.407   1.177
 4727SOL    HW115080   1.109   6.407   1.249
 4727SOL    HW215081   1.200   6.501   1.151
 4728SOL     OW15082   5.954   1.284   2.074
 4728SOL    HW115083   5.966   1.376   2.111
 4728SOL    HW215084   6.025   1.266   2.006
 4729SOL     OW15085   4.728   0.984   0.524
 4729SOL    HW115086   4.734   1.073   0.478
 4729SOL    HW215087   4.641   0.941   0.501
 4730SOL     OW15088   3.111   6.111   4.708
 4730SOL    HW115089   3.087   6.169   4.630
 4730SOL    HW215090   3.209   6.117   4.725
 4731SOL     OW15091   3.125   0.662   0.346
 4731SOL    HW115092   3.088   0.582   0.393
 4731SOL    HW215093   3.055   0.733   0.341
 4732SOL     OW15094   0.659   3.669   5.320
 4732SOL    HW115095   0.752   3.645   5.349
 4732SOL    HW215096   0.657   3.765   5.291
 4733SOL     OW15097   1.682   3.847   4.008
 4733SOL    HW115098   1.706   3.940   3.982
 4733SOL    HW215099   1.594   3.823   3.968
 4734SOL     OW15100   4.070   3.140   0.241
 4734SOL    HW115101   4.168   3.151   0.258
 4734SOL    HW215102   4.031   3.228   0.213
 4735SOL     OW15103   6.931   5.156   4.594
 4735SOL    HW115104   6.929   5.071   4.542
 4735SOL    HW215105   7.006   5.153   4.660
 4736SOL     OW15106   6.100   1.541   5.901
 4736SOL    HW115107   6.128   1.584   5.986
 4736SOL    HW215108   6.052   1.455   5.921
 4737SOL     OW15109   3.234   4.178   1.502
 4737SOL    HW115110   3.186   4.205   1.585
 4737SOL    HW215111   3.206   4.085   1.476
 4738SOL     OW15112   1.856   6.572   3.188
 4738SOL    HW115113   1.920   6.596   3.261
 4738SOL    HW215114   1.866   6.637   3.113
 4739SOL     OW15115   5.001   1.494   3.132
 4739SOL    HW115116   5.018   1.550   3.212
 4739SOL    HW215117   5.088   1.470   3.088
 4740SOL     OW15118   0.243   1.537   0.874
 4740SOL    HW115119   0.281   1.564   0.785
 4740SOL    HW215120   0.185   1.610   0.909
 4741SOL     OW15121   4.810   3.275   1.230
 4741SOL    HW115122   4.810   3.360   1.283
 4741SOL    HW215123   4.757   3.206   1.279
 4742SOL     OW15124   2.868   0.060   0.097
 4742SOL    HW115125   2.858   0.126   0.022
 4742SOL    HW215126   2.874   0.110   0.183
 4743SOL     OW15127   1.593   3.190   5.226
 4743SOL    HW115128   1.655   3.241   5.166
 4743SOL    HW215129   1.588   3.236   5.315
 4744SOL     OW15130   2.861   3.778   6.181
 4744SOL    HW115131   2.859   3.831   6.097
 4744SOL    HW215132   2.826   3.686   6.163
 4745SOL     OW15133   2.837   6.097   5.763
 4745SOL    HW115134   2.866   6.181   5.716
 4745SOL    HW215135   2.737   6.093   5.764
 4746SOL     OW15136   5.557   6.704   2.399
 4746SOL    HW115137   5.509   6.764   2.464
 4746SOL    HW215138   5.564   6.612   2.438
 4747SOL     OW15139   1.663   3.723   6.635
 4747SOL    HW115140   1.732   3.681   6.694
 4747SOL    HW215141   1.589   3.759   6.692
 4748SOL     OW15142   0.925   4.929   0.571
 4748SOL    HW115143   0.856   4.871   0.528
 4748SOL    HW215144   0.886   4.972   0.653
 4749SOL     OW15145   2.755   6.628   5.404
 4749SOL    HW115146   2.683   6.593   5.465
 4749SOL    HW215147   2.757   6.573   5.321
 4750SOL     OW15148   0.032   3.624   3.393
 4750SOL    HW115149   0.060   3.531   3.370
 4750SOL    HW215150   0.022   3.632   3.492
 4751SOL     OW15151   2.569   2.607   1.182
 4751SOL    HW115152   2.474   2.640   1.174
 4751SOL    HW215153   2.632   2.684   1.172
 4752SOL     OW15154   2.689   0.338   6.726
 4752SOL    HW115155   2.697   0.241   6.703
 4752SOL    HW215156   2.630   0.383   6.659
 4753SOL     OW15157   5.518   0.731   4.324
 4753SOL    HW115158   5.557   0.811   4.278
 4753SOL    HW215159   5.578   0.652   4.311
 4754SOL     OW15160   6.343   0.202   4.654
 4754SOL    HW115161   6.315   0.260   4.730
 4754SOL    HW215162   6.285   0.121   4.651
 4755SOL     OW15163   2.436   0.575   0.784
 4755SOL    HW115164   2.357   0.558   0.843
 4755SOL    HW215165   2.478   0.487   0.759
 4756SOL     OW15166   5.821   3.632   1.068
 4756SOL    HW115167   5.784   3.603   0.979
 4756SOL    HW215168   5.903   3.687   1.053
 4757SOL     OW15169   1.986   2.324   0.980
 4757SOL    HW115170   2.054   2.293   1.047
 4757SOL    HW215171   1.915   2.377   1.026
 4758SOL     OW15172   1.809   6.153   4.155
 4758SOL    HW115173   1.735   6.104   4.108
 4758SOL    HW215174   1.881   6.175   4.089
 4759SOL     OW15175   5.637   5.164   4.384
 4759SOL    HW115176   5.674   5.077   4.354
 4759SOL    HW215177   5.544   5.151   4.418
 4760SOL     OW15178   3.238   1.818   0.499
 4760SOL    HW115179   3.322   1.868   0.480
 4760SOL    HW215180   3.231   1.739   0.438
 4761SOL     OW15181   0.503   6.187   6.657
 4761SOL    HW115182   0.550   6.188   6.569
 4761SOL    HW215183   0.456   6.100   6.670
 4762SOL     OW15184   2.008   5.837   2.834
 4762SOL    HW115185   2.062   5.916   2.804
 4762SOL    HW215186   2.068   5.757   2.842
 4763SOL     OW15187   6.592   6.508   3.485
 4763SOL    HW115188   6.501   6.466   3.494
 4763SOL    HW215189   6.590   6.577   3.413
 4764SOL     OW15190   5.133   3.799   5.229
 4764SOL    HW115191   5.049   3.791   5.283
 4764SOL    HW215192   5.129   3.736   5.151
 4765SOL     OW15193   5.120   0.972   4.513
 4765SOL    HW115194   5.063   1.053   4.531
 4765SOL    HW215195   5.216   0.999   4.509
 4766SOL     OW15196   4.583   5.978   4.163
 4766SOL    HW115197   4.595   6.074   4.139
 4766SOL    HW215198   4.566   5.970   4.261
 4767SOL     OW15199   3.850   5.182   5.623
 4767SOL    HW115200   3.895   5.112   5.680
 4767SOL    HW215201   3.919   5.239   5.579
 4768SOL     OW15202   4.316   2.021   5.554
 4768SOL    HW115203   4.378   1.957   5.509
 4768SOL    HW215204   4.242   1.970   5.598
 4769SOL     OW15205   5.084   4.496   0.258
 4769SOL    HW115206   5.117   4.450   0.175
 4769SOL    HW215207   5.073   4.594   0.239
 4770SOL     OW15208   1.433   0.798   4.658
 4770SOL    HW115209   1.474   0.869   4.715
 4770SOL    HW215210   1.382   0.734   4.715
 4771SOL     OW15211   3.057   5.355   5.857
 4771SOL    HW115212   2.965   5.315   5.849
 4771SOL    HW215213   3.061   5.439   5.803
 4772SOL     OW15214   3.329   4.608   1.176
 4772SOL    HW115215   3.340   4.544   1.100
 4772SOL    HW215216   3.327   4.557   1.262
 4773SOL     OW15217   6.699   5.592   4.845
 4773SOL    HW115218   6.736   5.535   4.772
 4773SOL    HW215219   6.693   5.687   4.815
 4774SOL     OW15220   1.222   2.410   1.694
 4774SOL    HW115221   1.306   2.433   1.743
 4774SOL    HW215222   1.177   2.333   1.740
 4775SOL     OW15223   5.028   6.794   2.860
 4775SOL    HW115224   5.049   6.709   2.813
 4775SOL    HW215225   5.006   6.865   2.792
 4776SOL     OW15226   1.452   6.177   5.428
 4776SOL    HW115227   1.435   6.268   5.466
 4776SOL    HW215228   1.372   6.119   5.443
 4777SOL     OW15229   3.036   4.565   1.020
 4777SOL    HW115230   2.982   4.622   0.958
 4777SOL    HW215231   3.107   4.620   1.064
 4778SOL     OW15232   6.367   2.734   2.791
 4778SOL    HW115233   6.401   2.671   2.860
 4778SOL    HW215234   6.443   2.785   2.751
 4779SOL     OW15235   6.211   5.948   2.162
 4779SOL    HW115236   6.279   5.876   2.149
 4779SOL    HW215237   6.256   6.037   2.159
 4780SOL     OW15238   6.539   0.666   0.299
 4780SOL    HW115239   6.602   0.610   0.353
 4780SOL    HW215240   6.466   0.608   0.262
 4781SOL     OW15241   2.259   6.022   1.775
 4781SOL    HW115242   2.193   6.011   1.700
 4781SOL    HW215243   2.211   6.049   1.858
 4782SOL     OW15244   3.830   6.326   6.916
 4782SOL    HW115245   3.746   6.322   6.969
 4782SOL    HW215246   3.850   6.236   6.877
 4783SOL     OW15247   5.048   4.669   6.999
 4783SOL    HW115248   4.992   4.586   6.996
 4783SOL    HW215249   4.988   4.749   7.007
 4784SOL     OW15250   5.995   3.931   6.934
 4784SOL    HW115251   6.071   3.996   6.939
 4784SOL    HW215252   5.919   3.966   6.990
 4785SOL     OW15253   6.466   5.430   1.870
 4785SOL    HW115254   6.536   5.492   1.906
 4785SOL    HW215255   6.378   5.478   1.867
 4786SOL     OW15256   2.280   1.893   0.888
 4786SOL    HW115257   2.215   1.956   0.846
 4786SOL    HW215258   2.279   1.905   0.987
 4787SOL     OW15259   4.150   1.487   2.585
 4787SOL    HW115260   4.145   1.510   2.682
 4787SOL    HW215261   4.058   1.466   2.551
 4788SOL     OW15262   1.064   5.516   5.766
 4788SOL    HW115263   1.033   5.562   5.683
 4788SOL    HW215264   1.164   5.509   5.765
 4789SOL     OW15265   5.242   0.657   0.868
 4789SOL    HW115266   5.191   0.743   0.877
 4789SOL    HW215267   5.262   0.620   0.959
 4790SOL     OW15268   6.949   2.942   5.322
 4790SOL    HW115269   6.980   3.035   5.301
 4790SOL    HW215270   6.991   2.878   5.258
 4791SOL     OW15271   5.898   2.316   1.170
 4791SOL    HW115272   5.973   2.251   1.154
 4791SOL    HW215273   5.863   2.348   1.082
 4792SOL     OW15274   2.065   3.304   3.136
 4792SOL    HW115275   2.071   3.378   3.202
 4792SOL    HW215276   2.139   3.312   3.070
 4793SOL     OW15277   1.874   2.826   6.139
 4793SOL    HW115278   1.782   2.865   6.136
 4793SOL    HW215279   1.870   2.735   6.181
 4794SOL     OW15280   4.562   0.520   3.235
 4794SOL    HW115281   4.556   0.595   3.169
 4794SOL    HW215282   4.606   0.441   3.192
 4795SOL     OW15283   6.576   1.976   4.222
 4795SOL    HW115284   6.635   1.908   4.178
 4795SOL    HW215285   6.584   2.063   4.173
 4796SOL     OW15286   5.127   1.946   5.637
 4796SOL    HW115287   5.209   1.989   5.676
 4796SOL    HW215288   5.082   2.011   5.576
 4797SOL     OW15289   1.744   6.506   6.260
 4797SOL    HW115290   1.751   6.606   6.265
 4797SOL    HW215291   1.829   6.464   6.291
 4798SOL     OW15292   0.273   3.360   4.997
 4798SOL    HW115293   0.322   3.446   4.988
 4798SOL    HW215294   0.178   3.373   4.969
 4799SOL     OW15295   4.934   2.561   6.834
 4799SOL    HW115296   4.873   2.485   6.812
 4799SOL    HW215297   4.995   2.579   6.757
 4800SOL     OW15298   3.134   3.438   5.937
 4800SOL    HW115299   3.099   3.366   5.877
 4800SOL    HW215300   3.058   3.481   5.986
 4801SOL     OW15301   3.068   1.822   0.883
 4801SOL    HW115302   3.136   1.786   0.819
 4801SOL    HW215303   3.030   1.907   0.848
 4802SOL     OW15304   1.287   6.349   1.945
 4802SOL    HW115305   1.364   6.383   1.999
 4802SOL    HW215306   1.303   6.369   1.848
 4803SOL     OW15307   1.011   5.544   0.800
 4803SOL    HW115308   1.066   5.519   0.720
 4803SOL    HW215309   0.993   5.642   0.799
 4804SOL     OW15310   5.240   5.631   6.543
 4804SOL    HW115311   5.276   5.600   6.455
 4804SOL    HW215312   5.181   5.711   6.529
 4805SOL     OW15313   5.954   0.640   1.677
 4805SOL    HW115314   5.859   0.626   1.648
 4805SOL    HW215315   5.976   0.576   1.751
 4806SOL     OW15316   0.814   4.835   3.557
 4806SOL    HW115317   0.785   4.744   3.586
 4806SOL    HW215318   0.786   4.851   3.462
 4807SOL     OW15319   0.969   4.637   0.302
 4807SOL    HW115320   0.944   4.578   0.225
 4807SOL    HW215321   0.886   4.673   0.344
 4808SOL     OW15322   6.198   3.596   6.431
 4808SOL    HW115323   6.205   3.503   6.466
 4808SOL    HW215324   6.189   3.660   6.507
 4809SOL     OW15325   3.678   4.199   6.939
 4809SOL    HW115326   3.583   4.211   6.913
 4809SOL    HW215327   3.684   4.175   0.016
 4810SOL     OW15328   0.965   5.159   2.271
 4810SOL    HW115329   1.053   5.116   2.294
 4810SOL    HW215330   0.951   5.239   2.330
 4811SOL     OW15331   2.147   4.541   1.570
 4811SOL    HW115332   2.228   4.552   1.512
 4811SOL    HW215333   2.153   4.453   1.618
 4812SOL     OW15334   6.400   5.333   4.241
 4812SOL    HW115335   6.340   5.334   4.161
 4812SOL    HW215336   6.488   5.292   4.216
 4813SOL     OW15337   4.979   1.726   0.842
 4813SOL    HW115338   4.922   1.648   0.815
 4813SOL    HW215339   4.978   1.795   0.769
 4814SOL     OW15340   5.929   3.653   0.332
 4814SOL    HW115341   5.938   3.752   0.340
 4814SOL    HW215342   5.976   3.621   0.250
 4815SOL     OW15343   5.431   4.835   2.903
 4815SOL    HW115344   5.466   4.767   2.838
 4815SOL    HW215345   5.483   4.828   2.988
 4816SOL     OW15346   1.183   5.664   1.093
 4816SOL    HW115347   1.169   5.589   1.028
 4816SOL    HW215348   1.275   5.660   1.130
 4817SOL     OW15349   0.383   2.206   6.934
 4817SOL    HW115350   0.451   2.146   6.893
 4817SOL    HW215351   0.355   2.276   6.868
 4818SOL     OW15352   1.377   0.392   5.061
 4818SOL    HW115353   1.389   0.295   5.084
 4818SOL    HW215354   1.344   0.441   5.142
 4819SOL     OW15355   1.178   2.061   0.507
 4819SOL    HW115356   1.211   2.015   0.425
 4819SOL    HW215357   1.253   2.109   0.551
 4820SOL     OW15358   6.032   2.772   1.396
 4820SOL    HW115359   6.022   2.803   1.491
 4820SOL    HW215360   6.129   2.767   1.373
 4821SOL     OW15361   0.706   5.908   2.818
 4821SOL    HW115362   0.693   5.987   2.877
 4821SOL    HW215363   0.658   5.829   2.856
 4822SOL     OW15364   2.229   2.227   4.583
 4822SOL    HW115365   2.169   2.297   4.545
 4822SOL    HW215366   2.287   2.267   4.653
 4823SOL     OW15367   1.989   1.389   4.136
 4823SOL    HW115368   2.021   1.409   4.229
 4823SOL    HW215369   1.889   1.387   4.135
 4824SOL     OW15370   5.083   2.919   5.099
 4824SOL    HW115371   5.044   2.827   5.108
 4824SOL    HW215372   5.177   2.912   5.064
 4825SOL     OW15373   1.815   2.858   4.692
 4825SOL    HW115374   1.852   2.868   4.784
 4825SOL    HW215375   1.729   2.909   4.685
 4826SOL     OW15376   5.454   1.067   0.445
 4826SOL    HW115377   5.478   1.088   0.540
 4826SOL    HW215378   5.385   0.995   0.443
 4827SOL     OW15379   6.090   1.740   0.721
 4827SOL    HW115380   6.055   1.647   0.727
 4827SOL    HW215381   6.114   1.773   0.812
 4828SOL     OW15382   4.718   2.251   0.901
 4828SOL    HW115383   4.704   2.182   0.830
 4828SOL    HW215384   4.683   2.216   0.988
 4829SOL     OW15385   4.014   0.422   5.130
 4829SOL    HW115386   3.926   0.461   5.102
 4829SOL    HW215387   4.000   0.364   5.210
 4830SOL     OW15388   3.688   6.082   4.943
 4830SOL    HW115389   3.748   6.090   5.023
 4830SOL    HW215390   3.715   6.002   4.889
 4831SOL     OW15391   0.925   4.437   6.077
 4831SOL    HW115392   0.923   4.337   6.077
 4831SOL    HW215393   0.849   4.471   6.022
 4832SOL     OW15394   3.689   4.151   3.577
 4832SOL    HW115395   3.696   4.214   3.655
 4832SOL    HW215396   3.733   4.064   3.601
 4833SOL     OW15397   6.008   1.288   2.911
 4833SOL    HW115398   5.938   1.291   2.840
 4833SOL    HW215399   6.098   1.294   2.868
 4834SOL     OW15400   2.742   6.187   1.689
 4834SOL    HW115401   2.824   6.140   1.720
 4834SOL    HW215402   2.749   6.284   1.710
 4835SOL     OW15403   5.715   2.086   6.530
 4835SOL    HW115404   5.659   2.104   6.449
 4835SOL    HW215405   5.688   2.149   6.603
 4836SOL     OW15406   5.406   2.314   4.697
 4836SOL    HW115407   5.504   2.294   4.703
 4836SOL    HW215408   5.354   2.239   4.738
 4837SOL     OW15409   6.902   3.868   2.723
 4837SOL    HW115410   6.918   3.786   2.777
 4837SOL    HW215411   6.832   3.924   2.768
 4838SOL     OW15412   1.908   5.403   0.043
 4838SOL    HW115413   1.845   5.393   0.121
 4838SOL    HW215414   2.002   5.387   0.073
 4839SOL     OW15415   1.016   3.928   0.369
 4839SOL    HW115416   1.024   3.930   0.269
 4839SOL    HW215417   0.948   3.859   0.395
 4840SOL     OW15418   6.389   4.690   6.276
 4840SOL    HW115419   6.368   4.632   6.196
 4840SOL    HW215420   6.361   4.642   6.359
 4841SOL     OW15421   2.631   5.296   2.737
 4841SOL    HW115422   2.556   5.362   2.739
 4841SOL    HW215423   2.718   5.345   2.732
 4842SOL     OW15424   3.440   4.919   2.941
 4842SOL    HW115425   3.391   4.887   3.022
 4842SOL    HW215426   3.374   4.947   2.871
 4843SOL     OW15427   6.022   2.573   1.166
 4843SOL    HW115428   5.959   2.506   1.127
 4843SOL    HW215429   5.972   2.635   1.227
 4844SOL     OW15430   0.481   3.325   6.232
 4844SOL    HW115431   0.501   3.394   6.302
 4844SOL    HW215432   0.390   3.287   6.248
 4845SOL     OW15433   5.398   4.893   6.694
 4845SOL    HW115434   5.436   4.978   6.657
 4845SOL    HW215435   5.350   4.844   6.621
 4846SOL     OW15436   0.118   2.370   4.050
 4846SOL    HW115437   0.022   2.371   4.023
 4846SOL    HW215438   0.169   2.312   3.987
 4847SOL     OW15439   2.448   1.158   6.338
 4847SOL    HW115440   2.411   1.069   6.309
 4847SOL    HW215441   2.393   1.195   6.413
 4848SOL     OW15442   2.306   0.758   4.800
 4848SOL    HW115443   2.338   0.722   4.712
 4848SOL    HW215444   2.367   0.830   4.831
 4849SOL     OW15445   1.761   5.637   0.784
 4849SOL    HW115446   1.687   5.686   0.829
 4849SOL    HW215447   1.838   5.699   0.770
 4850SOL     OW15448   4.510   1.008   1.468
 4850SOL    HW115449   4.439   1.070   1.501
 4850SOL    HW215450   4.584   1.004   1.536
 4851SOL     OW15451   3.152   6.270   5.584
 4851SOL    HW115452   3.188   6.291   5.675
 4851SOL    HW215453   3.204   6.320   5.515
 4852SOL     OW15454   1.934   5.793   4.749
 4852SOL    HW115455   1.913   5.889   4.728
 4852SOL    HW215456   1.983   5.752   4.672
 4853SOL     OW15457   3.788   1.291   3.838
 4853SOL    HW115458   3.807   1.299   3.936
 4853SOL    HW215459   3.837   1.363   3.789
 4854SOL     OW15460   4.244   6.716   2.181
 4854SOL    HW115461   4.343   6.727   2.190
 4854SOL    HW215462   4.211   6.652   2.251
 4855SOL     OW15463   6.001   2.288   4.999
 4855SOL    HW115464   6.054   2.211   5.036
 4855SOL    HW215465   5.932   2.316   5.066
 4856SOL     OW15466   1.791   3.318   3.067
 4856SOL    HW115467   1.748   3.228   3.057
 4856SOL    HW215468   1.886   3.307   3.094
 4857SOL     OW15469   2.934   2.204   3.584
 4857SOL    HW115470   2.895   2.222   3.674
 4857SOL    HW215471   2.866   2.223   3.513
 4858SOL     OW15472   6.982   6.438   5.062
 4858SOL    HW115473   6.979   6.412   4.965
 4858SOL    HW215474   0.001   6.362   5.115
 4859SOL     OW15475   0.550   5.118   2.738
 4859SOL    HW115476   0.472   5.176   2.716
 4859SOL    HW215477   0.548   5.036   2.680
 4860SOL     OW15478   4.099   3.975   0.250
 4860SOL    HW115479   4.142   3.910   0.313
 4860SOL    HW215480   4.091   3.934   0.159
 4861SOL     OW15481   5.874   5.353   6.793
 4861SOL    HW115482   5.778   5.363   6.768
 4861SOL    HW215483   5.884   5.273   6.853
 4862SOL     OW15484   2.182   4.636   5.226
 4862SOL    HW115485   2.155   4.685   5.309
 4862SOL    HW215486   2.170   4.696   5.146
 4863SOL     OW15487   5.315   3.048   2.115
 4863SOL    HW115488   5.343   2.962   2.072
 4863SOL    HW215489   5.217   3.063   2.100
 4864SOL     OW15490   2.968   1.121   1.768
 4864SOL    HW115491   3.031   1.193   1.738
 4864SOL    HW215492   2.996   1.086   1.857
 4865SOL     OW15493   1.868   6.084   4.685
 4865SOL    HW115494   1.864   6.176   4.723
 4865SOL    HW215495   1.852   6.088   4.586
 4866SOL     OW15496   5.875   4.984   1.431
 4866SOL    HW115497   5.809   4.986   1.356
 4866SOL    HW215498   5.844   4.920   1.501
 4867SOL     OW15499   5.064   5.489   3.050
 4867SOL    HW115500   5.128   5.472   2.975
 4867SOL    HW215501   5.005   5.409   3.063
 4868SOL     OW15502   0.254   5.434   1.860
 4868SOL    HW115503   0.240   5.470   1.768
 4868SOL    HW215504   0.351   5.417   1.875
 4869SOL     OW15505   0.632   2.249   1.512
 4869SOL    HW115506   0.554   2.257   1.574
 4869SOL    HW215507   0.647   2.336   1.465
 4870SOL     OW15508   6.227   5.569   1.805
 4870SOL    HW115509   6.156   5.548   1.738
 4870SOL    HW215510   6.254   5.665   1.796
 4871SOL     OW15511   0.355   1.571   4.912
 4871SOL    HW115512   0.413   1.651   4.925
 4871SOL    HW215513   0.338   1.527   5.001
 4872SOL     OW15514   0.526   6.170   4.093
 4872SOL    HW115515   0.624   6.188   4.104
 4872SOL    HW215516   0.475   6.256   4.098
 4873SOL     OW15517   6.843   4.736   3.888
 4873SOL    HW115518   6.815   4.750   3.983
 4873SOL    HW215519   6.932   4.779   3.873
 4874SOL     OW15520   6.294   4.030   2.759
 4874SOL    HW115521   6.271   3.966   2.833
 4874SOL    HW215522   6.292   3.983   2.671
 4875SOL     OW15523   4.802   2.322   1.247
 4875SOL    HW115524   4.776   2.254   1.315
 4875SOL    HW215525   4.769   2.293   1.156
 4876SOL     OW15526   6.064   0.819   4.782
 4876SOL    HW115527   6.023   0.860   4.863
 4876SOL    HW215528   6.150   0.864   4.761
 4877SOL     OW15529   6.242   1.736   0.453
 4877SOL    HW115530   6.188   1.711   0.533
 4877SOL    HW215531   6.340   1.728   0.474
 4878SOL     OW15532   6.455   1.499   2.855
 4878SOL    HW115533   6.523   1.527   2.923
 4878SOL    HW215534   6.491   1.516   2.763
 4879SOL     OW15535   4.487   5.139   3.640
 4879SOL    HW115536   4.482   5.046   3.603
 4879SOL    HW215537   4.496   5.204   3.564
 4880SOL     OW15538   6.237   3.373   6.582
 4880SOL    HW115539   6.279   3.300   6.528
 4880SOL    HW215540   6.173   3.332   6.648
 4881SOL     OW15541   2.292   6.864   6.269
 4881SOL    HW115542   2.194   6.882   6.264
 4881SOL    HW215543   2.308   6.765   6.264
 4882SOL     OW15544   5.809   1.244   4.321
 4882SOL    HW115545   5.794   1.187   4.240
 4882SOL    HW215546   5.888   1.303   4.305
 4883SOL     OW15547   5.152   4.788   2.224
 4883SOL    HW115548   5.231   4.848   2.235
 4883SOL    HW215549   5.115   4.766   2.314
 4884SOL     OW15550   4.535   0.221   1.082
 4884SOL    HW115551   4.571   0.252   1.170
 4884SOL    HW215552   4.448   0.268   1.063
 4885SOL     OW15553   2.639   6.203   2.128
 4885SOL    HW115554   2.608   6.147   2.051
 4885SOL    HW215555   2.739   6.197   2.135
 4886SOL     OW15556   6.634   5.439   5.938
 4886SOL    HW115557   6.570   5.449   6.014
 4886SOL    HW215558   6.725   5.466   5.967
 4887SOL     OW15559   0.039   0.921   2.830
 4887SOL    HW115560   0.080   0.959   2.914
 4887SOL    HW215561   0.107   0.922   2.757
 4888SOL     OW15562   1.971   6.749   4.651
 4888SOL    HW115563   1.952   6.828   4.592
 4888SOL    HW215564   2.068   6.749   4.676
 4889SOL     OW15565   6.750   0.875   6.565
 4889SOL    HW115566   6.711   0.961   6.533
 4889SOL    HW215567   6.761   0.813   6.488
 4890SOL     OW15568   0.502   2.085   5.653
 4890SOL    HW115569   0.467   2.000   5.614
 4890SOL    HW215570   0.587   2.111   5.607
 4891SOL     OW15571   1.188   5.978   0.297
 4891SOL    HW115572   1.248   5.951   0.221
 4891SOL    HW215573   1.242   6.021   0.369
 4892SOL     OW15574   2.444   6.096   2.331
 4892SOL    HW115575   2.404   6.162   2.267
 4892SOL    HW215576   2.393   6.098   2.417
 4893SOL     OW15577   6.633   4.430   0.402
 4893SOL    HW115578   6.594   4.488   0.330
 4893SOL    HW215579   6.571   4.354   0.421
 4894SOL     OW15580   2.406   1.440   1.927
 4894SOL    HW115581   2.455   1.358   1.956
 4894SOL    HW215582   2.319   1.413   1.886
 4895SOL     OW15583   0.518   4.933   2.121
 4895SOL    HW115584   0.485   4.984   2.201
 4895SOL    HW215585   0.607   4.969   2.093
 4896SOL     OW15586   2.102   5.559   2.415
 4896SOL    HW115587   2.049   5.643   2.406
 4896SOL    HW215588   2.138   5.533   2.325
 4897SOL     OW15589   2.509   5.469   5.946
 4897SOL    HW115590   2.605   5.481   5.922
 4897SOL    HW215591   2.470   5.396   5.890
 4898SOL     OW15592   5.720   1.448   5.121
 4898SOL    HW115593   5.719   1.410   5.029
 4898SOL    HW215594   5.627   1.448   5.159
 4899SOL     OW15595   6.280   4.598   3.464
 4899SOL    HW115596   6.293   4.521   3.402
 4899SOL    HW215597   6.229   4.670   3.417
 4900SOL     OW15598   2.027   6.283   5.621
 4900SOL    HW115599   2.023   6.337   5.705
 4900SOL    HW215600   2.108   6.310   5.568
 4901SOL     OW15601   3.094   0.043   4.973
 4901SOL    HW115602   2.996   0.059   4.959
 4901SOL    HW215603   3.111   0.025   5.070
 4902SOL     OW15604   2.956   2.134   5.013
 4902SOL    HW115605   3.028   2.196   5.045
 4902SOL    HW215606   2.994   2.070   4.947
 4903SOL     OW15607   3.144   6.861   6.461
 4903SOL    HW115608   3.133   6.893   6.555
 4903SOL    HW215609   3.061   6.880   6.409
 4904SOL     OW15610   1.272   0.301   3.689
 4904SOL    HW115611   1.253   0.398   3.673
 4904SOL    HW215612   1.371   0.285   3.683
 4905SOL     OW15613   4.342   1.691   2.356
 4905SOL    HW115614   4.378   1.696   2.263
 4905SOL    HW215615   4.382   1.612   2.403
 4906SOL     OW15616   3.400   1.201   6.466
 4906SOL    HW115617   3.323   1.161   6.516
 4906SOL    HW215618   3.371   1.286   6.422
 4907SOL     OW15619   4.764   6.777   1.444
 4907SOL    HW115620   4.713   6.828   1.375
 4907SOL    HW215621   4.740   6.810   1.535
 4908SOL     OW15622   4.694   4.926   6.629
 4908SOL    HW115623   4.658   4.835   6.648
 4908SOL    HW215624   4.632   4.995   6.666
 4909SOL     OW15625   6.421   0.442   5.457
 4909SOL    HW115626   6.510   0.398   5.462
 4909SOL    HW215627   6.366   0.416   5.537
 4910SOL     OW15628   5.970   6.922   4.567
 4910SOL    HW115629   6.044   6.870   4.525
 4910SOL    HW215630   5.906   6.953   4.496
 4911SOL     OW15631   6.685   2.666   5.836
 4911SOL    HW115632   6.715   2.604   5.763
 4911SOL    HW215633   6.745   2.746   5.839
 4912SOL     OW15634   5.736   2.069   1.682
 4912SOL    HW115635   5.738   1.989   1.742
 4912SOL    HW215636   5.655   2.064   1.624
 4913SOL     OW15637   3.693   3.593   3.570
 4913SOL    HW115638   3.626   3.634   3.632
 4913SOL    HW215639   3.660   3.600   3.476
 4914SOL     OW15640   3.435   0.322   4.666
 4914SOL    HW115641   3.339   0.347   4.662
 4914SOL    HW215642   3.444   0.222   4.670
 4915SOL     OW15643   4.490   0.419   4.570
 4915SOL    HW115644   4.527   0.508   4.543
 4915SOL    HW215645   4.552   0.347   4.540
 4916SOL     OW15646   2.126   0.946   3.108
 4916SOL    HW115647   2.153   0.982   3.019
 4916SOL    HW215648   2.158   1.007   3.180
 4917SOL     OW15649   1.561   4.660   0.803
 4917SOL    HW115650   1.471   4.676   0.762
 4917SOL    HW215651   1.584   4.563   0.795
 4918SOL     OW15652   3.087   0.009   2.982
 4918SOL    HW115653   3.084   7.013   3.081
 4918SOL    HW215654   3.090   0.107   2.963
 4919SOL     OW15655   1.994   1.826   1.202
 4919SOL    HW115656   1.950   1.782   1.124
 4919SOL    HW215657   2.067   1.887   1.170
 4920SOL     OW15658   4.574   0.543   6.130
 4920SOL    HW115659   4.654   0.599   6.109
 4920SOL    HW215660   4.528   0.579   6.211
 4921SOL     OW15661   1.710   4.145   1.225
 4921SOL    HW115662   1.678   4.222   1.170
 4921SOL    HW215663   1.634   4.081   1.239
 4922SOL     OW15664   1.648   3.321   4.861
 4922SOL    HW115665   1.605   3.285   4.777
 4922SOL    HW215666   1.584   3.382   4.907
 4923SOL     OW15667   3.883   1.329   1.231
 4923SOL    HW115668   3.878   1.422   1.267
 4923SOL    HW215669   3.804   1.311   1.172
 4924SOL     OW15670   2.115   2.606   6.275
 4924SOL    HW115671   2.102   2.627   6.178
 4924SOL    HW215672   2.089   2.684   6.330
 4925SOL     OW15673   6.125   6.461   0.693
 4925SOL    HW115674   6.087   6.375   0.727
 4925SOL    HW215675   6.212   6.479   0.738
 4926SOL     OW15676   4.603   2.164   1.118
 4926SOL    HW115677   4.650   2.112   1.190
 4926SOL    HW215678   4.505   2.145   1.123
 4927SOL     OW15679   3.944   3.957   4.212
 4927SOL    HW115680   3.858   3.984   4.255
 4927SOL    HW215681   4.019   4.007   4.255
 4928SOL     OW15682   0.131   0.031   6.429
 4928SOL    HW115683   0.137   6.950   6.437
 4928SOL    HW215684   0.223   0.069   6.417
 4929SOL     OW15685   1.363   4.320   4.815
 4929SOL    HW115686   1.387   4.259   4.890
 4929SOL    HW215687   1.429   4.308   4.741
 4930SOL     OW15688   6.570   0.424   1.734
 4930SOL    HW115689   6.581   0.475   1.648
 4930SOL    HW215690   6.543   0.488   1.806
 4931SOL     OW15691   0.124   6.767   0.876
 4931SOL    HW115692   0.114   6.671   0.902
 4931SOL    HW215693   0.037   6.814   0.893
 4932SOL     OW15694   2.073   3.280   1.834
 4932SOL    HW115695   2.147   3.345   1.850
 4932SOL    HW215696   2.048   3.236   1.920
 4933SOL     OW15697   2.710   6.874   4.395
 4933SOL    HW115698   2.803   6.911   4.391
 4933SOL    HW215699   2.703   6.810   4.472
 4934SOL     OW15700   1.582   5.161   2.758
 4934SOL    HW115701   1.627   5.247   2.780
 4934SOL    HW215702   1.487   5.178   2.732
 4935SOL     OW15703   0.873   1.472   0.053
 4935SOL    HW115704   0.788   1.434   0.089
 4935SOL    HW215705   0.948   1.451   0.115
 4936SOL     OW15706   2.093   5.166   2.306
 4936SOL    HW115707   2.185   5.131   2.324
 4936SOL    HW215708   2.098   5.252   2.256
 4937SOL     OW15709   0.079   3.042   6.338
 4937SOL    HW115710   0.092   2.950   6.301
 4937SOL    HW215711   7.011   3.079   6.306
 4938SOL     OW15712   3.012   5.131   1.297
 4938SOL    HW115713   2.975   5.038   1.298
 4938SOL    HW215714   2.947   5.192   1.251
 4939SOL     OW15715   1.287   1.900   3.682
 4939SOL    HW115716   1.320   1.823   3.627
 4939SOL    HW215717   1.271   1.870   3.776
 4940SOL     OW15718   0.791   1.658   5.751
 4940SOL    HW115719   0.736   1.577   5.729
 4940SOL    HW215720   0.887   1.632   5.758
 4941SOL     OW15721   4.248   2.659   5.371
 4941SOL    HW115722   4.182   2.685   5.442
 4941SOL    HW215723   4.203   2.604   5.301
 4942SOL     OW15724   5.583   3.656   4.739
 4942SOL    HW115725   5.533   3.742   4.748
 4942SOL    HW215726   5.581   3.607   4.827
 4943SOL     OW15727   5.129   3.981   5.547
 4943SOL    HW115728   5.196   3.909   5.533
 4943SOL    HW215729   5.037   3.941   5.549
 4944SOL     OW15730   2.557   4.378   1.772
 4944SOL    HW115731   2.622   4.320   1.723
 4944SOL    HW215732   2.591   4.472   1.775
 4945SOL     OW15733   1.051   6.848   5.190
 4945SOL    HW115734   1.034   6.860   5.287
 4945SOL    HW215735   0.964   6.851   5.140
 4946SOL     OW15736   0.492   5.233   6.910
 4946SOL    HW115737   0.458   5.288   6.985
 4946SOL    HW215738   0.585   5.202   6.929
 4947SOL     OW15739   2.535   0.803   1.035
 4947SOL    HW115740   2.616   0.847   1.073
 4947SOL    HW215741   2.545   0.793   0.936
 4948SOL     OW15742   2.276   2.775   2.515
 4948SOL    HW115743   2.231   2.714   2.581
 4948SOL    HW215744   2.301   2.722   2.433
 4949SOL     OW15745   6.874   4.121   5.105
 4949SOL    HW115746   6.944   4.192   5.102
 4949SOL    HW215747   6.783   4.163   5.111
 4950SOL     OW15748   1.909   4.062   5.582
 4950SOL    HW115749   1.920   3.962   5.585
 4950SOL    HW215750   1.923   4.094   5.489
 4951SOL     OW15751   6.453   0.656   4.203
 4951SOL    HW115752   6.460   0.755   4.221
 4951SOL    HW215753   6.368   0.622   4.242
 4952SOL     OW15754   0.490   6.692   6.076
 4952SOL    HW115755   0.545   6.755   6.132
 4952SOL    HW215756   0.393   6.706   6.095
 4953SOL     OW15757   1.256   6.702   3.384
 4953SOL    HW115758   1.188   6.658   3.325
 4953SOL    HW215759   1.234   6.799   3.394
 4954SOL     OW15760   3.389   3.386   0.094
 4954SOL    HW115761   3.304   3.341   0.120
 4954SOL    HW215762   3.436   3.330   0.025
 4955SOL     OW15763   2.674   6.899   0.029
 4955SOL    HW115764   2.705   6.850   6.966
 4955SOL    HW215765   2.749   6.957   0.063
 4956SOL     OW15766   3.167   0.297   4.877
 4956SOL    HW115767   3.108   0.330   4.803
 4956SOL    HW215768   3.142   0.203   4.900
 4957SOL     OW15769   5.464   2.642   1.234
 4957SOL    HW115770   5.433   2.707   1.303
 4957SOL    HW215771   5.437   2.675   1.143
 4958SOL     OW15772   1.010   5.477   6.264
 4958SOL    HW115773   0.982   5.561   6.311
 4958SOL    HW215774   1.109   5.477   6.251
 4959SOL     OW15775   5.764   1.765   0.599
 4959SOL    HW115776   5.695   1.713   0.550
 4959SOL    HW215777   5.835   1.795   0.535
 4960SOL     OW15778   4.353   4.638   4.296
 4960SOL    HW115779   4.268   4.660   4.248
 4960SOL    HW215780   4.360   4.694   4.378
 4961SOL     OW15781   3.150   0.851   5.962
 4961SOL    HW115782   3.177   0.931   5.907
 4961SOL    HW215783   3.117   0.882   6.051
 4962SOL     OW15784   5.632   2.874   0.363
 4962SOL    HW115785   5.610   2.780   0.337
 4962SOL    HW215786   5.642   2.879   0.463
 4963SOL     OW15787   0.295   5.697   0.440
 4963SOL    HW115788   0.387   5.701   0.401
 4963SOL    HW215789   0.283   5.772   0.505
 4964SOL     OW15790   2.293   0.198   4.657
 4964SOL    HW115791   2.210   0.149   4.684
 4964SOL    HW215792   2.368   0.134   4.647
 4965SOL     OW15793   0.521   6.980   1.986
 4965SOL    HW115794   0.425   6.953   1.990
 4965SOL    HW215795   0.572   6.913   1.932
 4966SOL     OW15796   3.141   6.848   4.800
 4966SOL    HW115797   3.088   6.923   4.839
 4966SOL    HW215798   3.220   6.830   4.858
 4967SOL     OW15799   3.247   4.709   6.010
 4967SOL    HW115800   3.153   4.730   6.038
 4967SOL    HW215801   3.250   4.692   5.912
 4968SOL     OW15802   0.364   1.176   2.920
 4968SOL    HW115803   0.448   1.195   2.970
 4968SOL    HW215804   0.308   1.110   2.971
 4969SOL     OW15805   2.137   6.115   2.787
 4969SOL    HW115806   2.050   6.132   2.740
 4969SOL    HW215807   2.132   6.149   2.881
 4970SOL     OW15808   2.267   1.817   1.401
 4970SOL    HW115809   2.208   1.737   1.415
 4970SOL    HW215810   2.357   1.799   1.439
 4971SOL     OW15811   5.968   5.483   3.031
 4971SOL    HW115812   5.874   5.452   3.016
 4971SOL    HW215813   5.974   5.580   3.008
 4972SOL     OW15814   0.573   3.762   0.978
 4972SOL    HW115815   0.595   3.750   0.882
 4972SOL    HW215816   0.495   3.825   0.987
 4973SOL     OW15817   1.532   6.788   1.821
 4973SOL    HW115818   1.562   6.876   1.786
 4973SOL    HW215819   1.530   6.790   1.921
 4974SOL     OW15820   5.881   5.104   0.722
 4974SOL    HW115821   5.872   5.167   0.800
 4974SOL    HW215822   5.861   5.011   0.753
 4975SOL     OW15823   6.061   3.945   6.347
 4975SOL    HW115824   6.151   3.912   6.320
 4975SOL    HW215825   6.060   3.963   6.445
 4976SOL     OW15826   2.281   2.021   4.000
 4976SOL    HW115827   2.293   1.949   3.931
 4976SOL    HW215828   2.358   2.017   4.065
 4977SOL     OW15829   4.356   4.812   0.147
 4977SOL    HW115830   4.272   4.863   0.127
 4977SOL    HW215831   4.435   4.871   0.130
 4978SOL     OW15832   5.896   4.445   5.108
 4978SOL    HW115833   5.900   4.433   5.009
 4978SOL    HW215834   5.882   4.356   5.152
 4979SOL     OW15835   6.720   6.871   5.893
 4979SOL    HW115836   6.670   6.910   5.970
 4979SOL    HW215837   6.798   6.818   5.927
 4980SOL     OW15838   5.288   5.429   3.854
 4980SOL    HW115839   5.253   5.468   3.939
 4980SOL    HW215840   5.333   5.342   3.873
 4981SOL     OW15841   3.978   5.079   0.959
 4981SOL    HW115842   4.014   4.996   0.917
 4981SOL    HW215843   4.036   5.156   0.936
 4982SOL     OW15844   3.220   2.008   5.921
 4982SOL    HW115845   3.282   2.062   5.978
 4982SOL    HW215846   3.164   2.069   5.865
 4983SOL     OW15847   6.108   3.712   6.046
 4983SOL    HW115848   6.164   3.747   6.121
 4983SOL    HW215849   6.168   3.676   5.973
 4984SOL     OW15850   5.689   3.782   2.891
 4984SOL    HW115851   5.736   3.710   2.942
 4984SOL    HW215852   5.615   3.743   2.837
 4985SOL     OW15853   6.146   6.827   3.243
 4985SOL    HW115854   6.099   6.875   3.169
 4985SOL    HW215855   6.231   6.873   3.265
 4986SOL     OW15856   6.890   4.868   0.403
 4986SOL    HW115857   6.911   4.960   0.437
 4986SOL    HW215858   6.854   4.812   0.478
 4987SOL     OW15859   0.603   6.494   2.608
 4987SOL    HW115860   0.701   6.508   2.621
 4987SOL    HW215861   0.585   6.467   2.513
 4988SOL     OW15862   5.325   1.060   2.138
 4988SOL    HW115863   5.294   0.965   2.147
 4988SOL    HW215864   5.419   1.062   2.105
 4989SOL     OW15865   5.323   6.451   1.078
 4989SOL    HW115866   5.392   6.392   1.036
 4989SOL    HW215867   5.304   6.418   1.171
 4990SOL     OW15868   2.711   1.716   5.884
 4990SOL    HW115869   2.642   1.656   5.923
 4990SOL    HW215870   2.780   1.736   5.954
 4991SOL     OW15871   6.390   5.673   4.377
 4991SOL    HW115872   6.310   5.708   4.425
 4991SOL    HW215873   6.364   5.595   4.321
 4992SOL     OW15874   4.834   0.232   2.286
 4992SOL    HW115875   4.873   0.151   2.331
 4992SOL    HW215876   4.890   0.312   2.306
 4993SOL     OW15877   3.190   6.290   5.180
 4993SOL    HW115878   3.145   6.379   5.176
 4993SOL    HW215879   3.169   6.238   5.097
 4994SOL     OW15880   1.832   6.933   4.483
 4994SOL    HW115881   1.813   0.012   4.480
 4994SOL    HW215882   1.751   6.884   4.515
 4995SOL     OW15883   1.125   2.069   5.044
 4995SOL    HW115884   1.167   1.997   5.100
 4995SOL    HW215885   1.042   2.034   5.002
 4996SOL     OW15886   0.162   1.738   3.420
 4996SOL    HW115887   0.169   1.780   3.510
 4996SOL    HW215888   0.119   1.802   3.357
 4997SOL     OW15889   4.300   2.343   2.630
 4997SOL    HW115890   4.276   2.260   2.681
 4997SOL    HW215891   4.222   2.371   2.574
 4998SOL     OW15892   2.208   2.996   4.874
 4998SOL    HW115893   2.188   3.094   4.875
 4998SOL    HW215894   2.294   2.979   4.922
 4999SOL     OW15895   6.619   3.612   5.184
 4999SOL    HW115896   6.678   3.623   5.104
 4999SOL    HW215897   6.669   3.638   5.266
 5000SOL     OW15898   3.385   0.113   3.227
 5000SOL    HW115899   3.470   0.061   3.219
 5000SOL    HW215900   3.314   0.054   3.266
 5001SOL     OW15901   1.495   4.833   1.916
 5001SOL    HW115902   1.418   4.848   1.855
 5001SOL    HW215903   1.550   4.756   1.882
 5002SOL     OW15904   1.136   3.685   2.200
 5002SOL    HW115905   1.066   3.729   2.143
 5002SOL    HW215906   1.163   3.748   2.273
 5003SOL     OW15907   3.541   5.572   2.904
 5003SOL    HW115908   3.508   5.509   2.834
 5003SOL    HW215909   3.483   5.565   2.985
 5004SOL     OW15910   2.577   4.996   5.173
 5004SOL    HW115911   2.499   5.059   5.175
 5004SOL    HW215912   2.543   4.902   5.168
 5005SOL     OW15913   3.336   3.011   0.259
 5005SOL    HW115914   3.327   3.066   0.176
 5005SOL    HW215915   3.396   3.059   0.324
 5006SOL     OW15916   5.171   0.739   1.881
 5006SOL    HW115917   5.210   0.729   1.789
 5006SOL    HW215918   5.112   0.820   1.883
 5007SOL     OW15919   0.710   6.599   0.997
 5007SOL    HW115920   0.678   6.641   0.912
 5007SOL    HW215921   0.808   6.614   1.006
 5008SOL     OW15922   5.113   6.422   1.525
 5008SOL    HW115923   5.121   6.485   1.603
 5008SOL    HW215924   5.205   6.398   1.493
 5009SOL     OW15925   0.122   1.960   0.512
 5009SOL    HW115926   0.076   1.907   0.583
 5009SOL    HW215927   0.094   2.056   0.519
 5010SOL     OW15928   4.276   2.960   1.525
 5010SOL    HW115929   4.211   3.031   1.551
 5010SOL    HW215930   4.369   2.993   1.541
 5011SOL     OW15931   1.543   4.732   2.314
 5011SOL    HW115932   1.585   4.811   2.270
 5011SOL    HW215933   1.581   4.720   2.406
 5012SOL     OW15934   5.669   3.479   5.546
 5012SOL    HW115935   5.637   3.567   5.583
 5012SOL    HW215936   5.764   3.488   5.517
 5013SOL     OW15937   5.255   1.703   6.822
 5013SOL    HW115938   5.206   1.646   6.887
 5013SOL    HW215939   5.319   1.763   6.871
 5014SOL     OW15940   5.675   4.702   0.979
 5014SOL    HW115941   5.774   4.690   0.984
 5014SOL    HW215942   5.655   4.794   0.945
 5015SOL     OW15943   5.017   1.974   4.780
 5015SOL    HW115944   5.027   1.895   4.840
 5015SOL    HW215945   5.027   1.945   4.684
 5016SOL     OW15946   2.266   2.755   5.886
 5016SOL    HW115947   2.182   2.749   5.941
 5016SOL    HW215948   2.345   2.733   5.943
 5017SOL     OW15949   2.675   2.564   1.436
 5017SOL    HW115950   2.622   2.592   1.356
 5017SOL    HW215951   2.612   2.535   1.509
 5018SOL     OW15952   1.222   4.710   2.981
 5018SOL    HW115953   1.240   4.637   2.915
 5018SOL    HW215954   1.133   4.751   2.962
 5019SOL     OW15955   1.336   5.491   5.879
 5019SOL    HW115956   1.394   5.419   5.840
 5019SOL    HW215957   1.378   5.580   5.863
 5020SOL     OW15958   5.355   6.988   6.903
 5020SOL    HW115959   5.435   0.028   6.888
 5020SOL    HW215960   5.385   6.903   6.946
 5021SOL     OW15961   0.635   1.411   0.159
 5021SOL    HW115962   0.607   1.338   0.097
 5021SOL    HW215963   0.559   1.476   0.170
 5022SOL     OW15964   1.829   1.666   1.366
 5022SOL    HW115965   1.769   1.710   1.299
 5022SOL    HW215966   1.924   1.678   1.337
 5023SOL     OW15967   6.960   3.235   1.841
 5023SOL    HW115968   0.003   3.185   1.780
 5023SOL    HW215969   6.906   3.170   1.893
 5024SOL     OW15970   5.979   5.245   1.413
 5024SOL    HW115971   5.949   5.154   1.441
 5024SOL    HW215972   5.919   5.314   1.453
 5025SOL     OW15973   4.195   1.553   2.869
 5025SOL    HW115974   4.290   1.548   2.899
 5025SOL    HW215975   4.169   1.649   2.858
 5026SOL     OW15976   6.247   6.166   5.347
 5026SOL    HW115977   6.251   6.070   5.321
 5026SOL    HW215978   6.246   6.224   5.265
 5027SOL     OW15979   0.154   6.324   2.040
 5027SOL    HW115980   0.089   6.400   2.037
 5027SOL    HW215981   0.111   6.242   2.002
 5028SOL     OW15982   0.198   2.115   2.399
 5028SOL    HW115983   0.295   2.090   2.402
 5028SOL    HW215984   0.190   2.213   2.384
 5029SOL     OW15985   6.638   2.348   2.517
 5029SOL    HW115986   6.710   2.418   2.524
 5029SOL    HW215987   6.645   2.301   2.429
 5030SOL     OW15988   6.872   6.355   6.676
 5030SOL    HW115989   6.880   6.267   6.628
 5030SOL    HW215990   6.957   6.406   6.667
 5031SOL     OW15991   6.671   0.835   5.959
 5031SOL    HW115992   6.642   0.920   6.002
 5031SOL    HW215993   6.681   0.849   5.861
 5032SOL     OW15994   1.689   2.310   6.918
 5032SOL    HW115995   1.705   2.261   7.004
 5032SOL    HW215996   1.728   2.402   6.924
 5033SOL     OW15997   2.417   6.798   5.692
 5033SOL    HW115998   2.391   6.759   5.780
 5033SOL    HW215999   2.517   6.796   5.682
 5034SOL     OW16000   6.027   0.404   3.373
 5034SOL    HW116001   6.079   0.331   3.417
 5034SOL    HW216002   5.988   0.464   3.443
 5035SOL     OW16003   0.755   3.802   6.129
 5035SOL    HW116004   0.850   3.815   6.104
 5035SOL    HW216005   0.732   3.705   6.124
 5036SOL     OW16006   0.553   4.855   6.912
 5036SOL    HW116007   0.501   4.857   6.827
 5036SOL    HW216008   0.614   4.934   6.916
 5037SOL     OW16009   5.792   3.955   1.875
 5037SOL    HW116010   5.776   4.017   1.798
 5037SOL    HW216011   5.708   3.947   1.929
 5038SOL     OW16012   3.412   3.928   5.906
 5038SOL    HW116013   3.469   3.873   5.966
 5038SOL    HW216014   3.464   3.956   5.826
 5039SOL     OW16015   2.626   4.462   5.950
 5039SOL    HW116016   2.536   4.496   5.975
 5039SOL    HW216017   2.618   4.371   5.909
 5040SOL     OW16018   1.635   6.547   5.594
 5040SOL    HW116019   1.597   6.464   5.637
 5040SOL    HW216020   1.575   6.624   5.612
 5041SOL     OW16021   1.914   1.765   2.655
 5041SOL    HW116022   1.971   1.831   2.703
 5041SOL    HW216023   1.853   1.720   2.720
 5042SOL     OW16024   6.239   3.150   0.117
 5042SOL    HW116025   6.227   3.066   0.063
 5042SOL    HW216026   6.150   3.193   0.131
 5043SOL     OW16027   3.118   0.094   6.062
 5043SOL    HW116028   3.185   0.164   6.034
 5043SOL    HW216029   3.138   0.065   6.156
 5044SOL     OW16030   0.532   6.646   6.906
 5044SOL    HW116031   0.559   6.632   7.002
 5044SOL    HW216032   0.508   6.558   6.865
 5045SOL     OW16033   5.507   0.341   6.192
 5045SOL    HW116034   5.519   0.359   6.290
 5045SOL    HW216035   5.494   0.243   6.177
 5046SOL     OW16036   3.424   4.157   2.863
 5046SOL    HW116037   3.524   4.153   2.865
 5046SOL    HW216038   3.389   4.155   2.957
 5047SOL     OW16039   1.124   4.278   2.782
 5047SOL    HW116040   1.135   4.211   2.856
 5047SOL    HW216041   1.168   4.364   2.808
 5048SOL     OW16042   1.074   1.615   2.812
 5048SOL    HW116043   1.019   1.543   2.853
 5048SOL    HW216044   1.051   1.624   2.715
 5049SOL     OW16045   5.472   2.136   6.382
 5049SOL    HW116046   5.480   2.228   6.421
 5049SOL    HW216047   5.386   2.095   6.412
 5050SOL     OW16048   2.024   0.858   1.731
 5050SOL    HW116049   2.030   0.917   1.811
 5050SOL    HW216050   2.071   0.902   1.654
 5051SOL     OW16051   4.189   4.445   0.949
 5051SOL    HW116052   4.090   4.457   0.964
 5051SOL    HW216053   4.205   4.359   0.901
 5052SOL     OW16054   2.536   1.178   6.070
 5052SOL    HW116055   2.532   1.271   6.035
 5052SOL    HW216056   2.500   1.175   6.163
 5053SOL     OW16057   2.182   4.062   3.925
 5053SOL    HW116058   2.169   3.990   3.994
 5053SOL    HW216059   2.179   4.021   3.834
 5054SOL     OW16060   3.286   5.489   4.540
 5054SOL    HW116061   3.365   5.550   4.538
 5054SOL    HW216062   3.318   5.394   4.542
 5055SOL     OW16063   1.935   2.145   5.890
 5055SOL    HW116064   1.922   2.083   5.813
 5055SOL    HW216065   2.029   2.136   5.924
 5056SOL     OW16066   5.972   4.345   6.904
 5056SOL    HW116067   6.020   4.275   6.958
 5056SOL    HW216068   5.885   4.367   6.949
 5057SOL     OW16069   6.590   5.913   4.020
 5057SOL    HW116070   6.670   5.856   4.040
 5057SOL    HW216071   6.619   5.993   3.968
 5058SOL     OW16072   2.577   3.276   5.639
 5058SOL    HW116073   2.550   3.289   5.543
 5058SOL    HW216074   2.616   3.184   5.650
 5059SOL     OW16075   6.242   1.180   3.340
 5059SOL    HW116076   6.197   1.101   3.298
 5059SOL    HW216077   6.181   1.221   3.408
 5060SOL     OW16078   0.752   2.132   5.812
 5060SOL    HW116079   0.767   2.059   5.746
 5060SOL    HW216080   0.808   2.212   5.788
 5061SOL     OW16081   4.441   2.578   1.724
 5061SOL    HW116082   4.345   2.569   1.751
 5061SOL    HW216083   4.476   2.489   1.694
 5062SOL     OW16084   5.826   0.839   3.167
 5062SOL    HW116085   5.887   0.761   3.180
 5062SOL    HW216086   5.873   0.910   3.116
 5063SOL     OW16087   0.942   6.719   1.961
 5063SOL    HW116088   0.943   6.780   2.040
 5063SOL    HW216089   1.014   6.650   1.971
 5064SOL     OW16090   4.834   3.949   1.336
 5064SOL    HW116091   4.891   4.014   1.386
 5064SOL    HW216092   4.888   3.868   1.313
 5065SOL     OW16093   2.136   0.601   3.499
 5065SOL    HW116094   2.177   0.629   3.412
 5065SOL    HW216095   2.179   0.517   3.531
 5066SOL     OW16096   4.887   5.041   2.262
 5066SOL    HW116097   4.793   5.017   2.236
 5066SOL    HW216098   4.892   5.049   2.361
 5067SOL     OW16099   4.982   0.975   1.588
 5067SOL    HW116100   5.034   1.057   1.560
 5067SOL    HW216101   4.903   0.965   1.528
 5068SOL     OW16102   3.403   4.461   0.966
 5068SOL    HW116103   3.442   4.371   0.949
 5068SOL    HW216104   3.477   4.526   0.985
 5069SOL     OW16105   1.905   3.732   5.380
 5069SOL    HW116106   1.818   3.770   5.409
 5069SOL    HW216107   1.907   3.634   5.402
 5070SOL     OW16108   4.731   4.190   4.043
 5070SOL    HW116109   4.713   4.225   4.134
 5070SOL    HW216110   4.829   4.195   4.023
 5071SOL     OW16111   4.101   2.220   3.232
 5071SOL    HW116112   4.046   2.265   3.302
 5071SOL    HW216113   4.049   2.215   3.146
 5072SOL     OW16114   1.024   0.356   1.417
 5072SOL    HW116115   0.991   0.278   1.364
 5072SOL    HW216116   0.962   0.433   1.405
 5073SOL     OW16117   0.094   5.636   2.246
 5073SOL    HW116118   0.098   5.715   2.308
 5073SOL    HW216119   0.182   5.625   2.200
 5074SOL     OW16120   3.435   2.830   1.345
 5074SOL    HW116121   3.514   2.832   1.406
 5074SOL    HW216122   3.392   2.740   1.348
 5075SOL     OW16123   1.083   2.151   0.182
 5075SOL    HW116124   1.091   2.247   0.209
 5075SOL    HW216125   0.986   2.127   0.174
 5076SOL     OW16126   3.789   1.301   0.856
 5076SOL    HW116127   3.846   1.221   0.838
 5076SOL    HW216128   3.797   1.365   0.780
 5077SOL     OW16129   1.086   4.245   5.407
 5077SOL    HW116130   1.129   4.168   5.360
 5077SOL    HW216131   1.094   4.327   5.351
 5078SOL     OW16132   2.065   1.334   3.767
 5078SOL    HW116133   2.156   1.299   3.790
 5078SOL    HW216134   2.062   1.432   3.785
 5079SOL     OW16135   2.435   3.214   6.095
 5079SOL    HW116136   2.339   3.199   6.072
 5079SOL    HW216137   2.473   3.130   6.134
 5080SOL     OW16138   5.973   6.495   6.205
 5080SOL    HW116139   6.002   6.510   6.300
 5080SOL    HW216140   6.050   6.459   6.152
 5081SOL     OW16141   3.300   2.905   4.205
 5081SOL    HW116142   3.265   2.880   4.295
 5081SOL    HW216143   3.400   2.900   4.205
 5082SOL     OW16144   4.503   5.877   6.852
 5082SOL    HW116145   4.574   5.893   6.784
 5082SOL    HW216146   4.439   5.808   6.819
 5083SOL     OW16147   2.303   6.995   2.872
 5083SOL    HW116148   2.370   6.993   2.946
 5083SOL    HW216149   2.251   6.909   2.873
 5084SOL     OW16150   0.454   4.775   4.759
 5084SOL    HW116151   0.433   4.724   4.843
 5084SOL    HW216152   0.401   4.859   4.757
 5085SOL     OW16153   4.927   3.382   6.646
 5085SOL    HW116154   4.896   3.297   6.689
 5085SOL    HW216155   4.876   3.396   6.561
 5086SOL     OW16156   0.094   5.190   3.427
 5086SOL    HW116157   0.110   5.288   3.437
 5086SOL    HW216158   0.110   5.162   3.332
 5087SOL     OW16159   0.999   4.863   1.900
 5087SOL    HW116160   1.065   4.789   1.887
 5087SOL    HW216161   0.947   4.876   1.816
 5088SOL     OW16162   6.586   1.295   5.406
 5088SOL    HW116163   6.546   1.387   5.397
 5088SOL    HW216164   6.609   1.261   5.315
 5089SOL     OW16165   4.971   3.549   4.307
 5089SOL    HW116166   4.923   3.503   4.233
 5089SOL    HW216167   5.032   3.485   4.353
 5090SOL     OW16168   2.155   3.669   3.122
 5090SOL    HW116169   2.151   3.763   3.087
 5090SOL    HW216170   2.134   3.606   3.047
 5091SOL     OW16171   0.644   0.017   2.268
 5091SOL    HW116172   0.596   7.016   2.182
 5091SOL    HW216173   0.667   6.951   2.314
 5092SOL     OW16174   3.889   3.056   1.526
 5092SOL    HW116175   3.886   2.984   1.596
 5092SOL    HW216176   3.970   3.113   1.541
 5093SOL     OW16177   2.714   1.431   1.423
 5093SOL    HW116178   2.677   1.518   1.391
 5093SOL    HW216179   2.645   1.360   1.411
 5094SOL     OW16180   2.076   6.017   5.300
 5094SOL    HW116181   2.127   5.976   5.225
 5094SOL    HW216182   2.040   6.106   5.271
 5095SOL     OW16183   6.663   2.557   4.879
 5095SOL    HW116184   6.599   2.631   4.860
 5095SOL    HW216185   6.637   2.476   4.827
 5096SOL     OW16186   4.492   4.095   0.781
 5096SOL    HW116187   4.572   4.142   0.818
 5096SOL    HW216188   4.516   4.054   0.693
 5097SOL     OW16189   1.433   0.432   6.826
 5097SOL    HW116190   1.487   0.352   6.851
 5097SOL    HW216191   1.494   0.509   6.809
 5098SOL     OW16192   1.563   0.787   1.603
 5098SOL    HW116193   1.535   0.737   1.685
 5098SOL    HW216194   1.572   0.884   1.625
 5099SOL     OW16195   0.395   6.374   6.809
 5099SOL    HW116196   0.427   6.327   6.728
 5099SOL    HW216197   0.356   6.308   6.873
 5100SOL     OW16198   3.837   5.514   5.576
 5100SOL    HW116199   3.909   5.463   5.529
 5100SOL    HW216200   3.873   5.603   5.605
 5101SOL     OW16201   4.713   6.758   0.397
 5101SOL    HW116202   4.658   6.841   0.387
 5101SOL    HW216203   4.736   6.745   0.493
 5102SOL     OW16204   5.826   0.597   4.489
 5102SOL    HW116205   5.736   0.582   4.528
 5102SOL    HW216206   5.894   0.545   4.540
 5103SOL     OW16207   0.453   1.417   4.508
 5103SOL    HW116208   0.484   1.500   4.461
 5103SOL    HW216209   0.514   1.398   4.586
 5104SOL     OW16210   1.799   6.780   2.941
 5104SOL    HW116211   1.717   6.728   2.916
 5104SOL    HW216212   1.785   6.823   3.030
 5105SOL     OW16213   3.375   2.421   6.999
 5105SOL    HW116214   3.346   2.515   6.977
 5105SOL    HW216215   3.338   2.358   6.931
 5106SOL     OW16216   3.227   0.851   0.563
 5106SOL    HW116217   3.325   0.831   0.557
 5106SOL    HW216218   3.175   0.776   0.523
 5107SOL     OW16219   3.729   0.669   0.744
 5107SOL    HW116220   3.676   0.707   0.667
 5107SOL    HW216221   3.826   0.668   0.720
 5108SOL     OW16222   3.022   3.859   4.633
 5108SOL    HW116223   3.077   3.940   4.611
 5108SOL    HW216224   2.999   3.811   4.549
 5109SOL     OW16225   1.266   1.018   0.771
 5109SOL    HW116226   1.202   0.986   0.841
 5109SOL    HW216227   1.226   1.005   0.681
 5110SOL     OW16228   0.598   0.549   6.336
 5110SOL    HW116229   0.641   0.551   6.426
 5110SOL    HW216230   0.528   0.477   6.334
 5111SOL     OW16231   2.408   1.517   5.150
 5111SOL    HW116232   2.482   1.542   5.088
 5111SOL    HW216233   2.350   1.447   5.108
 5112SOL     OW16234   0.599   6.782   2.603
 5112SOL    HW116235   0.609   6.682   2.605
 5112SOL    HW216236   0.680   6.825   2.644
 5113SOL     OW16237   2.324   6.926   1.899
 5113SOL    HW116238   2.314   0.003   1.875
 5113SOL    HW216239   2.396   6.885   1.843
 5114SOL     OW16240   2.998   2.159   0.341
 5114SOL    HW116241   2.902   2.178   0.318
 5114SOL    HW216242   3.026   2.217   0.417
 5115SOL     OW16243   1.989   4.921   4.624
 5115SOL    HW116244   2.072   4.942   4.573
 5115SOL    HW216245   1.969   4.995   4.688
 5116SOL     OW16246   5.679   6.686   6.565
 5116SOL    HW116247   5.684   6.586   6.558
 5116SOL    HW216248   5.769   6.725   6.546
 5117SOL     OW16249   2.666   4.646   4.718
 5117SOL    HW116250   2.616   4.570   4.678
 5117SOL    HW216251   2.619   4.732   4.697
 5118SOL     OW16252   4.818   0.403   0.537
 5118SOL    HW116253   4.881   0.473   0.571
 5118SOL    HW216254   4.741   0.448   0.491
 5119SOL     OW16255   5.685   0.567   1.651
 5119SOL    HW116256   5.652   0.496   1.589
 5119SOL    HW216257   5.615   0.588   1.719
 5120SOL     OW16258   4.108   1.332   4.070
 5120SOL    HW116259   4.166   1.359   3.994
 5120SOL    HW216260   4.012   1.349   4.047
 5121SOL     OW16261   2.508   2.293   0.424
 5121SOL    HW116262   2.575   2.309   0.497
 5121SOL    HW216263   2.418   2.323   0.455
 5122SOL     OW16264   2.760   0.174   3.487
 5122SOL    HW116265   2.689   0.106   3.468
 5122SOL    HW216266   2.797   0.158   3.579
 5123SOL     OW16267   6.118   2.055   5.099
 5123SOL    HW116268   6.111   2.018   5.007
 5123SOL    HW216269   6.173   1.993   5.156
 5124SOL     OW16270   3.036   5.269   5.083
 5124SOL    HW116271   3.045   5.169   5.086
 5124SOL    HW216272   3.004   5.297   4.993
 5125SOL     OW16273   6.133   2.641   4.135
 5125SOL    HW116274   6.125   2.668   4.039
 5125SOL    HW216275   6.118   2.543   4.143
 5126SOL     OW16276   6.115   5.317   5.948
 5126SOL    HW116277   6.048   5.270   6.006
 5126SOL    HW216278   6.083   5.410   5.930
 5127SOL     OW16279   6.928   3.967   0.530
 5127SOL    HW116280   6.943   3.944   0.626
 5127SOL    HW216281   7.016   3.988   0.487
 5128SOL     OW16282   0.391   0.386   6.394
 5128SOL    HW116283   0.318   0.379   6.327
 5128SOL    HW216284   0.368   0.331   6.474
 5129SOL     OW16285   4.735   0.006   3.141
 5129SOL    HW116286   4.691   6.981   3.063
 5129SOL    HW216287   4.798   6.961   3.185
 5130SOL     OW16288   1.379   5.776   4.437
 5130SOL    HW116289   1.412   5.866   4.469
 5130SOL    HW216290   1.282   5.766   4.459
 5131SOL     OW16291   2.984   4.791   3.729
 5131SOL    HW116292   2.973   4.693   3.745
 5131SOL    HW216293   3.046   4.829   3.798
 5132SOL     OW16294   3.526   1.483   6.176
 5132SOL    HW116295   3.439   1.462   6.221
 5132SOL    HW216296   3.508   1.510   6.081
 5133SOL     OW16297   2.504   5.321   6.436
 5133SOL    HW116298   2.603   5.324   6.454
 5133SOL    HW216299   2.481   5.387   6.365
 5134SOL     OW16300   6.657   0.859   2.294
 5134SOL    HW116301   6.737   0.816   2.336
 5134SOL    HW216302   6.576   0.842   2.350
 5135SOL     OW16303   5.228   3.501   3.922
 5135SOL    HW116304   5.142   3.474   3.965
 5135SOL    HW216305   5.304   3.483   3.984
 5136SOL     OW16306   5.293   0.368   6.565
 5136SOL    HW116307   5.268   0.459   6.599
 5136SOL    HW216308   5.211   0.322   6.532
 5137SOL     OW16309   5.193   3.611   4.774
 5137SOL    HW116310   5.177   3.625   4.872
 5137SOL    HW216311   5.148   3.527   4.744
 5138SOL     OW16312   3.312   4.100   4.794
 5138SOL    HW116313   3.311   4.095   4.894
 5138SOL    HW216314   3.220   4.085   4.758
 5139SOL     OW16315   0.775   6.933   4.698
 5139SOL    HW116316   0.752   7.001   4.628
 5139SOL    HW216317   0.691   6.885   4.726
 5140SOL     OW16318   4.070   1.604   5.385
 5140SOL    HW116319   3.981   1.631   5.422
 5140SOL    HW216320   4.142   1.628   5.449
 5141SOL     OW16321   6.624   3.611   1.335
 5141SOL    HW116322   6.639   3.522   1.378
 5141SOL    HW216323   6.540   3.651   1.370
 5142SOL     OW16324   5.528   6.613   4.572
 5142SOL    HW116325   5.523   6.711   4.587
 5142SOL    HW216326   5.482   6.590   4.486
 5143SOL     OW16327   0.645   4.245   4.419
 5143SOL    HW116328   0.555   4.225   4.457
 5143SOL    HW216329   0.681   4.329   4.460
 5144SOL     OW16330   1.820   4.709   5.941
 5144SOL    HW116331   1.791   4.668   5.855
 5144SOL    HW216332   1.781   4.658   6.018
 5145SOL     OW16333   3.823   6.138   5.960
 5145SOL    HW116334   3.767   6.192   5.897
 5145SOL    HW216335   3.784   6.144   6.052
 5146SOL     OW16336   3.619   3.861   5.215
 5146SOL    HW116337   3.648   3.792   5.281
 5146SOL    HW216338   3.552   3.922   5.256
 5147SOL     OW16339   6.200   5.499   4.054
 5147SOL    HW116340   6.287   5.547   4.048
 5147SOL    HW216341   6.155   5.500   3.964
 5148SOL     OW16342   0.244   1.045   2.306
 5148SOL    HW116343   0.231   1.104   2.386
 5148SOL    HW216344   0.213   1.094   2.224
 5149SOL     OW16345   5.812   5.740   4.919
 5149SOL    HW116346   5.816   5.787   4.830
 5149SOL    HW216347   5.841   5.645   4.907
 5150SOL     OW16348   2.003   4.699   3.999
 5150SOL    HW116349   1.918   4.716   4.048
 5150SOL    HW216350   2.068   4.653   4.060
 5151SOL     OW16351   6.890   4.443   2.176
 5151SOL    HW116352   6.852   4.351   2.192
 5151SOL    HW216353   6.950   4.467   2.253
 5152SOL     OW16354   2.272   5.515   6.838
 5152SOL    HW116355   2.342   5.510   6.910
 5152SOL    HW216356   2.316   5.519   6.749
 5153SOL     OW16357   0.472   2.119   1.021
 5153SOL    HW116358   0.396   2.177   1.051
 5153SOL    HW216359   0.517   2.160   0.942
 5154SOL     OW16360   1.071   2.652   5.733
 5154SOL    HW116361   1.136   2.713   5.688
 5154SOL    HW216362   0.995   2.632   5.670
 5155SOL     OW16363   4.146   0.356   2.285
 5155SOL    HW116364   4.141   0.272   2.233
 5155SOL    HW216365   4.173   0.336   2.379
 5156SOL     OW16366   5.638   4.478   5.201
 5156SOL    HW116367   5.621   4.485   5.299
 5156SOL    HW216368   5.736   4.464   5.185
 5157SOL     OW16369   3.063   1.920   2.532
 5157SOL    HW116370   3.009   2.005   2.528
 5157SOL    HW216371   3.004   1.842   2.511
 5158SOL     OW16372   4.200   2.439   0.873
 5158SOL    HW116373   4.187   2.387   0.789
 5158SOL    HW216374   4.286   2.490   0.868
 5159SOL     OW16375   5.914   3.270   5.616
 5159SOL    HW116376   5.964   3.186   5.635
 5159SOL    HW216377   5.895   3.318   5.703
 5160SOL     OW16378   6.969   4.715   3.421
 5160SOL    HW116379   6.995   4.785   3.487
 5160SOL    HW216380   6.936   4.758   3.337
 5161SOL     OW16381   1.775   3.861   0.290
 5161SOL    HW116382   1.682   3.849   0.325
 5161SOL    HW216383   1.782   3.950   0.245
 5162SOL     OW16384   1.010   5.572   2.565
 5162SOL    HW116385   0.943   5.640   2.596
 5162SOL    HW216386   1.103   5.607   2.581
 5163SOL     OW16387   3.370   6.375   0.501
 5163SOL    HW116388   3.315   6.400   0.581
 5163SOL    HW216389   3.335   6.290   0.462
 5164SOL     OW16390   3.333   2.732   0.243
 5164SOL    HW116391   3.261   2.679   0.287
 5164SOL    HW216392   3.329   2.827   0.275
 5165SOL     OW16393   0.461   4.137   6.051
 5165SOL    HW116394   0.453   4.191   5.967
 5165SOL    HW216395   0.377   4.084   6.065
 5166SOL     OW16396   2.432   4.985   2.732
 5166SOL    HW116397   2.389   5.061   2.683
 5166SOL    HW216398   2.434   5.005   2.830
 5167SOL     OW16399   6.215   4.248   5.463
 5167SOL    HW116400   6.292   4.300   5.500
 5167SOL    HW216401   6.133   4.307   5.462
 5168SOL     OW16402   5.268   3.248   2.968
 5168SOL    HW116403   5.280   3.297   2.882
 5168SOL    HW216404   5.283   3.150   2.953
 5169SOL     OW16405   3.981   2.226   2.978
 5169SOL    HW116406   3.891   2.214   2.937
 5169SOL    HW216407   4.040   2.276   2.914
 5170SOL     OW16408   1.453   3.443   5.045
 5170SOL    HW116409   1.523   3.490   5.097
 5170SOL    HW216410   1.370   3.434   5.100
 5171SOL     OW16411   6.934   4.130   6.167
 5171SOL    HW116412   7.001   4.176   6.226
 5171SOL    HW216413   6.933   4.174   6.077
 5172SOL     OW16414   1.821   3.672   3.094
 5172SOL    HW116415   1.781   3.623   3.017
 5172SOL    HW216416   1.748   3.697   3.158
 5173SOL     OW16417   4.112   5.443   5.143
 5173SOL    HW116418   4.103   5.347   5.115
 5173SOL    HW216419   4.167   5.449   5.225
 5174SOL     OW16420   2.389   4.957   3.481
 5174SOL    HW116421   2.293   4.947   3.506
 5174SOL    HW216422   2.396   4.988   3.386
 5175SOL     OW16423   2.630   3.663   6.587
 5175SOL    HW116424   2.562   3.731   6.557
 5175SOL    HW216425   2.678   3.699   6.667
 5176SOL     OW16426   5.268   4.506   6.513
 5176SOL    HW116427   5.216   4.461   6.441
 5176SOL    HW216428   5.205   4.558   6.571
 5177SOL     OW16429   5.259   6.930   0.702
 5177SOL    HW116430   5.209   6.910   0.787
 5177SOL    HW216431   5.208   6.893   0.624
 5178SOL     OW16432   1.437   4.400   1.812
 5178SOL    HW116433   1.361   4.435   1.866
 5178SOL    HW216434   1.507   4.470   1.804
 5179SOL     OW16435   4.978   4.463   3.959
 5179SOL    HW116436   4.890   4.505   3.943
 5179SOL    HW216437   4.997   4.396   3.887
 5180SOL     OW16438   3.831   1.372   1.702
 5180SOL    HW116439   3.900   1.306   1.732
 5180SOL    HW216440   3.775   1.332   1.630
 5181SOL     OW16441   6.165   0.526   2.096
 5181SOL    HW116442   6.247   0.553   2.146
 5181SOL    HW216443   6.099   0.485   2.158
 5182SOL     OW16444   4.452   4.558   2.406
 5182SOL    HW116445   4.440   4.565   2.307
 5182SOL    HW216446   4.389   4.620   2.452
 5183SOL     OW16447   3.610   1.807   2.976
 5183SOL    HW116448   3.633   1.710   2.965
 5183SOL    HW216449   3.636   1.837   3.068
 5184SOL     OW16450   1.858   2.549   3.720
 5184SOL    HW116451   1.763   2.570   3.743
 5184SOL    HW216452   1.870   2.553   3.621
 5185SOL     OW16453   4.962   0.956   3.076
 5185SOL    HW116454   4.982   0.982   2.981
 5185SOL    HW216455   4.864   0.935   3.085
 5186SOL     OW16456   5.818   1.917   6.122
 5186SOL    HW116457   5.748   1.976   6.164
 5186SOL    HW216458   5.841   1.952   6.032
 5187SOL     OW16459   1.173   5.850   5.196
 5187SOL    HW116460   1.232   5.891   5.265
 5187SOL    HW216461   1.091   5.907   5.183
 5188SOL     OW16462   6.478   6.069   1.696
 5188SOL    HW116463   6.467   6.073   1.597
 5188SOL    HW216464   6.465   6.160   1.735
 5189SOL     OW16465   4.434   6.204   0.066
 5189SOL    HW116466   4.369   6.280   0.060
 5189SOL    HW216467   4.386   6.121   0.093
 5190SOL     OW16468   0.642   3.422   3.969
 5190SOL    HW116469   0.624   3.370   3.886
 5190SOL    HW216470   0.555   3.447   4.012
 5191SOL     OW16471   3.069   6.221   2.350
 5191SOL    HW116472   3.074   6.320   2.361
 5191SOL    HW216473   3.159   6.185   2.326
 5192SOL     OW16474   1.789   5.972   1.402
 5192SOL    HW116475   1.884   5.962   1.372
 5192SOL    HW216476   1.775   5.918   1.485
 5193SOL     OW16477   5.392   5.859   5.608
 5193SOL    HW116478   5.325   5.922   5.647
 5193SOL    HW216479   5.360   5.765   5.619
 5194SOL     OW16480   3.394   2.551   6.606
 5194SOL    HW116481   3.382   2.543   6.705
 5194SOL    HW216482   3.489   2.533   6.582
 5195SOL     OW16483   0.408   0.606   4.020
 5195SOL    HW116484   0.348   0.685   4.027
 5195SOL    HW216485   0.502   0.636   4.005
 5196SOL     OW16486   5.361   6.892   2.150
 5196SOL    HW116487   5.272   6.848   2.144
 5196SOL    HW216488   5.390   6.922   2.060
 5197SOL     OW16489   2.355   3.852   6.608
 5197SOL    HW116490   2.345   3.863   6.509
 5197SOL    HW216491   2.265   3.845   6.650
 5198SOL     OW16492   4.767   5.526   2.858
 5198SOL    HW116493   4.811   5.534   2.769
 5198SOL    HW216494   4.774   5.614   2.906
 5199SOL     OW16495   1.264   6.059   0.552
 5199SOL    HW116496   1.263   5.962   0.574
 5199SOL    HW216497   1.231   6.112   0.630
 5200SOL     OW16498   6.827   3.958   4.882
 5200SOL    HW116499   6.740   3.976   4.837
 5200SOL    HW216500   6.842   4.025   4.954
 5201SOL     OW16501   0.972   6.727   2.934
 5201SOL    HW116502   1.031   6.808   2.929
 5201SOL    HW216503   0.938   6.717   3.028
 5202SOL     OW16504   5.069   2.781   6.241
 5202SOL    HW116505   5.115   2.778   6.330
 5202SOL    HW216506   5.129   2.827   6.175
 5203SOL     OW16507   2.434   2.150   6.176
 5203SOL    HW116508   2.498   2.094   6.124
 5203SOL    HW216509   2.463   2.245   6.172
 5204SOL     OW16510   3.757   5.076   0.121
 5204SOL    HW116511   3.770   5.167   0.080
 5204SOL    HW216512   3.826   5.060   0.191
 5205SOL     OW16513   0.888   6.443   0.117
 5205SOL    HW116514   0.899   6.423   0.215
 5205SOL    HW216515   0.852   6.362   0.070
 5206SOL     OW16516   0.146   4.525   5.082
 5206SOL    HW116517   0.116   4.502   4.990
 5206SOL    HW216518   0.236   4.569   5.078
 5207SOL     OW16519   1.239   5.976   3.495
 5207SOL    HW116520   1.184   6.059   3.503
 5207SOL    HW216521   1.222   5.917   3.574
 5208SOL     OW16522   3.497   2.170   6.614
 5208SOL    HW116523   3.568   2.183   6.683
 5208SOL    HW216524   3.539   2.139   6.529
 5209SOL     OW16525   5.905   6.130   3.417
 5209SOL    HW116526   5.826   6.069   3.409
 5209SOL    HW216527   5.983   6.090   3.369
 5210SOL     OW16528   5.535   2.390   5.532
 5210SOL    HW116529   5.590   2.356   5.456
 5210SOL    HW216530   5.584   2.466   5.576
 5211SOL     OW16531   3.583   2.899   4.645
 5211SOL    HW116532   3.625   2.850   4.720
 5211SOL    HW216533   3.492   2.932   4.673
 5212SOL     OW16534   6.192   1.400   0.528
 5212SOL    HW116535   6.279   1.433   0.564
 5212SOL    HW216536   6.126   1.393   0.603
 5213SOL     OW16537   4.411   3.813   6.649
 5213SOL    HW116538   4.442   3.799   6.743
 5213SOL    HW216539   4.319   3.775   6.638
 5214SOL     OW16540   5.045   1.580   5.788
 5214SOL    HW116541   5.133   1.533   5.801
 5214SOL    HW216542   4.988   1.568   5.869
 5215SOL     OW16543   5.625   4.914   3.403
 5215SOL    HW116544   5.696   4.983   3.417
 5215SOL    HW216545   5.535   4.957   3.404
 5216SOL     OW16546   4.107   5.665   2.069
 5216SOL    HW116547   4.102   5.641   1.973
 5216SOL    HW216548   4.015   5.671   2.107
 5217SOL     OW16549   3.399   5.220   4.266
 5217SOL    HW116550   3.444   5.290   4.322
 5217SOL    HW216551   3.308   5.252   4.239
 5218SOL     OW16552   0.964   1.122   3.446
 5218SOL    HW116553   1.041   1.078   3.490
 5218SOL    HW216554   0.997   1.190   3.380
 5219SOL     OW16555   4.330   0.575   5.800
 5219SOL    HW116556   4.329   0.580   5.700
 5219SOL    HW216557   4.237   0.568   5.834
 5220SOL     OW16558   1.313   6.095   2.494
 5220SOL    HW116559   1.359   6.017   2.452
 5220SOL    HW216560   1.337   6.179   2.445
 5221SOL     OW16561   5.425   1.979   3.749
 5221SOL    HW116562   5.463   2.056   3.698
 5221SOL    HW216563   5.352   2.012   3.809
 5222SOL     OW16564   3.343   6.136   3.708
 5222SOL    HW116565   3.317   6.108   3.615
 5222SOL    HW216566   3.393   6.222   3.704
 5223SOL     OW16567   5.262   1.309   0.640
 5223SOL    HW116568   5.333   1.286   0.573
 5223SOL    HW216569   5.295   1.381   0.700
 5224SOL     OW16570   6.952   2.516   4.284
 5224SOL    HW116571   7.012   2.525   4.363
 5224SOL    HW216572   6.899   2.432   4.291
 5225SOL     OW16573   0.537   0.103   3.223
 5225SOL    HW116574   0.473   0.137   3.292
 5225SOL    HW216575   0.490   0.095   3.135
 5226SOL     OW16576   0.115   5.438   4.784
 5226SOL    HW116577   0.118   5.532   4.750
 5226SOL    HW216578   0.121   5.439   4.884
 5227SOL     OW16579   1.336   4.618   4.170
 5227SOL    HW116580   1.296   4.551   4.233
 5227SOL    HW216581   1.307   4.710   4.197
 5228SOL     OW16582   6.367   2.100   1.261
 5228SOL    HW116583   6.371   2.109   1.161
 5228SOL    HW216584   6.448   2.144   1.301
 5229SOL     OW16585   2.000   4.929   7.009
 5229SOL    HW116586   2.065   5.003   0.006
 5229SOL    HW216587   2.049   4.846   6.981
 5230SOL     OW16588   0.607   6.163   0.693
 5230SOL    HW116589   0.626   6.219   0.774
 5230SOL    HW216590   0.692   6.139   0.648
 5231SOL     OW16591   3.991   3.446   4.846
 5231SOL    HW116592   4.034   3.505   4.778
 5231SOL    HW216593   4.060   3.418   4.914
 5232SOL     OW16594   3.258   1.794   5.705
 5232SOL    HW116595   3.204   1.809   5.622
 5232SOL    HW216596   3.282   1.882   5.746
 5233SOL     OW16597   5.973   0.472   1.884
 5233SOL    HW116598   6.041   0.467   1.958
 5233SOL    HW216599   5.886   0.434   1.915
 5234SOL     OW16600   2.308   0.586   0.001
 5234SOL    HW116601   2.329   0.683   7.015
 5234SOL    HW216602   2.269   0.555   6.933
 5235SOL     OW16603   1.824   3.017   1.203
 5235SOL    HW116604   1.759   3.052   1.136
 5235SOL    HW216605   1.888   3.089   1.230
 5236SOL     OW16606   6.070   3.833   2.349
 5236SOL    HW116607   6.037   3.923   2.321
 5236SOL    HW216608   6.095   3.780   2.268
 5237SOL     OW16609   2.119   0.759   5.457
 5237SOL    HW116610   2.083   0.666   5.453
 5237SOL    HW216611   2.188   0.764   5.529
 5238SOL     OW16612   1.294   4.766   0.713
 5238SOL    HW116613   1.323   4.845   0.766
 5238SOL    HW216614   1.214   4.724   0.756
 5239SOL     OW16615   3.900   3.662   4.226
 5239SOL    HW116616   3.894   3.755   4.189
 5239SOL    HW216617   3.959   3.663   4.307
 5240SOL     OW16618   3.162   1.919   6.386
 5240SOL    HW116619   3.075   1.893   6.429
 5240SOL    HW216620   3.181   2.016   6.406
 5241SOL     OW16621   0.444   5.196   5.811
 5241SOL    HW116622   0.530   5.239   5.838
 5241SOL    HW216623   0.457   5.097   5.807
 5242SOL     OW16624   6.962   6.457   5.661
 5242SOL    HW116625   0.034   6.440   5.697
 5242SOL    HW216626   6.964   6.538   5.602
 5243SOL     OW16627   1.269   5.750   1.790
 5243SOL    HW116628   1.289   5.806   1.710
 5243SOL    HW216629   1.353   5.737   1.843
 5244SOL     OW16630   3.158   3.867   5.918
 5244SOL    HW116631   3.106   3.949   5.946
 5244SOL    HW216632   3.256   3.885   5.927
 5245SOL     OW16633   4.804   4.379   0.155
 5245SOL    HW116634   4.896   4.397   0.188
 5245SOL    HW216635   4.740   4.445   0.195
 5246SOL     OW16636   5.576   4.459   2.355
 5246SOL    HW116637   5.524   4.398   2.415
 5246SOL    HW216638   5.668   4.470   2.393
 5247SOL     OW16639   1.030   6.551   0.449
 5247SOL    HW116640   1.111   6.530   0.503
 5247SOL    HW216641   0.979   6.466   0.432
 5248SOL     OW16642   6.009   0.180   4.638
 5248SOL    HW116643   5.980   0.102   4.695
 5248SOL    HW216644   6.054   0.145   4.556
 5249SOL     OW16645   0.404   4.672   5.031
 5249SOL    HW116646   0.464   4.609   5.080
 5249SOL    HW216647   0.420   4.765   5.063
 5250SOL     OW16648   1.229   0.986   5.150
 5250SOL    HW116649   1.130   0.997   5.143
 5250SOL    HW216650   1.255   0.895   5.117
 5251SOL     OW16651   0.286   3.574   0.680
 5251SOL    HW116652   0.269   3.672   0.679
 5251SOL    HW216653   0.261   3.534   0.592
 5252SOL     OW16654   2.476   5.580   0.957
 5252SOL    HW116655   2.529   5.663   0.974
 5252SOL    HW216656   2.511   5.534   0.876
 5253SOL     OW16657   5.870   3.767   4.633
 5253SOL    HW116658   5.774   3.739   4.635
 5253SOL    HW216659   5.927   3.693   4.667
 5254SOL     OW16660   5.118   0.719   2.899
 5254SOL    HW116661   5.032   0.689   2.857
 5254SOL    HW216662   5.113   0.705   2.998
 5255SOL     OW16663   4.679   0.255   6.073
 5255SOL    HW116664   4.641   0.344   6.097
 5255SOL    HW216665   4.687   0.248   5.973
 5256SOL     OW16666   4.431   0.612   3.467
 5256SOL    HW116667   4.483   0.581   3.388
 5256SOL    HW216668   4.484   0.679   3.518
 5257SOL     OW16669   4.922   6.935   2.602
 5257SOL    HW116670   4.858   6.994   2.651
 5257SOL    HW216671   4.954   6.981   2.519
 5258SOL     OW16672   5.128   3.255   1.392
 5258SOL    HW116673   5.114   3.169   1.442
 5258SOL    HW216674   5.108   3.332   1.453
 5259SOL     OW16675   4.367   6.107   1.348
 5259SOL    HW116676   4.316   6.038   1.399
 5259SOL    HW216677   4.316   6.132   1.265
 5260SOL     OW16678   5.513   3.689   1.102
 5260SOL    HW116679   5.505   3.679   1.003
 5260SOL    HW216680   5.609   3.704   1.126
 5261SOL     OW16681   1.591   3.011   6.893
 5261SOL    HW116682   1.537   2.994   6.810
 5261SOL    HW216683   1.562   2.948   6.965
 5262SOL     OW16684   2.642   0.506   2.782
 5262SOL    HW116685   2.736   0.474   2.796
 5262SOL    HW216686   2.600   0.455   2.707
 5263SOL     OW16687   1.403   1.080   5.351
 5263SOL    HW116688   1.402   1.008   5.420
 5263SOL    HW216689   1.353   1.049   5.270
 5264SOL     OW16690   6.288   0.818   2.735
 5264SOL    HW116691   6.207   0.864   2.698
 5264SOL    HW216692   6.328   0.874   2.808
 5265SOL     OW16693   5.236   4.501   3.149
 5265SOL    HW116694   5.312   4.490   3.212
 5265SOL    HW216695   5.245   4.435   3.075
 5266SOL     OW16696   2.395   0.693   2.461
 5266SOL    HW116697   2.400   0.605   2.414
 5266SOL    HW216698   2.303   0.730   2.455
 5267SOL     OW16699   4.832   4.632   6.458
 5267SOL    HW116700   4.747   4.588   6.428
 5267SOL    HW216701   4.892   4.563   6.499
 5268SOL     OW16702   6.395   6.807   5.954
 5268SOL    HW116703   6.358   6.836   6.042
 5268SOL    HW216704   6.355   6.863   5.881
 5269SOL     OW16705   2.045   0.360   4.298
 5269SOL    HW116706   2.123   0.422   4.297
 5269SOL    HW216707   2.052   0.299   4.377
 5270SOL     OW16708   5.323   1.653   2.389
 5270SOL    HW116709   5.311   1.561   2.352
 5270SOL    HW216710   5.400   1.655   2.452
 5271SOL     OW16711   5.220   5.064   5.231
 5271SOL    HW116712   5.187   5.090   5.141
 5271SOL    HW216713   5.261   4.973   5.228
 5272SOL     OW16714   1.587   6.219   2.689
 5272SOL    HW116715   1.512   6.159   2.661
 5272SOL    HW216716   1.560   6.315   2.678
 5273SOL     OW16717   0.030   3.167   2.792
 5273SOL    HW116718   0.028   3.075   2.754
 5273SOL    HW216719   0.071   3.166   2.883
 5274SOL     OW16720   6.260   5.615   2.718
 5274SOL    HW116721   6.230   5.654   2.631
 5274SOL    HW216722   6.226   5.521   2.725
 5275SOL     OW16723   3.550   2.048   6.356
 5275SOL    HW116724   3.487   1.976   6.326
 5275SOL    HW216725   3.639   2.008   6.379
 5276SOL     OW16726   0.959   0.616   1.109
 5276SOL    HW116727   1.054   0.585   1.100
 5276SOL    HW216728   0.925   0.595   1.201
 5277SOL     OW16729   1.761   2.487   3.057
 5277SOL    HW116730   1.725   2.579   3.049
 5277SOL    HW216731   1.861   2.490   3.055
 5278SOL     OW16732   5.116   0.284   4.216
 5278SOL    HW116733   5.158   0.204   4.173
 5278SOL    HW216734   5.158   0.367   4.180
 5279SOL     OW16735   1.637   5.262   6.757
 5279SOL    HW116736   1.550   5.213   6.761
 5279SOL    HW216737   1.620   5.360   6.741
 5280SOL     OW16738   2.710   6.389   5.760
 5280SOL    HW116739   2.799   6.432   5.750
 5280SOL    HW216740   2.642   6.438   5.706
 5281SOL     OW16741   0.772   1.800   3.342
 5281SOL    HW116742   0.831   1.796   3.261
 5281SOL    HW216743   0.806   1.872   3.404
 5282SOL     OW16744   2.067   1.400   3.247
 5282SOL    HW116745   2.119   1.318   3.270
 5282SOL    HW216746   2.116   1.451   3.176
 5283SOL     OW16747   2.927   0.107   2.229
 5283SOL    HW116748   2.944   0.060   2.143
 5283SOL    HW216749   3.003   0.090   2.292
 5284SOL     OW16750   4.997   2.655   2.846
 5284SOL    HW116751   4.922   2.683   2.787
 5284SOL    HW216752   5.068   2.610   2.791
 5285SOL     OW16753   1.283   4.217   4.490
 5285SOL    HW116754   1.368   4.238   4.538
 5285SOL    HW216755   1.291   4.126   4.448
 5286SOL     OW16756   0.080   4.078   1.522
 5286SOL    HW116757   0.090   4.147   1.593
 5286SOL    HW216758   0.056   3.990   1.563
 5287SOL     OW16759   1.613   5.765   1.547
 5287SOL    HW116760   1.574   5.852   1.577
 5287SOL    HW216761   1.545   5.714   1.495
 5288SOL     OW16762   3.866   0.813   2.339
 5288SOL    HW116763   3.912   0.802   2.251
 5288SOL    HW216764   3.934   0.815   2.413
 5289SOL     OW16765   1.592   5.372   6.199
 5289SOL    HW116766   1.664   5.347   6.135
 5289SOL    HW216767   1.503   5.343   6.163
 5290SOL     OW16768   1.345   4.117   5.520
 5290SOL    HW116769   1.438   4.105   5.486
 5290SOL    HW216770   1.338   4.203   5.570
 5291SOL     OW16771   2.836   4.806   5.697
 5291SOL    HW116772   2.912   4.817   5.761
 5291SOL    HW216773   2.805   4.896   5.666
 5292SOL     OW16774   6.381   5.091   6.585
 5292SOL    HW116775   6.363   5.184   6.553
 5292SOL    HW216776   6.479   5.077   6.593
 5293SOL     OW16777   1.112   0.307   4.101
 5293SOL    HW116778   1.155   0.397   4.091
 5293SOL    HW216779   1.181   0.241   4.130
 5294SOL     OW16780   5.960   2.785   4.376
 5294SOL    HW116781   5.982   2.688   4.374
 5294SOL    HW216782   5.928   2.814   4.285
 5295SOL     OW16783   3.945   1.097   2.423
 5295SOL    HW116784   3.976   1.093   2.519
 5295SOL    HW216785   3.851   1.063   2.417
 5296SOL     OW16786   2.481   4.874   6.867
 5296SOL    HW116787   2.464   4.967   6.835
 5296SOL    HW216788   2.473   4.810   6.790
 5297SOL     OW16789   2.768   2.383   0.937
 5297SOL    HW116790   2.693   2.445   0.912
 5297SOL    HW216791   2.742   2.289   0.914
 5298SOL     OW16792   1.245   5.319   7.007
 5298SOL    HW116793   1.248   5.415   6.979
 5298SOL    HW216794   1.226   5.314   0.086
 5299SOL     OW16795   2.400   2.963   0.943
 5299SOL    HW116796   2.377   2.915   1.028
 5299SOL    HW216797   2.390   2.901   0.866
 5300SOL     OW16798   1.068   6.216   1.017
 5300SOL    HW116799   0.991   6.218   1.079
 5300SOL    HW216800   1.141   6.276   1.051
 5301SOL     OW16801   3.465   2.822   6.516
 5301SOL    HW116802   3.400   2.880   6.467
 5301SOL    HW216803   3.420   2.737   6.543
 5302SOL     OW16804   5.698   5.669   3.976
 5302SOL    HW116805   5.619   5.648   4.035
 5302SOL    HW216806   5.674   5.650   3.881
 5303SOL     OW16807   6.563   5.580   3.467
 5303SOL    HW116808   6.477   5.616   3.433
 5303SOL    HW216809   6.622   5.557   3.389
 5304SOL     OW16810   5.233   0.962   6.556
 5304SOL    HW116811   5.151   0.928   6.602
 5304SOL    HW216812   5.234   0.930   6.461
 5305SOL     OW16813   0.930   5.500   2.832
 5305SOL    HW116814   0.835   5.532   2.822
 5305SOL    HW216815   0.967   5.478   2.742
 5306SOL     OW16816   0.721   4.149   4.783
 5306SOL    HW116817   0.673   4.227   4.744
 5306SOL    HW216818   0.740   4.082   4.711
 5307SOL     OW16819   4.421   0.976   0.231
 5307SOL    HW116820   4.493   0.922   0.186
 5307SOL    HW216821   4.335   0.963   0.182
 5308SOL     OW16822   0.806   5.511   3.676
 5308SOL    HW116823   0.858   5.446   3.733
 5308SOL    HW216824   0.710   5.507   3.702
 5309SOL     OW16825   3.794   4.800   1.437
 5309SOL    HW116826   3.875   4.757   1.478
 5309SOL    HW216827   3.782   4.891   1.476
 5310SOL     OW16828   6.168   3.524   2.303
 5310SOL    HW116829   6.207   3.613   2.279
 5310SOL    HW216830   6.134   3.479   2.221
 5311SOL     OW16831   6.182   5.435   0.128
 5311SOL    HW116832   6.267   5.474   0.091
 5311SOL    HW216833   6.169   5.468   0.222
 5312SOL     OW16834   0.520   5.352   1.953
 5312SOL    HW116835   0.477   5.266   1.924
 5312SOL    HW216836   0.605   5.332   2.002
 5313SOL     OW16837   1.577   3.721   6.353
 5313SOL    HW116838   1.477   3.723   6.343
 5313SOL    HW216839   1.601   3.726   6.450
 5314SOL     OW16840   3.225   6.508   0.156
 5314SOL    HW116841   3.295   6.451   0.198
 5314SOL    HW216842   3.136   6.463   0.163
 5315SOL     OW16843   4.840   3.118   1.622
 5315SOL    HW116844   4.805   3.082   1.709
 5315SOL    HW216845   4.922   3.067   1.595
 5316SOL     OW16846   0.591   3.933   4.891
 5316SOL    HW116847   0.647   3.864   4.844
 5316SOL    HW216848   0.625   4.024   4.868
 5317SOL     OW16849   6.862   6.846   5.175
 5317SOL    HW116850   6.915   6.791   5.240
 5317SOL    HW216851   6.853   6.795   5.089
 5318SOL     OW16852   0.127   2.407   6.496
 5318SOL    HW116853   0.134   2.431   6.399
 5318SOL    HW216854   0.167   2.316   6.511
 5319SOL     OW16855   3.905   6.842   6.927
 5319SOL    HW116856   3.805   6.846   6.928
 5319SOL    HW216857   3.942   6.926   6.886
 5320SOL     OW16858   5.824   4.854   0.339
 5320SOL    HW116859   5.924   4.855   0.338
 5320SOL    HW216860   5.791   4.784   0.276
 5321SOL     OW16861   0.804   4.120   3.603
 5321SOL    HW116862   0.877   4.148   3.665
 5321SOL    HW216863   0.724   4.177   3.617
 5322SOL     OW16864   4.240   6.232   6.674
 5322SOL    HW116865   4.142   6.221   6.661
 5322SOL    HW216866   4.261   6.328   6.694
 5323SOL     OW16867   3.695   2.215   6.773
 5323SOL    HW116868   3.677   2.292   6.835
 5323SOL    HW216869   3.762   2.243   6.704
 5324SOL     OW16870   4.265   1.867   0.690
 5324SOL    HW116871   4.266   1.809   0.770
 5324SOL    HW216872   4.200   1.942   0.703
 5325SOL     OW16873   4.800   0.622   4.803
 5325SOL    HW116874   4.878   0.671   4.764
 5325SOL    HW216875   4.779   0.659   4.894
 5326SOL     OW16876   0.401   5.309   4.011
 5326SOL    HW116877   0.384   5.211   4.016
 5326SOL    HW216878   0.410   5.337   3.916
 5327SOL     OW16879   5.492   3.205   4.732
 5327SOL    HW116880   5.466   3.290   4.684
 5327SOL    HW216881   5.495   3.223   4.830
 5328SOL     OW16882   4.637   2.593   5.496
 5328SOL    HW116883   4.616   2.635   5.408
 5328SOL    HW216884   4.570   2.624   5.564
 5329SOL     OW16885   6.693   4.689   6.580
 5329SOL    HW116886   6.677   4.710   6.484
 5329SOL    HW216887   6.788   4.661   6.593
 5330SOL     OW16888   3.531   3.993   5.656
 5330SOL    HW116889   3.506   3.904   5.618
 5330SOL    HW216890   3.481   4.065   5.608
 5331SOL     OW16891   5.172   1.031   0.654
 5331SOL    HW116892   5.150   0.991   0.743
 5331SOL    HW216893   5.194   1.128   0.665
 5332SOL     OW16894   0.299   4.159   1.389
 5332SOL    HW116895   0.350   4.224   1.445
 5332SOL    HW216896   0.219   4.128   1.440
 5333SOL     OW16897   1.053   1.264   3.240
 5333SOL    HW116898   1.046   1.352   3.287
 5333SOL    HW216899   1.149   1.247   3.214
 5334SOL     OW16900   3.782   6.855   4.199
 5334SOL    HW116901   3.829   6.862   4.111
 5334SOL    HW216902   3.698   6.909   4.196
 5335SOL     OW16903   6.074   5.528   2.381
 5335SOL    HW116904   6.087   5.450   2.442
 5335SOL    HW216905   5.976   5.548   2.373
 5336SOL     OW16906   2.588   1.868   3.232
 5336SOL    HW116907   2.660   1.897   3.296
 5336SOL    HW216908   2.504   1.919   3.251
 5337SOL     OW16909   5.524   4.205   2.103
 5337SOL    HW116910   5.516   4.133   2.034
 5337SOL    HW216911   5.602   4.185   2.163
 5338SOL     OW16912   6.026   0.804   5.571
 5338SOL    HW116913   6.057   0.770   5.660
 5338SOL    HW216914   5.983   0.729   5.520
 5339SOL     OW16915   6.541   2.105   3.950
 5339SOL    HW116916   6.587   2.064   3.872
 5339SOL    HW216917   6.596   2.180   3.986
 5340SOL     OW16918   5.402   2.397   0.835
 5340SOL    HW116919   5.346   2.446   0.902
 5340SOL    HW216920   5.453   2.325   0.881
 5341SOL     OW16921   3.617   4.249   6.315
 5341SOL    HW116922   3.576   4.269   6.226
 5341SOL    HW216923   3.672   4.166   6.308
 5342SOL     OW16924   4.163   6.942   3.838
 5342SOL    HW116925   4.145   0.022   3.836
 5342SOL    HW216926   4.247   6.924   3.889
 5343SOL     OW16927   3.618   3.183   4.422
 5343SOL    HW116928   3.651   3.152   4.512
 5343SOL    HW216929   3.532   3.233   4.434
 5344SOL     OW16930   1.833   2.342   1.602
 5344SOL    HW116931   1.914   2.333   1.543
 5344SOL    HW216932   1.861   2.341   1.698
 5345SOL     OW16933   3.215   6.583   0.617
 5345SOL    HW116934   3.253   6.648   0.682
 5345SOL    HW216935   3.188   6.631   0.533
 5346SOL     OW16936   3.410   6.004   4.516
 5346SOL    HW116937   3.396   6.057   4.600
 5346SOL    HW216938   3.460   5.921   4.537
 5347SOL     OW16939   0.007   2.932   1.849
 5347SOL    HW116940   6.961   2.978   1.909
 5347SOL    HW216941   6.986   2.846   1.815
 5348SOL     OW16942   6.614   1.779   1.092
 5348SOL    HW116943   6.640   1.826   1.176
 5348SOL    HW216944   6.561   1.841   1.034
 5349SOL     OW16945   2.135   2.858   0.690
 5349SOL    HW116946   2.225   2.818   0.707
 5349SOL    HW216947   2.146   2.955   0.667
 5350SOL     OW16948   1.480   6.749   5.297
 5350SOL    HW116949   1.401   6.687   5.300
 5350SOL    HW216950   1.531   6.733   5.212
 5351SOL     OW16951   6.691   5.229   2.251
 5351SOL    HW116952   6.767   5.294   2.256
 5351SOL    HW216953   6.714   5.157   2.185
 5352SOL     OW16954   2.134   5.301   3.384
 5352SOL    HW116955   2.170   5.260   3.300
 5352SOL    HW216956   2.046   5.260   3.407
 5353SOL     OW16957   3.729   4.984   4.284
 5353SOL    HW116958   3.653   4.973   4.348
 5353SOL    HW216959   3.694   4.978   4.190
 5354SOL     OW16960   2.241   4.976   1.825
 5354SOL    HW116961   2.289   4.899   1.866
 5354SOL    HW216962   2.271   5.061   1.868
 5355SOL     OW16963   6.671   4.137   4.425
 5355SOL    HW116964   6.687   4.153   4.522
 5355SOL    HW216965   6.573   4.132   4.408
 5356SOL     OW16966   5.839   4.438   2.475
 5356SOL    HW116967   5.893   4.475   2.550
 5356SOL    HW216968   5.882   4.461   2.388
 5357SOL     OW16969   3.313   6.090   0.192
 5357SOL    HW116970   3.385   6.043   0.244
 5357SOL    HW216971   3.243   6.023   0.166
 5358SOL     OW16972   4.793   1.082   6.850
 5358SOL    HW116973   4.717   1.026   6.817
 5358SOL    HW216974   4.843   1.032   6.921
 5359SOL     OW16975   1.465   1.223   5.708
 5359SOL    HW116976   1.553   1.200   5.748
 5359SOL    HW216977   1.479   1.265   5.618
 5360SOL     OW16978   3.908   6.325   4.195
 5360SOL    HW116979   3.947   6.233   4.185
 5360SOL    HW216980   3.904   6.350   4.292
 5361SOL     OW16981   2.605   1.143   5.201
 5361SOL    HW116982   2.612   1.218   5.268
 5361SOL    HW216983   2.582   1.058   5.248
 5362SOL     OW16984   6.623   6.121   3.079
 5362SOL    HW116985   6.571   6.200   3.047
 5362SOL    HW216986   6.704   6.108   3.022
 5363SOL     OW16987   0.267   0.186   5.675
 5363SOL    HW116988   0.189   0.236   5.711
 5363SOL    HW216989   0.300   0.122   5.745
 5364SOL     OW16990   6.859   6.589   2.641
 5364SOL    HW116991   6.822   6.656   2.577
 5364SOL    HW216992   6.884   6.506   2.591
 5365SOL     OW16993   3.764   2.756   0.663
 5365SOL    HW116994   3.817   2.841   0.660
 5365SOL    HW216995   3.823   2.679   0.640
 5366SOL     OW16996   5.828   5.932   1.541
 5366SOL    HW116997   5.834   6.020   1.588
 5366SOL    HW216998   5.871   5.939   1.451
 5367SOL     OW16999   0.613   6.756   0.803
 5367SOL    HW117000   0.698   6.797   0.770
 5367SOL    HW217001   0.585   6.683   0.742
 5368SOL     OW17002   5.921   0.290   2.787
 5368SOL    HW117003   5.971   0.351   2.849
 5368SOL    HW217004   5.934   0.195   2.816
 5369SOL     OW17005   2.705   6.609   1.210
 5369SOL    HW117006   2.686   6.645   1.301
 5369SOL    HW217007   2.650   6.658   1.142
 5370SOL     OW17008   4.773   2.237   1.649
 5370SOL    HW117009   4.790   2.196   1.738
 5370SOL    HW217010   4.823   2.187   1.578
 5371SOL     OW17011   0.374   3.650   5.010
 5371SOL    HW117012   0.446   3.613   4.951
 5371SOL    HW217013   0.407   3.733   5.055
 5372SOL     OW17014   1.887   6.164   3.292
 5372SOL    HW117015   1.832   6.083   3.311
 5372SOL    HW217016   1.958   6.140   3.226
 5373SOL     OW17017   3.429   6.758   4.415
 5373SOL    HW117018   3.501   6.711   4.363
 5373SOL    HW217019   3.438   6.735   4.512
 5374SOL     OW17020   2.135   4.260   0.484
 5374SOL    HW117021   2.035   4.262   0.490
 5374SOL    HW217022   2.170   4.177   0.529
 5375SOL     OW17023   0.707   5.435   4.420
 5375SOL    HW117024   0.674   5.488   4.341
 5375SOL    HW217025   0.673   5.476   4.504
 5376SOL     OW17026   1.851   2.749   1.108
 5376SOL    HW117027   1.854   2.699   1.194
 5376SOL    HW217028   1.878   2.844   1.123
 5377SOL     OW17029   0.058   6.882   2.405
 5377SOL    HW117030   0.130   6.916   2.344
 5377SOL    HW217031   6.987   6.905   2.367
 5378SOL     OW17032   0.055   0.442   2.405
 5378SOL    HW117033   0.008   0.476   2.323
 5378SOL    HW217034   0.039   0.344   2.414
 5379SOL     OW17035   1.162   4.657   5.021
 5379SOL    HW117036   1.102   4.614   4.953
 5379SOL    HW217037   1.106   4.704   5.090
 5380SOL     OW17038   2.831   1.328   2.415
 5380SOL    HW117039   2.906   1.294   2.359
 5380SOL    HW217040   2.757   1.261   2.415
 5381SOL     OW17041   6.388   4.815   2.043
 5381SOL    HW117042   6.371   4.720   2.069
 5381SOL    HW217043   6.316   4.847   1.982
 5382SOL     OW17044   2.690   1.238   1.798
 5382SOL    HW117045   2.692   1.337   1.783
 5382SOL    HW217046   2.773   1.197   1.759
 5383SOL     OW17047   2.048   2.160   5.341
 5383SOL    HW117048   2.119   2.210   5.391
 5383SOL    HW217049   2.031   2.206   5.254
 5384SOL     OW17050   6.043   6.750   5.506
 5384SOL    HW117051   6.132   6.794   5.503
 5384SOL    HW217052   5.971   6.820   5.509
 5385SOL     OW17053   3.333   3.273   3.939
 5385SOL    HW117054   3.353   3.339   4.010
 5385SOL    HW217055   3.319   3.183   3.980
 5386SOL     OW17056   5.380   1.283   4.311
 5386SOL    HW117057   5.292   1.330   4.305
 5386SOL    HW217058   5.453   1.350   4.328
 5387SOL     OW17059   2.247   0.367   3.608
 5387SOL    HW117060   2.294   0.313   3.678
 5387SOL    HW217061   2.188   0.308   3.554
 5388SOL     OW17062   0.235   1.764   3.914
 5388SOL    HW117063   0.158   1.773   3.851
 5388SOL    HW217064   0.221   1.685   3.974
 5389SOL     OW17065   3.978   1.564   3.481
 5389SOL    HW117066   4.032   1.634   3.436
 5389SOL    HW217067   3.951   1.494   3.415
 5390SOL     OW17068   4.825   3.937   3.381
 5390SOL    HW117069   4.828   3.982   3.292
 5390SOL    HW217070   4.871   3.848   3.374
 5391SOL     OW17071   2.174   1.648   0.850
 5391SOL    HW117072   2.087   1.659   0.898
 5391SOL    HW217073   2.222   1.735   0.847
 5392SOL     OW17074   5.315   3.518   1.223
 5392SOL    HW117075   5.258   3.454   1.171
 5392SOL    HW217076   5.370   3.572   1.160
 5393SOL     OW17077   4.743   6.860   5.621
 5393SOL    HW117078   4.828   6.823   5.582
 5393SOL    HW217079   4.665   6.813   5.581
 5394SOL     OW17080   0.166   5.178   0.619
 5394SOL    HW117081   0.114   5.258   0.648
 5394SOL    HW217082   0.199   5.129   0.699
 5395SOL     OW17083   4.271   0.929   1.211
 5395SOL    HW117084   4.187   0.977   1.240
 5395SOL    HW217085   4.340   0.996   1.184
 5396SOL     OW17086   5.452   4.267   1.692
 5396SOL    HW117087   5.363   4.284   1.735
 5396SOL    HW217088   5.497   4.354   1.675
 5397SOL     OW17089   0.665   3.204   1.386
 5397SOL    HW117090   0.575   3.200   1.430
 5397SOL    HW217091   0.664   3.147   1.304
 5398SOL     OW17092   3.159   2.133   3.726
 5398SOL    HW117093   3.199   2.065   3.664
 5398SOL    HW217094   3.066   2.154   3.696
 5399SOL     OW17095   2.746   6.351   1.159
 5399SOL    HW117096   2.714   6.438   1.197
 5399SOL    HW217097   2.827   6.321   1.208
 5400SOL     OW17098   3.423   3.625   6.886
 5400SOL    HW117099   3.382   3.641   6.796
 5400SOL    HW217100   3.386   3.691   6.951
 5401SOL     OW17101   6.028   3.830   1.838
 5401SOL    HW117102   5.940   3.866   1.868
 5401SOL    HW217103   6.099   3.900   1.850
 5402SOL     OW17104   2.498   5.630   1.794
 5402SOL    HW117105   2.596   5.613   1.808
 5402SOL    HW217106   2.453   5.544   1.772
 5403SOL     OW17107   5.673   2.607   5.656
 5403SOL    HW117108   5.659   2.598   5.755
 5403SOL    HW217109   5.771   2.608   5.637
 5404SOL     OW17110   0.974   0.048   2.524
 5404SOL    HW117111   0.902   0.113   2.499
 5404SOL    HW217112   0.978   0.040   2.624
 5405SOL     OW17113   5.869   6.194   0.192
 5405SOL    HW117114   5.776   6.222   0.218
 5405SOL    HW217115   5.933   6.220   0.264
 5406SOL     OW17116   2.143   0.254   5.658
 5406SOL    HW117117   2.171   0.320   5.589
 5406SOL    HW217118   2.211   0.181   5.664
 5407SOL     OW17119   3.911   1.722   1.876
 5407SOL    HW117120   3.983   1.700   1.942
 5407SOL    HW217121   3.941   1.800   1.820
 5408SOL     OW17122   3.590   0.947   5.011
 5408SOL    HW117123   3.557   0.971   4.920
 5408SOL    HW217124   3.512   0.929   5.071
 5409SOL     OW17125   7.005   1.898   3.246
 5409SOL    HW117126   6.938   1.824   3.253
 5409SOL    HW217127   6.981   1.971   3.310
 5410SOL     OW17128   1.264   2.688   6.837
 5410SOL    HW117129   1.240   2.783   6.815
 5410SOL    HW217130   1.364   2.677   6.834
 5411SOL     OW17131   6.040   4.665   5.460
 5411SOL    HW117132   6.023   4.670   5.361
 5411SOL    HW217133   6.090   4.747   5.489
 5412SOL     OW17134   3.909   1.290   6.772
 5412SOL    HW117135   3.963   1.283   6.688
 5412SOL    HW217136   3.892   1.387   6.792
 5413SOL     OW17137   0.667   0.119   1.471
 5413SOL    HW117138   0.668   0.110   1.371
 5413SOL    HW217139   0.693   0.032   1.512
 5414SOL     OW17140   6.410   3.246   5.345
 5414SOL    HW117141   6.494   3.298   5.363
 5414SOL    HW217142   6.380   3.263   5.251
 5415SOL     OW17143   0.955   5.974   1.697
 5415SOL    HW117144   0.861   6.002   1.679
 5415SOL    HW217145   1.013   6.056   1.703
 5416SOL     OW17146   3.296   4.802   6.332
 5416SOL    HW117147   3.382   4.754   6.322
 5416SOL    HW217148   3.270   4.842   6.244
 5417SOL     OW17149   4.434   6.646   4.276
 5417SOL    HW117150   4.449   6.743   4.298
 5417SOL    HW217151   4.384   6.639   4.190
 5418SOL     OW17152   5.251   0.702   4.471
 5418SOL    HW117153   5.329   0.719   4.411
 5418SOL    HW217154   5.233   0.783   4.527
 5419SOL     OW17155   3.245   5.272   0.560
 5419SOL    HW117156   3.253   5.261   0.659
 5419SOL    HW217157   3.157   5.313   0.538
 5420SOL     OW17158   1.887   2.984   1.781
 5420SOL    HW117159   1.867   3.033   1.696
 5420SOL    HW217160   1.891   2.886   1.762
 5421SOL     OW17161   2.459   4.519   3.211
 5421SOL    HW117162   2.499   4.594   3.264
 5421SOL    HW217163   2.485   4.529   3.115
 5422SOL     OW17164   1.257   5.978   5.450
 5422SOL    HW117165   1.188   6.042   5.485
 5422SOL    HW217166   1.283   5.914   5.522
 5423SOL     OW17167   5.792   3.532   6.671
 5423SOL    HW117168   5.787   3.484   6.759
 5423SOL    HW217169   5.808   3.629   6.687
 5424SOL     OW17170   6.029   3.698   4.210
 5424SOL    HW117171   5.969   3.775   4.187
 5424SOL    HW217172   5.977   3.612   4.200
 5425SOL     OW17173   5.074   1.758   4.249
 5425SOL    HW117174   4.977   1.783   4.252
 5425SOL    HW217175   5.129   1.839   4.234
 5426SOL     OW17176   6.166   4.862   3.772
 5426SOL    HW117177   6.250   4.821   3.735
 5426SOL    HW217178   6.179   4.960   3.782
 5427SOL     OW17179   5.098   4.827   0.804
 5427SOL    HW117180   5.068   4.743   0.761
 5427SOL    HW217181   5.087   4.820   0.903
 5428SOL     OW17182   6.404   6.713   2.265
 5428SOL    HW117183   6.466   6.636   2.278
 5428SOL    HW217184   6.418   6.751   2.173
 5429SOL     OW17185   1.539   0.861   4.999
 5429SOL    HW117186   1.471   0.829   5.065
 5429SOL    HW217187   1.613   0.908   5.047
 5430SOL     OW17188   2.517   2.515   5.975
 5430SOL    HW117189   2.506   2.469   6.063
 5430SOL    HW217190   2.510   2.614   5.988
 5431SOL     OW17191   3.320   4.825   6.590
 5431SOL    HW117192   3.311   4.811   6.491
 5431SOL    HW217193   3.336   4.922   6.609
 5432SOL     OW17194   3.750   6.051   5.627
 5432SOL    HW117195   3.707   6.141   5.630
 5432SOL    HW217196   3.760   6.016   5.720
 5433SOL     OW17197   0.419   1.440   2.611
 5433SOL    HW117198   0.481   1.487   2.548
 5433SOL    HW217199   0.377   1.362   2.564
 5434SOL     OW17200   4.559   1.375   4.837
 5434SOL    HW117201   4.481   1.320   4.808
 5434SOL    HW217202   4.534   1.472   4.836
 5435SOL     OW17203   6.092   2.072   1.209
 5435SOL    HW117204   6.050   2.046   1.296
 5435SOL    HW217205   6.187   2.096   1.224
 5436SOL     OW17206   5.596   4.188   4.624
 5436SOL    HW117207   5.546   4.114   4.579
 5436SOL    HW217208   5.660   4.229   4.558
 5437SOL     OW17209   2.531   5.045   5.586
 5437SOL    HW117210   2.519   4.946   5.586
 5437SOL    HW217211   2.554   5.076   5.678
 5438SOL     OW17212   6.169   3.815   2.624
 5438SOL    HW117213   6.140   3.827   2.529
 5438SOL    HW217214   6.090   3.786   2.678
 5439SOL     OW17215   6.822   2.296   0.239
 5439SOL    HW117216   6.741   2.355   0.234
 5439SOL    HW217217   6.824   2.235   0.159
 5440SOL     OW17218   6.708   0.218   3.163
 5440SOL    HW117219   6.657   0.138   3.196
 5440SOL    HW217220   6.671   0.247   3.075
 5441SOL     OW17221   4.743   2.695   3.672
 5441SOL    HW117222   4.838   2.673   3.650
 5441SOL    HW217223   4.682   2.643   3.612
 5442SOL     OW17224   3.353   6.636   3.555
 5442SOL    HW117225   3.330   6.551   3.508
 5442SOL    HW217226   3.271   6.674   3.597
 5443SOL     OW17227   3.299   5.587   4.256
 5443SOL    HW117228   3.208   5.572   4.294
 5443SOL    HW217229   3.366   5.592   4.330
 5444SOL     OW17230   0.129   1.061   3.090
 5444SOL    HW117231   0.120   1.125   3.166
 5444SOL    HW217232   0.190   0.986   3.116
 5445SOL     OW17233   6.497   4.178   3.999
 5445SOL    HW117234   6.563   4.148   4.067
 5445SOL    HW217235   6.462   4.099   3.949
 5446SOL     OW17236   5.898   5.187   4.804
 5446SOL    HW117237   5.943   5.198   4.892
 5446SOL    HW217238   5.868   5.276   4.771
 5447SOL     OW17239   1.619   1.939   0.956
 5447SOL    HW117240   1.717   1.958   0.960
 5447SOL    HW217241   1.600   1.877   0.881
 5448SOL     OW17242   6.204   4.260   4.452
 5448SOL    HW117243   6.187   4.359   4.448
 5448SOL    HW217244   6.241   4.229   4.365
 5449SOL     OW17245   1.737   1.227   0.904
 5449SOL    HW117246   1.734   1.221   1.004
 5449SOL    HW217247   1.643   1.235   0.869
 5450SOL     OW17248   2.946   6.918   0.857
 5450SOL    HW117249   3.009   6.951   0.787
 5450SOL    HW217250   2.883   6.852   0.816
 5451SOL     OW17251   2.263   5.659   3.730
 5451SOL    HW117252   2.181   5.602   3.736
 5451SOL    HW217253   2.270   5.698   3.638
 5452SOL     OW17254   2.983   4.189   0.141
 5452SOL    HW117255   3.001   4.166   0.045
 5452SOL    HW217256   3.065   4.231   0.181
 5453SOL     OW17257   5.559   4.247   1.330
 5453SOL    HW117258   5.656   4.266   1.341
 5453SOL    HW217259   5.545   4.148   1.324
 5454SOL     OW17260   5.847   5.404   5.706
 5454SOL    HW117261   5.909   5.363   5.639
 5454SOL    HW217262   5.818   5.334   5.771
 5455SOL     OW17263   6.761   2.403   2.969
 5455SOL    HW117264   6.759   2.379   3.066
 5455SOL    HW217265   6.845   2.368   2.927
 5456SOL     OW17266   2.726   0.212   0.463
 5456SOL    HW117267   2.683   0.272   0.395
 5456SOL    HW217268   2.680   0.123   0.463
 5457SOL     OW17269   0.152   2.213   1.391
 5457SOL    HW117270   0.185   2.133   1.441
 5457SOL    HW217271   0.087   2.264   1.448
 5458SOL     OW17272   0.690   4.768   0.483
 5458SOL    HW117273   0.660   4.747   0.576
 5458SOL    HW217274   0.644   4.851   0.451
 5459SOL     OW17275   3.312   3.660   6.614
 5459SOL    HW117276   3.279   3.755   6.615
 5459SOL    HW217277   3.239   3.599   6.584
 5460SOL     OW17278   3.828   6.568   3.007
 5460SOL    HW117279   3.811   6.649   3.063
 5460SOL    HW217280   3.879   6.501   3.061
 5461SOL     OW17281   0.456   0.819   5.618
 5461SOL    HW117282   0.361   0.793   5.635
 5461SOL    HW217283   0.517   0.761   5.672
 5462SOL     OW17284   6.160   6.925   1.400
 5462SOL    HW117285   6.087   6.898   1.337
 5462SOL    HW217286   6.241   6.951   1.348
 5463SOL     OW17287   0.214   1.525   6.975
 5463SOL    HW117288   0.250   1.458   6.911
 5463SOL    HW217289   0.207   1.614   6.930
 5464SOL     OW17290   6.856   0.278   4.532
 5464SOL    HW117291   6.773   0.274   4.476
 5464SOL    HW217292   6.840   0.338   4.610
 5465SOL     OW17293   4.969   0.798   4.651
 5465SOL    HW117294   5.024   0.719   4.622
 5465SOL    HW217295   5.022   0.882   4.636
 5466SOL     OW17296   5.145   3.057   4.780
 5466SOL    HW117297   5.181   2.965   4.792
 5466SOL    HW217298   5.079   3.077   4.852
 5467SOL     OW17299   5.130   4.235   3.334
 5467SOL    HW117300   5.047   4.209   3.381
 5467SOL    HW217301   5.128   4.201   3.240
 5468SOL     OW17302   6.715   2.656   3.899
 5468SOL    HW117303   6.635   2.651   3.839
 5468SOL    HW217304   6.708   2.737   3.958
 5469SOL     OW17305   2.950   6.542   5.777
 5469SOL    HW117306   3.015   6.544   5.853
 5469SOL    HW217307   2.999   6.528   5.691
 5470SOL     OW17308   3.799   5.631   3.168
 5470SOL    HW117309   3.811   5.703   3.237
 5470SOL    HW217310   3.733   5.563   3.200
 5471SOL     OW17311   6.113   0.114   3.177
 5471SOL    HW117312   6.124   0.138   3.273
 5471SOL    HW217313   6.016   0.109   3.154
 5472SOL     OW17314   2.531   4.029   6.770
 5472SOL    HW117315   2.473   3.955   6.807
 5472SOL    HW217316   2.508   4.044   6.674
 5473SOL     OW17317   1.356   3.595   1.750
 5473SOL    HW117318   1.414   3.644   1.815
 5473SOL    HW217319   1.412   3.536   1.692
 5474SOL     OW17320   0.938   4.228   3.827
 5474SOL    HW117321   1.006   4.277   3.882
 5474SOL    HW217322   0.852   4.280   3.826
 5475SOL     OW17323   2.123   2.653   1.040
 5475SOL    HW117324   2.029   2.660   1.007
 5475SOL    HW217325   2.123   2.627   1.137
 5476SOL     OW17326   2.339   4.188   5.349
 5476SOL    HW117327   2.392   4.127   5.290
 5476SOL    HW217328   2.345   4.157   5.444
 5477SOL     OW17329   2.166   4.538   2.182
 5477SOL    HW117330   2.090   4.601   2.167
 5477SOL    HW217331   2.135   4.459   2.235
 5478SOL     OW17332   3.001   6.143   4.396
 5478SOL    HW117333   3.048   6.204   4.332
 5478SOL    HW217334   3.012   6.048   4.365
 5479SOL     OW17335   5.689   0.738   6.638
 5479SOL    HW117336   5.710   0.665   6.573
 5479SOL    HW217337   5.616   0.708   6.700
 5480SOL     OW17338   5.943   5.421   4.119
 5480SOL    HW117339   6.030   5.466   4.103
 5480SOL    HW217340   5.924   5.357   4.044
 5481SOL     OW17341   4.747   1.467   4.665
 5481SOL    HW117342   4.722   1.542   4.727
 5481SOL    HW217343   4.682   1.392   4.676
 5482SOL     OW17344   3.711   4.460   1.645
 5482SOL    HW117345   3.721   4.513   1.729
 5482SOL    HW217346   3.617   4.427   1.638
 5483SOL     OW17347   6.920   2.013   5.278
 5483SOL    HW117348   6.820   2.018   5.280
 5483SOL    HW217349   6.958   2.099   5.314
 5484SOL     OW17350   4.432   1.275   3.702
 5484SOL    HW117351   4.378   1.316   3.629
 5484SOL    HW217352   4.403   1.312   3.790
 5485SOL     OW17353   4.062   0.043   4.272
 5485SOL    HW117354   4.137   7.015   4.227
 5485SOL    HW217355   4.094   0.082   4.359
 5486SOL     OW17356   2.317   6.421   5.045
 5486SOL    HW117357   2.337   6.460   5.135
 5486SOL    HW217358   2.373   6.467   4.976
 5487SOL     OW17359   5.793   2.800   6.931
 5487SOL    HW117360   5.858   2.745   6.983
 5487SOL    HW217361   5.822   2.804   6.835
 5488SOL     OW17362   6.087   0.011   1.654
 5488SOL    HW117363   6.034   0.087   1.693
 5488SOL    HW217364   6.098   0.025   1.556
 5489SOL     OW17365   0.255   4.518   2.101
 5489SOL    HW117366   0.258   4.595   2.165
 5489SOL    HW217367   0.248   4.433   2.153
 5490SOL     OW17368   3.140   0.100   1.556
 5490SOL    HW117369   3.137   0.068   1.461
 5490SOL    HW217370   3.235   0.099   1.588
 5491SOL     OW17371   1.026   4.223   0.768
 5491SOL    HW117372   1.092   4.153   0.741
 5491SOL    HW217373   1.018   4.224   0.868
 5492SOL     OW17374   0.207   3.315   5.830
 5492SOL    HW117375   0.246   3.400   5.795
 5492SOL    HW217376   0.280   3.248   5.843
 5493SOL     OW17377   2.972   3.708   4.385
 5493SOL    HW117378   2.922   3.623   4.400
 5493SOL    HW217379   2.946   3.747   4.297
 5494SOL     OW17380   0.410   3.161   5.851
 5494SOL    HW117381   0.360   3.102   5.789
 5494SOL    HW217382   0.456   3.105   5.920
 5495SOL     OW17383   4.265   1.658   1.062
 5495SOL    HW117384   4.202   1.665   1.139
 5495SOL    HW217385   4.289   1.561   1.047
 5496SOL     OW17386   3.960   0.981   3.161
 5496SOL    HW117387   4.039   1.005   3.218
 5496SOL    HW217388   3.899   0.921   3.213
 5497SOL     OW17389   7.013   1.146   4.991
 5497SOL    HW117390   0.082   1.098   5.002
 5497SOL    HW217391   0.011   1.243   4.973
 5498SOL     OW17392   6.614   6.038   0.942
 5498SOL    HW117393   6.621   6.084   1.031
 5498SOL    HW217394   6.703   6.003   0.916
 5499SOL     OW17395   0.391   0.859   4.747
 5499SOL    HW117396   0.423   0.839   4.839
 5499SOL    HW217397   0.367   0.774   4.700
 5500SOL     OW17398   0.943   0.663   0.391
 5500SOL    HW117399   0.986   0.669   0.301
 5500SOL    HW217400   0.863   0.603   0.386
 5501SOL     OW17401   3.260   1.550   0.393
 5501SOL    HW117402   3.251   1.451   0.385
 5501SOL    HW217403   3.322   1.583   0.321
 5502SOL     OW17404   5.170   3.972   6.881
 5502SOL    HW117405   5.119   4.032   6.942
 5502SOL    HW217406   5.126   3.968   6.792
 5503SOL     OW17407   0.051   4.675   1.923
 5503SOL    HW117408   0.127   4.612   1.930
 5503SOL    HW217409   0.002   4.678   2.010
 5504SOL     OW17410   4.840   1.469   5.634
 5504SOL    HW117411   4.797   1.389   5.676
 5504SOL    HW217412   4.914   1.501   5.692
 5505SOL     OW17413   2.115   5.312   4.533
 5505SOL    HW117414   2.081   5.356   4.616
 5505SOL    HW217415   2.051   5.328   4.457
 5506SOL     OW17416   0.902   3.656   0.420
 5506SOL    HW117417   0.962   3.581   0.449
 5506SOL    HW217418   0.850   3.628   0.339
 5507SOL     OW17419   3.962   1.119   4.693
 5507SOL    HW117420   3.950   1.060   4.773
 5507SOL    HW217421   3.875   1.123   4.642
 5508SOL     OW17422   1.205   1.502   0.486
 5508SOL    HW117423   1.265   1.537   0.559
 5508SOL    HW217424   1.110   1.509   0.515
 5509SOL     OW17425   0.313   5.961   6.688
 5509SOL    HW117426   0.235   6.018   6.710
 5509SOL    HW217427   0.285   5.886   6.628
 5510SOL     OW17428   4.733   5.494   0.503
 5510SOL    HW117429   4.828   5.474   0.527
 5510SOL    HW217430   4.729   5.578   0.450
 5511SOL     OW17431   1.536   1.031   3.346
 5511SOL    HW117432   1.503   1.000   3.435
 5511SOL    HW217433   1.627   0.995   3.329
 5512SOL     OW17434   5.148   2.290   0.745
 5512SOL    HW117435   5.141   2.222   0.818
 5512SOL    HW217436   5.231   2.344   0.758
 5513SOL     OW17437   3.732   4.441   6.036
 5513SOL    HW117438   3.657   4.506   6.046
 5513SOL    HW217439   3.814   4.478   6.079
 5514SOL     OW17440   3.841   0.215   4.226
 5514SOL    HW117441   3.910   0.148   4.253
 5514SOL    HW217442   3.781   0.234   4.304
 5515SOL     OW17443   0.672   5.466   2.321
 5515SOL    HW117444   0.635   5.493   2.410
 5515SOL    HW217445   0.770   5.446   2.331
 5516SOL     OW17446   1.769   3.725   6.132
 5516SOL    HW117447   1.673   3.729   6.163
 5516SOL    HW217448   1.776   3.765   6.041
 5517SOL     OW17449   2.075   3.347   2.162
 5517SOL    HW117450   2.082   3.248   2.153
 5517SOL    HW217451   2.136   3.391   2.095
 5518SOL     OW17452   5.592   6.416   6.593
 5518SOL    HW117453   5.622   6.328   6.555
 5518SOL    HW217454   5.606   6.415   6.692
 5519SOL     OW17455   5.576   3.802   3.397
 5519SOL    HW117456   5.498   3.818   3.336
 5519SOL    HW217457   5.651   3.761   3.345
 5520SOL     OW17458   6.612   6.556   2.402
 5520SOL    HW117459   6.668   6.523   2.326
 5520SOL    HW217460   6.645   6.646   2.431
 5521SOL     OW17461   5.531   6.593   2.152
 5521SOL    HW117462   5.515   6.652   2.231
 5521SOL    HW217463   5.552   6.649   2.072
 5522SOL     OW17464   5.822   5.337   0.887
 5522SOL    HW117465   5.888   5.406   0.916
 5522SOL    HW217466   5.793   5.355   0.793
 5523SOL     OW17467   3.795   1.040   1.903
 5523SOL    HW117468   3.788   0.983   1.821
 5523SOL    HW217469   3.885   1.082   1.906
 5524SOL     OW17470   4.843   0.491   4.196
 5524SOL    HW117471   4.866   0.427   4.270
 5524SOL    HW217472   4.913   0.562   4.192
 5525SOL     OW17473   0.143   2.272   0.835
 5525SOL    HW117474   0.159   2.299   0.740
 5525SOL    HW217475   0.230   2.267   0.883
 5526SOL     OW17476   4.638   5.704   3.310
 5526SOL    HW117477   4.664   5.629   3.371
 5526SOL    HW217478   4.708   5.718   3.241
 5527SOL     OW17479   5.465   3.389   4.080
 5527SOL    HW117480   5.427   3.301   4.107
 5527SOL    HW217481   5.501   3.436   4.161
 5528SOL     OW17482   1.258   0.663   0.255
 5528SOL    HW117483   1.291   0.577   0.217
 5528SOL    HW217484   1.315   0.688   0.334
 5529SOL     OW17485   3.457   6.925   3.934
 5529SOL    HW117486   3.513   6.842   3.923
 5529SOL    HW217487   3.444   6.944   4.031
 5530SOL     OW17488   5.563   2.261   0.992
 5530SOL    HW117489   5.635   2.192   0.990
 5530SOL    HW217490   5.563   2.307   1.081
 5531SOL     OW17491   3.751   3.717   2.160
 5531SOL    HW117492   3.850   3.713   2.147
 5531SOL    HW217493   3.719   3.810   2.144
 5532SOL     OW17494   1.100   3.729   0.957
 5532SOL    HW117495   1.077   3.724   0.859
 5532SOL    HW217496   1.190   3.687   0.972
 5533SOL     OW17497   3.705   2.130   2.947
 5533SOL    HW117498   3.689   2.105   3.043
 5533SOL    HW217499   3.618   2.131   2.898
 5534SOL     OW17500   0.704   1.515   6.667
 5534SOL    HW117501   0.648   1.540   6.588
 5534SOL    HW217502   0.776   1.451   6.638
 5535SOL     OW17503   0.534   2.512   3.506
 5535SOL    HW117504   0.534   2.466   3.594
 5535SOL    HW217505   0.626   2.511   3.467
 5536SOL     OW17506   3.808   1.344   4.106
 5536SOL    HW117507   3.729   1.403   4.123
 5536SOL    HW217508   3.814   1.276   4.179
 5537SOL     OW17509   2.684   1.227   2.085
 5537SOL    HW117510   2.692   1.237   1.986
 5537SOL    HW217511   2.633   1.143   2.106
 5538SOL     OW17512   2.782   6.068   5.354
 5538SOL    HW117513   2.828   6.119   5.427
 5538SOL    HW217514   2.723   5.998   5.394
 5539SOL     OW17515   1.074   3.728   1.434
 5539SOL    HW117516   0.977   3.745   1.416
 5539SOL    HW217517   1.090   3.725   1.532
 5540SOL     OW17518   4.492   4.438   3.990
 5540SOL    HW117519   4.531   4.502   3.923
 5540SOL    HW217520   4.439   4.368   3.943
 5541SOL     OW17521   5.045   6.834   6.364
 5541SOL    HW117522   5.046   6.786   6.277
 5541SOL    HW217523   4.959   6.816   6.411
 5542SOL     OW17524   4.802   3.508   6.429
 5542SOL    HW117525   4.744   3.426   6.427
 5542SOL    HW217526   4.754   3.584   6.384
 5543SOL     OW17527   3.411   4.336   6.143
 5543SOL    HW117528   3.441   4.427   6.116
 5543SOL    HW217529   3.338   4.343   6.210
 5544SOL     OW17530   4.872   5.341   0.109
 5544SOL    HW117531   4.880   5.255   0.158
 5544SOL    HW217532   4.776   5.360   0.089
 5545SOL     OW17533   4.651   1.273   2.102
 5545SOL    HW117534   4.727   1.221   2.141
 5545SOL    HW217535   4.568   1.255   2.156
 5546SOL     OW17536   0.389   4.719   4.388
 5546SOL    HW117537   0.485   4.698   4.403
 5546SOL    HW217538   0.367   4.806   4.431
 5547SOL     OW17539   2.969   6.796   5.119
 5547SOL    HW117540   3.045   6.842   5.164
 5547SOL    HW217541   2.908   6.756   5.188
 5548SOL     OW17542   6.719   1.746   5.503
 5548SOL    HW117543   6.767   1.827   5.534
 5548SOL    HW217544   6.720   1.742   5.403
 5549SOL     OW17545   4.941   4.878   6.692
 5549SOL    HW117546   4.846   4.900   6.669
 5549SOL    HW217547   4.964   4.919   6.781
 5550SOL     OW17548   2.978   5.424   2.244
 5550SOL    HW117549   2.959   5.390   2.152
 5550SOL    HW217550   3.077   5.436   2.255
 5551SOL     OW17551   2.113   0.148   2.709
 5551SOL    HW117552   2.203   0.146   2.752
 5551SOL    HW217553   2.065   0.062   2.728
 5552SOL     OW17554   6.744   0.506   0.044
 5552SOL    HW117555   6.664   0.550   0.085
 5552SOL    HW217556   6.720   0.414   0.013
 5553SOL     OW17557   3.999   6.748   0.132
 5553SOL    HW117558   4.007   6.648   0.125
 5553SOL    HW217559   3.948   6.783   0.054
 5554SOL     OW17560   3.144   1.912   5.102
 5554SOL    HW117561   3.074   1.984   5.104
 5554SOL    HW217562   3.234   1.953   5.118
 5555SOL     OW17563   0.116   4.638   4.415
 5555SOL    HW117564   0.207   4.677   4.429
 5555SOL    HW217565   0.084   4.660   4.323
 5556SOL     OW17566   0.330   2.572   4.402
 5556SOL    HW117567   0.410   2.601   4.455
 5556SOL    HW217568   0.284   2.498   4.451
 5557SOL     OW17569   3.796   5.213   3.077
 5557SOL    HW117570   3.841   5.124   3.078
 5557SOL    HW217571   3.864   5.285   3.066
 5558SOL     OW17572   5.317   3.743   6.198
 5558SOL    HW117573   5.342   3.712   6.290
 5558SOL    HW217574   5.371   3.694   6.130
 5559SOL     OW17575   2.482   6.751   2.353
 5559SOL    HW117576   2.570   6.712   2.378
 5559SOL    HW217577   2.476   6.845   2.387
 5560SOL     OW17578   0.713   6.712   3.643
 5560SOL    HW117579   0.626   6.685   3.600
 5560SOL    HW217580   0.730   6.809   3.625
 5561SOL     OW17581   2.350   1.537   3.977
 5561SOL    HW117582   2.260   1.574   4.000
 5561SOL    HW217583   2.339   1.454   3.922
 5562SOL     OW17584   2.345   2.736   6.965
 5562SOL    HW117585   2.389   2.680   0.016
 5562SOL    HW217586   2.273   2.683   6.920
 5563SOL     OW17587   4.787   6.407   2.315
 5563SOL    HW117588   4.772   6.377   2.221
 5563SOL    HW217589   4.814   6.329   2.371
 5564SOL     OW17590   4.824   1.879   1.638
 5564SOL    HW117591   4.735   1.923   1.647
 5564SOL    HW217592   4.863   1.899   1.548
 5565SOL     OW17593   4.508   1.106   6.420
 5565SOL    HW117594   4.586   1.168   6.410
 5565SOL    HW217595   4.540   1.012   6.423
 5566SOL     OW17596   2.067   5.489   1.151
 5566SOL    HW117597   1.968   5.476   1.152
 5566SOL    HW217598   2.091   5.564   1.213
 5567SOL     OW17599   0.874   4.492   1.454
 5567SOL    HW117600   0.784   4.450   1.451
 5567SOL    HW217601   0.885   4.542   1.540
 5568SOL     OW17602   4.983   2.348   2.571
 5568SOL    HW117603   4.919   2.352   2.648
 5568SOL    HW217604   4.939   2.383   2.489
 5569SOL     OW17605   3.515   1.950   1.566
 5569SOL    HW117606   3.433   1.949   1.623
 5569SOL    HW217607   3.587   2.002   1.611
 5570SOL     OW17608   6.009   4.422   4.859
 5570SOL    HW117609   6.007   4.370   4.773
 5570SOL    HW217610   6.085   4.487   4.856
 5571SOL     OW17611   0.396   6.879   6.600
 5571SOL    HW117612   0.466   6.913   6.662
 5571SOL    HW217613   0.365   6.789   6.631
 5572SOL     OW17614   2.151   3.049   6.446
 5572SOL    HW117615   2.245   3.032   6.476
 5572SOL    HW217616   2.141   3.145   6.423
 5573SOL     OW17617   1.368   3.097   0.172
 5573SOL    HW117618   1.374   3.195   0.189
 5573SOL    HW217619   1.276   3.065   0.195
 5574SOL     OW17620   0.327   1.165   4.064
 5574SOL    HW117621   0.396   1.118   4.009
 5574SOL    HW217622   0.367   1.247   4.105
 5575SOL     OW17623   1.310   1.097   1.813
 5575SOL    HW117624   1.254   1.017   1.836
 5575SOL    HW217625   1.406   1.071   1.813
 5576SOL     OW17626   6.616   5.962   1.913
 5576SOL    HW117627   6.557   5.997   1.840
 5576SOL    HW217628   6.694   5.915   1.874
 5577SOL     OW17629   2.734   2.862   6.216
 5577SOL    HW117630   2.732   2.795   6.290
 5577SOL    HW217631   2.827   2.870   6.181
 5578SOL     OW17632   4.292   2.730   1.038
 5578SOL    HW117633   4.200   2.743   1.075
 5578SOL    HW217634   4.357   2.718   1.114
 5579SOL     OW17635   6.738   3.599   5.875
 5579SOL    HW117636   6.727   3.511   5.920
 5579SOL    HW217637   6.710   3.672   5.938
 5580SOL     OW17638   4.775   1.580   0.020
 5580SOL    HW117639   4.717   1.616   6.966
 5580SOL    HW217640   4.789   1.482   0.007
 5581SOL     OW17641   2.662   0.007   1.119
 5581SOL    HW117642   2.655   6.926   1.110
 5581SOL    HW217643   2.675   0.030   1.215
 5582SOL     OW17644   3.378   3.354   3.697
 5582SOL    HW117645   3.416   3.278   3.643
 5582SOL    HW217646   3.344   3.319   3.784
 5583SOL     OW17647   3.985   6.429   2.646
 5583SOL    HW117648   4.031   6.515   2.624
 5583SOL    HW217649   4.048   6.352   2.633
 5584SOL     OW17650   5.497   4.126   3.977
 5584SOL    HW117651   5.572   4.191   3.987
 5584SOL    HW217652   5.440   4.127   4.059
 5585SOL     OW17653   5.372   0.887   3.942
 5585SOL    HW117654   5.380   0.969   3.998
 5585SOL    HW217655   5.288   0.839   3.965
 5586SOL     OW17656   1.168   2.499   0.152
 5586SOL    HW117657   1.147   2.484   0.055
 5586SOL    HW217658   1.254   2.454   0.175
 5587SOL     OW17659   4.098   6.647   2.567
 5587SOL    HW117660   4.193   6.666   2.544
 5587SOL    HW217661   4.047   6.626   2.484
 5588SOL     OW17662   1.301   6.815   4.503
 5588SOL    HW117663   1.328   6.742   4.440
 5588SOL    HW217664   1.382   6.850   4.550
 5589SOL     OW17665   4.832   3.128   6.714
 5589SOL    HW117666   4.762   3.057   6.699
 5589SOL    HW217667   4.908   3.113   6.650
 5590SOL     OW17668   6.612   5.416   2.937
 5590SOL    HW117669   6.659   5.477   2.873
 5590SOL    HW217670   6.517   5.446   2.948
 5591SOL     OW17671   5.972   0.275   6.865
 5591SOL    HW117672   6.044   0.317   6.810
 5591SOL    HW217673   5.893   0.337   6.869
 5592SOL     OW17674   2.207   4.243   2.900
 5592SOL    HW117675   2.230   4.321   2.958
 5592SOL    HW217676   2.121   4.203   2.929
 5593SOL     OW17677   6.952   2.753   5.610
 5593SOL    HW117678   0.031   2.753   5.591
 5593SOL    HW217679   6.910   2.835   5.571
 5594SOL     OW17680   2.202   1.545   0.058
 5594SOL    HW117681   2.118   1.593   0.083
 5594SOL    HW217682   2.210   1.461   0.112
 5595SOL     OW17683   6.404   0.443   5.148
 5595SOL    HW117684   6.486   0.489   5.113
 5595SOL    HW217685   6.402   0.450   5.248
 5596SOL     OW17686   5.463   0.085   2.941
 5596SOL    HW117687   5.544   0.128   2.902
 5596SOL    HW217688   5.461   7.007   2.916
 5597SOL     OW17689   5.244   2.789   5.448
 5597SOL    HW117690   5.277   2.794   5.542
 5597SOL    HW217691   5.144   2.780   5.448
 5598SOL     OW17692   4.729   2.161   3.710
 5598SOL    HW117693   4.636   2.189   3.736
 5598SOL    HW217694   4.795   2.214   3.763
 5599SOL     OW17695   5.539   3.960   1.992
 5599SOL    HW117696   5.523   3.882   2.053
 5599SOL    HW217697   5.465   3.967   1.926
 5600SOL     OW17698   2.520   0.325   2.602
 5600SOL    HW117699   2.486   0.231   2.608
 5600SOL    HW217700   2.465   0.376   2.535
 5601SOL     OW17701   4.651   2.450   5.909
 5601SOL    HW117702   4.729   2.417   5.962
 5601SOL    HW217703   4.567   2.407   5.945
 5602SOL     OW17704   6.808   1.223   3.134
 5602SOL    HW117705   6.764   1.311   3.150
 5602SOL    HW217706   6.854   1.193   3.218
 5603SOL     OW17707   4.493   2.642   5.262
 5603SOL    HW117708   4.521   2.712   5.196
 5603SOL    HW217709   4.397   2.655   5.286
 5604SOL     OW17710   1.037   1.608   4.302
 5604SOL    HW117711   0.994   1.520   4.284
 5604SOL    HW217712   1.028   1.631   4.399
 5605SOL     OW17713   1.105   0.310   5.259
 5605SOL    HW117714   1.066   0.401   5.242
 5605SOL    HW217715   1.077   0.248   5.185
 5606SOL     OW17716   4.237   1.524   0.537
 5606SOL    HW117717   4.196   1.433   0.545
 5606SOL    HW217718   4.171   1.586   0.495
 5607SOL     OW17719   6.034   2.134   3.190
 5607SOL    HW117720   6.007   2.219   3.234
 5607SOL    HW217721   6.127   2.143   3.154
 5608SOL     OW17722   6.400   1.128   2.986
 5608SOL    HW117723   6.415   1.206   3.047
 5608SOL    HW217724   6.447   1.145   2.899
 5609SOL     OW17725   4.603   6.549   0.212
 5609SOL    HW117726   4.653   6.515   0.132
 5609SOL    HW217727   4.648   6.632   0.246
 5610SOL     OW17728   5.407   3.798   0.294
 5610SOL    HW117729   5.453   3.873   0.246
 5610SOL    HW217730   5.449   3.711   0.269
 5611SOL     OW17731   0.695   5.067   2.347
 5611SOL    HW117732   0.685   5.004   2.424
 5611SOL    HW217733   0.792   5.090   2.335
 5612SOL     OW17734   3.082   2.589   0.919
 5612SOL    HW117735   3.076   2.516   0.987
 5612SOL    HW217736   2.990   2.618   0.893
 5613SOL     OW17737   6.947   4.330   4.654
 5613SOL    HW117738   6.858   4.284   4.650
 5613SOL    HW217739   7.001   4.290   4.728
 5614SOL     OW17740   6.432   1.965   4.449
 5614SOL    HW117741   6.469   2.014   4.528
 5614SOL    HW217742   6.490   1.981   4.370
 5615SOL     OW17743   0.116   1.650   2.276
 5615SOL    HW117744   0.216   1.646   2.276
 5615SOL    HW217745   0.085   1.723   2.337
 5616SOL     OW17746   2.560   1.762   5.272
 5616SOL    HW117747   2.650   1.798   5.249
 5616SOL    HW217748   2.535   1.691   5.206
 5617SOL     OW17749   1.424   4.637   4.532
 5617SOL    HW117750   1.515   4.648   4.491
 5617SOL    HW217751   1.433   4.621   4.630
 5618SOL     OW17752   6.077   5.353   3.361
 5618SOL    HW117753   6.123   5.345   3.273
 5618SOL    HW217754   6.047   5.263   3.392
 5619SOL     OW17755   3.793   2.926   3.654
 5619SOL    HW117756   3.843   2.961   3.574
 5619SOL    HW217757   3.810   2.986   3.732
 5620SOL     OW17758   4.435   4.452   5.492
 5620SOL    HW117759   4.411   4.360   5.460
 5620SOL    HW217760   4.361   4.488   5.547
 5621SOL     OW17761   1.546   3.104   6.379
 5621SOL    HW117762   1.484   3.103   6.301
 5621SOL    HW217763   1.618   3.036   6.366
 5622SOL     OW17764   4.577   6.421   5.366
 5622SOL    HW117765   4.572   6.430   5.466
 5622SOL    HW217766   4.487   6.393   5.331
 5623SOL     OW17767   4.629   6.828   4.975
 5623SOL    HW117768   4.580   6.801   5.058
 5623SOL    HW217769   4.684   6.909   4.994
 5624SOL     OW17770   0.923   5.268   3.253
 5624SOL    HW117771   0.940   5.356   3.210
 5624SOL    HW217772   0.984   5.257   3.332
 5625SOL     OW17773   1.022   5.201   4.971
 5625SOL    HW117774   1.092   5.206   4.901
 5625SOL    HW217775   1.063   5.211   5.062
 5626SOL     OW17776   2.218   4.610   4.464
 5626SOL    HW117777   2.258   4.519   4.472
 5626SOL    HW217778   2.258   4.670   4.534
 5627SOL     OW17779   0.192   5.843   5.734
 5627SOL    HW117780   0.182   5.749   5.701
 5627SOL    HW217781   0.149   5.851   5.824
 5628SOL     OW17782   2.978   2.882   0.892
 5628SOL    HW117783   3.067   2.914   0.858
 5628SOL    HW217784   2.991   2.839   0.981
 5629SOL     OW17785   3.848   2.803   1.310
 5629SOL    HW117786   3.829   2.897   1.282
 5629SOL    HW217787   3.936   2.799   1.357
 5630SOL     OW17788   1.512   3.824   5.916
 5630SOL    HW117789   1.608   3.851   5.906
 5630SOL    HW217790   1.507   3.744   5.976
 5631SOL     OW17791   5.197   1.083   1.840
 5631SOL    HW117792   5.277   1.027   1.860
 5631SOL    HW217793   5.218   1.179   1.858
 5632SOL     OW17794   5.198   1.654   6.071
 5632SOL    HW117795   5.264   1.627   6.001
 5632SOL    HW217796   5.134   1.579   6.088
 5633SOL     OW17797   0.195   5.194   4.696
 5633SOL    HW117798   0.183   5.284   4.738
 5633SOL    HW217799   0.252   5.203   4.614
 5634SOL     OW17800   1.762   5.047   4.462
 5634SOL    HW117801   1.814   5.053   4.377
 5634SOL    HW217802   1.819   5.007   4.534
 5635SOL     OW17803   2.798   6.751   6.826
 5635SOL    HW117804   2.881   6.761   6.881
 5635SOL    HW217805   2.822   6.721   6.734
 5636SOL     OW17806   5.820   1.179   5.651
 5636SOL    HW117807   5.891   1.249   5.647
 5636SOL    HW217808   5.790   1.156   5.559
 5637SOL     OW17809   5.340   6.727   3.954
 5637SOL    HW117810   5.356   6.644   3.901
 5637SOL    HW217811   5.425   6.756   3.998
 5638SOL     OW17812   5.596   5.796   1.360
 5638SOL    HW117813   5.499   5.811   1.377
 5638SOL    HW217814   5.650   5.858   1.416
 5639SOL     OW17815   1.159   0.866   1.834
 5639SOL    HW117816   1.208   0.787   1.871
 5639SOL    HW217817   1.061   0.853   1.847
 5640SOL     OW17818   2.750   6.723   2.371
 5640SOL    HW117819   2.819   6.672   2.424
 5640SOL    HW217820   2.795   6.769   2.295
 5641SOL     OW17821   0.438   4.605   5.884
 5641SOL    HW117822   0.424   4.507   5.868
 5641SOL    HW217823   0.353   4.646   5.917
 5642SOL     OW17824   1.449   5.253   5.762
 5642SOL    HW117825   1.379   5.192   5.725
 5642SOL    HW217826   1.526   5.199   5.796
 5643SOL     OW17827   3.468   0.695   4.722
 5643SOL    HW117828   3.405   0.729   4.652
 5643SOL    HW217829   3.435   0.721   4.813
 5644SOL     OW17830   4.921   0.771   3.840
 5644SOL    HW117831   4.899   0.676   3.818
 5644SOL    HW217832   4.951   0.777   3.935
 5645SOL     OW17833   6.568   4.670   2.708
 5645SOL    HW117834   6.600   4.738   2.774
 5645SOL    HW217835   6.470   4.682   2.693
 5646SOL     OW17836   2.307   5.369   3.577
 5646SOL    HW117837   2.248   5.348   3.499
 5646SOL    HW217838   2.252   5.409   3.650
 5647SOL     OW17839   6.385   6.601   6.895
 5647SOL    HW117840   6.429   6.686   6.926
 5647SOL    HW217841   6.406   6.587   6.798
 5648SOL     OW17842   1.735   0.734   3.056
 5648SOL    HW117843   1.654   0.782   3.024
 5648SOL    HW217844   1.735   0.641   3.020
 5649SOL     OW17845   1.196   6.307   6.180
 5649SOL    HW117846   1.109   6.299   6.132
 5649SOL    HW217847   1.256   6.232   6.152
 5650SOL     OW17848   0.603   5.202   1.172
 5650SOL    HW117849   0.552   5.118   1.189
 5650SOL    HW217850   0.585   5.268   1.244
 5651SOL     OW17851   6.884   1.212   1.778
 5651SOL    HW117852   6.905   1.291   1.722
 5651SOL    HW217853   6.810   1.159   1.736
 5652SOL     OW17854   5.426   6.363   1.980
 5652SOL    HW117855   5.471   6.435   2.033
 5652SOL    HW217856   5.473   6.352   1.893
 5653SOL     OW17857   0.280   6.653   6.705
 5653SOL    HW117858   0.185   6.660   6.735
 5653SOL    HW217859   0.334   6.604   6.773
 5654SOL     OW17860   0.061   6.031   5.595
 5654SOL    HW117861   7.002   6.068   5.646
 5654SOL    HW217862   0.096   5.950   5.642
 5655SOL     OW17863   1.528   3.227   4.258
 5655SOL    HW117864   1.500   3.279   4.339
 5655SOL    HW217865   1.474   3.143   4.253
 5656SOL     OW17866   2.193   4.436   0.206
 5656SOL    HW117867   2.184   4.379   0.288
 5656SOL    HW217868   2.245   4.518   0.228
 5657SOL     OW17869   5.533   0.145   1.008
 5657SOL    HW117870   5.491   0.162   0.919
 5657SOL    HW217871   5.468   0.096   1.067
 5658SOL     OW17872   3.488   6.229   5.635
 5658SOL    HW117873   3.452   6.221   5.542
 5658SOL    HW217874   3.416   6.209   5.701
 5659SOL     OW17875   3.165   3.898   3.243
 5659SOL    HW117876   3.190   3.853   3.157
 5659SOL    HW217877   3.094   3.845   3.289
 5660SOL     OW17878   5.592   0.615   5.737
 5660SOL    HW117879   5.542   0.572   5.812
 5660SOL    HW217880   5.681   0.645   5.769
 5661SOL     OW17881   6.811   4.781   6.059
 5661SOL    HW117882   6.718   4.784   6.021
 5661SOL    HW217883   6.877   4.762   5.986
 5662SOL     OW17884   2.672   4.997   3.969
 5662SOL    HW117885   2.686   4.905   4.006
 5662SOL    HW217886   2.650   4.991   3.872
 5663SOL     OW17887   1.922   4.056   6.967
 5663SOL    HW117888   1.952   3.963   6.990
 5663SOL    HW217889   1.878   4.098   0.027
 5664SOL     OW17890   6.713   3.600   4.197
 5664SOL    HW117891   6.739   3.646   4.112
 5664SOL    HW217892   6.614   3.583   4.198
 5665SOL     OW17893   2.119   1.886   0.012
 5665SOL    HW117894   2.192   1.934   0.060
 5665SOL    HW217895   2.101   1.931   6.943
 5666SOL     OW17896   5.269   6.114   0.641
 5666SOL    HW117897   5.262   6.037   0.705
 5666SOL    HW217898   5.330   6.183   0.680
 5667SOL     OW17899   0.661   4.592   3.648
 5667SOL    HW117900   0.572   4.547   3.637
 5667SOL    HW217901   0.654   4.666   3.714
 5668SOL     OW17902   5.224   2.366   6.134
 5668SOL    HW117903   5.170   2.388   6.053
 5668SOL    HW217904   5.192   2.279   6.172
 5669SOL     OW17905   0.926   3.271   6.586
 5669SOL    HW117906   0.871   3.224   6.655
 5669SOL    HW217907   0.886   3.361   6.568
 5670SOL     OW17908   0.237   3.343   3.545
 5670SOL    HW117909   0.319   3.293   3.515
 5670SOL    HW217910   0.195   3.293   3.621
 5671SOL     OW17911   0.678   6.286   6.409
 5671SOL    HW117912   0.652   6.229   6.332
 5671SOL    HW217913   0.766   6.329   6.391
 5672SOL     OW17914   4.359   4.796   6.803
 5672SOL    HW117915   4.349   4.887   6.844
 5672SOL    HW217916   4.320   4.727   6.865
 5673SOL     OW17917   0.729   6.369   2.377
 5673SOL    HW117918   0.715   6.270   2.385
 5673SOL    HW217919   0.777   6.389   2.292
 5674SOL     OW17920   6.770   3.898   3.676
 5674SOL    HW117921   6.748   3.966   3.606
 5674SOL    HW217922   6.791   3.944   3.762
 5675SOL     OW17923   4.442   1.716   6.465
 5675SOL    HW117924   4.418   1.804   6.505
 5675SOL    HW217925   4.403   1.709   6.373
 5676SOL     OW17926   1.963   2.050   1.936
 5676SOL    HW117927   1.940   2.051   2.034
 5676SOL    HW217928   2.039   2.113   1.920
 5677SOL     OW17929   0.782   2.266   2.678
 5677SOL    HW117930   0.827   2.314   2.603
 5677SOL    HW217931   0.789   2.167   2.664
 5678SOL     OW17932   2.601   6.691   3.068
 5678SOL    HW117933   2.625   6.693   2.971
 5678SOL    HW217934   2.673   6.644   3.119
 5679SOL     OW17935   1.081   0.578   3.140
 5679SOL    HW117936   1.045   0.577   3.047
 5679SOL    HW217937   1.169   0.530   3.142
 5680SOL     OW17938   1.493   5.349   0.564
 5680SOL    HW117939   1.467   5.271   0.621
 5680SOL    HW217940   1.517   5.317   0.472
 5681SOL     OW17941   0.573   3.464   6.450
 5681SOL    HW117942   0.512   3.524   6.502
 5681SOL    HW217943   0.668   3.493   6.464
 5682SOL     OW17944   2.042   4.833   5.394
 5682SOL    HW117945   1.981   4.784   5.456
 5682SOL    HW217946   1.999   4.842   5.305
 5683SOL     OW17947   4.166   1.655   6.860
 5683SOL    HW117948   4.257   1.689   6.882
 5683SOL    HW217949   4.144   1.577   6.918
 5684SOL     OW17950   3.834   2.993   4.602
 5684SOL    HW117951   3.748   2.943   4.615
 5684SOL    HW217952   3.861   3.037   4.687
 5685SOL     OW17953   1.311   3.927   1.787
 5685SOL    HW117954   1.383   3.864   1.815
 5685SOL    HW217955   1.346   3.988   1.716
 5686SOL     OW17956   3.056   0.158   6.568
 5686SOL    HW117957   2.981   0.139   6.504
 5686SOL    HW217958   3.062   0.084   6.635
 5687SOL     OW17959   6.884   3.711   4.756
 5687SOL    HW117960   6.859   3.702   4.660
 5687SOL    HW217961   6.865   3.805   4.787
 5688SOL     OW17962   6.596   1.644   0.257
 5688SOL    HW117963   6.567   1.579   0.187
 5688SOL    HW217964   6.588   1.737   0.220
 5689SOL     OW17965   4.088   0.878   6.851
 5689SOL    HW117966   4.051   0.789   6.878
 5689SOL    HW217967   4.036   0.915   6.775
 5690SOL     OW17968   2.247   6.155   0.898
 5690SOL    HW117969   2.328   6.152   0.958
 5690SOL    HW217970   2.258   6.089   0.824
 5691SOL     OW17971   2.615   6.018   1.893
 5691SOL    HW117972   2.683   6.083   1.859
 5691SOL    HW217973   2.572   5.971   1.816
 5692SOL     OW17974   6.890   3.138   6.195
 5692SOL    HW117975   6.905   3.202   6.120
 5692SOL    HW217976   6.821   3.174   6.258
 5693SOL     OW17977   6.010   2.955   2.426
 5693SOL    HW117978   6.002   2.864   2.387
 5693SOL    HW217979   6.107   2.976   2.443
 5694SOL     OW17980   0.813   1.655   3.627
 5694SOL    HW117981   0.887   1.676   3.563
 5694SOL    HW217982   0.851   1.636   3.717
 5695SOL     OW17983   0.875   2.726   2.693
 5695SOL    HW117984   0.964   2.681   2.705
 5695SOL    HW217985   0.876   2.813   2.743
 5696SOL     OW17986   1.481   6.903   3.311
 5696SOL    HW117987   1.466   6.973   3.381
 5696SOL    HW217988   1.479   6.812   3.353
 5697SOL     OW17989   5.738   2.061   1.031
 5697SOL    HW117990   5.779   2.031   1.117
 5697SOL    HW217991   5.806   2.053   0.958
 5698SOL     OW17992   0.336   3.101   2.072
 5698SOL    HW117993   0.402   3.175   2.068
 5698SOL    HW217994   0.297   3.095   2.164
 5699SOL     OW17995   6.325   2.490   2.950
 5699SOL    HW117996   6.335   2.399   2.909
 5699SOL    HW217997   6.229   2.517   2.948
 5700SOL     OW17998   6.657   6.452   4.480
 5700SOL    HW117999   6.628   6.547   4.469
 5700SOL    HW218000   6.639   6.401   4.395
 5701SOL     OW18001   1.433   5.881   3.311
 5701SOL    HW118002   1.398   5.905   3.402
 5701SOL    HW218003   1.360   5.842   3.256
 5702SOL     OW18004   1.359   0.512   5.307
 5702SOL    HW118005   1.309   0.546   5.387
 5702SOL    HW218006   1.455   0.540   5.314
 5703SOL     OW18007   5.060   4.218   1.101
 5703SOL    HW118008   5.159   4.217   1.091
 5703SOL    HW218009   5.036   4.218   1.198
 5704SOL     OW18010   4.334   5.369   2.345
 5704SOL    HW118011   4.420   5.341   2.302
 5704SOL    HW218012   4.349   5.382   2.443
 5705SOL     OW18013   5.087   0.895   0.172
 5705SOL    HW118014   5.094   0.969   0.239
 5705SOL    HW218015   5.133   0.814   0.207
 5706SOL     OW18016   0.846   2.418   0.484
 5706SOL    HW118017   0.870   2.322   0.500
 5706SOL    HW218018   0.889   2.450   0.399
 5707SOL     OW18019   0.729   6.907   0.099
 5707SOL    HW118020   0.804   6.930   0.160
 5707SOL    HW218021   0.720   6.808   0.093
 5708SOL     OW18022   5.093   6.266   0.858
 5708SOL    HW118023   5.038   6.304   0.784
 5708SOL    HW218024   5.186   6.300   0.851
 5709SOL     OW18025   1.102   6.882   3.684
 5709SOL    HW118026   1.155   6.798   3.670
 5709SOL    HW218027   1.069   6.885   3.778
 5710SOL     OW18028   2.778   3.125   6.031
 5710SOL    HW118029   2.734   3.176   6.105
 5710SOL    HW218030   2.786   3.184   5.951
 5711SOL     OW18031   4.715   0.429   2.950
 5711SOL    HW118032   4.760   0.514   2.923
 5711SOL    HW218033   4.635   0.414   2.892
 5712SOL     OW18034   0.839   5.747   6.171
 5712SOL    HW118035   0.913   5.813   6.156
 5712SOL    HW218036   0.840   5.679   6.098
 5713SOL     OW18037   1.147   2.304   1.399
 5713SOL    HW118038   1.099   2.384   1.434
 5713SOL    HW218039   1.229   2.333   1.350
 5714SOL     OW18040   0.926   5.983   6.708
 5714SOL    HW118041   0.910   5.907   6.771
 5714SOL    HW218042   1.022   6.011   6.712
 5715SOL     OW18043   1.413   6.316   3.402
 5715SOL    HW118044   1.463   6.293   3.318
 5715SOL    HW218045   1.319   6.282   3.396
 5716SOL     OW18046   1.237   4.230   6.618
 5716SOL    HW118047   1.174   4.172   6.671
 5716SOL    HW218048   1.189   4.312   6.587
 5717SOL     OW18049   2.132   5.937   0.557
 5717SOL    HW118050   2.207   5.980   0.607
 5717SOL    HW218051   2.158   5.924   0.461
 5718SOL     OW18052   1.011   3.825   6.254
 5718SOL    HW118053   1.104   3.862   6.260
 5718SOL    HW218054   0.947   3.890   6.294
 5719SOL     OW18055   2.232   1.299   6.014
 5719SOL    HW118056   2.172   1.306   5.935
 5719SOL    HW218057   2.327   1.299   5.983
 5720SOL     OW18058   1.123   4.847   4.666
 5720SOL    HW118059   1.136   4.770   4.602
 5720SOL    HW218060   1.081   4.813   4.750
 5721SOL     OW18061   6.803   3.807   0.875
 5721SOL    HW118062   6.801   3.730   0.940
 5721SOL    HW218063   6.887   3.802   0.820
 5722SOL     OW18064   5.761   1.848   4.918
 5722SOL    HW118065   5.805   1.823   4.832
 5722SOL    HW218066   5.762   1.948   4.928
 5723SOL     OW18067   4.027   3.403   0.181
 5723SOL    HW118068   3.961   3.388   0.108
 5723SOL    HW218069   4.000   3.484   0.234
 5724SOL     OW18070   3.885   2.605   5.335
 5724SOL    HW118071   3.824   2.526   5.343
 5724SOL    HW218072   3.965   2.581   5.280
 5725SOL     OW18073   6.118   5.399   3.827
 5725SOL    HW118074   6.044   5.332   3.832
 5725SOL    HW218075   6.144   5.413   3.731
 5726SOL     OW18076   6.535   3.355   4.120
 5726SOL    HW118077   6.492   3.438   4.156
 5726SOL    HW218078   6.471   3.308   4.058
 5727SOL     OW18079   1.069   2.292   3.872
 5727SOL    HW118080   1.168   2.303   3.877
 5727SOL    HW218081   1.028   2.372   3.827
 5728SOL     OW18082   4.717   1.309   6.422
 5728SOL    HW118083   4.674   1.383   6.474
 5728SOL    HW218084   4.773   1.254   6.484
 5729SOL     OW18085   0.842   1.657   0.397
 5729SOL    HW118086   0.861   1.570   0.442
 5729SOL    HW218087   0.892   1.731   0.442
 5730SOL     OW18088   4.255   5.142   5.484
 5730SOL    HW118089   4.191   5.067   5.498
 5730SOL    HW218090   4.349   5.107   5.489
 5731SOL     OW18091   2.015   6.480   3.994
 5731SOL    HW118092   1.988   6.509   4.086
 5731SOL    HW218093   2.051   6.559   3.944
 5732SOL     OW18094   6.487   4.522   5.436
 5732SOL    HW118095   6.455   4.481   5.350
 5732SOL    HW218096   6.502   4.620   5.422
 5733SOL     OW18097   3.132   0.656   5.465
 5733SOL    HW118098   3.199   0.617   5.529
 5733SOL    HW218099   3.048   0.602   5.466
 5734SOL     OW18100   1.784   6.229   6.447
 5734SOL    HW118101   1.756   6.206   6.354
 5734SOL    HW218102   1.764   6.325   6.465
 5735SOL     OW18103   3.972   1.437   3.017
 5735SOL    HW118104   4.063   1.460   2.984
 5735SOL    HW218105   3.903   1.477   2.957
 5736SOL     OW18106   5.511   4.088   0.340
 5736SOL    HW118107   5.582   4.030   0.380
 5736SOL    HW218108   5.471   4.146   0.411
 5737SOL     OW18109   5.420   6.170   6.968
 5737SOL    HW118110   5.513   6.135   6.952
 5737SOL    HW218111   5.366   6.099   7.013
 5738SOL     OW18112   3.232   2.463   6.435
 5738SOL    HW118113   3.281   2.530   6.491
 5738SOL    HW218114   3.134   2.467   6.457
 5739SOL     OW18115   1.097   6.171   5.556
 5739SOL    HW118116   1.064   6.141   5.645
 5739SOL    HW218117   1.025   6.221   5.509
 5740SOL     OW18118   4.252   4.229   0.824
 5740SOL    HW118119   4.332   4.170   0.814
 5740SOL    HW218120   4.180   4.198   0.761
 5741SOL     OW18121   6.925   4.058   4.352
 5741SOL    HW118122   6.843   4.093   4.397
 5741SOL    HW218123   6.905   3.969   4.311
 5742SOL     OW18124   4.318   6.162   2.090
 5742SOL    HW118125   4.282   6.079   2.133
 5742SOL    HW218126   4.369   6.138   2.007
 5743SOL     OW18127   2.229   5.904   5.513
 5743SOL    HW118128   2.269   5.821   5.475
 5743SOL    HW218129   2.178   5.952   5.441
 5744SOL     OW18130   5.079   1.279   1.461
 5744SOL    HW118131   5.164   1.227   1.474
 5744SOL    HW218132   5.018   1.228   1.401
 5745SOL     OW18133   1.930   0.796   3.435
 5745SOL    HW118134   1.966   0.887   3.416
 5745SOL    HW218135   2.004   0.738   3.471
 5746SOL     OW18136   5.136   6.960   1.871
 5746SOL    HW118137   5.090   6.872   1.860
 5746SOL    HW218138   5.098   7.008   1.950
 5747SOL     OW18139   1.187   5.066   1.647
 5747SOL    HW118140   1.256   5.087   1.578
 5747SOL    HW218141   1.110   5.130   1.639
 5748SOL     OW18142   1.003   0.178   1.606
 5748SOL    HW118143   1.017   0.250   1.538
 5748SOL    HW218144   0.963   0.218   1.689
 5749SOL     OW18145   1.896   6.655   5.160
 5749SOL    HW118146   1.957   6.660   5.081
 5749SOL    HW218147   1.927   6.720   5.230
 5750SOL     OW18148   6.025   6.238   4.842
 5750SOL    HW118149   6.115   6.196   4.853
 5750SOL    HW218150   5.967   6.213   4.919
 5751SOL     OW18151   2.472   2.558   5.062
 5751SOL    HW118152   2.569   2.579   5.072
 5751SOL    HW218153   2.432   2.615   4.990
 5752SOL     OW18154   5.250   0.362   0.379
 5752SOL    HW118155   5.239   0.356   0.478
 5752SOL    HW218156   5.233   0.273   0.337
 5753SOL     OW18157   3.497   4.057   4.456
 5753SOL    HW118158   3.459   4.125   4.393
 5753SOL    HW218159   3.507   4.098   4.547
 5754SOL     OW18160   0.399   5.395   1.574
 5754SOL    HW118161   0.464   5.332   1.615
 5754SOL    HW218162   0.444   5.482   1.553
 5755SOL     OW18163   1.875   1.981   6.328
 5755SOL    HW118164   1.797   1.936   6.372
 5755SOL    HW218165   1.842   2.047   6.261
 5756SOL     OW18166   0.158   0.231   2.918
 5756SOL    HW118167   0.212   0.286   2.982
 5756SOL    HW218168   0.147   0.138   2.954
 5757SOL     OW18169   0.063   5.265   3.950
 5757SOL    HW118170   0.096   5.348   3.996
 5757SOL    HW218171   6.982   5.269   3.942
 5758SOL     OW18172   1.759   1.262   2.993
 5758SOL    HW118173   1.733   1.323   3.068
 5758SOL    HW218174   1.811   1.314   2.925
 5759SOL     OW18175   4.895   0.489   6.957
 5759SOL    HW118176   4.830   0.419   6.927
 5759SOL    HW218177   4.900   0.489   0.038
 5760SOL     OW18178   6.355   2.114   0.766
 5760SOL    HW118179   6.315   2.197   0.805
 5760SOL    HW218180   6.355   2.121   0.666
 5761SOL     OW18181   6.110   4.487   5.992
 5761SOL    HW118182   6.033   4.438   6.031
 5761SOL    HW218183   6.112   4.474   5.893
 5762SOL     OW18184   4.910   4.238   1.370
 5762SOL    HW118185   4.815   4.235   1.339
 5762SOL    HW218186   4.917   4.194   1.460
 5763SOL     OW18187   6.767   5.577   0.766
 5763SOL    HW118188   6.833   5.502   0.762
 5763SOL    HW218189   6.683   5.546   0.811
 5764SOL     OW18190   5.068   4.761   4.876
 5764SOL    HW118191   5.161   4.787   4.900
 5764SOL    HW218192   5.005   4.793   4.947
 5765SOL     OW18193   6.470   3.139   0.470
 5765SOL    HW118194   6.417   3.223   0.479
 5765SOL    HW218195   6.407   3.063   0.449
 5766SOL     OW18196   1.555   2.102   5.902
 5766SOL    HW118197   1.468   2.103   5.853
 5766SOL    HW218198   1.615   2.172   5.865
 5767SOL     OW18199   2.093   0.506   0.870
 5767SOL    HW118200   2.014   0.555   0.907
 5767SOL    HW218201   2.080   0.488   0.773
 5768SOL     OW18202   0.881   6.586   4.212
 5768SOL    HW118203   0.951   6.537   4.160
 5768SOL    HW218204   0.850   6.665   4.160
 5769SOL     OW18205   2.171   5.605   4.331
 5769SOL    HW118206   2.083   5.571   4.297
 5769SOL    HW218207   2.163   5.627   4.429
 5770SOL     OW18208   6.604   5.915   6.384
 5770SOL    HW118209   6.659   5.938   6.304
 5770SOL    HW218210   6.518   5.965   6.380
 5771SOL     OW18211   0.988   6.927   4.424
 5771SOL    HW118212   0.949   6.887   4.507
 5771SOL    HW218213   1.016   6.854   4.362
 5772SOL     OW18214   5.541   1.003   1.676
 5772SOL    HW118215   5.500   1.004   1.585
 5772SOL    HW218216   5.627   0.953   1.673
 5773SOL     OW18217   4.149   0.596   3.096
 5773SOL    HW118218   4.185   0.518   3.147
 5773SOL    HW218219   4.053   0.579   3.073
 5774SOL     OW18220   2.815   6.527   4.123
 5774SOL    HW118221   2.811   6.626   4.108
 5774SOL    HW218222   2.841   6.481   4.038
 5775SOL     OW18223   1.531   0.355   3.003
 5775SOL    HW118224   1.609   0.343   2.943
 5775SOL    HW218225   1.543   0.299   3.085
 5776SOL     OW18226   0.465   0.984   3.922
 5776SOL    HW118227   0.413   0.997   3.838
 5776SOL    HW218228   0.507   0.893   3.922
 5777SOL     OW18229   0.008   0.260   4.891
 5777SOL    HW118230   6.946   0.312   4.919
 5777SOL    HW218231   0.029   0.192   4.961
 5778SOL     OW18232   1.702   0.286   0.118
 5778SOL    HW118233   1.666   0.370   0.160
 5778SOL    HW218234   1.735   0.225   0.189
 5779SOL     OW18235   4.453   2.569   1.236
 5779SOL    HW118236   4.390   2.492   1.247
 5779SOL    HW218237   4.427   2.642   1.299
 5780SOL     OW18238   6.348   6.040   4.103
 5780SOL    HW118239   6.433   5.995   4.077
 5780SOL    HW218240   6.282   5.972   4.133
 5781SOL     OW18241   6.373   5.166   4.723
 5781SOL    HW118242   6.372   5.070   4.750
 5781SOL    HW218243   6.443   5.181   4.653
 5782SOL     OW18244   1.636   1.773   1.204
 5782SOL    HW118245   1.598   1.828   1.130
 5782SOL    HW218246   1.590   1.685   1.207
 5783SOL     OW18247   1.240   0.352   1.795
 5783SOL    HW118248   1.185   0.390   1.721
 5783SOL    HW218249   1.337   0.370   1.777
 5784SOL     OW18250   0.058   5.883   5.956
 5784SOL    HW118251   0.009   5.952   5.903
 5784SOL    HW218252   0.113   5.927   6.026
 5785SOL     OW18253   2.004   1.689   0.193
 5785SOL    HW118254   2.041   1.757   0.131
 5785SOL    HW218255   1.999   1.726   0.285
 5786SOL     OW18256   0.770   4.027   0.833
 5786SOL    HW118257   0.742   4.050   0.926
 5786SOL    HW218258   0.859   4.070   0.814
 5787SOL     OW18259   3.429   2.103   4.790
 5787SOL    HW118260   3.432   2.057   4.878
 5787SOL    HW218261   3.334   2.107   4.758
 5788SOL     OW18262   3.044   1.183   1.294
 5788SOL    HW118263   3.049   1.261   1.357
 5788SOL    HW218264   3.044   1.098   1.346
 5789SOL     OW18265   3.554   4.481   0.194
 5789SOL    HW118266   3.478   4.439   0.145
 5789SOL    HW218267   3.611   4.409   0.233
 5790SOL     OW18268   1.246   4.552   4.745
 5790SOL    HW118269   1.291   4.468   4.777
 5790SOL    HW218270   1.201   4.534   4.658
 5791SOL     OW18271   3.649   1.524   2.450
 5791SOL    HW118272   3.641   1.609   2.398
 5791SOL    HW218273   3.576   1.519   2.518
 5792SOL     OW18274   6.323   3.384   2.689
 5792SOL    HW118275   6.378   3.466   2.673
 5792SOL    HW218276   6.259   3.372   2.613
 5793SOL     OW18277   5.417   1.130   4.061
 5793SOL    HW118278   5.371   1.170   3.981
 5793SOL    HW218279   5.392   1.181   4.143
 5794SOL     OW18280   2.489   0.790   0.536
 5794SOL    HW118281   2.450   0.773   0.627
 5794SOL    HW218282   2.559   0.862   0.543
 5795SOL     OW18283   6.414   0.418   6.646
 5795SOL    HW118284   6.513   0.415   6.632
 5795SOL    HW218285   6.384   0.513   6.646
 5796SOL     OW18286   4.916   1.543   6.012
 5796SOL    HW118287   4.839   1.601   6.036
 5796SOL    HW218288   4.929   1.474   6.083
 5797SOL     OW18289   4.747   2.203   6.182
 5797SOL    HW118290   4.662   2.231   6.226
 5797SOL    HW218291   4.796   2.283   6.148
 5798SOL     OW18292   0.647   4.465   5.116
 5798SOL    HW118293   0.682   4.546   5.164
 5798SOL    HW218294   0.723   4.417   5.072
 5799SOL     OW18295   0.526   0.657   3.419
 5799SOL    HW118296   0.595   0.625   3.484
 5799SOL    HW218297   0.565   0.658   3.327
 5800SOL     OW18298   6.161   6.143   1.852
 5800SOL    HW118299   6.160   6.180   1.759
 5800SOL    HW218300   6.122   6.209   1.915
 5801SOL     OW18301   2.053   2.639   3.316
 5801SOL    HW118302   2.094   2.553   3.345
 5801SOL    HW218303   2.090   2.714   3.370
 5802SOL     OW18304   0.976   4.025   2.276
 5802SOL    HW118305   1.067   4.005   2.314
 5802SOL    HW218306   0.907   3.979   2.331
 5803SOL     OW18307   2.354   5.127   2.354
 5803SOL    HW118308   2.385   5.206   2.406
 5803SOL    HW218309   2.414   5.113   2.275
 5804SOL     OW18310   0.572   5.844   3.731
 5804SOL    HW118311   0.568   5.830   3.632
 5804SOL    HW218312   0.664   5.871   3.757
 5805SOL     OW18313   2.420   3.519   0.051
 5805SOL    HW118314   2.336   3.467   0.066
 5805SOL    HW218315   2.423   3.551   6.975
 5806SOL     OW18316   6.715   5.190   4.928
 5806SOL    HW118317   6.694   5.109   4.983
 5806SOL    HW218318   6.711   5.166   4.831
 5807SOL     OW18319   0.413   4.143   1.822
 5807SOL    HW118320   0.503   4.102   1.841
 5807SOL    HW218321   0.417   4.192   1.735
 5808SOL     OW18322   5.769   5.937   4.725
 5808SOL    HW118323   5.728   5.995   4.795
 5808SOL    HW218324   5.721   5.949   4.639
 5809SOL     OW18325   5.629   1.940   4.504
 5809SOL    HW118326   5.671   1.852   4.480
 5809SOL    HW218327   5.544   1.924   4.553
 5810SOL     OW18328   4.102   1.505   4.959
 5810SOL    HW118329   4.151   1.519   5.045
 5810SOL    HW218330   4.032   1.434   4.972
 5811SOL     OW18331   3.486   0.987   4.769
 5811SOL    HW118332   3.395   1.023   4.748
 5811SOL    HW218333   3.506   0.909   4.709
 5812SOL     OW18334   6.321   2.362   4.537
 5812SOL    HW118335   6.353   2.298   4.607
 5812SOL    HW218336   6.394   2.427   4.516
 5813SOL     OW18337   1.757   2.515   0.939
 5813SOL    HW118338   1.759   2.612   0.914
 5813SOL    HW218339   1.681   2.470   0.891
 5814SOL     OW18340   6.136   4.609   1.569
 5814SOL    HW118341   6.125   4.681   1.500
 5814SOL    HW218342   6.134   4.520   1.524
 5815SOL     OW18343   3.834   2.118   4.395
 5815SOL    HW118344   3.743   2.100   4.431
 5815SOL    HW218345   3.828   2.191   4.326
 5816SOL     OW18346   4.371   5.238   0.088
 5816SOL    HW118347   4.447   5.288   0.048
 5816SOL    HW218348   4.347   5.160   0.029
 5817SOL     OW18349   5.401   3.784   5.925
 5817SOL    HW118350   5.496   3.798   5.952
 5817SOL    HW218351   5.352   3.871   5.930
 5818SOL     OW18352   6.295   6.140   4.827
 5818SOL    HW118353   6.330   6.046   4.823
 5818SOL    HW218354   6.370   6.203   4.844
 5819SOL     OW18355   3.541   6.524   6.806
 5819SOL    HW118356   3.632   6.563   6.819
 5819SOL    HW218357   3.500   6.562   6.724
 5820SOL     OW18358   4.581   5.180   3.880
 5820SOL    HW118359   4.666   5.232   3.879
 5820SOL    HW218360   4.547   5.168   3.787
 5821SOL     OW18361   0.187   6.591   1.501
 5821SOL    HW118362   0.198   6.492   1.510
 5821SOL    HW218363   0.113   6.622   1.561
 5822SOL     OW18364   1.702   2.584   1.593
 5822SOL    HW118365   1.714   2.491   1.558
 5822SOL    HW218366   1.784   2.611   1.645
 5823SOL     OW18367   1.834   0.948   5.774
 5823SOL    HW118368   1.841   1.001   5.689
 5823SOL    HW218369   1.848   0.851   5.754
 5824SOL     OW18370   6.639   5.536   2.340
 5824SOL    HW118371   6.726   5.491   2.357
 5824SOL    HW218372   6.624   5.608   2.408
 5825SOL     OW18373   1.342   1.713   5.443
 5825SOL    HW118374   1.403   1.788   5.417
 5825SOL    HW218375   1.312   1.664   5.361
 5826SOL     OW18376   6.755   5.104   5.670
 5826SOL    HW118377   6.773   5.154   5.754
 5826SOL    HW218378   6.811   5.142   5.596
 5827SOL     OW18379   2.253   4.444   5.425
 5827SOL    HW118380   2.296   4.512   5.366
 5827SOL    HW218381   2.277   4.352   5.395
 5828SOL     OW18382   6.447   1.864   1.404
 5828SOL    HW118383   6.407   1.947   1.367
 5828SOL    HW218384   6.509   1.887   1.478
 5829SOL     OW18385   1.401   0.717   3.383
 5829SOL    HW118386   1.391   0.637   3.324
 5829SOL    HW218387   1.497   0.745   3.385
 5830SOL     OW18388   5.233   6.471   5.856
 5830SOL    HW118389   5.283   6.466   5.770
 5830SOL    HW218390   5.218   6.567   5.880
 5831SOL     OW18391   0.861   1.243   5.161
 5831SOL    HW118392   0.783   1.275   5.107
 5831SOL    HW218393   0.877   1.146   5.143
 5832SOL     OW18394   2.700   4.669   6.871
 5832SOL    HW118395   2.636   4.731   6.917
 5832SOL    HW218396   2.648   4.598   6.823
 5833SOL     OW18397   3.546   3.635   4.597
 5833SOL    HW118398   3.458   3.672   4.566
 5833SOL    HW218399   3.592   3.590   4.520
 5834SOL     OW18400   0.070   3.184   6.882
 5834SOL    HW118401   0.083   3.133   6.797
 5834SOL    HW218402   0.014   3.131   6.945
 5835SOL     OW18403   5.272   3.151   3.856
 5835SOL    HW118404   5.225   3.063   3.870
 5835SOL    HW218405   5.205   3.220   3.830
 5836SOL     OW18406   2.709   6.525   2.111
 5836SOL    HW118407   2.710   6.467   2.193
 5836SOL    HW218408   2.615   6.550   2.089
 5837SOL     OW18409   4.056   3.874   6.027
 5837SOL    HW118410   4.090   3.843   5.938
 5837SOL    HW218411   3.957   3.889   6.021
 5838SOL     OW18412   2.666   2.375   0.624
 5838SOL    HW118413   2.753   2.425   0.618
 5838SOL    HW218414   2.680   2.289   0.672
 5839SOL     OW18415   1.031   1.716   2.550
 5839SOL    HW118416   1.084   1.656   2.490
 5839SOL    HW218417   0.986   1.786   2.495
 5840SOL     OW18418   0.425   5.627   6.025
 5840SOL    HW118419   0.325   5.630   6.021
 5840SOL    HW218420   0.459   5.568   5.951
 5841SOL     OW18421   4.995   2.050   2.757
 5841SOL    HW118422   5.003   2.120   2.829
 5841SOL    HW218423   5.056   2.074   2.681
 5842SOL     OW18424   4.668   3.101   1.413
 5842SOL    HW118425   4.583   3.155   1.411
 5842SOL    HW218426   4.709   3.107   1.505
 5843SOL     OW18427   1.880   4.160   3.304
 5843SOL    HW118428   1.941   4.199   3.373
 5843SOL    HW218429   1.793   4.134   3.347
 5844SOL     OW18430   1.998   6.432   5.900
 5844SOL    HW118431   2.063   6.374   5.948
 5844SOL    HW218432   2.033   6.526   5.898
 5845SOL     OW18433   0.298   0.711   2.562
 5845SOL    HW118434   0.244   0.633   2.592
 5845SOL    HW218435   0.394   0.696   2.584
 5846SOL     OW18436   0.088   2.806   4.783
 5846SOL    HW118437   0.090   2.877   4.854
 5846SOL    HW218438   0.031   2.730   4.813
 5847SOL     OW18439   2.481   2.300   2.036
 5847SOL    HW118440   2.458   2.221   2.094
 5847SOL    HW218441   2.471   2.274   1.940
 5848SOL     OW18442   2.310   6.082   3.351
 5848SOL    HW118443   2.277   6.132   3.271
 5848SOL    HW218444   2.322   6.145   3.427
 5849SOL     OW18445   0.568   0.382   5.767
 5849SOL    HW118446   0.484   0.409   5.814
 5849SOL    HW218447   0.581   0.283   5.773
 5850SOL     OW18448   6.815   3.056   1.994
 5850SOL    HW118449   6.840   3.038   2.089
 5850SOL    HW218450   6.720   3.086   1.989
 5851SOL     OW18451   4.865   3.724   2.856
 5851SOL    HW118452   4.784   3.781   2.867
 5851SOL    HW218453   4.897   3.694   2.946
 5852SOL     OW18454   6.257   5.730   3.164
 5852SOL    HW118455   6.165   5.755   3.134
 5852SOL    HW218456   6.321   5.804   3.143
 5853SOL     OW18457   3.687   6.163   4.382
 5853SOL    HW118458   3.743   6.098   4.329
 5853SOL    HW218459   3.636   6.114   4.452
 5854SOL     OW18460   5.276   4.760   6.193
 5854SOL    HW118461   5.206   4.697   6.158
 5854SOL    HW218462   5.313   4.815   6.118
 5855SOL     OW18463   0.376   1.234   4.930
 5855SOL    HW118464   0.344   1.233   4.835
 5855SOL    HW218465   0.367   1.326   4.967
 5856SOL     OW18466   2.070   5.467   3.735
 5856SOL    HW118467   1.987   5.523   3.734
 5856SOL    HW218468   2.057   5.388   3.795
 5857SOL     OW18469   6.393   2.073   6.005
 5857SOL    HW118470   6.482   2.069   5.958
 5857SOL    HW218471   6.321   2.083   5.937
 5858SOL     OW18472   2.601   2.102   2.279
 5858SOL    HW118473   2.650   2.035   2.335
 5858SOL    HW218474   2.664   2.174   2.250
 5859SOL     OW18475   5.723   6.103   1.299
 5859SOL    HW118476   5.695   6.067   1.210
 5859SOL    HW218477   5.823   6.103   1.305
 5860SOL     OW18478   0.889   3.473   1.869
 5860SOL    HW118479   0.899   3.489   1.967
 5860SOL    HW218480   0.980   3.467   1.827
 5861SOL     OW18481   4.510   1.778   4.545
 5861SOL    HW118482   4.438   1.710   4.555
 5861SOL    HW218483   4.472   1.869   4.564
 5862SOL     OW18484   5.147   5.154   1.366
 5862SOL    HW118485   5.075   5.167   1.435
 5862SOL    HW218486   5.133   5.066   1.320
 5863SOL     OW18487   3.099   1.629   5.060
 5863SOL    HW118488   3.133   1.721   5.044
 5863SOL    HW218489   3.012   1.617   5.011
 5864SOL     OW18490   4.265   3.535   1.784
 5864SOL    HW118491   4.361   3.516   1.761
 5864SOL    HW218492   4.229   3.461   1.840
 5865SOL     OW18493   5.770   0.272   5.063
 5865SOL    HW118494   5.747   0.297   4.969
 5865SOL    HW218495   5.803   0.178   5.066
 5866SOL     OW18496   4.442   4.539   0.112
 5866SOL    HW118497   4.457   4.487   0.196
 5866SOL    HW218498   4.371   4.608   0.128
 5867SOL     OW18499   1.321   3.776   0.644
 5867SOL    HW118500   1.303   3.757   0.548
 5867SOL    HW218501   1.264   3.852   0.675
 5868SOL     OW18502   1.074   1.570   5.854
 5868SOL    HW118503   1.131   1.568   5.772
 5868SOL    HW218504   1.131   1.581   5.935
 5869SOL     OW18505   1.716   5.915   3.297
 5869SOL    HW118506   1.757   5.826   3.275
 5869SOL    HW218507   1.617   5.906   3.302
 5870SOL     OW18508   5.022   5.800   4.797
 5870SOL    HW118509   5.013   5.816   4.895
 5870SOL    HW218510   5.078   5.872   4.756
 5871SOL     OW18511   4.175   2.500   1.492
 5871SOL    HW118512   4.180   2.505   1.592
 5871SOL    HW218513   4.140   2.586   1.456
 5872SOL     OW18514   3.862   6.449   1.293
 5872SOL    HW118515   3.918   6.527   1.266
 5872SOL    HW218516   3.922   6.373   1.320
 5873SOL     OW18517   2.841   2.260   1.572
 5873SOL    HW118518   2.810   2.219   1.657
 5873SOL    HW218519   2.896   2.342   1.592
 5874SOL     OW18520   2.984   4.029   6.817
 5874SOL    HW118521   3.009   3.947   6.868
 5874SOL    HW218522   2.896   4.014   6.772
 5875SOL     OW18523   4.310   0.808   6.634
 5875SOL    HW118524   4.296   0.885   6.573
 5875SOL    HW218525   4.278   0.832   6.726
 5876SOL     OW18526   3.243   3.786   0.747
 5876SOL    HW118527   3.193   3.705   0.716
 5876SOL    HW218528   3.243   3.789   0.847
 5877SOL     OW18529   0.427   0.413   1.010
 5877SOL    HW118530   0.524   0.395   1.027
 5877SOL    HW218531   0.405   0.386   0.916
 5878SOL     OW18532   5.982   5.477   4.438
 5878SOL    HW118533   6.040   5.403   4.473
 5878SOL    HW218534   5.975   5.470   4.338
 5879SOL     OW18535   1.824   3.628   6.829
 5879SOL    HW118536   1.862   3.537   6.814
 5879SOL    HW218537   1.754   3.624   6.900
 5880SOL     OW18538   5.396   4.498   6.851
 5880SOL    HW118539   5.338   4.527   6.775
 5880SOL    HW218540   5.475   4.560   6.859
 5881SOL     OW18541   1.290   6.733   2.087
 5881SOL    HW118542   1.253   6.644   2.110
 5881SOL    HW218543   1.387   6.725   2.064
 5882SOL     OW18544   0.156   5.622   6.315
 5882SOL    HW118545   0.125   5.530   6.289
 5882SOL    HW218546   0.110   5.690   6.257
 5883SOL     OW18547   0.495   1.870   6.861
 5883SOL    HW118548   0.565   1.806   6.893
 5883SOL    HW218549   0.422   1.819   6.815
 5884SOL     OW18550   4.797   1.027   4.254
 5884SOL    HW118551   4.832   1.114   4.290
 5884SOL    HW218552   4.757   0.974   4.328
 5885SOL     OW18553   0.274   5.797   2.565
 5885SOL    HW118554   0.244   5.854   2.641
 5885SOL    HW218555   0.340   5.847   2.509
 5886SOL     OW18556   0.439   2.122   3.985
 5886SOL    HW118557   0.395   2.130   4.075
 5886SOL    HW218558   0.536   2.144   3.993
 5887SOL     OW18559   2.334   2.279   1.503
 5887SOL    HW118560   2.422   2.259   1.462
 5887SOL    HW218561   2.332   2.373   1.535
 5888SOL     OW18562   1.783   0.242   1.112
 5888SOL    HW118563   1.835   0.327   1.114
 5888SOL    HW218564   1.702   0.254   1.054
 5889SOL     OW18565   6.740   1.352   0.023
 5889SOL    HW118566   6.646   1.387   0.033
 5889SOL    HW218567   6.801   1.428   0.001
 5890SOL     OW18568   2.144   0.757   2.383
 5890SOL    HW118569   2.183   0.712   2.303
 5890SOL    HW218570   2.118   0.851   2.360
 5891SOL     OW18571   3.017   3.739   6.899
 5891SOL    HW118572   3.095   3.791   6.934
 5891SOL    HW218573   3.044   3.643   6.888
 5892SOL     OW18574   1.193   5.346   1.967
 5892SOL    HW118575   1.242   5.259   1.963
 5892SOL    HW218576   1.213   5.399   1.884
 5893SOL     OW18577   2.371   4.181   1.974
 5893SOL    HW118578   2.347   4.210   1.881
 5893SOL    HW218579   2.418   4.093   1.971
 5894SOL     OW18580   0.608   5.549   4.643
 5894SOL    HW118581   0.581   5.557   4.739
 5894SOL    HW218582   0.621   5.640   4.605
 5895SOL     OW18583   5.236   3.538   3.664
 5895SOL    HW118584   5.325   3.509   3.629
 5895SOL    HW218585   5.205   3.473   3.733
 5896SOL     OW18586   4.460   1.856   1.143
 5896SOL    HW118587   4.510   1.897   1.067
 5896SOL    HW218588   4.424   1.767   1.115
 5897SOL     OW18589   3.837   0.741   1.826
 5897SOL    HW118590   3.803   0.706   1.914
 5897SOL    HW218591   3.759   0.755   1.764
 5898SOL     OW18592   2.712   0.987   4.664
 5898SOL    HW118593   2.763   1.071   4.645
 5898SOL    HW218594   2.677   0.991   4.758
 5899SOL     OW18595   5.837   5.884   6.974
 5899SOL    HW118596   5.819   5.832   0.038
 5899SOL    HW218597   5.936   5.890   6.959
 5900SOL     OW18598   6.891   4.345   3.143
 5900SOL    HW118599   6.897   4.245   3.136
 5900SOL    HW218600   6.803   4.369   3.184
 5901SOL     OW18601   3.256   0.580   1.174
 5901SOL    HW118602   3.182   0.648   1.178
 5901SOL    HW218603   3.343   0.626   1.162
 5902SOL     OW18604   6.222   3.518   5.714
 5902SOL    HW118605   6.255   3.572   5.636
 5902SOL    HW218606   6.242   3.421   5.698
 5903SOL     OW18607   4.971   4.263   5.876
 5903SOL    HW118608   4.901   4.198   5.906
 5903SOL    HW218609   4.965   4.277   5.778
 5904SOL     OW18610   1.113   4.570   0.789
 5904SOL    HW118611   1.028   4.586   0.839
 5904SOL    HW218612   1.182   4.534   0.852
 5905SOL     OW18613   6.711   0.114   3.558
 5905SOL    HW118614   6.671   0.197   3.598
 5905SOL    HW218615   6.802   0.100   3.595
 5906SOL     OW18616   4.428   1.672   3.886
 5906SOL    HW118617   4.498   1.672   3.957
 5906SOL    HW218618   4.421   1.764   3.846
 5907SOL     OW18619   0.642   6.020   0.351
 5907SOL    HW118620   0.682   6.062   0.270
 5907SOL    HW218621   0.635   5.921   0.337
 5908SOL     OW18622   6.341   3.425   0.527
 5908SOL    HW118623   6.310   3.513   0.563
 5908SOL    HW218624   6.361   3.435   0.429
 5909SOL     OW18625   6.248   4.909   6.379
 5909SOL    HW118626   6.288   4.947   6.462
 5909SOL    HW218627   6.269   4.812   6.372
 5910SOL     OW18628   0.154   4.404   1.841
 5910SOL    HW118629   0.180   4.422   1.936
 5910SOL    HW218630   0.110   4.314   1.835
 5911SOL     OW18631   6.528   4.468   6.690
 5911SOL    HW118632   6.565   4.560   6.679
 5911SOL    HW218633   6.437   4.473   6.730
 5912SOL     OW18634   5.887   2.889   6.695
 5912SOL    HW118635   5.802   2.904   6.645
 5912SOL    HW218636   5.963   2.929   6.643
 5913SOL     OW18637   3.499   3.265   6.435
 5913SOL    HW118638   3.435   3.342   6.438
 5913SOL    HW218639   3.580   3.291   6.383
 5914SOL     OW18640   2.613   5.675   6.439
 5914SOL    HW118641   2.665   5.751   6.399
 5914SOL    HW218642   2.610   5.599   6.374
 5915SOL     OW18643   5.564   4.524   1.675
 5915SOL    HW118644   5.655   4.562   1.659
 5915SOL    HW218645   5.494   4.589   1.644
 5916SOL     OW18646   4.488   5.875   5.424
 5916SOL    HW118647   4.487   5.818   5.342
 5916SOL    HW218648   4.444   5.962   5.406
 5917SOL     OW18649   3.590   3.769   3.752
 5917SOL    HW118650   3.583   3.731   3.844
 5917SOL    HW218651   3.503   3.758   3.705
 5918SOL     OW18652   1.951   3.154   5.502
 5918SOL    HW118653   2.039   3.196   5.480
 5918SOL    HW218654   1.895   3.150   5.419
 5919SOL     OW18655   4.043   2.499   1.085
 5919SOL    HW118656   4.110   2.469   1.017
 5919SOL    HW218657   4.022   2.596   1.072
 5920SOL     OW18658   3.758   0.408   0.312
 5920SOL    HW118659   3.679   0.449   0.358
 5920SOL    HW218660   3.728   0.332   0.255
 5921SOL     OW18661   3.682   5.354   5.801
 5921SOL    HW118662   3.748   5.308   5.743
 5921SOL    HW218663   3.591   5.348   5.761
 5922SOL     OW18664   6.635   5.375   3.630
 5922SOL    HW118665   6.583   5.304   3.581
 5922SOL    HW218666   6.612   5.465   3.593
 5923SOL     OW18667   5.605   0.850   0.861
 5923SOL    HW118668   5.703   0.845   0.838
 5923SOL    HW218669   5.584   0.782   0.930
 5924SOL     OW18670   0.223   1.567   4.079
 5924SOL    HW118671   0.288   1.492   4.091
 5924SOL    HW218672   0.137   1.544   4.124
 5925SOL     OW18673   4.053   5.541   2.533
 5925SOL    HW118674   4.066   5.557   2.435
 5925SOL    HW218675   4.014   5.450   2.547
 5926SOL     OW18676   3.906   5.006   2.104
 5926SOL    HW118677   3.811   4.995   2.132
 5926SOL    HW218678   3.911   5.008   2.004
 5927SOL     OW18679   1.401   4.316   3.072
 5927SOL    HW118680   1.396   4.251   3.147
 5927SOL    HW218681   1.424   4.268   2.987
 5928SOL     OW18682   3.585   0.129   1.070
 5928SOL    HW118683   3.558   0.160   1.162
 5928SOL    HW218684   3.569   0.203   1.005
 5929SOL     OW18685   0.932   6.243   6.100
 5929SOL    HW118686   0.890   6.218   6.187
 5929SOL    HW218687   0.922   6.168   6.034
 5930SOL     OW18688   6.722   2.233   3.609
 5930SOL    HW118689   6.765   2.323   3.594
 5930SOL    HW218690   6.649   2.243   3.676
 5931SOL     OW18691   6.659   5.382   4.102
 5931SOL    HW118692   6.576   5.436   4.087
 5931SOL    HW218693   6.731   5.441   4.137
 5932SOL     OW18694   1.973   0.034   0.710
 5932SOL    HW118695   2.027   6.993   0.651
 5932SOL    HW218696   1.882   7.014   0.724
 5933SOL     OW18697   0.618   5.758   3.466
 5933SOL    HW118698   0.637   5.846   3.421
 5933SOL    HW218699   0.677   5.687   3.426
 5934SOL     OW18700   3.730   4.096   4.295
 5934SOL    HW118701   3.744   4.059   4.387
 5934SOL    HW218702   3.649   4.154   4.294
 5935SOL     OW18703   4.374   3.677   5.952
 5935SOL    HW118704   4.277   3.653   5.958
 5935SOL    HW218705   4.396   3.704   5.858
 5936SOL     OW18706   4.307   3.800   0.638
 5936SOL    HW118707   4.403   3.793   0.665
 5936SOL    HW218708   4.292   3.888   0.593
 5937SOL     OW18709   0.703   4.798   2.798
 5937SOL    HW118710   0.647   4.839   2.869
 5937SOL    HW218711   0.694   4.699   2.801
 5938SOL     OW18712   0.780   5.113   4.168
 5938SOL    HW118713   0.846   5.055   4.120
 5938SOL    HW218714   0.822   5.151   4.250
 5939SOL     OW18715   2.824   6.980   3.262
 5939SOL    HW118716   2.853   6.933   3.345
 5939SOL    HW218717   2.736   0.005   3.279
 5940SOL     OW18718   4.101   5.657   1.233
 5940SOL    HW118719   4.155   5.714   1.171
 5940SOL    HW218720   4.041   5.715   1.288
 5941SOL     OW18721   6.173   3.116   1.824
 5941SOL    HW118722   6.214   3.180   1.889
 5941SOL    HW218723   6.147   3.032   1.872
 5942SOL     OW18724   4.937   2.970   0.371
 5942SOL    HW118725   4.984   2.888   0.406
 5942SOL    HW218726   4.918   2.958   0.274
 5943SOL     OW18727   3.600   5.390   0.491
 5943SOL    HW118728   3.567   5.479   0.523
 5943SOL    HW218729   3.536   5.319   0.520
 5944SOL     OW18730   5.856   2.385   0.918
 5944SOL    HW118731   5.772   2.339   0.889
 5944SOL    HW218732   5.843   2.484   0.912
 5945SOL     OW18733   6.221   5.095   5.367
 5945SOL    HW118734   6.282   5.173   5.352
 5945SOL    HW218735   6.126   5.127   5.372
 5946SOL     OW18736   3.012   3.384   5.699
 5946SOL    HW118737   3.105   3.370   5.665
 5946SOL    HW218738   2.976   3.471   5.663
 5947SOL     OW18739   4.140   3.410   1.995
 5947SOL    HW118740   4.100   3.497   2.024
 5947SOL    HW218741   4.139   3.345   2.071
 5948SOL     OW18742   4.160   5.143   3.127
 5948SOL    HW118743   4.086   5.188   3.175
 5948SOL    HW218744   4.216   5.090   3.192
 5949SOL     OW18745   4.217   3.424   1.512
 5949SOL    HW118746   4.254   3.486   1.581
 5949SOL    HW218747   4.273   3.429   1.430
 5950SOL     OW18748   5.009   2.754   5.639
 5950SOL    HW118749   5.060   2.749   5.725
 5950SOL    HW218750   4.921   2.708   5.649
 5951SOL     OW18751   6.864   5.416   4.709
 5951SOL    HW118752   6.957   5.401   4.741
 5951SOL    HW218753   6.825   5.329   4.679
 5952SOL     OW18754   5.404   4.807   3.941
 5952SOL    HW118755   5.367   4.878   4.002
 5952SOL    HW218756   5.490   4.773   3.979
 5953SOL     OW18757   6.226   2.681   5.193
 5953SOL    HW118758   6.168   2.606   5.227
 5953SOL    HW218759   6.270   2.653   5.108
 5954SOL     OW18760   0.179   4.270   5.977
 5954SOL    HW118761   0.124   4.345   6.015
 5954SOL    HW218762   0.238   4.306   5.905
 5955SOL     OW18763   5.103   5.560   2.561
 5955SOL    HW118764   5.125   5.464   2.547
 5955SOL    HW218765   5.183   5.609   2.596
 5956SOL     OW18766   3.597   1.281   5.671
 5956SOL    HW118767   3.499   1.263   5.682
 5956SOL    HW218768   3.632   1.327   5.752
 5957SOL     OW18769   4.541   0.689   5.611
 5957SOL    HW118770   4.560   0.759   5.542
 5957SOL    HW218771   4.461   0.636   5.583
 5958SOL     OW18772   6.470   5.825   2.391
 5958SOL    HW118773   6.478   5.813   2.292
 5958SOL    HW218774   6.550   5.785   2.436
 5959SOL     OW18775   3.873   2.395   5.565
 5959SOL    HW118776   3.920   2.312   5.594
 5959SOL    HW218777   3.940   2.467   5.545
 5960SOL     OW18778   3.765   5.416   4.598
 5960SOL    HW118779   3.864   5.431   4.586
 5960SOL    HW218780   3.726   5.384   4.511
 5961SOL     OW18781   5.294   0.940   2.935
 5961SOL    HW118782   5.204   0.902   2.911
 5961SOL    HW218783   5.345   0.961   2.852
 5962SOL     OW18784   5.101   6.072   1.055
 5962SOL    HW118785   5.095   6.149   0.991
 5962SOL    HW218786   5.046   6.093   1.136
 5963SOL     OW18787   3.358   3.034   4.722
 5963SOL    HW118788   3.381   3.128   4.696
 5963SOL    HW218789   3.278   3.035   4.781
 5964SOL     OW18790   0.118   5.183   5.579
 5964SOL    HW118791   0.034   5.184   5.525
 5964SOL    HW218792   0.173   5.103   5.553
 5965SOL     OW18793   0.854   2.334   0.165
 5965SOL    HW118794   0.755   2.330   0.173
 5965SOL    HW218795   0.880   2.402   0.097
 5966SOL     OW18796   2.076   5.770   4.993
 5966SOL    HW118797   2.030   5.784   4.905
 5966SOL    HW218798   2.103   5.858   5.032
 5967SOL     OW18799   3.966   6.322   0.310
 5967SOL    HW118800   3.967   6.361   0.218
 5967SOL    HW218801   4.059   6.293   0.335
 5968SOL     OW18802   5.218   0.784   1.589
 5968SOL    HW118803   5.168   0.871   1.585
 5968SOL    HW218804   5.180   0.721   1.522
 5969SOL     OW18805   0.029   0.892   6.763
 5969SOL    HW118806   7.009   0.801   6.746
 5969SOL    HW218807   0.076   0.892   6.851
 5970SOL     OW18808   0.880   4.327   2.634
 5970SOL    HW118809   0.815   4.252   2.647
 5970SOL    HW218810   0.971   4.298   2.663
 5971SOL     OW18811   1.441   1.295   3.024
 5971SOL    HW118812   1.435   1.200   2.994
 5971SOL    HW218813   1.361   1.346   2.991
 5972SOL     OW18814   5.233   6.233   6.736
 5972SOL    HW118815   5.218   6.326   6.702
 5972SOL    HW218816   5.296   6.235   6.814
 5973SOL     OW18817   1.789   3.594   2.428
 5973SOL    HW118818   1.887   3.598   2.409
 5973SOL    HW218819   1.739   3.587   2.342
 5974SOL     OW18820   5.761   4.516   6.508
 5974SOL    HW118821   5.665   4.489   6.513
 5974SOL    HW218822   5.792   4.547   6.597
 5975SOL     OW18823   3.523   2.093   0.803
 5975SOL    HW118824   3.587   2.154   0.850
 5975SOL    HW218825   3.431   2.132   0.808
 5976SOL     OW18826   2.933   3.557   5.003
 5976SOL    HW118827   2.908   3.640   4.953
 5976SOL    HW218828   2.862   3.536   5.071
 5977SOL     OW18829   2.464   5.156   0.789
 5977SOL    HW118830   2.400   5.098   0.838
 5977SOL    HW218831   2.540   5.101   0.755
 5978SOL     OW18832   5.004   5.780   3.319
 5978SOL    HW118833   4.945   5.761   3.241
 5978SOL    HW218834   5.026   5.877   3.323
 5979SOL     OW18835   6.673   0.046   2.546
 5979SOL    HW118836   6.663   0.033   2.447
 5979SOL    HW218837   6.599   0.104   2.580
 5980SOL     OW18838   3.535   3.218   0.355
 5980SOL    HW118839   3.575   3.189   0.268
 5980SOL    HW218840   3.599   3.200   0.429
 5981SOL     OW18841   6.026   1.554   1.816
 5981SOL    HW118842   6.088   1.502   1.756
 5981SOL    HW218843   5.944   1.580   1.765
 5982SOL     OW18844   6.772   2.632   1.380
 5982SOL    HW118845   6.863   2.637   1.422
 5982SOL    HW218846   6.756   2.714   1.326
 5983SOL     OW18847   1.810   0.804   4.285
 5983SOL    HW118848   1.865   0.861   4.346
 5983SOL    HW218849   1.735   0.763   4.336
 5984SOL     OW18850   6.424   6.429   5.034
 5984SOL    HW118851   6.503   6.369   5.017
 5984SOL    HW218852   6.451   6.501   5.098
 5985SOL     OW18853   6.613   2.987   4.509
 5985SOL    HW118854   6.673   3.059   4.544
 5985SOL    HW218855   6.628   2.902   4.560
 5986SOL     OW18856   3.375   3.582   4.070
 5986SOL    HW118857   3.470   3.614   4.064
 5986SOL    HW218858   3.340   3.599   4.162
 5987SOL     OW18859   4.477   0.633   4.811
 5987SOL    HW118860   4.573   0.646   4.834
 5987SOL    HW218861   4.469   0.572   4.733
 5988SOL     OW18862   5.466   6.765   5.383
 5988SOL    HW118863   5.456   6.691   5.316
 5988SOL    HW218864   5.538   6.741   5.449
 5989SOL     OW18865   2.631   6.146   0.409
 5989SOL    HW118866   2.562   6.161   0.338
 5989SOL    HW218867   2.598   6.180   0.496
 5990SOL     OW18868   3.748   4.643   0.711
 5990SOL    HW118869   3.676   4.688   0.763
 5990SOL    HW218870   3.780   4.704   0.638
 5991SOL     OW18871   3.731   5.539   6.015
 5991SOL    HW118872   3.665   5.605   5.978
 5991SOL    HW218873   3.728   5.455   5.962
 5992SOL     OW18874   3.280   0.504   2.906
 5992SOL    HW118875   3.282   0.567   2.983
 5992SOL    HW218876   3.314   0.415   2.935
 5993SOL     OW18877   3.384   5.983   6.043
 5993SOL    HW118878   3.453   5.916   6.071
 5993SOL    HW218879   3.350   6.031   6.123
 5994SOL     OW18880   6.956   2.543   2.283
 5994SOL    HW118881   6.916   2.561   2.372
 5994SOL    HW218882   6.933   2.618   2.220
 5995SOL     OW18883   5.935   5.279   2.461
 5995SOL    HW118884   5.891   5.350   2.406
 5995SOL    HW218885   5.932   5.305   2.558
 5996SOL     OW18886   1.040   6.179   0.165
 5996SOL    HW118887   0.942   6.167   0.147
 5996SOL    HW218888   1.073   6.103   0.220
 5997SOL     OW18889   0.985   5.814   2.946
 5997SOL    HW118890   1.036   5.729   2.930
 5997SOL    HW218891   0.893   5.792   2.978
 5998SOL     OW18892   6.417   2.183   2.064
 5998SOL    HW118893   6.388   2.269   2.022
 5998SOL    HW218894   6.339   2.142   2.113
 5999SOL     OW18895   1.775   1.328   2.429
 5999SOL    HW118896   1.817   1.239   2.449
 5999SOL    HW218897   1.838   1.401   2.454
 6000SOL     OW18898   4.211   7.015   1.649
 6000SOL    HW118899   4.140   0.021   1.583
 6000SOL    HW218900   4.282   6.961   1.603
 6001SOL     OW18901   0.499   3.938   6.508
 6001SOL    HW118902   0.553   3.954   6.425
 6001SOL    HW218903   0.420   3.999   6.507
 6002SOL     OW18904   6.714   6.979   1.322
 6002SOL    HW118905   6.689   6.888   1.291
 6002SOL    HW218906   6.721   0.022   1.243
 6003SOL     OW18907   0.277   2.212   4.224
 6003SOL    HW118908   0.190   2.235   4.182
 6003SOL    HW218909   0.302   2.282   4.291
 6004SOL     OW18910   0.437   4.275   3.223
 6004SOL    HW118911   0.483   4.295   3.137
 6004SOL    HW218912   0.341   4.252   3.205
 6005SOL     OW18913   4.650   5.287   4.748
 6005SOL    HW118914   4.659   5.291   4.648
 6005SOL    HW218915   4.712   5.218   4.784
 6006SOL     OW18916   2.658   0.590   6.851
 6006SOL    HW118917   2.673   0.516   6.785
 6006SOL    HW218918   2.579   0.644   6.823
 6007SOL     OW18919   5.095   3.613   5.044
 6007SOL    HW118920   5.137   3.546   5.106
 6007SOL    HW218921   4.997   3.594   5.036
 6008SOL     OW18922   1.685   4.966   5.666
 6008SOL    HW118923   1.630   4.988   5.586
 6008SOL    HW218924   1.695   4.866   5.672
 6009SOL     OW18925   3.870   0.747   3.881
 6009SOL    HW118926   3.820   0.714   3.961
 6009SOL    HW218927   3.941   0.682   3.856
 6010SOL     OW18928   1.586   3.975   3.571
 6010SOL    HW118929   1.582   3.875   3.582
 6010SOL    HW218930   1.523   4.018   3.636
 6011SOL     OW18931   4.889   2.602   3.124
 6011SOL    HW118932   4.928   2.566   3.040
 6011SOL    HW218933   4.961   2.607   3.194
 6012SOL     OW18934   5.376   0.753   0.106
 6012SOL    HW118935   5.443   0.680   0.122
 6012SOL    HW218936   5.342   0.786   0.194
 6013SOL     OW18937   5.800   2.820   2.561
 6013SOL    HW118938   5.849   2.898   2.522
 6013SOL    HW218939   5.761   2.846   2.649
 6014SOL     OW18940   4.237   3.163   0.862
 6014SOL    HW118941   4.264   3.069   0.843
 6014SOL    HW218942   4.137   3.171   0.855
 6015SOL     OW18943   5.781   2.126   4.912
 6015SOL    HW118944   5.734   2.164   4.833
 6015SOL    HW218945   5.867   2.176   4.927
 6016SOL     OW18946   6.639   1.704   6.207
 6016SOL    HW118947   6.560   1.684   6.266
 6016SOL    HW218948   6.701   1.626   6.207
 6017SOL     OW18949   0.389   4.546   2.853
 6017SOL    HW118950   0.423   4.577   2.941
 6017SOL    HW218951   0.429   4.457   2.831
 6018SOL     OW18952   3.182   0.926   6.836
 6018SOL    HW118953   3.201   0.911   6.739
 6018SOL    HW218954   3.118   1.002   6.846
 6019SOL     OW18955   6.433   1.749   4.119
 6019SOL    HW118956   6.454   1.841   4.154
 6019SOL    HW218957   6.517   1.707   4.084
 6020SOL     OW18958   2.209   5.058   1.402
 6020SOL    HW118959   2.175   5.150   1.422
 6020SOL    HW218960   2.189   4.998   1.480
 6021SOL     OW18961   4.173   0.990   2.236
 6021SOL    HW118962   4.128   0.927   2.172
 6021SOL    HW218963   4.114   1.005   2.315
 6022SOL     OW18964   5.001   2.063   4.318
 6022SOL    HW118965   4.937   2.032   4.248
 6022SOL    HW218966   4.951   2.092   4.399
 6023SOL     OW18967   6.115   1.148   1.838
 6023SOL    HW118968   6.152   1.188   1.754
 6023SOL    HW218969   6.109   1.049   1.828
 6024SOL     OW18970   0.586   4.962   2.993
 6024SOL    HW118971   0.643   5.000   3.065
 6024SOL    HW218972   0.566   5.033   2.926
 6025SOL     OW18973   3.517   1.892   2.730
 6025SOL    HW118974   3.541   1.863   2.823
 6025SOL    HW218975   3.450   1.829   2.691
 6026SOL     OW18976   0.066   3.760   4.523
 6026SOL    HW118977   6.991   3.754   4.490
 6026SOL    HW218978   0.083   3.690   4.591
 6027SOL     OW18979   1.310   3.693   6.309
 6027SOL    HW118980   1.282   3.605   6.348
 6027SOL    HW218981   1.240   3.762   6.328
 6028SOL     OW18982   0.937   4.337   0.379
 6028SOL    HW118983   0.879   4.262   0.350
 6028SOL    HW218984   0.882   4.405   0.427
 6029SOL     OW18985   2.428   6.540   4.817
 6029SOL    HW118986   2.425   6.458   4.760
 6029SOL    HW218987   2.413   6.621   4.761
 6030SOL     OW18988   4.197   6.240   2.590
 6030SOL    HW118989   4.147   6.251   2.504
 6030SOL    HW218990   4.274   6.177   2.576
 6031SOL     OW18991   3.844   5.355   3.387
 6031SOL    HW118992   3.906   5.294   3.338
 6031SOL    HW218993   3.755   5.357   3.341
 6032SOL     OW18994   2.309   4.280   3.194
 6032SOL    HW118995   2.329   4.375   3.169
 6032SOL    HW218996   2.388   4.241   3.242
 6033SOL     OW18997   2.975   1.713   2.380
 6033SOL    HW118998   3.065   1.670   2.388
 6033SOL    HW218999   2.904   1.647   2.402
 6034SOL     OW19000   0.929   5.292   4.342
 6034SOL    HW119001   1.009   5.265   4.396
 6034SOL    HW219002   0.871   5.353   4.396
 6035SOL     OW19003   6.883   0.307   2.769
 6035SOL    HW119004   6.896   0.279   2.673
 6035SOL    HW219005   6.966   0.287   2.821
 6036SOL     OW19006   6.094   6.240   4.587
 6036SOL    HW119007   6.040   6.164   4.550
 6036SOL    HW219008   6.076   6.248   4.685
 6037SOL     OW19009   4.524   4.969   6.210
 6037SOL    HW119010   4.606   4.964   6.267
 6037SOL    HW219011   4.482   5.059   6.219
 6038SOL     OW19012   1.358   2.931   6.207
 6038SOL    HW119013   1.359   2.846   6.259
 6038SOL    HW219014   1.410   2.919   6.123
 6039SOL     OW19015   3.146   3.007   2.715
 6039SOL    HW119016   3.143   3.072   2.639
 6039SOL    HW219017   3.098   3.045   2.794
 6040SOL     OW19018   0.489   2.265   6.567
 6040SOL    HW119019   0.452   2.172   6.575
 6040SOL    HW219020   0.489   2.309   6.656
 6041SOL     OW19021   2.229   0.604   4.995
 6041SOL    HW119022   2.261   0.667   4.924
 6041SOL    HW219023   2.143   0.562   4.966
 6042SOL     OW19024   5.244   5.665   2.161
 6042SOL    HW119025   5.170   5.631   2.218
 6042SOL    HW219026   5.224   5.759   2.133
 6043SOL     OW19027   0.735   4.361   5.777
 6043SOL    HW119028   0.679   4.284   5.748
 6043SOL    HW219029   0.828   4.352   5.740
 6044SOL     OW19030   1.868   2.064   1.107
 6044SOL    HW119031   1.816   2.098   1.185
 6044SOL    HW219032   1.881   1.965   1.116
 6045SOL     OW19033   6.539   5.156   0.970
 6045SOL    HW119034   6.536   5.133   1.067
 6045SOL    HW219035   6.576   5.248   0.958
 6046SOL     OW19036   3.264   2.012   6.946
 6046SOL    HW119037   3.235   2.029   0.021
 6046SOL    HW219038   3.232   1.922   6.917
 6047SOL     OW19039   6.144   2.491   2.157
 6047SOL    HW119040   6.114   2.422   2.223
 6047SOL    HW219041   6.081   2.493   2.080
 6048SOL     OW19042   4.621   6.009   4.422
 6048SOL    HW119043   4.685   6.071   4.467
 6048SOL    HW219044   4.559   5.969   4.490
 6049SOL     OW19045   5.924   3.228   6.031
 6049SOL    HW119046   5.913   3.311   6.086
 6049SOL    HW219047   5.837   3.206   5.986
 6050SOL     OW19048   2.956   5.329   4.824
 6050SOL    HW119049   3.011   5.264   4.771
 6050SOL    HW219050   2.984   5.422   4.802
 6051SOL     OW19051   2.292   1.666   4.488
 6051SOL    HW119052   2.233   1.747   4.483
 6051SOL    HW219053   2.332   1.649   4.398
 6052SOL     OW19054   6.231   6.803   0.833
 6052SOL    HW119055   6.189   6.749   0.906
 6052SOL    HW219056   6.171   6.802   0.753
 6053SOL     OW19057   3.260   0.938   6.306
 6053SOL    HW119058   3.264   1.038   6.311
 6053SOL    HW219059   3.347   0.903   6.273
 6054SOL     OW19060   2.695   3.818   0.082
 6054SOL    HW119061   2.671   3.745   0.146
 6054SOL    HW219062   2.726   3.898   0.133
 6055SOL     OW19063   5.298   1.368   5.469
 6055SOL    HW119064   5.378   1.319   5.502
 6055SOL    HW219065   5.271   1.438   5.535
 6056SOL     OW19066   4.871   2.767   4.785
 6056SOL    HW119067   4.945   2.735   4.844
 6056SOL    HW219068   4.878   2.723   4.696
 6057SOL     OW19069   5.154   2.902   4.409
 6057SOL    HW119070   5.124   2.851   4.329
 6057SOL    HW219071   5.170   2.838   4.484
 6058SOL     OW19072   4.892   2.595   1.954
 6058SOL    HW119073   4.882   2.533   1.876
 6058SOL    HW219074   4.803   2.633   1.978
 6059SOL     OW19075   5.074   5.126   4.735
 6059SOL    HW119076   5.106   5.036   4.706
 6059SOL    HW219077   4.977   5.121   4.758
 6060SOL     OW19078   3.156   4.347   6.304
 6060SOL    HW119079   3.096   4.406   6.358
 6060SOL    HW219080   3.140   4.252   6.327
 6061SOL     OW19081   4.012   2.130   1.549
 6061SOL    HW119082   3.952   2.200   1.586
 6061SOL    HW219083   3.992   2.042   1.592
 6062SOL     OW19084   1.872   1.691   4.757
 6062SOL    HW119085   1.924   1.753   4.816
 6062SOL    HW219086   1.774   1.708   4.769
 6063SOL     OW19087   3.601   1.399   6.664
 6063SOL    HW119088   3.520   1.445   6.626
 6063SOL    HW219089   3.578   1.304   6.684
 6064SOL     OW19090   2.517   6.113   1.373
 6064SOL    HW119091   2.570   6.198   1.368
 6064SOL    HW219092   2.573   6.041   1.414
 6065SOL     OW19093   5.908   6.639   2.279
 6065SOL    HW119094   5.974   6.671   2.211
 6065SOL    HW219095   5.843   6.577   2.235
 6066SOL     OW19096   4.566   2.118   6.570
 6066SOL    HW119097   4.631   2.169   6.513
 6066SOL    HW219098   4.506   2.183   6.617
 6067SOL     OW19099   5.587   1.616   5.914
 6067SOL    HW119100   5.642   1.680   5.860
 6067SOL    HW219101   5.642   1.535   5.934
 6068SOL     OW19102   5.605   2.925   4.841
 6068SOL    HW119103   5.563   3.010   4.808
 6068SOL    HW219104   5.684   2.947   4.898
 6069SOL     OW19105   6.661   3.174   5.133
 6069SOL    HW119106   6.640   3.218   5.221
 6069SOL    HW219107   6.731   3.228   5.085
 6070SOL     OW19108   2.230   2.485   0.111
 6070SOL    HW119109   2.312   2.437   0.144
 6070SOL    HW219110   2.225   2.476   0.011
 6071SOL     OW19111   5.720   4.764   4.700
 6071SOL    HW119112   5.635   4.787   4.652
 6071SOL    HW219113   5.722   4.666   4.718
 6072SOL     OW19114   0.265   6.827   2.024
 6072SOL    HW119115   0.234   6.795   1.935
 6072SOL    HW219116   0.321   6.757   2.067
 6073SOL     OW19117   6.239   4.247   0.694
 6073SOL    HW119118   6.315   4.310   0.676
 6073SOL    HW219119   6.153   4.292   0.669
 6074SOL     OW19120   1.264   6.187   4.572
 6074SOL    HW119121   1.263   6.281   4.538
 6074SOL    HW219122   1.170   6.157   4.588
 6075SOL     OW19123   6.961   2.126   0.038
 6075SOL    HW119124   7.002   2.072   0.111
 6075SOL    HW219125   6.896   2.069   7.006
 6076SOL     OW19126   2.100   5.988   4.461
 6076SOL    HW119127   2.153   5.986   4.546
 6076SOL    HW219128   2.132   5.915   4.400
 6077SOL     OW19129   4.844   6.096   1.872
 6077SOL    HW119130   4.838   6.194   1.853
 6077SOL    HW219131   4.893   6.081   1.958
 6078SOL     OW19132   3.923   5.095   1.392
 6078SOL    HW119133   3.979   5.171   1.424
 6078SOL    HW219134   3.849   5.078   1.457
 6079SOL     OW19135   2.998   3.063   6.372
 6079SOL    HW119136   3.026   3.054   6.277
 6079SOL    HW219137   3.014   3.157   6.403
 6080SOL     OW19138   6.840   0.778   1.668
 6080SOL    HW119139   6.818   0.711   1.596
 6080SOL    HW219140   6.758   0.830   1.690
 6081SOL     OW19141   6.255   3.119   4.968
 6081SOL    HW119142   6.284   3.080   4.880
 6081SOL    HW219143   6.279   3.056   5.042
 6082SOL     OW19144   2.483   2.067   3.522
 6082SOL    HW119145   2.557   2.016   3.478
 6082SOL    HW219146   2.449   2.016   3.601
 6083SOL     OW19147   0.339   5.051   6.753
 6083SOL    HW119148   0.376   5.094   6.835
 6083SOL    HW219149   0.415   5.013   6.699
 6084SOL     OW19150   6.969   5.554   3.712
 6084SOL    HW119151   0.048   5.552   3.733
 6084SOL    HW219152   6.924   5.478   3.759
 6085SOL     OW19153   0.325   4.200   0.081
 6085SOL    HW119154   0.305   4.111   0.121
 6085SOL    HW219155   0.248   4.262   0.096
 6086SOL     OW19156   3.197   1.649   5.322
 6086SOL    HW119157   3.177   1.644   5.224
 6086SOL    HW219158   3.291   1.619   5.338
 6087SOL     OW19159   4.428   5.917   0.472
 6087SOL    HW119160   4.404   5.994   0.413
 6087SOL    HW219161   4.356   5.848   0.468
 6088SOL     OW19162   5.852   6.462   4.568
 6088SOL    HW119163   5.904   6.433   4.488
 6088SOL    HW219164   5.818   6.555   4.554
 6089SOL     OW19165   6.715   3.298   1.380
 6089SOL    HW119166   6.651   3.235   1.337
 6089SOL    HW219167   6.785   3.326   1.314
 6090SOL     OW19168   2.193   6.393   5.333
 6090SOL    HW119169   2.112   6.385   5.276
 6090SOL    HW219170   2.257   6.319   5.311
 6091SOL     OW19171   2.328   1.832   2.132
 6091SOL    HW119172   2.323   1.929   2.156
 6091SOL    HW219173   2.361   1.822   2.038
 6092SOL     OW19174   3.333   0.349   3.378
 6092SOL    HW119175   3.349   0.257   3.343
 6092SOL    HW219176   3.380   0.416   3.321
 6093SOL     OW19177   1.043   3.346   2.921
 6093SOL    HW119178   1.080   3.412   2.986
 6093SOL    HW219179   1.056   3.379   2.828
 6094SOL     OW19180   4.049   1.094   1.291
 6094SOL    HW119181   4.010   1.021   1.236
 6094SOL    HW219182   4.001   1.180   1.273
 6095SOL     OW19183   3.979   3.503   6.633
 6095SOL    HW119184   4.034   3.536   6.556
 6095SOL    HW219185   3.973   3.403   6.629
 6096SOL     OW19186   5.920   0.536   4.059
 6096SOL    HW119187   5.976   0.507   3.981
 6096SOL    HW219188   5.957   0.498   4.143
 6097SOL     OW19189   1.621   0.159   1.961
 6097SOL    HW119190   1.540   0.206   1.997
 6097SOL    HW219191   1.702   0.190   2.012
 6098SOL     OW19192   1.273   2.570   6.580
 6098SOL    HW119193   1.192   2.536   6.629
 6098SOL    HW219194   1.348   2.582   6.645
 6099SOL     OW19195   0.076   6.238   0.291
 6099SOL    HW119196   7.008   6.194   0.270
 6099SOL    HW219197   0.087   6.246   0.390
 6100SOL     OW19198   4.778   3.817   6.936
 6100SOL    HW119199   4.845   3.873   6.985
 6100SOL    HW219200   4.824   3.762   6.867
 6101SOL     OW19201   6.185   1.992   4.829
 6101SOL    HW119202   6.129   1.954   4.756
 6101SOL    HW219203   6.248   1.922   4.863
 6102SOL     OW19204   3.174   0.214   3.558
 6102SOL    HW119205   3.236   0.273   3.507
 6102SOL    HW219206   3.222   0.131   3.586
 6103SOL     OW19207   0.528   2.316   2.252
 6103SOL    HW119208   0.560   2.236   2.201
 6103SOL    HW219209   0.464   2.368   2.195
 6104SOL     OW19210   5.895   1.493   5.638
 6104SOL    HW119211   5.863   1.474   5.545
 6104SOL    HW219212   5.841   1.568   5.677
 6105SOL     OW19213   1.668   0.822   5.498
 6105SOL    HW119214   1.747   0.793   5.552
 6105SOL    HW219215   1.668   0.922   5.490
 6106SOL     OW19216   1.657   3.770   5.533
 6106SOL    HW119217   1.629   3.680   5.568
 6106SOL    HW219218   1.667   3.834   5.609
 6107SOL     OW19219   2.442   4.748   4.097
 6107SOL    HW119220   2.442   4.778   4.002
 6107SOL    HW219221   2.352   4.708   4.120
 6108SOL     OW19222   1.072   2.672   2.006
 6108SOL    HW119223   0.976   2.648   2.022
 6108SOL    HW219224   1.077   2.758   1.955
 6109SOL     OW19225   5.043   3.082   6.527
 6109SOL    HW119226   5.024   3.053   6.434
 6109SOL    HW219227   5.121   3.145   6.528
 6110SOL     OW19228   3.611   2.926   6.759
 6110SOL    HW119229   3.605   3.021   6.728
 6110SOL    HW219230   3.563   2.867   6.695
 6111SOL     OW19231   2.305   4.385   2.392
 6111SOL    HW119232   2.322   4.401   2.489
 6111SOL    HW219233   2.219   4.335   2.381
 6112SOL     OW19234   2.998   0.204   3.348
 6112SOL    HW119235   2.905   0.191   3.382
 6112SOL    HW219236   3.062   0.211   3.425
 6113SOL     OW19237   1.065   0.915   6.001
 6113SOL    HW119238   0.974   0.948   5.977
 6113SOL    HW219239   1.127   0.993   6.013
 6114SOL     OW19240   4.613   5.100   0.960
 6114SOL    HW119241   4.590   5.096   1.057
 6114SOL    HW219242   4.675   5.176   0.943
 6115SOL     OW19243   5.153   0.050   3.671
 6115SOL    HW119244   5.136   6.985   3.619
 6115SOL    HW219245   5.136   0.129   3.612
 6116SOL     OW19246   2.770   0.885   0.263
 6116SOL    HW119247   2.788   0.883   0.361
 6116SOL    HW219248   2.854   0.861   0.213
 6117SOL     OW19249   0.179   0.613   5.656
 6117SOL    HW119250   0.114   0.674   5.702
 6117SOL    HW219251   0.141   0.584   5.568
 6118SOL     OW19252   6.221   0.649   1.842
 6118SOL    HW119253   6.183   0.596   1.918
 6118SOL    HW219254   6.174   0.624   1.757
 6119SOL     OW19255   0.411   3.520   5.313
 6119SOL    HW119256   0.353   3.500   5.392
 6119SOL    HW219257   0.489   3.575   5.343
 6120SOL     OW19258   4.464   0.010   3.948
 6120SOL    HW119259   4.493   7.003   4.040
 6120SOL    HW219260   4.405   0.090   3.953
 6121SOL     OW19261   0.519   3.388   5.101
 6121SOL    HW119262   0.534   3.431   5.012
 6121SOL    HW219263   0.479   3.454   5.164
 6122SOL     OW19264   4.003   0.011   1.480
 6122SOL    HW119265   3.935   6.981   1.535
 6122SOL    HW219266   3.981   0.109   1.478
 6123SOL     OW19267   6.848   0.352   6.743
 6123SOL    HW119268   6.935   0.318   6.707
 6123SOL    HW219269   6.794   0.392   6.669
 6124SOL     OW19270   2.011   1.327   0.164
 6124SOL    HW119271   2.025   1.267   0.243
 6124SOL    HW219272   1.958   1.407   0.192
 6125SOL     OW19273   2.236   5.961   0.284
 6125SOL    HW119274   2.241   5.917   0.194
 6125SOL    HW219275   2.267   6.055   0.277
 6126SOL     OW19276   6.982   6.569   4.255
 6126SOL    HW119277   6.934   6.492   4.212
 6126SOL    HW219278   7.016   6.631   4.184
 6127SOL     OW19279   2.774   0.330   2.183
 6127SOL    HW119280   2.821   0.243   2.195
 6127SOL    HW219281   2.834   0.405   2.209
 6128SOL     OW19282   6.084   3.291   0.560
 6128SOL    HW119283   6.162   3.349   0.535
 6128SOL    HW219284   6.116   3.213   0.613
 6129SOL     OW19285   6.465   3.759   3.184
 6129SOL    HW119286   6.528   3.830   3.216
 6129SOL    HW219287   6.450   3.693   3.257
 6130SOL     OW19288   6.305   2.027   4.045
 6130SOL    HW119289   6.299   2.018   4.145
 6130SOL    HW219290   6.387   2.079   4.021
 6131SOL     OW19291   6.959   1.623   5.105
 6131SOL    HW119292   0.011   1.684   5.140
 6131SOL    HW219293   6.957   1.539   5.160
 6132SOL     OW19294   5.154   1.151   0.276
 6132SOL    HW119295   5.155   1.184   0.181
 6132SOL    HW219296   5.133   1.228   0.337
 6133SOL     OW19297   0.867   2.404   2.452
 6133SOL    HW119298   0.861   2.347   2.370
 6133SOL    HW219299   0.961   2.438   2.462
 6134SOL     OW19300   4.044   4.532   6.526
 6134SOL    HW119301   3.979   4.459   6.501
 6134SOL    HW219302   4.049   4.539   6.626
 6135SOL     OW19303   0.166   0.191   1.580
 6135SOL    HW119304   0.090   0.146   1.532
 6135SOL    HW219305   0.144   0.197   1.677
 6136SOL     OW19306   1.061   2.795   2.250
 6136SOL    HW119307   1.108   2.763   2.168
 6136SOL    HW219308   1.001   2.871   2.228
 6137SOL     OW19309   5.757   2.170   4.021
 6137SOL    HW119310   5.854   2.149   4.011
 6137SOL    HW219311   5.704   2.086   4.007
 6138SOL     OW19312   4.220   6.271   1.829
 6138SOL    HW119313   4.318   6.252   1.818
 6138SOL    HW219314   4.202   6.296   1.924
 6139SOL     OW19315   2.217   1.983   5.530
 6139SOL    HW119316   2.261   2.030   5.453
 6139SOL    HW219317   2.129   2.025   5.548
 6140SOL     OW19318   0.706   6.104   1.664
 6140SOL    HW119319   0.628   6.138   1.715
 6140SOL    HW219320   0.694   6.124   1.567
 6141SOL     OW19321   5.732   6.114   6.196
 6141SOL    HW119322   5.644   6.122   6.149
 6141SOL    HW219323   5.766   6.206   6.218
 6142SOL     OW19324   6.810   5.171   0.762
 6142SOL    HW119325   6.777   5.090   0.809
 6142SOL    HW219326   6.825   5.245   0.828
 6143SOL     OW19327   6.273   4.758   0.610
 6143SOL    HW119328   6.346   4.813   0.649
 6143SOL    HW219329   6.223   4.812   0.542
 6144SOL     OW19330   6.096   4.815   2.895
 6144SOL    HW119331   6.041   4.897   2.913
 6144SOL    HW219332   6.141   4.823   2.806
 6145SOL     OW19333   4.674   5.460   4.246
 6145SOL    HW119334   4.719   5.439   4.333
 6145SOL    HW219335   4.655   5.375   4.197
 6146SOL     OW19336   3.580   0.521   3.564
 6146SOL    HW119337   3.653   0.456   3.584
 6146SOL    HW219338   3.536   0.550   3.649
 6147SOL     OW19339   1.474   3.908   4.496
 6147SOL    HW119340   1.528   3.913   4.412
 6147SOL    HW219341   1.528   3.867   4.569
 6148SOL     OW19342   0.093   6.859   4.872
 6148SOL    HW119343   0.029   6.833   4.800
 6148SOL    HW219344   0.105   6.959   4.872
 6149SOL     OW19345   3.722   5.197   1.845
 6149SOL    HW119346   3.819   5.176   1.855
 6149SOL    HW219347   3.704   5.288   1.883
 6150SOL     OW19348   4.066   4.633   6.788
 6150SOL    HW119349   4.136   4.583   6.840
 6150SOL    HW219350   4.020   4.698   6.848
 6151SOL     OW19351   6.314   3.727   5.541
 6151SOL    HW119352   6.291   3.793   5.612
 6151SOL    HW219353   6.240   3.723   5.474
 6152SOL     OW19354   5.537   5.657   5.318
 6152SOL    HW119355   5.536   5.610   5.406
 6152SOL    HW219356   5.590   5.741   5.326
 6153SOL     OW19357   4.900   3.750   2.079
 6153SOL    HW119358   4.838   3.738   2.156
 6153SOL    HW219359   4.939   3.662   2.053
 6154SOL     OW19360   5.745   1.794   2.759
 6154SOL    HW119361   5.828   1.782   2.704
 6154SOL    HW219362   5.703   1.882   2.736
 6155SOL     OW19363   1.993   2.402   4.145
 6155SOL    HW119364   1.903   2.426   4.181
 6155SOL    HW219365   2.063   2.419   4.214
 6156SOL     OW19366   4.606   4.941   2.201
 6156SOL    HW119367   4.571   4.946   2.294
 6156SOL    HW219368   4.535   4.967   2.136
 6157SOL     OW19369   1.389   1.463   4.220
 6157SOL    HW119370   1.467   1.416   4.178
 6157SOL    HW219371   1.349   1.525   4.153
 6158SOL     OW19372   4.414   0.881   5.758
 6158SOL    HW119373   4.465   0.803   5.721
 6158SOL    HW219374   4.458   0.911   5.843
 6159SOL     OW19375   4.902   2.071   1.443
 6159SOL    HW119376   4.868   2.056   1.350
 6159SOL    HW219377   5.002   2.065   1.443
 6160SOL     OW19378   4.393   6.632   6.325
 6160SOL    HW119379   4.481   6.652   6.367
 6160SOL    HW219380   4.327   6.704   6.350
 6161SOL     OW19381   5.985   1.252   5.139
 6161SOL    HW119382   5.895   1.293   5.129
 6161SOL    HW219383   6.045   1.286   5.066
 6162SOL     OW19384   1.472   6.202   3.656
 6162SOL    HW119385   1.450   6.236   3.564
 6162SOL    HW219386   1.402   6.233   3.721
 6163SOL     OW19387   5.520   6.089   1.492
 6163SOL    HW119388   5.582   6.090   1.413
 6163SOL    HW219389   5.571   6.116   1.574
 6164SOL     OW19390   3.057   2.844   1.805
 6164SOL    HW119391   3.038   2.806   1.714
 6164SOL    HW219392   2.976   2.833   1.863
 6165SOL     OW19393   4.822   0.253   6.485
 6165SOL    HW119394   4.844   0.213   6.396
 6165SOL    HW219395   4.822   0.181   6.554
 6166SOL     OW19396   4.014   0.624   6.282
 6166SOL    HW119397   4.001   0.722   6.267
 6166SOL    HW219398   3.941   0.590   6.341
 6167SOL     OW19399   1.198   3.864   3.191
 6167SOL    HW119400   1.212   3.848   3.289
 6167SOL    HW219401   1.283   3.844   3.142
 6168SOL     OW19402   0.508   3.462   1.372
 6168SOL    HW119403   0.529   3.466   1.274
 6168SOL    HW219404   0.593   3.448   1.423
 6169SOL     OW19405   1.412   3.093   1.221
 6169SOL    HW119406   1.484   3.023   1.210
 6169SOL    HW219407   1.428   3.142   1.307
 6170SOL     OW19408   0.928   3.640   5.419
 6170SOL    HW119409   1.007   3.663   5.362
 6170SOL    HW219410   0.911   3.713   5.485
 6171SOL     OW19411   0.469   2.623   0.525
 6171SOL    HW119412   0.501   2.532   0.496
 6171SOL    HW219413   0.505   2.644   0.615
 6172SOL     OW19414   1.177   3.016   2.371
 6172SOL    HW119415   1.204   2.996   2.465
 6172SOL    HW219416   1.128   2.937   2.334
 6173SOL     OW19417   6.449   5.035   2.832
 6173SOL    HW119418   6.444   5.096   2.911
 6173SOL    HW219419   6.459   4.940   2.864
 6174SOL     OW19420   5.431   6.081   3.872
 6174SOL    HW119421   5.529   6.099   3.860
 6174SOL    HW219422   5.415   6.042   3.963
 6175SOL     OW19423   4.016   0.546   3.752
 6175SOL    HW119424   3.992   0.589   3.665
 6175SOL    HW219425   3.992   0.449   3.748
 6176SOL     OW19426   5.684   4.089   5.613
 6176SOL    HW119427   5.711   4.095   5.709
 6176SOL    HW219428   5.587   4.063   5.608
 6177SOL     OW19429   5.607   1.634   2.019
 6177SOL    HW119430   5.624   1.537   2.002
 6177SOL    HW219431   5.662   1.689   1.957
 6178SOL     OW19432   5.471   5.069   2.051
 6178SOL    HW119433   5.557   5.110   2.080
 6178SOL    HW219434   5.483   4.970   2.043
 6179SOL     OW19435   6.837   4.342   2.869
 6179SOL    HW119436   6.863   4.369   2.961
 6179SOL    HW219437   6.918   4.339   2.810
 6180SOL     OW19438   2.602   4.567   0.857
 6180SOL    HW119439   2.689   4.592   0.900
 6180SOL    HW219440   2.529   4.625   0.894
 6181SOL     OW19441   4.736   6.263   6.037
 6181SOL    HW119442   4.747   6.243   5.940
 6181SOL    HW219443   4.653   6.316   6.051
 6182SOL     OW19444   4.390   2.863   6.243
 6182SOL    HW119445   4.346   2.932   6.300
 6182SOL    HW219446   4.322   2.819   6.185
 6183SOL     OW19447   1.884   2.094   3.413
 6183SOL    HW119448   1.977   2.055   3.407
 6183SOL    HW219449   1.884   2.187   3.377
 6184SOL     OW19450   3.238   6.621   6.372
 6184SOL    HW119451   3.217   6.712   6.407
 6184SOL    HW219452   3.154   6.579   6.335
 6185SOL     OW19453   0.416   3.665   6.607
 6185SOL    HW119454   0.431   3.690   6.703
 6185SOL    HW219455   0.421   3.747   6.550
 6186SOL     OW19456   5.807   1.232   0.773
 6186SOL    HW119457   5.792   1.276   0.684
 6186SOL    HW219458   5.745   1.272   0.841
 6187SOL     OW19459   5.192   2.895   3.971
 6187SOL    HW119460   5.243   2.878   4.056
 6187SOL    HW219461   5.170   2.808   3.927
 6188SOL     OW19462   1.936   1.501   6.002
 6188SOL    HW119463   2.010   1.514   6.068
 6188SOL    HW219464   1.871   1.577   6.009
 6189SOL     OW19465   4.232   4.922   2.957
 6189SOL    HW119466   4.210   4.877   3.044
 6189SOL    HW219467   4.242   5.020   2.973
 6190SOL     OW19468   0.139   3.997   4.661
 6190SOL    HW119469   0.236   3.982   4.641
 6190SOL    HW219470   0.084   3.927   4.615
 6191SOL     OW19471   2.810   2.875   6.538
 6191SOL    HW119472   2.828   2.961   6.490
 6191SOL    HW219473   2.712   2.867   6.556
 6192SOL     OW19474   2.605   2.139   6.658
 6192SOL    HW119475   2.677   2.201   6.628
 6192SOL    HW219476   2.641   2.046   6.664
 6193SOL     OW19477   4.591   5.898   1.456
 6193SOL    HW119478   4.535   5.947   1.389
 6193SOL    HW219479   4.535   5.831   1.504
 6194SOL     OW19480   0.041   0.400   6.344
 6194SOL    HW119481   0.113   0.331   6.343
 6194SOL    HW219482   6.971   0.356   6.348
 6195SOL     OW19483   4.951   5.731   4.220
 6195SOL    HW119484   4.946   5.635   4.246
 6195SOL    HW219485   4.859   5.764   4.199
 6196SOL     OW19486   5.140   4.087   2.410
 6196SOL    HW119487   5.197   4.013   2.373
 6196SOL    HW219488   5.057   4.048   2.449
 6197SOL     OW19489   2.135   5.637   1.761
 6197SOL    HW119490   2.130   5.583   1.677
 6197SOL    HW219491   2.212   5.605   1.816
 6198SOL     OW19492   4.630   0.049   0.899
 6198SOL    HW119493   4.589   0.118   0.958
 6198SOL    HW219494   4.695   7.012   0.952
 6199SOL     OW19495   0.190   0.828   0.410
 6199SOL    HW119496   0.092   0.822   0.427
 6199SOL    HW219497   0.209   0.909   0.354
 6200SOL     OW19498   0.749   1.519   5.412
 6200SOL    HW119499   0.723   1.494   5.505
 6200SOL    HW219500   0.809   1.448   5.374
 6201SOL     OW19501   0.656   3.333   5.391
 6201SOL    HW119502   0.679   3.385   5.474
 6201SOL    HW219503   0.600   3.389   5.331
 6202SOL     OW19504   4.883   0.836   2.101
 6202SOL    HW119505   4.911   0.867   2.010
 6202SOL    HW219506   4.929   0.749   2.122
 6203SOL     OW19507   5.997   5.811   2.186
 6203SOL    HW119508   6.061   5.887   2.188
 6203SOL    HW219509   6.041   5.731   2.145
 6204SOL     OW19510   1.236   5.913   4.764
 6204SOL    HW119511   1.289   5.944   4.844
 6204SOL    HW219512   1.236   5.814   4.760
 6205SOL     OW19513   6.398   4.761   1.240
 6205SOL    HW119514   6.300   4.770   1.259
 6205SOL    HW219515   6.448   4.756   1.326
 6206SOL     OW19516   6.300   1.506   2.425
 6206SOL    HW119517   6.284   1.532   2.330
 6206SOL    HW219518   6.213   1.490   2.470
 6207SOL     OW19519   2.411   6.184   5.370
 6207SOL    HW119520   2.463   6.117   5.317
 6207SOL    HW219521   2.350   6.135   5.433
 6208SOL     OW19522   3.696   2.397   5.364
 6208SOL    HW119523   3.753   2.372   5.442
 6208SOL    HW219524   3.677   2.315   5.309
 6209SOL     OW19525   3.137   5.787   6.912
 6209SOL    HW119526   3.180   5.860   6.859
 6209SOL    HW219527   3.114   5.711   6.852
 6210SOL     OW19528   4.859   4.024   2.799
 6210SOL    HW119529   4.930   3.954   2.799
 6210SOL    HW219530   4.902   4.114   2.809
 6211SOL     OW19531   3.029   6.582   5.503
 6211SOL    HW119532   2.948   6.640   5.504
 6211SOL    HW219533   3.104   6.631   5.458
 6212SOL     OW19534   2.476   4.902   4.370
 6212SOL    HW119535   2.557   4.912   4.427
 6212SOL    HW219536   2.502   4.901   4.274
 6213SOL     OW19537   4.465   6.967   6.978
 6213SOL    HW119538   4.554   6.942   7.019
 6213SOL    HW219539   4.407   6.886   6.974
 6214SOL     OW19540   5.625   6.058   5.570
 6214SOL    HW119541   5.704   6.070   5.630
 6214SOL    HW219542   5.550   6.017   5.621
 6215SOL     OW19543   3.295   3.063   6.649
 6215SOL    HW119544   3.304   3.039   6.552
 6215SOL    HW219545   3.272   3.160   6.657
 6216SOL     OW19546   6.202   1.994   2.153
 6216SOL    HW119547   6.221   1.917   2.214
 6216SOL    HW219548   6.104   1.999   2.136
 6217SOL     OW19549   0.883   4.505   3.066
 6217SOL    HW119550   0.960   4.446   3.089
 6217SOL    HW219551   0.807   4.488   3.130
 6218SOL     OW19552   3.664   0.205   6.958
 6218SOL    HW119553   3.655   0.119   6.909
 6218SOL    HW219554   3.673   0.188   0.037
 6219SOL     OW19555   1.446   1.125   4.535
 6219SOL    HW119556   1.350   1.150   4.524
 6219SOL    HW219557   1.461   1.091   4.628
 6220SOL     OW19558   3.039   1.221   5.303
 6220SOL    HW119559   3.072   1.300   5.252
 6220SOL    HW219560   3.115   1.178   5.351
 6221SOL     OW19561   5.878   0.147   0.151
 6221SOL    HW119562   5.871   0.073   0.085
 6221SOL    HW219563   5.965   0.194   0.140
 6222SOL     OW19564   0.596   0.663   2.598
 6222SOL    HW119565   0.571   0.666   2.501
 6222SOL    HW219566   0.682   0.613   2.608
 6223SOL     OW19567   1.616   5.009   3.149
 6223SOL    HW119568   1.525   4.977   3.121
 6223SOL    HW219569   1.619   5.109   3.144
 6224SOL     OW19570   3.615   0.945   5.786
 6224SOL    HW119571   3.590   0.940   5.689
 6224SOL    HW219572   3.714   0.957   5.795
 6225SOL     OW19573   3.639   2.544   6.721
 6225SOL    HW119574   3.654   2.504   6.812
 6225SOL    HW219575   3.707   2.615   6.704
 6226SOL     OW19576   1.371   1.608   3.987
 6226SOL    HW119577   1.419   1.688   3.950
 6226SOL    HW219578   1.391   1.529   3.929
 6227SOL     OW19579   3.466   5.449   5.310
 6227SOL    HW119580   3.451   5.352   5.331
 6227SOL    HW219581   3.549   5.458   5.255
 6228SOL     OW19582   0.723   2.615   2.502
 6228SOL    HW119583   0.777   2.533   2.481
 6228SOL    HW219584   0.767   2.665   2.576
 6229SOL     OW19585   0.592   3.119   5.047
 6229SOL    HW119586   0.675   3.085   5.092
 6229SOL    HW219587   0.577   3.215   5.070
 6230SOL     OW19588   1.144   2.193   3.283
 6230SOL    HW119589   1.152   2.205   3.382
 6230SOL    HW219590   1.231   2.218   3.240
 6231SOL     OW19591   5.578   5.157   0.292
 6231SOL    HW119592   5.581   5.105   0.377
 6231SOL    HW219593   5.597   5.253   0.312
 6232SOL     OW19594   6.465   1.355   0.336
 6232SOL    HW119595   6.370   1.367   0.308
 6232SOL    HW219596   6.483   1.409   0.418
 6233SOL     OW19597   6.021   2.606   1.732
 6233SOL    HW119598   5.961   2.671   1.685
 6233SOL    HW219599   6.061   2.649   1.813
 6234SOL     OW19600   0.341   6.985   5.454
 6234SOL    HW119601   0.301   0.044   5.500
 6234SOL    HW219602   0.269   6.928   5.415
 6235SOL     OW19603   0.056   0.689   1.398
 6235SOL    HW119604   0.115   0.633   1.456
 6235SOL    HW219605   0.026   0.770   1.449
 6236SOL     OW19606   0.169   4.802   0.609
 6236SOL    HW119607   0.091   4.812   0.548
 6236SOL    HW219608   0.195   4.705   0.615
 6237SOL     OW19609   3.858   0.380   6.862
 6237SOL    HW119610   3.870   0.410   6.956
 6237SOL    HW219611   3.777   0.322   6.855
 6238SOL     OW19612   4.712   6.389   3.128
 6238SOL    HW119613   4.760   6.447   3.062
 6238SOL    HW219614   4.658   6.446   3.190
 6239SOL     OW19615   3.938   0.905   1.122
 6239SOL    HW119616   3.934   0.805   1.120
 6239SOL    HW219617   3.998   0.937   1.049
 6240SOL     OW19618   3.209   3.667   5.395
 6240SOL    HW119619   3.204   3.724   5.313
 6240SOL    HW219620   3.199   3.724   5.476
 6241SOL     OW19621   3.960   0.752   3.554
 6241SOL    HW119622   3.897   0.822   3.587
 6241SOL    HW219623   4.052   0.791   3.546
 6242SOL     OW19624   3.370   0.263   3.005
 6242SOL    HW119625   3.349   0.196   3.076
 6242SOL    HW219626   3.466   0.292   3.014
 6243SOL     OW19627   0.103   0.146   5.972
 6243SOL    HW119628   0.187   0.107   5.933
 6243SOL    HW219629   0.038   0.165   5.899
 6244SOL     OW19630   5.202   3.584   3.376
 6244SOL    HW119631   5.200   3.485   3.361
 6244SOL    HW219632   5.230   3.603   3.470
 6245SOL     OW19633   1.049   4.216   1.827
 6245SOL    HW119634   1.024   4.312   1.837
 6245SOL    HW219635   1.104   4.187   1.906
 6246SOL     OW19636   1.173   0.901   4.815
 6246SOL    HW119637   1.252   0.958   4.837
 6246SOL    HW219638   1.121   0.943   4.740
 6247SOL     OW19639   1.824   6.414   3.489
 6247SOL    HW119640   1.771   6.402   3.573
 6247SOL    HW219641   1.798   6.343   3.424
 6248SOL     OW19642   3.606   3.810   0.165
 6248SOL    HW119643   3.549   3.728   0.166
 6248SOL    HW219644   3.674   3.804   0.238
 6249SOL     OW19645   6.799   2.795   0.993
 6249SOL    HW119646   6.864   2.738   0.943
 6249SOL    HW219647   6.800   2.888   0.955
 6250SOL     OW19648   6.743   6.903   0.729
 6250SOL    HW119649   6.651   6.931   0.703
 6250SOL    HW219650   6.806   6.920   0.652
 6251SOL     OW19651   4.218   6.098   4.821
 6251SOL    HW119652   4.196   6.075   4.726
 6251SOL    HW219653   4.306   6.146   4.824
 6252SOL     OW19654   2.636   4.430   6.754
 6252SOL    HW119655   2.625   4.389   6.663
 6252SOL    HW219656   2.618   4.361   6.824
 6253SOL     OW19657   2.194   5.018   4.455
 6253SOL    HW119658   2.245   4.948   4.405
 6253SOL    HW219659   2.228   5.109   4.429
 6254SOL     OW19660   6.481   6.971   0.618
 6254SOL    HW119661   6.406   6.952   0.554
 6254SOL    HW219662   6.442   7.002   0.705
 6255SOL     OW19663   2.020   1.771   0.467
 6255SOL    HW119664   1.967   1.822   0.534
 6255SOL    HW219665   2.084   1.710   0.514
 6256SOL     OW19666   4.460   5.317   2.612
 6256SOL    HW119667   4.384   5.302   2.675
 6256SOL    HW219668   4.490   5.229   2.575
 6257SOL     OW19669   3.932   2.859   0.069
 6257SOL    HW119670   4.030   2.865   0.083
 6257SOL    HW219671   3.885   2.927   0.126
 6258SOL     OW19672   3.462   6.763   4.696
 6258SOL    HW119673   3.545   6.709   4.711
 6258SOL    HW219674   3.382   6.710   4.724
 6259SOL     OW19675   2.306   0.931   6.227
 6259SOL    HW119676   2.274   0.838   6.209
 6259SOL    HW219677   2.231   0.995   6.212
 6260SOL     OW19678   3.448   0.224   0.288
 6260SOL    HW119679   3.541   0.201   0.258
 6260SOL    HW219680   3.420   0.162   0.360
 6261SOL     OW19681   4.462   6.627   0.548
 6261SOL    HW119682   4.478   6.596   0.454
 6261SOL    HW219683   4.550   6.641   0.593
 6262SOL     OW19684   1.555   5.973   2.347
 6262SOL    HW119685   1.612   6.003   2.423
 6262SOL    HW219686   1.586   6.015   2.262
 6263SOL     OW19687   0.845   6.554   5.125
 6263SOL    HW119688   0.904   6.569   5.046
 6263SOL    HW219689   0.816   6.642   5.163
 6264SOL     OW19690   2.071   0.253   1.843
 6264SOL    HW119691   2.165   0.248   1.876
 6264SOL    HW219692   2.052   0.176   1.782
 6265SOL     OW19693   4.393   3.355   0.747
 6265SOL    HW119694   4.493   3.355   0.760
 6265SOL    HW219695   4.358   3.263   0.760
 6266SOL     OW19696   4.410   6.284   3.045
 6266SOL    HW119697   4.446   6.284   3.138
 6266SOL    HW219698   4.471   6.337   2.986
 6267SOL     OW19699   2.074   0.093   4.754
 6267SOL    HW119700   2.033   0.010   4.790
 6267SOL    HW219701   2.053   0.170   4.815
 6268SOL     OW19702   3.045   0.707   1.736
 6268SOL    HW119703   3.034   0.690   1.834
 6268SOL    HW219704   3.054   0.620   1.687
 6269SOL     OW19705   6.345   6.850   2.020
 6269SOL    HW119706   6.356   6.926   2.084
 6269SOL    HW219707   6.336   6.885   1.927
 6270SOL     OW19708   0.433   0.188   6.900
 6270SOL    HW119709   0.483   0.122   6.845
 6270SOL    HW219710   0.338   0.157   6.912
 6271SOL     OW19711   6.248   2.346   6.317
 6271SOL    HW119712   6.226   2.406   6.240
 6271SOL    HW219713   6.308   2.394   6.381
 6272SOL     OW19714   0.601   1.616   0.538
 6272SOL    HW119715   0.674   1.649   0.478
 6272SOL    HW219716   0.591   1.517   0.528
 6273SOL     OW19717   0.167   5.561   3.041
 6273SOL    HW119718   0.094   5.492   3.038
 6273SOL    HW219719   0.242   5.527   3.098
 6274SOL     OW19720   3.106   6.889   4.501
 6274SOL    HW119721   3.132   6.911   4.595
 6274SOL    HW219722   3.110   6.790   4.486
 6275SOL     OW19723   2.360   6.004   0.704
 6275SOL    HW119724   2.445   6.019   0.755
 6275SOL    HW219725   2.338   5.907   0.704
 6276SOL     OW19726   3.289   5.759   3.543
 6276SOL    HW119727   3.327   5.840   3.498
 6276SOL    HW219728   3.193   5.747   3.515
 6277SOL     OW19729   5.085   2.136   0.979
 6277SOL    HW119730   5.165   2.109   1.032
 6277SOL    HW219731   5.005   2.142   1.039
 6278SOL     OW19732   4.186   0.862   4.904
 6278SOL    HW119733   4.269   0.893   4.858
 6278SOL    HW219734   4.192   0.763   4.919
 6279SOL     OW19735   4.184   6.041   0.876
 6279SOL    HW119736   4.127   6.077   0.802
 6279SOL    HW219737   4.259   5.988   0.838
 6280SOL     OW19738   0.171   1.528   6.528
 6280SOL    HW119739   0.081   1.488   6.546
 6280SOL    HW219740   0.213   1.482   6.450
 6281SOL     OW19741   6.644   4.548   4.141
 6281SOL    HW119742   6.656   4.550   4.241
 6281SOL    HW219743   6.694   4.470   4.103
 6282SOL     OW19744   5.865   2.896   4.959
 6282SOL    HW119745   5.926   2.852   4.893
 6282SOL    HW219746   5.910   2.977   4.998
 6283SOL     OW19747   0.978   4.264   4.180
 6283SOL    HW119748   1.004   4.317   4.261
 6283SOL    HW219749   1.040   4.286   4.105
 6284SOL     OW19750   1.473   5.460   6.538
 6284SOL    HW119751   1.487   5.393   6.465
 6284SOL    HW219752   1.385   5.444   6.583
 6285SOL     OW19753   0.746   2.906   3.430
 6285SOL    HW119754   0.821   2.971   3.443
 6285SOL    HW219755   0.749   2.871   3.336
 6286SOL     OW19756   0.653   3.503   4.269
 6286SOL    HW119757   0.682   3.473   4.178
 6286SOL    HW219758   0.553   3.515   4.269
 6287SOL     OW19759   3.468   5.169   5.337
 6287SOL    HW119760   3.496   5.145   5.430
 6287SOL    HW219761   3.376   5.132   5.319
 6288SOL     OW19762   5.209   4.544   1.597
 6288SOL    HW119763   5.214   4.446   1.577
 6288SOL    HW219764   5.202   4.596   1.512
 6289SOL     OW19765   2.438   4.731   6.604
 6289SOL    HW119766   2.358   4.790   6.590
 6289SOL    HW219767   2.407   4.644   6.642
 6290SOL     OW19768   5.987   5.438   6.285
 6290SOL    HW119769   5.926   5.454   6.207
 6290SOL    HW219770   5.934   5.400   6.361
 6291SOL     OW19771   3.348   3.758   3.628
 6291SOL    HW119772   3.276   3.806   3.678
 6291SOL    HW219773   3.314   3.669   3.597
 6292SOL     OW19774   2.728   1.997   5.119
 6292SOL    HW119775   2.800   2.041   5.066
 6292SOL    HW219776   2.648   2.056   5.121
 6293SOL     OW19777   4.520   1.890   0.776
 6293SOL    HW119778   4.535   1.813   0.714
 6293SOL    HW219779   4.453   1.953   0.737
 6294SOL     OW19780   4.581   0.217   3.510
 6294SOL    HW119781   4.504   0.199   3.570
 6294SOL    HW219782   4.612   0.131   3.469
 6295SOL     OW19783   5.416   5.093   4.791
 6295SOL    HW119784   5.462   5.077   4.878
 6295SOL    HW219785   5.443   5.182   4.754
 6296SOL     OW19786   0.390   4.350   5.204
 6296SOL    HW119787   0.368   4.356   5.302
 6296SOL    HW219788   0.468   4.410   5.185
 6297SOL     OW19789   6.057   0.267   5.646
 6297SOL    HW119790   6.036   0.171   5.628
 6297SOL    HW219791   6.003   0.325   5.584
 6298SOL     OW19792   6.942   3.864   6.168
 6298SOL    HW119793   7.008   3.851   6.094
 6298SOL    HW219794   6.937   3.961   6.191
 6299SOL     OW19795   5.823   2.776   1.647
 6299SOL    HW119796   5.772   2.703   1.601
 6299SOL    HW219797   5.795   2.864   1.609
 6300SOL     OW19798   6.162   0.639   6.489
 6300SOL    HW119799   6.102   0.563   6.463
 6300SOL    HW219800   6.163   0.648   6.588
 6301SOL     OW19801   2.842   6.008   6.511
 6301SOL    HW119802   2.795   5.981   6.595
 6301SOL    HW219803   2.808   5.952   6.435
 6302SOL     OW19804   1.952   1.446   5.509
 6302SOL    HW119805   1.901   1.523   5.469
 6302SOL    HW219806   2.038   1.480   5.548
 6303SOL     OW19807   0.460   6.331   6.155
 6303SOL    HW119808   0.538   6.269   6.167
 6303SOL    HW219809   0.434   6.369   6.243
 6304SOL     OW19810   3.889   1.360   3.280
 6304SOL    HW119811   3.807   1.315   3.315
 6304SOL    HW219812   3.870   1.400   3.190
 6305SOL     OW19813   6.180   6.154   0.640
 6305SOL    HW119814   6.160   6.063   0.606
 6305SOL    HW219815   6.165   6.221   0.567
 6306SOL     OW19816   0.351   3.730   4.079
 6306SOL    HW119817   0.365   3.795   4.005
 6306SOL    HW219818   0.327   3.778   4.163
 6307SOL     OW19819   3.379   2.921   3.580
 6307SOL    HW119820   3.290   2.948   3.616
 6307SOL    HW219821   3.437   2.889   3.655
 6308SOL     OW19822   1.065   1.912   5.794
 6308SOL    HW119823   1.095   1.899   5.700
 6308SOL    HW219824   0.965   1.925   5.796
 6309SOL     OW19825   0.202   0.136   3.812
 6309SOL    HW119826   0.256   0.057   3.840
 6309SOL    HW219827   0.220   0.212   3.875
 6310SOL     OW19828   2.107   6.644   2.776
 6310SOL    HW119829   2.023   6.658   2.724
 6310SOL    HW219830   2.102   6.697   2.861
 6311SOL     OW19831   5.013   1.853   6.073
 6311SOL    HW119832   4.974   1.852   5.981
 6311SOL    HW219833   5.080   1.779   6.082
 6312SOL     OW19834   0.908   6.446   6.415
 6312SOL    HW119835   0.996   6.399   6.417
 6312SOL    HW219836   0.910   6.517   6.345
 6313SOL     OW19837   6.171   6.827   2.884
 6313SOL    HW119838   6.171   6.845   2.785
 6313SOL    HW219839   6.265   6.816   2.916
 6314SOL     OW19840   3.058   0.008   1.998
 6314SOL    HW119841   3.012   0.045   1.917
 6314SOL    HW219842   3.141   0.060   2.016
 6315SOL     OW19843   2.548   1.630   4.740
 6315SOL    HW119844   2.456   1.653   4.774
 6315SOL    HW219845   2.569   1.688   4.661
 6316SOL     OW19846   4.586   2.101   5.262
 6316SOL    HW119847   4.611   2.057   5.349
 6316SOL    HW219848   4.619   2.195   5.262
 6317SOL     OW19849   5.054   3.755   2.406
 6317SOL    HW119850   4.980   3.816   2.434
 6317SOL    HW219851   5.102   3.796   2.328
 6318SOL     OW19852   4.409   0.199   6.345
 6318SOL    HW119853   4.362   0.264   6.286
 6318SOL    HW219854   4.470   0.248   6.407
 6319SOL     OW19855   6.697   2.196   4.997
 6319SOL    HW119856   6.603   2.180   5.026
 6319SOL    HW219857   6.729   2.284   5.032
 6320SOL     OW19858   6.883   6.170   4.688
 6320SOL    HW119859   6.951   6.236   4.718
 6320SOL    HW219860   6.925   6.106   4.624
 6321SOL     OW19861   4.577   3.288   0.528
 6321SOL    HW119862   4.568   3.196   0.567
 6321SOL    HW219863   4.490   3.317   0.490
 6322SOL     OW19864   3.034   2.309   0.595
 6322SOL    HW119865   2.961   2.363   0.636
 6322SOL    HW219866   3.117   2.365   0.590
 6323SOL     OW19867   1.252   2.080   1.535
 6323SOL    HW119868   1.343   2.075   1.493
 6323SOL    HW219869   1.200   2.155   1.493
 6324SOL     OW19870   4.116   1.755   0.479
 6324SOL    HW119871   4.182   1.797   0.542
 6324SOL    HW219872   4.026   1.753   0.521
 6325SOL     OW19873   2.217   2.924   3.069
 6325SOL    HW119874   2.132   2.898   3.023
 6325SOL    HW219875   2.271   2.983   3.008
 6326SOL     OW19876   5.493   5.183   6.659
 6326SOL    HW119877   5.466   5.176   6.563
 6326SOL    HW219878   5.575   5.239   6.667
 6327SOL     OW19879   0.292   1.734   4.286
 6327SOL    HW119880   0.252   1.694   4.203
 6327SOL    HW219881   0.384   1.766   4.266
 6328SOL     OW19882   4.183   3.181   6.783
 6328SOL    HW119883   4.137   3.122   6.848
 6328SOL    HW219884   4.118   3.210   6.712
 6329SOL     OW19885   1.157   3.047   5.204
 6329SOL    HW119886   1.235   3.096   5.243
 6329SOL    HW219887   1.100   3.011   5.278
 6330SOL     OW19888   6.167   6.729   1.574
 6330SOL    HW119889   6.205   6.806   1.522
 6330SOL    HW219890   6.069   6.722   1.556
 6331SOL     OW19891   6.685   3.572   4.907
 6331SOL    HW119892   6.729   3.615   4.828
 6331SOL    HW219893   6.637   3.490   4.878
 6332SOL     OW19894   0.958   3.147   0.994
 6332SOL    HW119895   1.012   3.090   1.056
 6332SOL    HW219896   0.983   3.243   1.007
 6333SOL     OW19897   4.537   0.292   5.672
 6333SOL    HW119898   4.462   0.315   5.733
 6333SOL    HW219899   4.583   0.209   5.704
 6334SOL     OW19900   3.133   1.358   2.113
 6334SOL    HW119901   3.082   1.440   2.087
 6334SOL    HW219902   3.192   1.330   2.037
 6335SOL     OW19903   4.185   0.889   0.107
 6335SOL    HW119904   4.137   0.860   0.190
 6335SOL    HW219905   4.122   0.886   0.030
 6336SOL     OW19906   0.569   2.958   6.412
 6336SOL    HW119907   0.564   3.055   6.433
 6336SOL    HW219908   0.643   2.942   6.345
 6337SOL     OW19909   4.038   5.352   4.847
 6337SOL    HW119910   4.065   5.362   4.752
 6337SOL    HW219911   4.044   5.441   4.893
 6338SOL     OW19912   2.799   2.315   4.372
 6338SOL    HW119913   2.731   2.263   4.424
 6338SOL    HW219914   2.884   2.320   4.424
 6339SOL     OW19915   0.878   3.582   3.936
 6339SOL    HW119916   0.904   3.659   3.994
 6339SOL    HW219917   0.785   3.552   3.959
 6340SOL     OW19918   2.279   3.899   1.171
 6340SOL    HW119919   2.222   3.979   1.192
 6340SOL    HW219920   2.356   3.926   1.114
 6341SOL     OW19921   6.941   3.840   4.197
 6341SOL    HW119922   6.888   3.806   4.119
 6341SOL    HW219923   0.003   3.888   4.163
 6342SOL     OW19924   3.515   1.575   0.733
 6342SOL    HW119925   3.508   1.478   0.757
 6342SOL    HW219926   3.424   1.609   0.708
 6343SOL     OW19927   4.060   6.997   6.727
 6343SOL    HW119928   4.135   0.028   6.769
 6343SOL    HW219929   4.028   0.028   6.646
 6344SOL     OW19930   5.809   1.859   4.211
 6344SOL    HW119931   5.761   1.943   4.236
 6344SOL    HW219932   5.825   1.859   4.112
 6345SOL     OW19933   4.656   2.820   1.730
 6345SOL    HW119934   4.586   2.748   1.735
 6345SOL    HW219935   4.619   2.905   1.767
 6346SOL     OW19936   0.240   4.971   4.833
 6346SOL    HW119937   0.276   5.013   4.917
 6346SOL    HW219938   0.224   5.042   4.765
 6347SOL     OW19939   1.840   1.459   1.126
 6347SOL    HW119940   1.755   1.467   1.074
 6347SOL    HW219941   1.822   1.481   1.222
 6348SOL     OW19942   0.993   3.181   5.980
 6348SOL    HW119943   0.948   3.266   6.007
 6348SOL    HW219944   0.934   3.103   6.002
 6349SOL     OW19945   1.498   0.518   0.535
 6349SOL    HW119946   1.585   0.499   0.580
 6349SOL    HW219947   1.463   0.607   0.565
 6350SOL     OW19948   0.832   5.084   3.687
 6350SOL    HW119949   0.793   4.996   3.658
 6350SOL    HW219950   0.757   5.147   3.708
 6351SOL     OW19951   6.368   3.765   3.482
 6351SOL    HW119952   6.418   3.761   3.569
 6351SOL    HW219953   6.371   3.675   3.438
 6352SOL     OW19954   2.470   0.617   4.615
 6352SOL    HW119955   2.558   0.644   4.576
 6352SOL    HW219956   2.435   0.537   4.566
 6353SOL     OW19957   2.037   6.410   0.197
 6353SOL    HW119958   2.100   6.487   0.201
 6353SOL    HW219959   1.980   6.417   0.114
 6354SOL     OW19960   3.839   6.082   3.104
 6354SOL    HW119961   3.845   6.080   3.204
 6354SOL    HW219962   3.922   6.123   3.066
 6355SOL     OW19963   2.849   5.581   0.149
 6355SOL    HW119964   2.931   5.529   0.174
 6355SOL    HW219965   2.815   5.629   0.230
 6356SOL     OW19966   5.314   4.973   0.512
 6356SOL    HW119967   5.214   4.980   0.523
 6356SOL    HW219968   5.347   5.049   0.456
 6357SOL     OW19969   6.482   2.827   2.417
 6357SOL    HW119970   6.539   2.873   2.349
 6357SOL    HW219971   6.434   2.751   2.374
 6358SOL     OW19972   0.012   1.817   6.432
 6358SOL    HW119973   7.010   1.733   6.483
 6358SOL    HW219974   0.071   1.876   6.487
 6359SOL     OW19975   6.392   6.659   0.617
 6359SOL    HW119976   6.377   6.758   0.621
 6359SOL    HW219977   6.369   6.619   0.706
 6360SOL     OW19978   0.913   3.558   4.347
 6360SOL    HW119979   0.815   3.541   4.342
 6360SOL    HW219980   0.936   3.637   4.290
 6361SOL     OW19981   1.091   0.780   0.815
 6361SOL    HW119982   1.118   0.740   0.727
 6361SOL    HW219983   1.013   0.729   0.852
 6362SOL     OW19984   1.463   6.082   6.446
 6362SOL    HW119985   1.535   6.082   6.515
 6362SOL    HW219986   1.493   6.033   6.365
 6363SOL     OW19987   2.960   5.086   4.338
 6363SOL    HW119988   2.921   5.164   4.387
 6363SOL    HW219989   2.892   5.012   4.333
 6364SOL     OW19990   2.784   2.874   5.446
 6364SOL    HW119991   2.716   2.847   5.379
 6364SOL    HW219992   2.743   2.933   5.515
 6365SOL     OW19993   5.526   6.492   4.232
 6365SOL    HW119994   5.446   6.549   4.218
 6365SOL    HW219995   5.498   6.397   4.248
 6366SOL     OW19996   0.461   5.787   5.270
 6366SOL    HW119997   0.514   5.740   5.198
 6366SOL    HW219998   0.523   5.814   5.344
 6367SOL     OW19999   3.124   2.154   2.795
 6367SOL    HW120000   3.218   2.131   2.768
 6367SOL    HW220001   3.074   2.186   2.715
 6368SOL     OW20002   4.268   4.822   4.480
 6368SOL    HW120003   4.261   4.777   4.569
 6368SOL    HW220004   4.177   4.830   4.439
 6369SOL     OW20005   1.914   0.305   4.593
 6369SOL    HW120006   1.907   0.404   4.582
 6369SOL    HW220007   1.938   0.284   4.688
 6370SOL     OW20008   5.406   4.281   3.376
 6370SOL    HW120009   5.428   4.212   3.445
 6370SOL    HW220010   5.309   4.277   3.355
 6371SOL     OW20011   5.455   3.989   2.439
 6371SOL    HW120012   5.425   4.066   2.383
 6371SOL    HW220013   5.529   3.941   2.392
 6372SOL     OW20014   1.140   1.524   2.362
 6372SOL    HW120015   1.172   1.432   2.386
 6372SOL    HW220016   1.056   1.517   2.309
 6373SOL     OW20017   5.646   4.405   2.749
 6373SOL    HW120018   5.692   4.372   2.831
 6373SOL    HW220019   5.650   4.334   2.678
 6374SOL     OW20020   4.619   3.537   1.215
 6374SOL    HW120021   4.588   3.542   1.121
 6374SOL    HW220022   4.593   3.449   1.255
 6375SOL     OW20023   0.450   2.011   1.893
 6375SOL    HW120024   0.444   1.931   1.952
 6375SOL    HW220025   0.476   1.983   1.800
 6376SOL     OW20026   3.778   1.818   5.856
 6376SOL    HW120027   3.702   1.883   5.868
 6376SOL    HW220028   3.784   1.760   5.937
 6377SOL     OW20029   6.926   1.921   5.557
 6377SOL    HW120030   7.003   1.885   5.610
 6377SOL    HW220031   6.956   1.939   5.464
 6378SOL     OW20032   5.373   5.336   3.607
 6378SOL    HW120033   5.326   5.380   3.684
 6378SOL    HW220034   5.453   5.286   3.642
 6379SOL     OW20035   0.684   4.527   5.989
 6379SOL    HW120036   0.603   4.584   5.977
 6379SOL    HW220037   0.699   4.472   5.907
 6380SOL     OW20038   6.524   2.529   4.432
 6380SOL    HW120039   6.509   2.594   4.357
 6380SOL    HW220040   6.616   2.540   4.468
 6381SOL     OW20041   4.144   2.664   0.551
 6381SOL    HW120042   4.059   2.618   0.576
 6381SOL    HW220043   4.219   2.627   0.607
 6382SOL     OW20044   3.453   1.889   1.075
 6382SOL    HW120045   3.355   1.869   1.075
 6382SOL    HW220046   3.467   1.987   1.061
 6383SOL     OW20047   1.883   3.179   2.447
 6383SOL    HW120048   1.839   3.233   2.376
 6383SOL    HW220049   1.954   3.121   2.407
 6384SOL     OW20050   5.908   3.183   2.305
 6384SOL    HW120051   5.931   3.098   2.351
 6384SOL    HW220052   5.897   3.256   2.373
 6385SOL     OW20053   6.529   4.167   2.053
 6385SOL    HW120054   6.470   4.120   1.987
 6385SOL    HW220055   6.569   4.247   2.010
 6386SOL     OW20056   1.570   3.280   6.961
 6386SOL    HW120057   1.575   3.190   6.917
 6386SOL    HW220058   1.661   3.306   6.993
 6387SOL     OW20059   5.981   1.556   0.392
 6387SOL    HW120060   6.067   1.509   0.373
 6387SOL    HW220061   5.931   1.508   0.463
 6388SOL     OW20062   6.072   5.428   1.611
 6388SOL    HW120063   6.119   5.353   1.566
 6388SOL    HW220064   6.005   5.392   1.676
 6389SOL     OW20065   0.915   0.169   1.212
 6389SOL    HW120066   0.953   0.199   1.124
 6389SOL    HW220067   0.823   0.132   1.197
 6390SOL     OW20068   6.669   0.174   5.769
 6390SOL    HW120069   6.698   0.270   5.775
 6390SOL    HW220070   6.622   0.158   5.683
 6391SOL     OW20071   1.636   1.047   5.931
 6391SOL    HW120072   1.713   1.020   5.873
 6391SOL    HW220073   1.655   1.135   5.974
 6392SOL     OW20074   3.283   6.051   3.446
 6392SOL    HW120075   3.333   6.066   3.361
 6392SOL    HW220076   3.205   5.990   3.429
 6393SOL     OW20077   5.977   5.813   1.727
 6393SOL    HW120078   5.919   5.862   1.662
 6393SOL    HW220079   6.057   5.869   1.749
 6394SOL     OW20080   2.443   5.436   0.701
 6394SOL    HW120081   2.368   5.498   0.724
 6394SOL    HW220082   2.439   5.355   0.760
 6395SOL     OW20083   6.884   3.500   2.076
 6395SOL    HW120084   6.823   3.497   2.155
 6395SOL    HW220085   6.976   3.473   2.104
 6396SOL     OW20086   6.564   3.957   6.405
 6396SOL    HW120087   6.564   3.968   6.306
 6396SOL    HW220088   6.478   3.993   6.443
 6397SOL     OW20089   6.356   1.227   2.535
 6397SOL    HW120090   6.396   1.300   2.479
 6397SOL    HW220091   6.311   1.160   2.476
 6398SOL     OW20092   1.961   6.714   2.016
 6398SOL    HW120093   1.914   6.628   1.996
 6398SOL    HW220094   1.895   6.782   2.046
 6399SOL     OW20095   1.270   0.303   6.613
 6399SOL    HW120096   1.325   0.286   6.531
 6399SOL    HW220097   1.313   0.376   6.666
 6400SOL     OW20098   2.143   4.845   2.359
 6400SOL    HW120099   2.128   4.890   2.447
 6400SOL    HW220100   2.065   4.861   2.300
 6401SOL     OW20101   5.853   5.193   3.148
 6401SOL    HW120102   5.846   5.270   3.213
 6401SOL    HW220103   5.762   5.158   3.128
 6402SOL     OW20104   2.323   2.848   4.059
 6402SOL    HW120105   2.393   2.789   4.020
 6402SOL    HW220106   2.248   2.858   3.994
 6403SOL     OW20107   6.135   6.101   5.965
 6403SOL    HW120108   6.228   6.073   5.990
 6403SOL    HW220109   6.140   6.178   5.901
 6404SOL     OW20110   4.431   1.460   2.464
 6404SOL    HW120111   4.431   1.432   2.368
 6404SOL    HW220112   4.337   1.472   2.495
 6405SOL     OW20113   4.483   0.712   4.513
 6405SOL    HW120114   4.521   0.725   4.421
 6405SOL    HW220115   4.386   0.690   4.506
 6406SOL     OW20116   1.375   3.146   1.741
 6406SOL    HW120117   1.381   3.065   1.798
 6406SOL    HW220118   1.380   3.228   1.799
 6407SOL     OW20119   1.932   6.940   4.219
 6407SOL    HW120120   2.032   6.946   4.219
 6407SOL    HW220121   1.901   6.909   4.309
 6408SOL     OW20122   5.979   0.553   0.941
 6408SOL    HW120123   6.049   0.527   0.874
 6408SOL    HW220124   6.024   0.579   1.027
 6409SOL     OW20125   6.935   5.013   2.909
 6409SOL    HW120126   7.004   5.027   2.838
 6409SOL    HW220127   6.856   5.070   2.890
 6410SOL     OW20128   1.951   1.093   6.118
 6410SOL    HW120129   2.015   1.025   6.083
 6410SOL    HW220130   1.858   1.056   6.115
 6411SOL     OW20131   1.214   2.618   2.448
 6411SOL    HW120132   1.166   2.675   2.381
 6411SOL    HW220133   1.283   2.563   2.401
 6412SOL     OW20134   2.224   0.481   6.348
 6412SOL    HW120135   2.283   0.537   6.406
 6412SOL    HW220136   2.257   0.387   6.347
 6413SOL     OW20137   3.435   4.984   4.394
 6413SOL    HW120138   3.433   5.073   4.349
 6413SOL    HW220139   3.353   4.932   4.369
 6414SOL     OW20140   6.110   0.280   0.082
 6414SOL    HW120141   6.078   0.243   7.014
 6414SOL    HW220142   6.203   0.315   0.071
 6415SOL     OW20143   1.461   3.483   4.105
 6415SOL    HW120144   1.426   3.535   4.183
 6415SOL    HW220145   1.560   3.473   4.114
 6416SOL     OW20146   2.388   6.600   6.233
 6416SOL    HW120147   2.398   6.544   6.315
 6416SOL    HW220148   2.321   6.558   6.172
 6417SOL     OW20149   5.004   3.075   0.788
 6417SOL    HW120150   4.917   3.049   0.747
 6417SOL    HW220151   4.992   3.089   0.886
 6418SOL     OW20152   5.311   4.061   2.905
 6418SOL    HW120153   5.385   4.057   2.973
 6418SOL    HW220154   5.285   4.157   2.891
 6419SOL     OW20155   1.419   5.234   3.609
 6419SOL    HW120156   1.393   5.316   3.661
 6419SOL    HW220157   1.354   5.161   3.627
 6420SOL     OW20158   2.002   1.591   3.819
 6420SOL    HW120159   1.930   1.558   3.757
 6420SOL    HW220160   1.967   1.669   3.872
 6421SOL     OW20161   4.098   0.611   0.872
 6421SOL    HW120162   4.056   0.592   0.784
 6421SOL    HW220163   4.171   0.679   0.860
 6422SOL     OW20164   6.708   1.686   5.214
 6422SOL    HW120165   6.795   1.666   5.169
 6422SOL    HW220166   6.667   1.768   5.172
 6423SOL     OW20167   4.727   5.524   4.853
 6423SOL    HW120168   4.672   5.443   4.832
 6423SOL    HW220169   4.824   5.502   4.839
 6424SOL     OW20170   1.398   4.098   4.993
 6424SOL    HW120171   1.474   4.161   5.004
 6424SOL    HW220172   1.405   4.052   4.904
 6425SOL     OW20173   6.628   5.583   3.177
 6425SOL    HW120174   6.656   5.505   3.120
 6425SOL    HW220175   6.529   5.597   3.168
 6426SOL     OW20176   5.744   5.398   3.723
 6426SOL    HW120177   5.773   5.410   3.818
 6426SOL    HW220178   5.668   5.459   3.703
 6427SOL     OW20179   2.938   3.757   3.332
 6427SOL    HW120180   2.922   3.685   3.399
 6427SOL    HW220181   2.874   3.747   3.256
 6428SOL     OW20182   5.324   3.314   0.226
 6428SOL    HW120183   5.240   3.340   0.274
 6428SOL    HW220184   5.388   3.390   0.227
 6429SOL     OW20185   0.628   1.112   5.645
 6429SOL    HW120186   0.695   1.105   5.571
 6429SOL    HW220187   0.558   1.041   5.634
 6430SOL     OW20188   6.711   0.674   4.282
 6430SOL    HW120189   6.625   0.690   4.330
 6430SOL    HW220190   6.720   0.738   4.206
 6431SOL     OW20191   4.472   5.833   2.813
 6431SOL    HW120192   4.431   5.767   2.750
 6431SOL    HW220193   4.458   5.804   2.907
 6432SOL     OW20194   4.133   4.366   6.183
 6432SOL    HW120195   4.088   4.320   6.259
 6432SOL    HW220196   4.140   4.302   6.106
 6433SOL     OW20197   3.350   4.979   0.277
 6433SOL    HW120198   3.386   4.889   0.248
 6433SOL    HW220199   3.252   4.983   0.259
 6434SOL     OW20200   2.733   0.489   6.313
 6434SOL    HW120201   2.769   0.397   6.299
 6434SOL    HW220202   2.795   0.556   6.272
 6435SOL     OW20203   5.613   6.786   1.033
 6435SOL    HW120204   5.702   6.788   0.988
 6435SOL    HW220205   5.542   6.769   0.964
 6436SOL     OW20206   1.215   3.502   3.131
 6436SOL    HW120207   1.197   3.523   3.228
 6436SOL    HW220208   1.314   3.509   3.114
 6437SOL     OW20209   1.552   2.582   6.989
 6437SOL    HW120210   1.475   2.519   6.985
 6437SOL    HW220211   1.554   2.638   6.907
 6438SOL     OW20212   0.622   4.957   6.141
 6438SOL    HW120213   0.671   4.949   6.055
 6438SOL    HW220214   0.603   4.866   6.178
 6439SOL     OW20215   5.271   0.798   2.147
 6439SOL    HW120216   5.235   0.757   2.064
 6439SOL    HW220217   5.200   0.800   2.217
 6440SOL     OW20218   2.786   1.079   5.886
 6440SOL    HW120219   2.789   0.999   5.826
 6440SOL    HW220220   2.709   1.071   5.949
 6441SOL     OW20221   1.147   0.891   1.560
 6441SOL    HW120222   1.221   0.866   1.498
 6441SOL    HW220223   1.176   0.875   1.655
 6442SOL     OW20224   2.940   1.648   4.805
 6442SOL    HW120225   2.967   1.583   4.734
 6442SOL    HW220226   2.842   1.665   4.798
 6443SOL     OW20227   3.245   2.745   5.648
 6443SOL    HW120228   3.265   2.701   5.735
 6443SOL    HW220229   3.168   2.699   5.604
 6444SOL     OW20230   5.906   2.107   4.537
 6444SOL    HW120231   5.925   2.020   4.581
 6444SOL    HW220232   5.841   2.094   4.462
 6445SOL     OW20233   3.853   3.400   3.252
 6445SOL    HW120234   3.829   3.440   3.164
 6445SOL    HW220235   3.774   3.405   3.313
 6446SOL     OW20236   0.142   2.332   0.574
 6446SOL    HW120237   0.214   2.358   0.510
 6446SOL    HW220238   0.066   2.291   0.524
 6447SOL     OW20239   6.360   4.341   1.825
 6447SOL    HW120240   6.391   4.367   1.734
 6447SOL    HW220241   6.294   4.266   1.817
 6448SOL     OW20242   5.042   4.725   1.435
 6448SOL    HW120243   5.006   4.664   1.364
 6448SOL    HW220244   4.967   4.780   1.472
 6449SOL     OW20245   3.066   5.622   1.844
 6449SOL    HW120246   3.108   5.606   1.933
 6449SOL    HW220247   3.095   5.551   1.781
 6450SOL     OW20248   0.716   4.176   0.279
 6450SOL    HW120249   0.682   4.082   0.281
 6450SOL    HW220250   0.643   4.239   0.304
 6451SOL     OW20251   2.611   1.049   5.669
 6451SOL    HW120252   2.666   1.132   5.672
 6451SOL    HW220253   2.538   1.055   5.737
 6452SOL     OW20254   4.773   4.147   2.366
 6452SOL    HW120255   4.701   4.210   2.336
 6452SOL    HW220256   4.830   4.121   2.288
 6453SOL     OW20257   2.612   0.084   1.771
 6453SOL    HW120258   2.526   0.051   1.809
 6453SOL    HW220259   2.624   0.180   1.795
 6454SOL     OW20260   0.632   1.327   2.785
 6454SOL    HW120261   0.551   1.359   2.736
 6454SOL    HW220262   0.611   1.320   2.882
 6455SOL     OW20263   6.210   2.957   3.784
 6455SOL    HW120264   6.253   2.992   3.701
 6455SOL    HW220265   6.159   3.030   3.829
 6456SOL     OW20266   1.380   0.595   2.959
 6456SOL    HW120267   1.410   0.504   2.988
 6456SOL    HW220268   1.412   0.612   2.866
 6457SOL     OW20269   5.291   0.347   1.630
 6457SOL    HW120270   5.350   0.398   1.568
 6457SOL    HW220271   5.196   0.376   1.617
 6458SOL     OW20272   1.294   5.442   4.797
 6458SOL    HW120273   1.225   5.505   4.832
 6458SOL    HW220274   1.373   5.493   4.764
 6459SOL     OW20275   6.265   2.984   2.534
 6459SOL    HW120276   6.353   2.940   2.518
 6459SOL    HW220277   6.206   2.922   2.587
 6460SOL     OW20278   6.003   5.569   5.922
 6460SOL    HW120279   5.963   5.533   5.837
 6460SOL    HW220280   5.940   5.552   5.997
 6461SOL     OW20281   3.060   4.278   6.867
 6461SOL    HW120282   3.041   4.183   6.840
 6461SOL    HW220283   3.009   4.340   6.808
 6462SOL     OW20284   1.158   3.055   4.466
 6462SOL    HW120285   1.074   3.040   4.414
 6462SOL    HW220286   1.137   3.055   4.564
 6463SOL     OW20287   5.515   6.856   0.296
 6463SOL    HW120288   5.515   6.899   0.386
 6463SOL    HW220289   5.535   6.758   0.305
 6464SOL     OW20290   1.780   5.987   5.141
 6464SOL    HW120291   1.868   6.009   5.099
 6464SOL    HW220292   1.734   6.071   5.170
 6465SOL     OW20293   0.208   2.920   2.565
 6465SOL    HW120294   0.219   2.828   2.528
 6465SOL    HW220295   0.286   2.942   2.624
 6466SOL     OW20296   6.641   1.099   6.431
 6466SOL    HW120297   6.552   1.099   6.475
 6466SOL    HW220298   6.684   1.189   6.440
 6467SOL     OW20299   3.835   0.263   1.039
 6467SOL    HW120300   3.809   0.336   0.976
 6467SOL    HW220301   3.768   0.189   1.034
 6468SOL     OW20302   3.622   6.730   1.822
 6468SOL    HW120303   3.555   6.727   1.747
 6468SOL    HW220304   3.689   6.656   1.809
 6469SOL     OW20305   3.899   2.056   3.599
 6469SOL    HW120306   3.963   2.013   3.536
 6469SOL    HW220307   3.947   2.124   3.654
 6470SOL     OW20308   5.849   2.656   0.882
 6470SOL    HW120309   5.896   2.744   0.888
 6470SOL    HW220310   5.775   2.662   0.814
 6471SOL     OW20311   0.907   6.433   5.884
 6471SOL    HW120312   0.829   6.492   5.905
 6471SOL    HW220313   0.939   6.390   5.969
 6472SOL     OW20314   6.373   5.541   2.970
 6472SOL    HW120315   6.353   5.572   2.877
 6472SOL    HW220316   6.337   5.608   3.035
 6473SOL     OW20317   1.911   1.372   5.033
 6473SOL    HW120318   1.880   1.449   4.977
 6473SOL    HW220319   1.918   1.291   4.976
 6474SOL     OW20320   4.129   5.585   5.671
 6474SOL    HW120321   4.099   5.587   5.767
 6474SOL    HW220322   4.071   5.646   5.617
 6475SOL     OW20323   6.129   4.186   3.890
 6475SOL    HW120324   6.159   4.232   3.974
 6475SOL    HW220325   6.209   4.147   3.843
 6476SOL     OW20326   4.677   3.293   6.909
 6476SOL    HW120327   4.745   3.249   6.851
 6476SOL    HW220328   4.631   3.366   6.858
 6477SOL     OW20329   6.198   5.450   0.903
 6477SOL    HW120330   6.257   5.499   0.967
 6477SOL    HW220331   6.109   5.496   0.898
 6478SOL     OW20332   3.093   6.473   2.687
 6478SOL    HW120333   3.187   6.466   2.655
 6478SOL    HW220334   3.089   6.534   2.767
 6479SOL     OW20335   3.502   5.847   4.761
 6479SOL    HW120336   3.538   5.756   4.779
 6479SOL    HW220337   3.402   5.846   4.769
 6480SOL     OW20338   2.336   1.126   0.011
 6480SOL    HW120339   2.351   1.043   6.978
 6480SOL    HW220340   2.293   1.195   6.972
 6481SOL     OW20341   3.499   2.331   1.637
 6481SOL    HW120342   3.441   2.254   1.662
 6481SOL    HW220343   3.551   2.360   1.717
 6482SOL     OW20344   6.385   2.383   6.625
 6482SOL    HW120345   6.401   2.436   6.709
 6482SOL    HW220346   6.393   2.444   6.546
 6483SOL     OW20347   0.242   6.175   3.315
 6483SOL    HW120348   0.199   6.256   3.275
 6483SOL    HW220349   0.184   6.139   3.387
 6484SOL     OW20350   2.949   1.316   2.666
 6484SOL    HW120351   3.041   1.284   2.643
 6484SOL    HW220352   2.898   1.335   2.583
 6485SOL     OW20353   2.116   5.434   4.045
 6485SOL    HW120354   2.151   5.342   4.030
 6485SOL    HW220355   2.190   5.501   4.033
 6486SOL     OW20356   1.253   5.369   2.250
 6486SOL    HW120357   1.353   5.366   2.254
 6486SOL    HW220358   1.223   5.351   2.156
 6487SOL     OW20359   1.414   6.673   5.654
 6487SOL    HW120360   1.355   6.753   5.643
 6487SOL    HW220361   1.383   6.619   5.731
 6488SOL     OW20362   3.775   5.780   4.928
 6488SOL    HW120363   3.743   5.726   4.851
 6488SOL    HW220364   3.831   5.723   4.988
 6489SOL     OW20365   3.295   3.447   6.336
 6489SOL    HW120366   3.317   3.401   6.250
 6489SOL    HW220367   3.301   3.546   6.324
 6490SOL     OW20368   2.996   0.946   6.167
 6490SOL    HW120369   2.978   1.034   6.123
 6490SOL    HW220370   3.007   0.960   6.265
 6491SOL     OW20371   3.414   0.782   1.434
 6491SOL    HW120372   3.328   0.801   1.480
 6491SOL    HW220373   3.434   0.684   1.441
 6492SOL     OW20374   3.767   3.514   4.993
 6492SOL    HW120375   3.844   3.519   4.929
 6492SOL    HW220376   3.682   3.507   4.942
 6493SOL     OW20377   1.119   4.365   6.379
 6493SOL    HW120378   1.181   4.332   6.308
 6493SOL    HW220379   1.151   4.455   6.411
 6494SOL     OW20380   0.083   6.851   2.681
 6494SOL    HW120381   0.116   6.769   2.728
 6494SOL    HW220382   0.090   6.838   2.582
 6495SOL     OW20383   0.053   0.825   4.414
 6495SOL    HW120384   0.129   0.839   4.350
 6495SOL    HW220385   0.021   0.731   4.407
 6496SOL     OW20386   6.039   0.350   2.280
 6496SOL    HW120387   5.964   0.332   2.217
 6496SOL    HW220388   6.021   0.305   2.368
 6497SOL     OW20389   0.833   0.561   1.350
 6497SOL    HW120390   0.818   0.651   1.391
 6497SOL    HW220391   0.757   0.500   1.374
 6498SOL     OW20392   0.619   3.596   4.533
 6498SOL    HW120393   0.699   3.564   4.584
 6498SOL    HW220394   0.619   3.554   4.442
 6499SOL     OW20395   5.361   3.391   5.021
 6499SOL    HW120396   5.317   3.327   5.084
 6499SOL    HW220397   5.296   3.416   4.949
 6500SOL     OW20398   0.210   3.961   2.683
 6500SOL    HW120399   0.125   3.926   2.645
 6500SOL    HW220400   0.245   4.035   2.625
 6501SOL     OW20401   6.978   1.145   0.707
 6501SOL    HW120402   6.901   1.208   0.699
 6501SOL    HW220403   0.045   1.197   0.708
 6502SOL     OW20404   0.068   3.822   1.656
 6502SOL    HW120405   0.028   3.747   1.603
 6502SOL    HW220406   0.164   3.802   1.676
 6503SOL     OW20407   6.032   0.906   3.874
 6503SOL    HW120408   6.038   0.850   3.957
 6503SOL    HW220409   6.122   0.910   3.829
 6504SOL     OW20410   3.460   6.366   6.332
 6504SOL    HW120411   3.531   6.410   6.386
 6504SOL    HW220412   3.404   6.308   6.391
 6505SOL     OW20413   4.952   6.069   5.965
 6505SOL    HW120414   4.942   5.978   5.923
 6505SOL    HW220415   4.863   6.101   5.996
 6506SOL     OW20416   6.926   2.722   3.529
 6506SOL    HW120417   6.975   2.662   3.465
 6506SOL    HW220418   6.984   2.800   3.553
 6507SOL     OW20419   2.638   6.020   6.005
 6507SOL    HW120420   2.729   6.022   6.047
 6507SOL    HW220421   2.630   5.938   5.948
 6508SOL     OW20422   1.825   0.459   3.001
 6508SOL    HW120423   1.915   0.441   3.040
 6508SOL    HW220424   1.829   0.444   2.902
 6509SOL     OW20425   4.685   1.905   4.789
 6509SOL    HW120426   4.784   1.892   4.798
 6509SOL    HW220427   4.648   1.942   4.874
 6510SOL     OW20428   5.195   5.390   6.677
 6510SOL    HW120429   5.234   5.467   6.625
 6510SOL    HW220430   5.254   5.370   6.755
 6511SOL     OW20431   4.527   1.185   5.069
 6511SOL    HW120432   4.547   1.092   5.036
 6511SOL    HW220433   4.528   1.249   4.992
 6512SOL     OW20434   3.313   6.910   2.253
 6512SOL    HW120435   3.384   6.980   2.255
 6512SOL    HW220436   3.271   6.902   2.343
 6513SOL     OW20437   1.873   5.646   3.767
 6513SOL    HW120438   1.774   5.639   3.777
 6513SOL    HW220439   1.895   5.710   3.693
 6514SOL     OW20440   5.981   0.887   4.492
 6514SOL    HW120441   5.925   0.809   4.462
 6514SOL    HW220442   6.040   0.859   4.567
 6515SOL     OW20443   1.623   3.046   3.503
 6515SOL    HW120444   1.654   3.033   3.409
 6515SOL    HW220445   1.559   3.123   3.506
 6516SOL     OW20446   0.114   3.232   1.207
 6516SOL    HW120447   0.069   3.147   1.233
 6516SOL    HW220448   0.204   3.211   1.168
 6517SOL     OW20449   6.771   2.017   1.226
 6517SOL    HW120450   6.755   2.038   1.129
 6517SOL    HW220451   6.705   2.068   1.282
 6518SOL     OW20452   0.576   0.376   1.860
 6518SOL    HW120453   0.649   0.348   1.797
 6518SOL    HW220454   0.583   0.475   1.875
 6519SOL     OW20455   0.364   1.581   2.845
 6519SOL    HW120456   0.378   1.548   2.751
 6519SOL    HW220457   0.308   1.515   2.895
 6520SOL     OW20458   6.837   5.041   6.787
 6520SOL    HW120459   6.861   5.128   6.743
 6520SOL    HW220460   6.899   5.023   6.862
 6521SOL     OW20461   2.255   2.828   4.429
 6521SOL    HW120462   2.223   2.891   4.499
 6521SOL    HW220463   2.198   2.838   4.347
 6522SOL     OW20464   2.555   4.587   5.084
 6522SOL    HW120465   2.504   4.545   5.009
 6522SOL    HW220466   2.651   4.598   5.058
 6523SOL     OW20467   3.795   0.586   6.443
 6523SOL    HW120468   3.801   0.634   6.531
 6523SOL    HW220469   3.706   0.602   6.401
 6524SOL     OW20470   2.523   2.788   1.490
 6524SOL    HW120471   2.535   2.858   1.419
 6524SOL    HW220472   2.600   2.724   1.486
 6525SOL     OW20473   1.723   4.988   2.907
 6525SOL    HW120474   1.659   5.044   2.854
 6525SOL    HW220475   1.690   4.981   3.001
 6526SOL     OW20476   0.666   0.390   1.485
 6526SOL    HW120477   0.671   0.291   1.473
 6526SOL    HW220478   0.721   0.417   1.564
 6527SOL     OW20479   6.546   2.048   6.956
 6527SOL    HW120480   6.568   2.063   6.860
 6527SOL    HW220481   6.447   2.043   6.967
 6528SOL     OW20482   6.074   1.196   5.383
 6528SOL    HW120483   6.084   1.276   5.442
 6528SOL    HW220484   6.067   1.226   5.288
 6529SOL     OW20485   1.771   0.371   2.733
 6529SOL    HW120486   1.804   0.423   2.654
 6529SOL    HW220487   1.823   0.286   2.741
 6530SOL     OW20488   6.972   1.800   1.305
 6530SOL    HW120489   0.033   1.845   1.267
 6530SOL    HW220490   6.890   1.832   1.258
 6531SOL     OW20491   5.012   3.397   4.852
 6531SOL    HW120492   4.964   3.355   4.775
 6531SOL    HW220493   4.949   3.454   4.904
 6532SOL     OW20494   1.467   1.557   1.308
 6532SOL    HW120495   1.483   1.551   1.406
 6532SOL    HW220496   1.387   1.501   1.284
 6533SOL     OW20497   4.106   6.040   0.289
 6533SOL    HW120498   4.151   6.104   0.352
 6533SOL    HW220499   4.116   6.072   0.195
 6534SOL     OW20500   4.520   5.166   1.640
 6534SOL    HW120501   4.488   5.225   1.714
 6534SOL    HW220502   4.459   5.086   1.634
 6535SOL     OW20503   6.384   4.576   4.479
 6535SOL    HW120504   6.389   4.476   4.477
 6535SOL    HW220505   6.378   4.611   4.385
 6536SOL     OW20506   0.426   1.800   5.266
 6536SOL    HW120507   0.450   1.704   5.280
 6536SOL    HW220508   0.392   1.813   5.173
 6537SOL     OW20509   6.547   4.648   5.705
 6537SOL    HW120510   6.509   4.562   5.672
 6537SOL    HW220511   6.570   4.639   5.802
 6538SOL     OW20512   1.735   3.409   5.685
 6538SOL    HW120513   1.817   3.455   5.719
 6538SOL    HW220514   1.654   3.456   5.720
 6539SOL     OW20515   5.271   0.459   0.019
 6539SOL    HW120516   5.338   0.479   0.090
 6539SOL    HW220517   5.215   0.540   0.001
 6540SOL     OW20518   3.735   2.986   6.150
 6540SOL    HW120519   3.703   3.060   6.091
 6540SOL    HW220520   3.657   2.928   6.175
 6541SOL     OW20521   5.150   1.812   5.169
 6541SOL    HW120522   5.070   1.822   5.228
 6541SOL    HW220523   5.213   1.745   5.209
 6542SOL     OW20524   1.160   3.106   3.805
 6542SOL    HW120525   1.200   3.081   3.893
 6542SOL    HW220526   1.105   3.189   3.815
 6543SOL     OW20527   4.657   2.857   5.965
 6543SOL    HW120528   4.717   2.929   6.000
 6543SOL    HW220529   4.704   2.808   5.892
 6544SOL     OW20530   1.488   6.562   3.441
 6544SOL    HW120531   1.468   6.465   3.429
 6544SOL    HW220532   1.403   6.614   3.440
 6545SOL     OW20533   4.076   0.808   0.327
 6545SOL    HW120534   4.116   0.720   0.355
 6545SOL    HW220535   4.093   0.877   0.397
 6546SOL     OW20536   2.874   4.112   5.798
 6546SOL    HW120537   2.850   4.030   5.747
 6546SOL    HW220538   2.948   4.091   5.862
 6547SOL     OW20539   4.742   0.638   6.403
 6547SOL    HW120540   4.801   0.614   6.326
 6547SOL    HW220541   4.778   0.597   6.487
 6548SOL     OW20542   1.571   3.893   0.749
 6548SOL    HW120543   1.478   3.868   0.724
 6548SOL    HW220544   1.636   3.836   0.699
 6549SOL     OW20545   4.436   0.594   2.304
 6549SOL    HW120546   4.526   0.624   2.335
 6549SOL    HW220547   4.423   0.498   2.327
 6550SOL     OW20548   0.550   6.664   4.165
 6550SOL    HW120549   0.510   6.573   4.174
 6550SOL    HW220550   0.485   6.724   4.117
 6551SOL     OW20551   2.077   3.620   1.802
 6551SOL    HW120552   1.982   3.595   1.822
 6551SOL    HW220553   2.138   3.559   1.852
 6552SOL     OW20554   1.643   6.772   0.160
 6552SOL    HW120555   1.638   6.703   0.232
 6552SOL    HW220556   1.617   6.731   0.073
 6553SOL     OW20557   0.460   2.447   3.252
 6553SOL    HW120558   0.497   2.461   3.344
 6553SOL    HW220559   0.528   2.398   3.197
 6554SOL     OW20560   1.511   0.318   4.403
 6554SOL    HW120561   1.532   0.393   4.340
 6554SOL    HW220562   1.436   0.346   4.463
 6555SOL     OW20563   5.342   1.954   2.990
 6555SOL    HW120564   5.273   1.927   3.057
 6555SOL    HW220565   5.314   2.039   2.946
 6556SOL     OW20566   5.852   4.266   3.399
 6556SOL    HW120567   5.878   4.333   3.469
 6556SOL    HW220568   5.818   4.314   3.318
 6557SOL     OW20569   2.887   0.730   2.966
 6557SOL    HW120570   2.883   0.745   2.867
 6557SOL    HW220571   2.814   0.782   3.011
 6558SOL     OW20572   6.134   4.939   0.374
 6558SOL    HW120573   6.220   4.955   0.327
 6558SOL    HW220574   6.131   4.994   0.458
 6559SOL     OW20575   0.104   4.432   6.839
 6559SOL    HW120576   0.042   4.504   6.873
 6559SOL    HW220577   0.053   4.346   6.830
 6560SOL     OW20578   4.109   4.665   1.841
 6560SOL    HW120579   4.014   4.690   1.823
 6560SOL    HW220580   4.124   4.571   1.811
 6561SOL     OW20581   3.320   4.150   1.221
 6561SOL    HW120582   3.286   4.059   1.244
 6561SOL    HW220583   3.345   4.153   1.124
 6562SOL     OW20584   5.993   2.024   1.466
 6562SOL    HW120585   5.979   1.964   1.545
 6562SOL    HW220586   6.071   2.084   1.484
 6563SOL     OW20587   5.369   5.680   6.005
 6563SOL    HW120588   5.316   5.707   6.086
 6563SOL    HW220589   5.407   5.589   6.018
 6564SOL     OW20590   6.363   3.934   1.967
 6564SOL    HW120591   6.405   3.910   2.055
 6564SOL    HW220592   6.433   3.934   1.896
 6565SOL     OW20593   6.170   1.021   3.126
 6565SOL    HW120594   6.091   1.022   3.064
 6565SOL    HW220595   6.250   1.059   3.080
 6566SOL     OW20596   3.773   6.793   2.800
 6566SOL    HW120597   3.680   6.792   2.838
 6566SOL    HW220598   3.829   6.726   2.849
 6567SOL     OW20599   5.027   0.608   2.170
 6567SOL    HW120600   5.007   0.555   2.253
 6567SOL    HW220601   5.021   0.548   2.090
 6568SOL     OW20602   3.469   1.585   3.440
 6568SOL    HW120603   3.401   1.658   3.447
 6568SOL    HW220604   3.560   1.625   3.430
 6569SOL     OW20605   2.830   2.985   0.008
 6569SOL    HW120606   2.783   3.071   0.024
 6569SOL    HW220607   2.806   2.919   0.079
 6570SOL     OW20608   3.272   0.854   2.227
 6570SOL    HW120609   3.270   0.756   2.208
 6570SOL    HW220610   3.307   0.903   2.147
 6571SOL     OW20611   3.073   4.820   2.333
 6571SOL    HW120612   3.087   4.721   2.336
 6571SOL    HW220613   2.976   4.841   2.322
 6572SOL     OW20614   0.108   4.004   4.068
 6572SOL    HW120615   0.149   4.037   4.153
 6572SOL    HW220616   0.180   3.977   4.004
 6573SOL     OW20617   0.480   2.064   2.422
 6573SOL    HW120618   0.566   2.066   2.371
 6573SOL    HW220619   0.476   1.980   2.478
 6574SOL     OW20620   2.636   5.673   2.810
 6574SOL    HW120621   2.623   5.763   2.850
 6574SOL    HW220622   2.734   5.654   2.803
 6575SOL     OW20623   0.808   6.937   3.936
 6575SOL    HW120624   0.904   6.915   3.951
 6575SOL    HW220625   0.754   6.853   3.936
 6576SOL     OW20626   3.171   6.181   0.398
 6576SOL    HW120627   3.218   6.182   0.310
 6576SOL    HW220628   3.080   6.140   0.387
 6577SOL     OW20629   1.125   1.915   3.241
 6577SOL    HW120630   1.110   2.001   3.289
 6577SOL    HW220631   1.223   1.893   3.240
 6578SOL     OW20632   0.659   6.073   2.534
 6578SOL    HW120633   0.748   6.118   2.527
 6578SOL    HW220634   0.647   6.036   2.626
 6579SOL     OW20635   6.748   2.958   3.597
 6579SOL    HW120636   6.810   2.880   3.603
 6579SOL    HW220637   6.798   3.042   3.620
 6580SOL     OW20638   0.399   1.989   0.599
 6580SOL    HW120639   0.441   1.990   0.508
 6580SOL    HW220640   0.299   1.986   0.590
 6581SOL     OW20641   2.042   0.838   0.563
 6581SOL    HW120642   2.125   0.863   0.613
 6581SOL    HW220643   1.964   0.837   0.626
 6582SOL     OW20644   0.171   1.327   3.217
 6582SOL    HW120645   0.102   1.385   3.260
 6582SOL    HW220646   0.247   1.312   3.280
 6583SOL     OW20647   4.870   6.525   6.015
 6583SOL    HW120648   4.803   6.454   6.035
 6583SOL    HW220649   4.927   6.496   5.937
 6584SOL     OW20650   4.608   2.050   0.292
 6584SOL    HW120651   4.659   1.976   0.249
 6584SOL    HW220652   4.660   2.135   0.285
 6585SOL     OW20653   6.092   5.856   0.238
 6585SOL    HW120654   6.124   5.806   0.157
 6585SOL    HW220655   5.994   5.842   0.249
 6586SOL     OW20656   6.014   1.299   5.966
 6586SOL    HW120657   6.069   1.227   5.924
 6586SOL    HW220658   5.987   1.273   6.058
 6587SOL     OW20659   1.228   5.028   6.017
 6587SOL    HW120660   1.209   4.992   6.109
 6587SOL    HW220661   1.289   4.966   5.969
 6588SOL     OW20662   0.501   2.826   1.485
 6588SOL    HW120663   0.512   2.870   1.575
 6588SOL    HW220664   0.557   2.874   1.418
 6589SOL     OW20665   4.559   0.199   2.208
 6589SOL    HW120666   4.547   0.261   2.131
 6589SOL    HW220667   4.638   0.227   2.262
 6590SOL     OW20668   0.309   1.331   6.770
 6590SOL    HW120669   0.395   1.324   6.719
 6590SOL    HW220670   0.238   1.278   6.724
 6591SOL     OW20671   5.491   5.744   3.451
 6591SOL    HW120672   5.397   5.764   3.479
 6591SOL    HW220673   5.495   5.740   3.351
 6592SOL     OW20674   5.505   6.621   3.057
 6592SOL    HW120675   5.414   6.659   3.042
 6592SOL    HW220676   5.498   6.523   3.073
 6593SOL     OW20677   2.572   2.404   2.406
 6593SOL    HW120678   2.634   2.390   2.328
 6593SOL    HW220679   2.604   2.350   2.484
 6594SOL     OW20680   3.267   1.182   5.443
 6594SOL    HW120681   3.365   1.198   5.448
 6594SOL    HW220682   3.220   1.242   5.508
 6595SOL     OW20683   1.501   4.293   6.703
 6595SOL    HW120684   1.482   4.327   6.795
 6595SOL    HW220685   1.418   4.253   6.665
 6596SOL     OW20686   3.531   6.979   4.236
 6596SOL    HW120687   3.508   0.050   4.273
 6596SOL    HW220688   3.479   6.909   4.285
 6597SOL     OW20689   1.804   5.384   1.219
 6597SOL    HW120690   1.818   5.354   1.313
 6597SOL    HW220691   1.705   5.386   1.200
 6598SOL     OW20692   1.499   4.663   3.932
 6598SOL    HW120693   1.424   4.630   3.990
 6598SOL    HW220694   1.556   4.726   3.985
 6599SOL     OW20695   4.217   6.393   6.378
 6599SOL    HW120696   4.283   6.323   6.351
 6599SOL    HW220697   4.241   6.480   6.333
 6600SOL     OW20698   3.717   6.568   5.427
 6600SOL    HW120699   3.711   6.500   5.354
 6600SOL    HW220700   3.647   6.549   5.496
 6601SOL     OW20701   0.843   2.453   4.454
 6601SOL    HW120702   0.747   2.482   4.459
 6601SOL    HW220703   0.862   2.415   4.364
 6602SOL     OW20704   1.581   0.574   1.165
 6602SOL    HW120705   1.553   0.479   1.176
 6602SOL    HW220706   1.628   0.605   1.247
 6603SOL     OW20707   0.497   2.933   3.545
 6603SOL    HW120708   0.442   2.850   3.552
 6603SOL    HW220709   0.583   2.913   3.498
 6604SOL     OW20710   1.743   6.988   1.534
 6604SOL    HW120711   1.661   7.007   1.588
 6604SOL    HW220712   1.821   0.017   1.574
 6605SOL     OW20713   5.327   5.393   2.009
 6605SOL    HW120714   5.337   5.491   1.993
 6605SOL    HW220715   5.357   5.343   1.928
 6606SOL     OW20716   6.427   5.344   2.279
 6606SOL    HW120717   6.515   5.301   2.257
 6606SOL    HW220718   6.442   5.438   2.308
 6607SOL     OW20719   1.099   5.005   3.475
 6607SOL    HW120720   1.001   4.983   3.477
 6607SOL    HW220721   1.131   5.006   3.380
 6608SOL     OW20722   6.956   7.006   6.803
 6608SOL    HW120723   6.877   7.000   6.742
 6608SOL    HW220724   6.926   6.998   6.897
 6609SOL     OW20725   5.739   0.428   6.895
 6609SOL    HW120726   5.714   0.380   6.811
 6609SOL    HW220727   5.694   0.384   6.973
 6610SOL     OW20728   2.336   6.717   6.647
 6610SOL    HW120729   2.358   6.804   6.690
 6610SOL    HW220730   2.237   6.704   6.646
 6611SOL     OW20731   4.742   2.828   3.395
 6611SOL    HW120732   4.823   2.853   3.341
 6611SOL    HW220733   4.767   2.827   3.492
 6612SOL     OW20734   6.333   2.089   6.286
 6612SOL    HW120735   6.298   2.181   6.300
 6612SOL    HW220736   6.339   2.070   6.188
 6613SOL     OW20737   6.873   6.246   5.518
 6613SOL    HW120738   6.904   6.327   5.569
 6613SOL    HW220739   6.949   6.209   5.465
 6614SOL     OW20740   4.271   5.724   6.825
 6614SOL    HW120741   4.242   5.819   6.811
 6614SOL    HW220742   4.191   5.668   6.843
 6615SOL     OW20743   1.537   5.950   1.282
 6615SOL    HW120744   1.628   5.938   1.323
 6615SOL    HW220745   1.516   6.047   1.276
 6616SOL     OW20746   4.296   0.413   6.985
 6616SOL    HW120747   4.390   0.382   6.974
 6616SOL    HW220748   4.253   0.421   6.894
 6617SOL     OW20749   4.721   5.563   3.525
 6617SOL    HW120750   4.663   5.609   3.593
 6617SOL    HW220751   4.812   5.547   3.564
 6618SOL     OW20752   1.907   2.121   2.248
 6618SOL    HW120753   1.887   2.092   2.342
 6618SOL    HW220754   1.826   2.107   2.191
 6619SOL     OW20755   5.535   6.924   4.055
 6619SOL    HW120756   5.521   6.962   3.963
 6619SOL    HW220757   5.623   6.878   4.058
 6620SOL     OW20758   1.885   2.608   5.532
 6620SOL    HW120759   1.847   2.700   5.540
 6620SOL    HW220760   1.819   2.542   5.568
 6621SOL     OW20761   3.782   3.369   5.629
 6621SOL    HW120762   3.695   3.374   5.579
 6621SOL    HW220763   3.858   3.365   5.563
 6622SOL     OW20764   5.737   5.789   2.064
 6622SOL    HW120765   5.817   5.799   2.122
 6622SOL    HW220766   5.668   5.856   2.089
 6623SOL     OW20767   3.875   2.964   5.234
 6623SOL    HW120768   3.827   3.020   5.165
 6623SOL    HW220769   3.843   2.870   5.227
 6624SOL     OW20770   0.490   4.598   5.382
 6624SOL    HW120771   0.425   4.644   5.443
 6624SOL    HW220772   0.583   4.623   5.408
 6625SOL     OW20773   5.206   2.412   4.910
 6625SOL    HW120774   5.214   2.331   4.852
 6625SOL    HW220775   5.292   2.425   4.960
 6626SOL     OW20776   3.020   0.017   5.481
 6626SOL    HW120777   3.025   0.095   5.542
 6626SOL    HW220778   2.992   6.955   5.532
 6627SOL     OW20779   1.523   6.742   4.314
 6627SOL    HW120780   1.462   6.665   4.297
 6627SOL    HW220781   1.563   6.733   4.405
 6628SOL     OW20782   5.834   4.939   4.887
 6628SOL    HW120783   5.800   4.871   4.821
 6628SOL    HW220784   5.834   5.030   4.843
 6629SOL     OW20785   4.357   6.065   6.444
 6629SOL    HW120786   4.309   6.125   6.507
 6629SOL    HW220787   4.454   6.092   6.439
 6630SOL     OW20788   3.855   1.562   1.360
 6630SOL    HW120789   3.774   1.608   1.395
 6630SOL    HW220790   3.921   1.551   1.434
 6631SOL     OW20791   2.071   6.084   4.022
 6631SOL    HW120792   2.077   5.990   4.053
 6631SOL    HW220793   2.092   6.088   3.924
 6632SOL     OW20794   0.713   0.767   0.729
 6632SOL    HW120795   0.742   0.686   0.678
 6632SOL    HW220796   0.744   0.760   0.824
 6633SOL     OW20797   2.155   5.108   6.022
 6633SOL    HW120798   2.103   5.172   6.079
 6633SOL    HW220799   2.104   5.023   6.013
 6634SOL     OW20800   5.745   1.190   5.355
 6634SOL    HW120801   5.815   1.130   5.317
 6634SOL    HW220802   5.656   1.169   5.313
 6635SOL     OW20803   4.876   4.192   3.449
 6635SOL    HW120804   4.878   4.204   3.548
 6635SOL    HW220805   4.866   4.095   3.428
 6636SOL     OW20806   4.776   1.352   6.898
 6636SOL    HW120807   4.781   1.252   6.887
 6636SOL    HW220808   4.814   1.396   6.817
 6637SOL     OW20809   1.085   0.102   6.192
 6637SOL    HW120810   0.993   0.089   6.154
 6637SOL    HW220811   1.125   0.013   6.214
 6638SOL     OW20812   3.017   3.517   3.149
 6638SOL    HW120813   3.028   3.551   3.242
 6638SOL    HW220814   2.955   3.577   3.098
 6639SOL     OW20815   4.731   4.712   6.975
 6639SOL    HW120816   4.727   4.713   6.875
 6639SOL    HW220817   4.650   4.667   7.012
 6640SOL     OW20818   6.264   1.470   5.284
 6640SOL    HW120819   6.352   1.515   5.298
 6640SOL    HW220820   6.215   1.464   5.371
 6641SOL     OW20821   2.892   1.488   6.765
 6641SOL    HW120822   2.967   1.426   6.744
 6641SOL    HW220823   2.821   1.439   6.815
 6642SOL     OW20824   2.669   5.991   6.711
 6642SOL    HW120825   2.578   5.979   6.671
 6642SOL    HW220826   2.669   6.069   6.773
 6643SOL     OW20827   4.963   6.503   6.771
 6643SOL    HW120828   4.968   6.425   6.833
 6643SOL    HW220829   5.054   6.542   6.759
 6644SOL     OW20830   2.654   5.885   1.488
 6644SOL    HW120831   2.580   5.916   1.547
 6644SOL    HW220832   2.695   5.802   1.526
 6645SOL     OW20833   5.331   3.904   1.091
 6645SOL    HW120834   5.254   3.866   1.039
 6645SOL    HW220835   5.400   3.834   1.104
 6646SOL     OW20836   4.796   1.382   4.982
 6646SOL    HW120837   4.796   1.420   5.074
 6646SOL    HW220838   4.702   1.370   4.951
 6647SOL     OW20839   4.370   6.970   0.814
 6647SOL    HW120840   4.361   0.048   0.835
 6647SOL    HW220841   4.466   6.943   0.821
 6648SOL     OW20842   3.497   6.659   3.943
 6648SOL    HW120843   3.519   6.642   3.847
 6648SOL    HW220844   3.493   6.572   3.992
 6649SOL     OW20845   5.997   1.824   6.301
 6649SOL    HW120846   5.940   1.799   6.379
 6649SOL    HW220847   5.944   1.881   6.238
 6650SOL     OW20848   3.914   1.389   5.573
 6650SOL    HW120849   3.830   1.362   5.526
 6650SOL    HW220850   3.946   1.477   5.537
 6651SOL     OW20851   1.547   0.794   5.904
 6651SOL    HW120852   1.634   0.743   5.903
 6651SOL    HW220853   1.566   0.890   5.922
 6652SOL     OW20854   0.182   4.840   6.701
 6652SOL    HW120855   0.179   4.781   6.782
 6652SOL    HW220856   0.218   4.929   6.726
 6653SOL     OW20857   3.999   3.242   1.203
 6653SOL    HW120858   4.056   3.168   1.237
 6653SOL    HW220859   3.971   3.301   1.279
 6654SOL     OW20860   1.465   5.319   1.318
 6654SOL    HW120861   1.486   5.322   1.220
 6654SOL    HW220862   1.456   5.413   1.352
 6655SOL     OW20863   0.398   6.652   3.271
 6655SOL    HW120864   0.428   6.606   3.355
 6655SOL    HW220865   0.450   6.737   3.260
 6656SOL     OW20866   6.054   2.299   2.362
 6656SOL    HW120867   5.958   2.296   2.392
 6656SOL    HW220868   6.064   2.248   2.277
 6657SOL     OW20869   6.011   3.900   5.030
 6657SOL    HW120870   6.081   3.970   5.041
 6657SOL    HW220871   5.923   3.943   5.011
 6658SOL     OW20872   5.119   1.278   5.299
 6658SOL    HW120873   5.199   1.296   5.357
 6658SOL    HW220874   5.056   1.356   5.305
 6659SOL     OW20875   2.189   2.970   1.388
 6659SOL    HW120876   2.119   3.016   1.333
 6659SOL    HW220877   2.260   3.036   1.412
 6660SOL     OW20878   1.924   5.119   1.111
 6660SOL    HW120879   1.891   5.201   1.158
 6660SOL    HW220880   1.992   5.073   1.167
 6661SOL     OW20881   2.268   0.383   5.427
 6661SOL    HW120882   2.195   0.382   5.358
 6661SOL    HW220883   2.357   0.391   5.381
 6662SOL     OW20884   1.480   0.815   0.423
 6662SOL    HW120885   1.451   0.799   0.518
 6662SOL    HW220886   1.569   0.771   0.408
 6663SOL     OW20887   6.579   6.236   4.932
 6663SOL    HW120888   6.630   6.195   5.007
 6663SOL    HW220889   6.625   6.216   4.845
 6664SOL     OW20890   2.003   0.026   0.261
 6664SOL    HW120891   2.052   0.035   0.174
 6664SOL    HW220892   2.032   0.099   0.323
 6665SOL     OW20893   1.550   6.329   4.672
 6665SOL    HW120894   1.644   6.322   4.705
 6665SOL    HW220895   1.550   6.344   4.573
 6666SOL     OW20896   6.713   6.424   5.746
 6666SOL    HW120897   6.805   6.402   5.713
 6666SOL    HW220898   6.659   6.340   5.753
 6667SOL     OW20899   0.267   6.528   5.725
 6667SOL    HW120900   0.295   6.585   5.647
 6667SOL    HW220901   0.238   6.587   5.800
 6668SOL     OW20902   0.120   5.973   1.204
 6668SOL    HW120903   0.067   5.906   1.257
 6668SOL    HW220904   0.169   5.926   1.131
 6669SOL     OW20905   2.724   2.251   1.834
 6669SOL    HW120906   2.687   2.340   1.809
 6669SOL    HW220907   2.811   2.264   1.882
 6670SOL     OW20908   2.832   1.382   5.379
 6670SOL    HW120909   2.889   1.311   5.338
 6670SOL    HW220910   2.741   1.345   5.399
 6671SOL     OW20911   3.893   6.956   0.588
 6671SOL    HW120912   3.942   0.002   0.530
 6671SOL    HW220913   3.882   6.870   0.539
 6672SOL     OW20914   6.607   2.432   0.215
 6672SOL    HW120915   6.552   2.365   0.266
 6672SOL    HW220916   6.592   2.523   0.252
 6673SOL     OW20917   4.752   4.142   3.766
 6673SOL    HW120918   4.712   4.146   3.857
 6673SOL    HW220919   4.782   4.048   3.746
 6674SOL     OW20920   0.274   3.861   0.670
 6674SOL    HW120921   0.272   3.948   0.719
 6674SOL    HW220922   0.329   3.871   0.587
 6675SOL     OW20923   5.974   2.949   0.860
 6675SOL    HW120924   6.009   2.952   0.767
 6675SOL    HW220925   5.941   3.040   0.886
 6676SOL     OW20926   0.581   3.527   4.887
 6676SOL    HW120927   0.620   3.482   4.808
 6676SOL    HW220928   0.639   3.603   4.915
 6677SOL     OW20929   1.199   1.529   6.345
 6677SOL    HW120930   1.178   1.612   6.293
 6677SOL    HW220931   1.137   1.521   6.423
 6678SOL     OW20932   3.368   3.868   0.392
 6678SOL    HW120933   3.410   3.778   0.378
 6678SOL    HW220934   3.373   3.920   0.307
 6679SOL     OW20935   3.545   0.574   3.829
 6679SOL    HW120936   3.485   0.644   3.868
 6679SOL    HW220937   3.584   0.519   3.903
 6680SOL     OW20938   4.216   6.829   6.426
 6680SOL    HW120939   4.195   6.894   6.353
 6680SOL    HW220940   4.264   6.877   6.500
 6681SOL     OW20941   4.644   5.903   0.645
 6681SOL    HW120942   4.655   5.850   0.561
 6681SOL    HW220943   4.577   5.976   0.630
 6682SOL     OW20944   2.150   4.940   0.492
 6682SOL    HW120945   2.191   4.959   0.403
 6682SOL    HW220946   2.158   5.020   0.551
 6683SOL     OW20947   6.132   3.387   5.461
 6683SOL    HW120948   6.218   3.342   5.483
 6683SOL    HW220949   6.058   3.349   5.517
 6684SOL     OW20950   3.655   6.364   1.957
 6684SOL    HW120951   3.671   6.462   1.946
 6684SOL    HW220952   3.687   6.315   1.876
 6685SOL     OW20953   4.685   2.965   6.551
 6685SOL    HW120954   4.621   3.031   6.512
 6685SOL    HW220955   4.756   2.943   6.483
 6686SOL     OW20956   5.195   5.493   4.099
 6686SOL    HW120957   5.097   5.474   4.105
 6686SOL    HW220958   5.244   5.437   4.165
 6687SOL     OW20959   0.594   3.502   1.926
 6687SOL    HW120960   0.550   3.570   1.866
 6687SOL    HW220961   0.687   3.485   1.892
 6688SOL     OW20962   5.182   4.324   1.397
 6688SOL    HW120963   5.196   4.234   1.437
 6688SOL    HW220964   5.086   4.336   1.372
 6689SOL     OW20965   4.571   3.991   5.786
 6689SOL    HW120966   4.656   3.940   5.799
 6689SOL    HW220967   4.577   4.046   5.703
 6690SOL     OW20968   0.391   0.044   0.506
 6690SOL    HW120969   0.488   0.034   0.529
 6690SOL    HW220970   0.336   7.003   0.564
 6691SOL     OW20971   2.033   0.413   2.648
 6691SOL    HW120972   2.078   0.323   2.649
 6691SOL    HW220973   2.101   0.485   2.660
 6692SOL     OW20974   3.818   3.903   3.691
 6692SOL    HW120975   3.890   3.882   3.757
 6692SOL    HW220976   3.737   3.848   3.711
 6693SOL     OW20977   4.135   2.167   5.415
 6693SOL    HW120978   4.116   2.180   5.512
 6693SOL    HW220979   4.209   2.100   5.404
 6694SOL     OW20980   3.582   5.617   1.323
 6694SOL    HW120981   3.621   5.590   1.235
 6694SOL    HW220982   3.498   5.566   1.340
 6695SOL     OW20983   2.398   2.251   6.820
 6695SOL    HW120984   2.437   2.321   6.879
 6695SOL    HW220985   2.469   2.213   6.762
 6696SOL     OW20986   3.638   2.943   4.051
 6696SOL    HW120987   3.672   3.036   4.063
 6696SOL    HW220988   3.623   2.901   4.141
 6697SOL     OW20989   5.134   1.202   2.958
 6697SOL    HW120990   5.199   1.127   2.957
 6697SOL    HW220991   5.172   1.279   3.010
 6698SOL     OW20992   3.459   2.485   0.656
 6698SOL    HW120993   3.509   2.509   0.739
 6698SOL    HW220994   3.507   2.521   0.576
 6699SOL     OW20995   2.313   6.190   5.645
 6699SOL    HW120996   2.390   6.128   5.658
 6699SOL    HW220997   2.228   6.143   5.667
 6700SOL     OW20998   0.038   1.385   1.580
 6700SOL    HW120999   0.013   1.298   1.537
 6700SOL    HW221000   6.996   1.457   1.548
 6701SOL     OW21001   5.639   5.432   1.741
 6701SOL    HW121002   5.700   5.394   1.811
 6701SOL    HW221003   5.652   5.531   1.735
 6702SOL     OW21004   2.138   2.559   1.307
 6702SOL    HW121005   2.114   2.619   1.383
 6702SOL    HW221006   2.057   2.508   1.278
 6703SOL     OW21007   6.503   0.010   1.076
 6703SOL    HW121008   6.475   6.941   1.038
 6703SOL    HW221009   6.571   0.052   1.017
 6704SOL     OW21010   3.891   2.036   2.744
 6704SOL    HW121011   3.810   2.063   2.797
 6704SOL    HW221012   3.891   1.937   2.732
 6705SOL     OW21013   6.270   3.093   1.095
 6705SOL    HW121014   6.222   3.034   1.161
 6705SOL    HW221015   6.320   3.036   1.030
 6706SOL     OW21016   0.985   5.444   1.273
 6706SOL    HW121017   0.912   5.396   1.322
 6706SOL    HW221018   0.952   5.475   1.184
 6707SOL     OW21019   5.845   6.904   3.255
 6707SOL    HW121020   5.825   6.821   3.203
 6707SOL    HW221021   5.831   6.887   3.352
 6708SOL     OW21022   5.554   5.559   0.544
 6708SOL    HW121023   5.536   5.654   0.519
 6708SOL    HW221024   5.470   5.517   0.577
 6709SOL     OW21025   1.602   6.157   2.991
 6709SOL    HW121026   1.648   6.072   3.016
 6709SOL    HW221027   1.621   6.178   2.895
 6710SOL     OW21028   3.547   1.108   6.005
 6710SOL    HW121029   3.592   1.062   5.928
 6710SOL    HW221030   3.497   1.040   6.059
 6711SOL     OW21031   5.206   6.307   5.402
 6711SOL    HW121032   5.163   6.383   5.353
 6711SOL    HW221033   5.139   6.265   5.463
 6712SOL     OW21034   6.010   3.826   0.586
 6712SOL    HW121035   6.013   3.908   0.642
 6712SOL    HW221036   5.983   3.849   0.493
 6713SOL     OW21037   1.936   0.662   2.542
 6713SOL    HW121038   1.946   0.568   2.576
 6713SOL    HW221039   2.025   0.696   2.512
 6714SOL     OW21040   6.383   1.086   6.504
 6714SOL    HW121041   6.338   1.040   6.581
 6714SOL    HW221042   6.367   1.033   6.421
 6715SOL     OW21043   0.998   0.352   0.658
 6715SOL    HW121044   1.003   0.316   0.564
 6715SOL    HW221045   1.058   0.431   0.666
 6716SOL     OW21046   0.231   5.795   1.996
 6716SOL    HW121047   0.233   5.790   1.897
 6716SOL    HW221048   0.282   5.718   2.035
 6717SOL     OW21049   3.214   2.894   6.835
 6717SOL    HW121050   3.121   2.927   6.820
 6717SOL    HW221051   3.275   2.932   6.765
 6718SOL     OW21052   5.088   0.033   0.475
 6718SOL    HW121053   5.086   6.953   0.486
 6718SOL    HW221054   5.046   0.077   0.554
 6719SOL     OW21055   2.988   6.420   7.016
 6719SOL    HW121056   2.972   6.347   0.063
 6719SOL    HW221057   2.900   6.460   6.988
 6720SOL     OW21058   2.011   6.982   3.951
 6720SOL    HW121059   1.976   6.970   4.043
 6720SOL    HW221060   2.024   0.061   3.933
 6721SOL     OW21061   6.521   6.592   0.158
 6721SOL    HW121062   6.586   6.657   0.119
 6721SOL    HW221063   6.528   6.593   0.257
 6722SOL     OW21064   6.406   2.696   0.953
 6722SOL    HW121065   6.321   2.674   1.000
 6722SOL    HW221066   6.484   2.664   1.008
 6723SOL     OW21067   1.532   6.969   4.602
 6723SOL    HW121068   1.561   0.016   4.534
 6723SOL    HW221069   1.514   7.015   4.689
 6724SOL     OW21070   2.494   3.665   6.256
 6724SOL    HW121071   2.471   3.569   6.271
 6724SOL    HW221072   2.594   3.675   6.247
 6725SOL     OW21073   6.536   2.766   1.770
 6725SOL    HW121074   6.571   2.859   1.785
 6725SOL    HW221075   6.466   2.768   1.699
 6726SOL     OW21076   1.302   2.860   4.377
 6726SOL    HW121077   1.253   2.937   4.418
 6726SOL    HW221078   1.237   2.791   4.347
 6727SOL     OW21079   0.237   4.796   5.766
 6727SOL    HW121080   0.265   4.838   5.853
 6727SOL    HW221081   0.242   4.864   5.694
 6728SOL     OW21082   3.898   2.131   2.477
 6728SOL    HW121083   3.988   2.143   2.436
 6728SOL    HW221084   3.907   2.131   2.577
 6729SOL     OW21085   6.422   0.527   0.758
 6729SOL    HW121086   6.496   0.588   0.729
 6729SOL    HW221087   6.429   0.511   0.856
 6730SOL     OW21088   2.117   6.835   1.733
 6730SOL    HW121089   2.205   6.876   1.755
 6730SOL    HW221090   2.076   6.798   1.817
 6731SOL     OW21091   1.497   0.004   1.079
 6731SOL    HW121092   1.560   6.976   1.017
 6731SOL    HW221093   1.542   0.019   1.167
 6732SOL     OW21094   5.999   4.223   4.674
 6732SOL    HW121095   5.923   4.159   4.666
 6732SOL    HW221096   6.084   4.172   4.692
 6733SOL     OW21097   3.190   5.701   6.147
 6733SOL    HW121098   3.118   5.664   6.206
 6733SOL    HW221099   3.224   5.628   6.087
 6734SOL     OW21100   6.018   1.879   4.632
 6734SOL    HW121101   6.046   1.843   4.543
 6734SOL    HW221102   5.965   1.809   4.680
 6735SOL     OW21103   6.531   3.684   4.584
 6735SOL    HW121104   6.497   3.591   4.601
 6735SOL    HW221105   6.458   3.750   4.601
 6736SOL     OW21106   2.749   3.414   6.810
 6736SOL    HW121107   2.708   3.505   6.801
 6736SOL    HW221108   2.722   3.373   6.897
 6737SOL     OW21109   1.552   3.151   0.797
 6737SOL    HW121110   1.473   3.206   0.771
 6737SOL    HW221111   1.551   3.136   0.896
 6738SOL     OW21112   1.819   5.684   3.236
 6738SOL    HW121113   1.752   5.631   3.288
 6738SOL    HW221114   1.909   5.642   3.246
 6739SOL     OW21115   4.937   5.703   4.536
 6739SOL    HW121116   4.960   5.740   4.626
 6739SOL    HW221117   5.017   5.658   4.497
 6740SOL     OW21118   7.018   0.036   5.069
 6740SOL    HW121119   6.921   0.057   5.067
 6740SOL    HW221120   0.015   6.974   5.125
 6741SOL     OW21121   4.079   2.425   5.825
 6741SOL    HW121122   4.001   2.487   5.828
 6741SOL    HW221123   4.164   2.478   5.822
 6742SOL     OW21124   5.865   5.883   3.262
 6742SOL    HW121125   5.859   5.792   3.302
 6742SOL    HW221126   5.961   5.910   3.254
 6743SOL     OW21127   4.535   4.549   6.448
 6743SOL    HW121128   4.436   4.556   6.438
 6743SOL    HW221129   4.577   4.537   6.358
 6744SOL     OW21130   6.238   4.166   5.822
 6744SOL    HW121131   6.332   4.198   5.808
 6744SOL    HW221132   6.228   4.133   5.916
 6745SOL     OW21133   0.715   7.009   3.601
 6745SOL    HW121134   0.791   0.001   3.665
 6745SOL    HW221135   0.653   0.068   3.608
 6746SOL     OW21136   1.005   1.346   4.048
 6746SOL    HW121137   1.018   1.283   3.971
 6746SOL    HW221138   0.999   1.440   4.013
 6747SOL     OW21139   5.496   1.217   6.099
 6747SOL    HW121140   5.483   1.173   6.187
 6747SOL    HW221141   5.414   1.269   6.075
 6748SOL     OW21142   3.298   1.917   3.144
 6748SOL    HW121143   3.237   1.902   3.066
 6748SOL    HW221144   3.361   1.992   3.123
 6749SOL     OW21145   3.804   4.023   0.786
 6749SOL    HW121146   3.785   3.926   0.802
 6749SOL    HW221147   3.729   4.063   0.733
 6750SOL     OW21148   3.498   2.010   4.318
 6750SOL    HW121149   3.399   2.017   4.304
 6750SOL    HW221150   3.518   2.011   4.416
 6751SOL     OW21151   5.867   6.796   2.726
 6751SOL    HW121152   5.913   6.770   2.641
 6751SOL    HW221153   5.791   6.857   2.705
 6752SOL     OW21154   1.868   6.937   3.429
 6752SOL    HW121155   1.876   6.968   3.334
 6752SOL    HW221156   1.799   6.865   3.434
 6753SOL     OW21157   3.117   1.408   5.982
 6753SOL    HW121158   3.021   1.392   5.956
 6753SOL    HW221159   3.149   1.493   5.941
 6754SOL     OW21160   0.250   1.423   1.189
 6754SOL    HW121161   0.332   1.432   1.245
 6754SOL    HW221162   0.249   1.494   1.120
 6755SOL     OW21163   4.297   1.137   1.977
 6755SOL    HW121164   4.261   1.077   2.048
 6755SOL    HW221165   4.363   1.087   1.921
 6756SOL     OW21166   3.849   6.081   5.170
 6756SOL    HW121167   3.912   6.073   5.247
 6756SOL    HW221168   3.764   6.034   5.192
 6757SOL     OW21169   3.723   2.257   0.537
 6757SOL    HW121170   3.633   2.215   0.547
 6757SOL    HW221171   3.786   2.217   0.603
 6758SOL     OW21172   6.298   2.387   1.905
 6758SOL    HW121173   6.234   2.451   1.949
 6758SOL    HW221174   6.247   2.325   1.845
 6759SOL     OW21175   1.822   4.105   4.249
 6759SOL    HW121176   1.754   4.032   4.245
 6759SOL    HW221177   1.821   4.157   4.164
 6760SOL     OW21178   6.736   3.852   2.222
 6760SOL    HW121179   6.824   3.878   2.183
 6760SOL    HW221180   6.749   3.781   2.290
 6761SOL     OW21181   0.017   2.052   5.872
 6761SOL    HW121182   6.941   2.027   5.855
 6761SOL    HW221183   0.077   1.982   5.834
 6762SOL     OW21184   0.750   4.578   4.780
 6762SOL    HW121185   0.661   4.532   4.777
 6762SOL    HW221186   0.740   4.671   4.745
 6763SOL     OW21187   6.419   5.397   3.838
 6763SOL    HW121188   6.465   5.360   3.757
 6763SOL    HW221189   6.323   5.415   3.817
 6764SOL     OW21190   1.750   5.684   1.123
 6764SOL    HW121191   1.799   5.761   1.082
 6764SOL    HW221192   1.778   5.599   1.079
 6765SOL     OW21193   5.674   4.873   3.715
 6765SOL    HW121194   5.670   4.861   3.815
 6765SOL    HW221195   5.761   4.837   3.681
 6766SOL     OW21196   5.399   6.450   5.636
 6766SOL    HW121197   5.341   6.415   5.562
 6766SOL    HW221198   5.490   6.410   5.628
 6767SOL     OW21199   2.110   1.393   1.257
 6767SOL    HW121200   2.028   1.387   1.200
 6767SOL    HW221201   2.190   1.365   1.204
 6768SOL     OW21202   1.209   6.433   4.812
 6768SOL    HW121203   1.254   6.507   4.861
 6768SOL    HW221204   1.277   6.365   4.784
 6769SOL     OW21205   2.599   0.711   6.392
 6769SOL    HW121206   2.638   0.620   6.378
 6769SOL    HW221207   2.609   0.764   6.307
 6770SOL     OW21208   5.918   1.581   3.020
 6770SOL    HW121209   5.958   1.513   3.081
 6770SOL    HW221210   5.860   1.536   2.952
 6771SOL     OW21211   4.504   1.531   3.468
 6771SOL    HW121212   4.528   1.434   3.466
 6771SOL    HW221213   4.419   1.544   3.519
 6772SOL     OW21214   4.505   2.034   3.062
 6772SOL    HW121215   4.477   1.944   3.029
 6772SOL    HW221216   4.423   2.087   3.085
 6773SOL     OW21217   6.875   5.894   1.832
 6773SOL    HW121218   6.931   5.822   1.793
 6773SOL    HW221219   6.934   5.963   1.875
 6774SOL     OW21220   0.778   3.715   4.873
 6774SOL    HW121221   0.840   3.642   4.847
 6774SOL    HW221222   0.826   3.781   4.931
 6775SOL     OW21223   2.718   2.330   2.178
 6775SOL    HW121224   2.630   2.354   2.136
 6775SOL    HW221225   2.787   2.320   2.107
 6776SOL     OW21226   4.918   3.966   0.098
 6776SOL    HW121227   4.836   4.006   0.137
 6776SOL    HW221228   4.995   3.978   0.161
 6777SOL     OW21229   5.058   4.569   0.708
 6777SOL    HW121230   5.085   4.517   0.789
 6777SOL    HW221231   4.966   4.541   0.680
 6778SOL     OW21232   5.879   5.345   1.867
 6778SOL    HW121233   5.894   5.330   1.965
 6778SOL    HW221234   5.870   5.442   1.848
 6779SOL     OW21235   5.485   5.942   6.036
 6779SOL    HW121236   5.493   5.842   6.034
 6779SOL    HW221237   5.444   5.971   6.122
 6780SOL     OW21238   1.915   2.844   2.380
 6780SOL    HW121239   1.900   2.771   2.314
 6780SOL    HW221240   1.997   2.895   2.357
 6781SOL     OW21241   6.819   2.259   4.340
 6781SOL    HW121242   6.889   2.188   4.350
 6781SOL    HW221243   6.734   2.227   4.381
 6782SOL     OW21244   0.861   1.052   2.658
 6782SOL    HW121245   0.814   1.027   2.574
 6782SOL    HW221246   0.816   1.009   2.736
 6783SOL     OW21247   6.493   1.110   5.611
 6783SOL    HW121248   6.534   1.168   5.541
 6783SOL    HW221249   6.408   1.072   5.577
 6784SOL     OW21250   1.379   3.504   0.710
 6784SOL    HW121251   1.287   3.464   0.707
 6784SOL    HW221252   1.373   3.602   0.690
 6785SOL     OW21253   5.633   5.951   4.490
 6785SOL    HW121254   5.656   6.038   4.447
 6785SOL    HW221255   5.589   5.891   4.423
 6786SOL     OW21256   1.785   2.536   0.585
 6786SOL    HW121257   1.706   2.551   0.644
 6786SOL    HW221258   1.862   2.502   0.640
 6787SOL     OW21259   2.430   3.001   0.035
 6787SOL    HW121260   2.410   3.056   6.973
 6787SOL    HW221261   2.387   2.911   0.026
 6788SOL     OW21262   1.042   4.238   1.399
 6788SOL    HW121263   0.981   4.161   1.379
 6788SOL    HW221264   0.995   4.302   1.461
 6789SOL     OW21265   0.637   5.408   2.780
 6789SOL    HW121266   0.576   5.371   2.849
 6789SOL    HW221267   0.701   5.337   2.750
 6790SOL     OW21268   0.018   3.777   0.747
 6790SOL    HW121269   0.029   3.681   0.770
 6790SOL    HW221270   0.107   3.819   0.730
 6791SOL     OW21271   3.756   1.434   2.086
 6791SOL    HW121272   3.848   1.429   2.048
 6791SOL    HW221273   3.711   1.517   2.054
 6792SOL     OW21274   6.168   0.047   4.990
 6792SOL    HW121275   6.072   0.058   5.016
 6792SOL    HW221276   6.174   0.005   4.900
 6793SOL     OW21277   1.909   1.656   0.944
 6793SOL    HW121278   1.826   1.647   0.889
 6793SOL    HW221279   1.913   1.582   1.011
 6794SOL     OW21280   4.930   0.909   5.611
 6794SOL    HW121281   4.900   0.980   5.547
 6794SOL    HW221282   4.881   0.824   5.593
 6795SOL     OW21283   2.158   6.354   0.717
 6795SOL    HW121284   2.178   6.444   0.756
 6795SOL    HW221285   2.200   6.283   0.773
 6796SOL     OW21286   6.351   0.549   2.804
 6796SOL    HW121287   6.312   0.640   2.793
 6796SOL    HW221288   6.439   0.556   2.852
 6797SOL     OW21289   6.972   2.444   1.885
 6797SOL    HW121290   6.978   2.355   1.840
 6797SOL    HW221291   0.027   2.503   1.854
 6798SOL     OW21292   5.616   6.747   1.932
 6798SOL    HW121293   5.708   6.707   1.937
 6798SOL    HW221294   5.623   6.847   1.935
 6799SOL     OW21295   0.134   0.200   1.885
 6799SOL    HW121296   0.079   0.283   1.901
 6799SOL    HW221297   0.226   0.214   1.921
 6800SOL     OW21298   2.040   3.529   2.357
 6800SOL    HW121299   2.048   3.456   2.290
 6800SOL    HW221300   2.032   3.490   2.449
 6801SOL     OW21301   0.672   6.974   2.844
 6801SOL    HW121302   0.636   6.886   2.873
 6801SOL    HW221303   0.753   6.960   2.787
 6802SOL     OW21304   3.243   5.836   1.493
 6802SOL    HW121305   3.295   5.872   1.415
 6802SOL    HW221306   3.172   5.902   1.518
 6803SOL     OW21307   4.682   3.170   5.447
 6803SOL    HW121308   4.742   3.133   5.376
 6803SOL    HW221309   4.663   3.266   5.427
 6804SOL     OW21310   3.318   5.051   4.045
 6804SOL    HW121311   3.355   5.077   3.956
 6804SOL    HW221312   3.387   5.066   4.116
 6805SOL     OW21313   0.528   4.932   6.600
 6805SOL    HW121314   0.523   4.841   6.559
 6805SOL    HW221315   0.526   5.001   6.527
 6806SOL     OW21316   6.508   0.635   3.238
 6806SOL    HW121317   6.414   0.611   3.264
 6806SOL    HW221318   6.572   0.588   3.299
 6807SOL     OW21319   3.350   3.842   1.509
 6807SOL    HW121320   3.322   3.844   1.605
 6807SOL    HW221321   3.399   3.926   1.487
 6808SOL     OW21322   0.284   2.185   5.990
 6808SOL    HW121323   0.309   2.151   6.081
 6808SOL    HW221324   0.185   2.182   5.980
 6809SOL     OW21325   0.875   3.366   1.279
 6809SOL    HW121326   0.834   3.277   1.300
 6809SOL    HW221327   0.849   3.432   1.349
 6810SOL     OW21328   1.243   1.018   2.485
 6810SOL    HW121329   1.331   1.033   2.529
 6810SOL    HW221330   1.187   0.958   2.542
 6811SOL     OW21331   5.470   3.464   1.532
 6811SOL    HW121332   5.481   3.398   1.457
 6811SOL    HW221333   5.556   3.471   1.583
 6812SOL     OW21334   3.204   3.563   4.681
 6812SOL    HW121335   3.170   3.600   4.594
 6812SOL    HW221336   3.221   3.639   4.744
 6813SOL     OW21337   4.972   2.880   3.261
 6813SOL    HW121338   4.961   2.858   3.164
 6813SOL    HW221339   5.045   2.823   3.300
 6814SOL     OW21340   3.480   1.592   5.944
 6814SOL    HW121341   3.554   1.563   5.882
 6814SOL    HW221342   3.393   1.555   5.912
 6815SOL     OW21343   3.551   6.290   0.763
 6815SOL    HW121344   3.524   6.278   0.667
 6815SOL    HW221345   3.472   6.280   0.822
 6816SOL     OW21346   6.701   0.417   6.531
 6816SOL    HW121347   6.693   0.497   6.473
 6816SOL    HW221348   6.761   0.350   6.488
 6817SOL     OW21349   2.176   2.610   2.715
 6817SOL    HW121350   2.081   2.587   2.692
 6817SOL    HW221351   2.232   2.527   2.714
 6818SOL     OW21352   2.384   6.284   1.913
 6818SOL    HW121353   2.448   6.361   1.913
 6818SOL    HW221354   2.432   6.200   1.889
 6819SOL     OW21355   4.356   1.576   3.162
 6819SOL    HW121356   4.421   1.541   3.094
 6819SOL    HW221357   4.388   1.666   3.194
 6820SOL     OW21358   1.914   5.712   1.922
 6820SOL    HW121359   2.007   5.702   1.886
 6820SOL    HW221360   1.851   5.654   1.870
 6821SOL     OW21361   4.097   2.013   4.909
 6821SOL    HW121362   4.166   2.084   4.921
 6821SOL    HW221363   4.026   2.046   4.846
 6822SOL     OW21364   5.634   2.472   5.903
 6822SOL    HW121365   5.721   2.515   5.930
 6822SOL    HW221366   5.603   2.412   5.977
 6823SOL     OW21367   4.786   3.588   6.121
 6823SOL    HW121368   4.715   3.654   6.143
 6823SOL    HW221369   4.857   3.632   6.065
 6824SOL     OW21370   1.160   2.401   0.445
 6824SOL    HW121371   1.222   2.427   0.370
 6824SOL    HW221372   1.145   2.302   0.442
 6825SOL     OW21373   5.114   6.852   0.911
 6825SOL    HW121374   5.072   6.943   0.919
 6825SOL    HW221375   5.063   6.787   0.967
 6826SOL     OW21376   1.753   3.005   3.271
 6826SOL    HW121377   1.722   2.993   3.177
 6826SOL    HW221378   1.851   3.027   3.272
 6827SOL     OW21379   4.383   5.105   6.489
 6827SOL    HW121380   4.395   5.203   6.473
 6827SOL    HW221381   4.290   5.079   6.462
 6828SOL     OW21382   2.997   1.394   1.440
 6828SOL    HW121383   3.037   1.480   1.407
 6828SOL    HW221384   2.898   1.403   1.446
 6829SOL     OW21385   5.182   5.995   5.108
 6829SOL    HW121386   5.194   6.094   5.098
 6829SOL    HW221387   5.248   5.960   5.174
 6830SOL     OW21388   5.099   0.885   3.657
 6830SOL    HW121389   5.195   0.863   3.669
 6830SOL    HW221390   5.048   0.859   3.739
 6831SOL     OW21391   1.122   0.072   6.947
 6831SOL    HW121392   1.080   0.123   6.872
 6831SOL    HW221393   1.145   6.998   6.915
 6832SOL     OW21394   2.725   4.167   0.695
 6832SOL    HW121395   2.647   4.224   0.722
 6832SOL    HW221396   2.756   4.113   0.773
 6833SOL     OW21397   3.555   4.446   6.623
 6833SOL    HW121398   3.644   4.408   6.598
 6833SOL    HW221399   3.486   4.374   6.622
 6834SOL     OW21400   4.729   6.577   0.671
 6834SOL    HW121401   4.721   6.486   0.711
 6834SOL    HW221402   4.768   6.640   0.739
 6835SOL     OW21403   4.219   0.653   4.508
 6835SOL    HW121404   4.157   0.730   4.493
 6835SOL    HW221405   4.170   0.567   4.494
 6836SOL     OW21406   2.370   4.616   0.272
 6836SOL    HW121407   2.405   4.680   0.204
 6836SOL    HW221408   2.432   4.539   0.282
 6837SOL     OW21409   0.742   2.079   2.290
 6837SOL    HW121410   0.750   2.004   2.225
 6837SOL    HW221411   0.822   2.138   2.283
 6838SOL     OW21412   3.565   6.393   0.005
 6838SOL    HW121413   3.595   6.452   0.080
 6838SOL    HW221414   3.581   6.439   6.937
 6839SOL     OW21415   5.973   1.048   6.488
 6839SOL    HW121416   5.897   1.091   6.440
 6839SOL    HW221417   6.040   1.119   6.512
 6840SOL     OW21418   3.703   0.749   4.872
 6840SOL    HW121419   3.648   0.822   4.911
 6840SOL    HW221420   3.662   0.718   4.786
 6841SOL     OW21421   4.453   4.281   6.842
 6841SOL    HW121422   4.518   4.343   6.799
 6841SOL    HW221423   4.498   4.195   6.865
 6842SOL     OW21424   3.101   3.933   0.518
 6842SOL    HW121425   3.127   3.876   0.595
 6842SOL    HW221426   3.182   3.955   0.463
 6843SOL     OW21427   5.893   6.402   1.286
 6843SOL    HW121428   5.847   6.471   1.230
 6843SOL    HW221429   5.915   6.322   1.230
 6844SOL     OW21430   5.133   0.483   3.874
 6844SOL    HW121431   5.205   0.504   3.807
 6844SOL    HW221432   5.165   0.506   3.966
 6845SOL     OW21433   6.689   4.082   3.508
 6845SOL    HW121434   6.763   4.148   3.519
 6845SOL    HW221435   6.606   4.117   3.552
 6846SOL     OW21436   3.379   3.099   0.004
 6846SOL    HW121437   3.286   3.114   6.989
 6846SOL    HW221438   3.419   3.021   6.975
 6847SOL     OW21439   0.348   3.455   3.997
 6847SOL    HW121440   0.335   3.554   4.008
 6847SOL    HW221441   0.328   3.409   4.084
 6848SOL     OW21442   4.727   6.208   3.459
 6848SOL    HW121443   4.753   6.198   3.363
 6848SOL    HW221444   4.720   6.118   3.501
 6849SOL     OW21445   4.059   4.924   5.037
 6849SOL    HW121446   3.995   4.879   5.099
 6849SOL    HW221447   4.056   5.023   5.053
 6850SOL     OW21448   5.742   4.066   2.240
 6850SOL    HW121449   5.755   3.971   2.268
 6850SOL    HW221450   5.831   4.111   2.232
 6851SOL     OW21451   0.471   2.013   2.888
 6851SOL    HW121452   0.468   2.068   2.805
 6851SOL    HW221453   0.527   2.059   2.957
 6852SOL     OW21454   2.640   4.557   0.534
 6852SOL    HW121455   2.590   4.643   0.526
 6852SOL    HW221456   2.662   4.540   0.630
 6853SOL     OW21457   5.807   4.614   0.221
 6853SOL    HW121458   5.894   4.569   0.241
 6853SOL    HW221459   5.816   4.671   0.139
 6854SOL     OW21460   4.548   1.479   6.573
 6854SOL    HW121461   4.468   1.431   6.608
 6854SOL    HW221462   4.522   1.572   6.546
 6855SOL     OW21463   4.293   5.589   3.771
 6855SOL    HW121464   4.318   5.532   3.850
 6855SOL    HW221465   4.234   5.664   3.800
 6856SOL     OW21466   5.910   2.892   5.321
 6856SOL    HW121467   5.972   2.910   5.244
 6856SOL    HW221468   5.822   2.934   5.302
 6857SOL     OW21469   3.012   2.641   6.610
 6857SOL    HW121470   2.936   2.704   6.594
 6857SOL    HW221471   2.992   2.553   6.566
 6858SOL     OW21472   4.034   3.688   3.211
 6858SOL    HW121473   4.055   3.605   3.262
 6858SOL    HW221474   3.992   3.755   3.273
 6859SOL     OW21475   0.523   1.687   1.234
 6859SOL    HW121476   0.480   1.730   1.313
 6859SOL    HW221477   0.480   1.721   1.150
 6860SOL     OW21478   6.870   4.989   1.075
 6860SOL    HW121479   6.909   4.955   1.160
 6860SOL    HW221480   6.880   4.920   1.004
 6861SOL     OW21481   4.037   5.231   0.327
 6861SOL    HW121482   4.051   5.137   0.297
 6861SOL    HW221483   4.079   5.244   0.417
 6862SOL     OW21484   1.319   5.208   6.385
 6862SOL    HW121485   1.222   5.188   6.392
 6862SOL    HW221486   1.346   5.208   6.289
 6863SOL     OW21487   6.134   6.845   5.812
 6863SOL    HW121488   6.123   6.761   5.759
 6863SOL    HW221489   6.056   6.856   5.874
 6864SOL     OW21490   2.575   5.239   4.356
 6864SOL    HW121491   2.651   5.202   4.410
 6864SOL    HW221492   2.509   5.282   4.416
 6865SOL     OW21493   1.365   6.096   3.987
 6865SOL    HW121494   1.306   6.015   3.990
 6865SOL    HW221495   1.461   6.067   3.997
 6866SOL     OW21496   5.958   4.966   4.075
 6866SOL    HW121497   5.992   5.004   4.162
 6866SOL    HW221498   6.017   4.890   4.047
 6867SOL     OW21499   2.435   4.613   1.532
 6867SOL    HW121500   2.511   4.617   1.596
 6867SOL    HW221501   2.428   4.521   1.493
 6868SOL     OW21502   1.701   5.649   6.596
 6868SOL    HW121503   1.735   5.607   6.679
 6868SOL    HW221504   1.620   5.599   6.564
 6869SOL     OW21505   5.462   0.802   6.322
 6869SOL    HW121506   5.394   0.819   6.393
 6869SOL    HW221507   5.420   0.749   6.248
 6870SOL     OW21508   0.390   5.087   1.598
 6870SOL    HW121509   0.432   5.033   1.525
 6870SOL    HW221510   0.299   5.118   1.568
 6871SOL     OW21511   6.154   4.324   3.104
 6871SOL    HW121512   6.209   4.324   3.187
 6871SOL    HW221513   6.070   4.272   3.119
 6872SOL     OW21514   0.449   2.449   1.293
 6872SOL    HW121515   0.391   2.499   1.358
 6872SOL    HW221516   0.544   2.473   1.309
 6873SOL     OW21517   6.626   3.358   4.380
 6873SOL    HW121518   6.592   3.317   4.295
 6873SOL    HW221519   6.668   3.447   4.361
 6874SOL     OW21520   6.780   5.567   2.781
 6874SOL    HW121521   6.864   5.546   2.831
 6874SOL    HW221522   6.798   5.641   2.716
 6875SOL     OW21523   2.359   2.581   2.329
 6875SOL    HW121524   2.375   2.613   2.235
 6875SOL    HW221525   2.438   2.528   2.360
 6876SOL     OW21526   3.775   0.336   3.589
 6876SOL    HW121527   3.832   0.297   3.662
 6876SOL    HW221528   3.827   0.405   3.539
 6877SOL     OW21529   2.450   3.537   0.940
 6877SOL    HW121530   2.501   3.454   0.963
 6877SOL    HW221531   2.457   3.553   0.841
 6878SOL     OW21532   3.881   1.129   4.278
 6878SOL    HW121533   3.978   1.138   4.256
 6878SOL    HW221534   3.863   1.037   4.313
 6879SOL     OW21535   0.914   2.818   0.575
 6879SOL    HW121536   0.868   2.742   0.622
 6879SOL    HW221537   0.913   2.899   0.634
 6880SOL     OW21538   2.646   5.619   4.980
 6880SOL    HW121539   2.706   5.593   5.057
 6880SOL    HW221540   2.626   5.537   4.926
 6881SOL     OW21541   1.494   4.925   0.817
 6881SOL    HW121542   1.531   4.832   0.811
 6881SOL    HW221543   1.465   4.943   0.911
 6882SOL     OW21544   2.864   0.565   0.003
 6882SOL    HW121545   2.790   0.604   6.968
 6882SOL    HW221546   2.952   0.593   6.985
 6883SOL     OW21547   5.209   1.823   6.555
 6883SOL    HW121548   5.212   1.761   6.634
 6883SOL    HW221549   5.178   1.772   6.474
 6884SOL     OW21550   1.733   4.344   4.022
 6884SOL    HW121551   1.698   4.413   4.086
 6884SOL    HW221552   1.812   4.381   3.973
 6885SOL     OW21553   4.154   4.729   4.128
 6885SOL    HW121554   4.162   4.638   4.086
 6885SOL    HW221555   4.059   4.761   4.119
 6886SOL     OW21556   0.110   0.472   4.249
 6886SOL    HW121557   0.059   0.518   4.175
 6886SOL    HW221558   0.052   0.466   4.330
 6887SOL     OW21559   5.219   5.735   6.227
 6887SOL    HW121560   5.307   5.730   6.273
 6887SOL    HW221561   5.183   5.828   6.232
 6888SOL     OW21562   5.465   5.721   6.345
 6888SOL    HW121563   5.484   5.818   6.362
 6888SOL    HW221564   5.523   5.665   6.403
 6889SOL     OW21565   1.490   2.526   5.395
 6889SOL    HW121566   1.491   2.535   5.296
 6889SOL    HW221567   1.417   2.583   5.433
 6890SOL     OW21568   4.132   6.662   1.922
 6890SOL    HW121569   4.216   6.633   1.874
 6890SOL    HW221570   4.153   6.677   2.018
 6891SOL     OW21571   2.210   4.016   3.249
 6891SOL    HW121572   2.197   3.970   3.161
 6891SOL    HW221573   2.243   4.109   3.234
 6892SOL     OW21574   3.313   1.933   3.589
 6892SOL    HW121575   3.284   1.845   3.551
 6892SOL    HW221576   3.349   1.919   3.681
 6893SOL     OW21577   4.769   4.640   0.293
 6893SOL    HW121578   4.688   4.670   0.243
 6893SOL    HW221579   4.843   4.705   0.278
 6894SOL     OW21580   5.899   5.314   0.467
 6894SOL    HW121581   5.880   5.292   0.372
 6894SOL    HW221582   5.884   5.233   0.524
 6895SOL     OW21583   3.253   4.795   0.744
 6895SOL    HW121584   3.344   4.837   0.741
 6895SOL    HW221585   3.191   4.847   0.686
 6896SOL     OW21586   2.437   0.437   3.880
 6896SOL    HW121587   2.463   0.478   3.793
 6896SOL    HW221588   2.412   0.341   3.867
 6897SOL     OW21589   4.851   3.570   5.425
 6897SOL    HW121590   4.779   3.539   5.487
 6897SOL    HW221591   4.821   3.557   5.331
 6898SOL     OW21592   4.376   1.789   1.978
 6898SOL    HW121593   4.406   1.732   2.054
 6898SOL    HW221594   4.417   1.757   1.893
 6899SOL     OW21595   5.077   6.137   1.604
 6899SOL    HW121596   5.112   6.228   1.584
 6899SOL    HW221597   4.982   6.131   1.575
 6900SOL     OW21598   6.114   5.863   5.315
 6900SOL    HW121599   6.169   5.813   5.248
 6900SOL    HW221600   6.128   5.822   5.406
 6901SOL     OW21601   6.751   6.216   6.026
 6901SOL    HW121602   6.689   6.228   5.949
 6901SOL    HW221603   6.744   6.295   6.087
 6902SOL     OW21604   5.689   6.129   6.912
 6902SOL    HW121605   5.746   6.054   6.947
 6902SOL    HW221606   5.748   6.198   6.870
 6903SOL     OW21607   2.939   4.965   5.350
 6903SOL    HW121608   2.985   5.001   5.269
 6903SOL    HW221609   2.908   4.871   5.333
 6904SOL     OW21610   6.618   0.950   4.556
 6904SOL    HW121611   6.596   0.996   4.470
 6904SOL    HW221612   6.714   0.922   4.556
 6905SOL     OW21613   5.485   6.448   6.340
 6905SOL    HW121614   5.572   6.450   6.292
 6905SOL    HW221615   5.496   6.400   6.427
 6906SOL     OW21616   4.450   1.405   4.419
 6906SOL    HW121617   4.525   1.450   4.371
 6906SOL    HW221618   4.480   1.315   4.452
 6907SOL     OW21619   5.259   3.065   1.791
 6907SOL    HW121620   5.281   3.061   1.694
 6907SOL    HW221621   5.305   2.990   1.839
 6908SOL     OW21622   0.637   5.258   6.564
 6908SOL    HW121623   0.669   5.334   6.507
 6908SOL    HW221624   0.548   5.228   6.532
 6909SOL     OW21625   4.926   4.323   1.752
 6909SOL    HW121626   4.935   4.237   1.701
 6909SOL    HW221627   4.832   4.334   1.782
 6910SOL     OW21628   0.888   2.748   3.617
 6910SOL    HW121629   0.930   2.814   3.680
 6910SOL    HW221630   0.835   2.797   3.547
 6911SOL     OW21631   4.287   6.316   4.130
 6911SOL    HW121632   4.269   6.261   4.211
 6911SOL    HW221633   4.381   6.301   4.099
 6912SOL     OW21634   3.738   3.973   6.099
 6912SOL    HW121635   3.744   4.071   6.080
 6912SOL    HW221636   3.747   3.922   6.014
 6913SOL     OW21637   5.371   6.243   3.679
 6913SOL    HW121638   5.373   6.179   3.756
 6913SOL    HW221639   5.342   6.194   3.597
 6914SOL     OW21640   6.132   4.227   3.593
 6914SOL    HW121641   6.118   4.275   3.679
 6914SOL    HW221642   6.043   4.203   3.553
 6915SOL     OW21643   6.095   2.902   1.960
 6915SOL    HW121644   6.014   2.847   1.985
 6915SOL    HW221645   6.165   2.892   2.031
 6916SOL     OW21646   5.584   1.717   6.706
 6916SOL    HW121647   5.489   1.736   6.729
 6916SOL    HW221648   5.644   1.766   6.770
 6917SOL     OW21649   3.406   0.062   1.637
 6917SOL    HW121650   3.386   6.984   1.653
 6917SOL    HW221651   3.487   0.070   1.579
 6918SOL     OW21652   0.358   2.722   4.879
 6918SOL    HW121653   0.308   2.801   4.915
 6918SOL    HW221654   0.416   2.752   4.803
 6919SOL     OW21655   6.107   5.789   3.711
 6919SOL    HW121656   6.137   5.734   3.633
 6919SOL    HW221657   6.187   5.833   3.752
 6920SOL     OW21658   3.944   6.083   5.455
 6920SOL    HW121659   3.866   6.073   5.518
 6920SOL    HW221660   3.989   6.171   5.472
 6921SOL     OW21661   5.060   5.732   3.867
 6921SOL    HW121662   5.141   5.791   3.857
 6921SOL    HW221663   5.061   5.691   3.959
 6922SOL     OW21664   1.790   6.357   4.800
 6922SOL    HW121665   1.886   6.381   4.815
 6922SOL    HW221666   1.737   6.380   4.881
 6923SOL     OW21667   5.142   5.541   3.299
 6923SOL    HW121668   5.105   5.631   3.323
 6923SOL    HW221669   5.141   5.531   3.200
 6924SOL     OW21670   2.190   4.272   6.353
 6924SOL    HW121671   2.158   4.362   6.322
 6924SOL    HW221672   2.278   4.252   6.311
 6925SOL     OW21673   4.855   5.990   4.065
 6925SOL    HW121674   4.844   5.958   3.971
 6925SOL    HW221675   4.766   5.996   4.109
 6926SOL     OW21676   3.019   2.084   0.835
 6926SOL    HW121677   3.007   2.080   0.934
 6926SOL    HW221678   2.933   2.115   0.793
 6927SOL     OW21679   4.126   3.194   6.036
 6927SOL    HW121680   4.118   3.133   6.114
 6927SOL    HW221681   4.034   3.217   6.002
 6928SOL     OW21682   5.632   6.057   1.021
 6928SOL    HW121683   5.696   6.044   0.946
 6928SOL    HW221684   5.564   5.983   1.021
 6929SOL     OW21685   5.373   5.594   1.480
 6929SOL    HW121686   5.340   5.631   1.566
 6929SOL    HW221687   5.298   5.592   1.413
 6930SOL     OW21688   0.759   0.474   2.420
 6930SOL    HW121689   0.754   0.374   2.417
 6930SOL    HW221690   0.712   0.512   2.341
 6931SOL     OW21691   1.736   0.727   2.365
 6931SOL    HW121692   1.705   0.806   2.417
 6931SOL    HW221693   1.801   0.674   2.419
 6932SOL     OW21694   4.318   6.494   0.300
 6932SOL    HW121695   4.407   6.531   0.274
 6932SOL    HW221696   4.260   6.567   0.337
 6933SOL     OW21697   3.244   6.011   5.617
 6933SOL    HW121698   3.199   6.101   5.615
 6933SOL    HW221699   3.328   6.014   5.564
 6934SOL     OW21700   4.616   3.704   6.416
 6934SOL    HW121701   4.558   3.736   6.341
 6934SOL    HW221702   4.570   3.721   6.503
 6935SOL     OW21703   4.684   5.629   2.434
 6935SOL    HW121704   4.675   5.643   2.336
 6935SOL    HW221705   4.608   5.672   2.481
 6936SOL     OW21706   6.356   1.857   3.122
 6936SOL    HW121707   6.316   1.834   3.033
 6936SOL    HW221708   6.370   1.956   3.127
 6937SOL     OW21709   6.393   6.145   0.357
 6937SOL    HW121710   6.338   6.179   0.281
 6937SOL    HW221711   6.393   6.213   0.431
 6938SOL     OW21712   6.070   2.493   5.282
 6938SOL    HW121713   6.096   2.434   5.359
 6938SOL    HW221714   5.971   2.491   5.271
 6939SOL     OW21715   1.204   5.068   1.947
 6939SOL    HW121716   1.139   5.004   1.988
 6939SOL    HW221717   1.213   5.048   1.849
 6940SOL     OW21718   3.591   0.371   6.185
 6940SOL    HW121719   3.555   0.315   6.259
 6940SOL    HW221720   3.688   0.352   6.172
 6941SOL     OW21721   3.449   4.148   1.818
 6941SOL    HW121722   3.350   4.140   1.806
 6941SOL    HW221723   3.469   4.199   1.901
 6942SOL     OW21724   6.376   6.561   1.634
 6942SOL    HW121725   6.436   6.566   1.555
 6942SOL    HW221726   6.298   6.622   1.621
 6943SOL     OW21727   3.148   5.870   0.154
 6943SOL    HW121728   3.138   5.841   0.059
 6943SOL    HW221729   3.211   5.809   0.201
 6944SOL     OW21730   0.591   4.366   6.702
 6944SOL    HW121731   0.547   4.318   6.626
 6944SOL    HW221732   0.687   4.384   6.680
 6945SOL     OW21733   6.154   1.102   6.783
 6945SOL    HW121734   6.069   1.148   6.756
 6945SOL    HW221735   6.219   1.169   6.819
 6946SOL     OW21736   4.410   6.844   1.080
 6946SOL    HW121737   4.425   6.746   1.067
 6946SOL    HW221738   4.373   6.883   0.996
 6947SOL     OW21739   3.364   5.471   6.551
 6947SOL    HW121740   3.437   5.539   6.548
 6947SOL    HW221741   3.358   5.424   6.463
 6948SOL     OW21742   0.751   0.489   0.367
 6948SOL    HW121743   0.797   0.425   0.306
 6948SOL    HW221744   0.653   0.490   0.347
 6949SOL     OW21745   4.193   0.113   3.451
 6949SOL    HW121746   4.120   0.059   3.494
 6949SOL    HW221747   4.170   0.131   3.356
 6950SOL     OW21748   1.427   2.074   4.650
 6950SOL    HW121749   1.481   1.996   4.616
 6950SOL    HW221750   1.403   2.134   4.574
 6951SOL     OW21751   6.239   5.227   5.705
 6951SOL    HW121752   6.333   5.260   5.714
 6951SOL    HW221753   6.195   5.228   5.795
 6952SOL     OW21754   0.524   6.018   3.197
 6952SOL    HW121755   0.483   6.077   3.266
 6952SOL    HW221756   0.577   6.074   3.133
 6953SOL     OW21757   4.386   6.600   1.326
 6953SOL    HW121758   4.319   6.634   1.261
 6953SOL    HW221759   4.363   6.633   1.418
 6954SOL     OW21760   6.908   4.154   2.504
 6954SOL    HW121761   6.937   4.061   2.480
 6954SOL    HW221762   6.809   4.156   2.515
 6955SOL     OW21763   6.059   0.042   2.089
 6955SOL    HW121764   6.002   0.100   2.147
 6955SOL    HW221765   6.143   0.090   2.065
 6956SOL     OW21766   5.708   5.939   4.013
 6956SOL    HW121767   5.699   5.840   4.016
 6956SOL    HW221768   5.775   5.964   3.943
 6957SOL     OW21769   6.191   5.233   0.451
 6957SOL    HW121770   6.121   5.303   0.466
 6957SOL    HW221771   6.199   5.175   0.532
 6958SOL     OW21772   3.984   3.319   4.370
 6958SOL    HW121773   3.946   3.227   4.379
 6958SOL    HW221774   4.025   3.329   4.280
 6959SOL     OW21775   2.149   3.193   3.832
 6959SOL    HW121776   2.056   3.224   3.851
 6959SOL    HW221777   2.170   3.207   3.736
 6960SOL     OW21778   1.871   4.553   1.077
 6960SOL    HW121779   1.821   4.603   1.148
 6960SOL    HW221780   1.964   4.534   1.108
 6961SOL     OW21781   5.886   1.023   4.112
 6961SOL    HW121782   5.952   0.950   4.094
 6961SOL    HW221783   5.847   1.054   4.025
 6962SOL     OW21784   4.867   6.379   1.845
 6962SOL    HW121785   4.964   6.381   1.869
 6962SOL    HW221786   4.851   6.438   1.765
 6963SOL     OW21787   5.237   5.908   0.888
 6963SOL    HW121788   5.178   5.948   0.958
 6963SOL    HW221789   5.325   5.884   0.928
 6964SOL     OW21790   3.394   1.023   5.210
 6964SOL    HW121791   3.350   1.111   5.227
 6964SOL    HW221792   3.332   0.948   5.234
 6965SOL     OW21793   0.827   1.169   0.584
 6965SOL    HW121794   0.876   1.092   0.545
 6965SOL    HW221795   0.785   1.142   0.671
 6966SOL     OW21796   1.305   2.258   2.728
 6966SOL    HW121797   1.340   2.345   2.764
 6966SOL    HW221798   1.274   2.201   2.804
 6967SOL     OW21799   2.872   1.098   5.485
 6967SOL    HW121800   2.863   1.003   5.455
 6967SOL    HW221801   2.930   1.147   5.421
 6968SOL     OW21802   3.779   0.025   2.994
 6968SOL    HW121803   3.831   0.103   2.960
 6968SOL    HW221804   3.741   6.993   2.917
 6969SOL     OW21805   3.040   2.475   1.624
 6969SOL    HW121806   3.003   2.454   1.714
 6969SOL    HW221807   3.137   2.500   1.633
 6970SOL     OW21808   4.537   4.719   5.408
 6970SOL    HW121809   4.633   4.734   5.428
 6970SOL    HW221810   4.498   4.655   5.474
 6971SOL     OW21811   6.721   4.420   1.219
 6971SOL    HW121812   6.811   4.406   1.178
 6971SOL    HW221813   6.655   4.359   1.175
 6972SOL     OW21814   5.196   4.750   3.016
 6972SOL    HW121815   5.280   4.777   2.970
 6972SOL    HW221816   5.207   4.660   3.058
 6973SOL     OW21817   1.060   2.943   3.553
 6973SOL    HW121818   1.138   2.881   3.566
 6973SOL    HW221819   1.054   3.004   3.632
 6974SOL     OW21820   2.884   3.692   3.007
 6974SOL    HW121821   2.808   3.731   2.955
 6974SOL    HW221822   2.960   3.757   3.008
 6975SOL     OW21823   1.484   6.450   6.643
 6975SOL    HW121824   1.405   6.492   6.600
 6975SOL    HW221825   1.567   6.498   6.615
 6976SOL     OW21826   5.613   5.179   5.198
 6976SOL    HW121827   5.576   5.233   5.273
 6976SOL    HW221828   5.705   5.210   5.176
 6977SOL     OW21829   3.881   2.838   1.713
 6977SOL    HW121830   3.786   2.811   1.722
 6977SOL    HW221831   3.909   2.889   1.794
 6978SOL     OW21832   6.032   1.538   2.094
 6978SOL    HW121833   6.011   1.616   2.153
 6978SOL    HW221834   6.035   1.568   1.998
 6979SOL     OW21835   0.722   4.238   1.526
 6979SOL    HW121836   0.735   4.183   1.609
 6979SOL    HW221837   0.737   4.181   1.446
 6980SOL     OW21838   2.052   1.138   3.985
 6980SOL    HW121839   2.017   1.138   3.891
 6980SOL    HW221840   2.013   1.214   4.036
 6981SOL     OW21841   3.906   2.795   6.026
 6981SOL    HW121842   3.853   2.880   6.037
 6981SOL    HW221843   3.900   2.764   5.932
 6982SOL     OW21844   1.541   1.021   4.790
 6982SOL    HW121845   1.601   1.097   4.813
 6982SOL    HW221846   1.538   0.957   4.867
 6983SOL     OW21847   3.709   1.684   3.399
 6983SOL    HW121848   3.803   1.653   3.418
 6983SOL    HW221849   3.713   1.775   3.358
 6984SOL     OW21850   1.421   1.566   3.269
 6984SOL    HW121851   1.453   1.473   3.287
 6984SOL    HW221852   1.322   1.565   3.252
 6985SOL     OW21853   5.940   4.859   1.063
 6985SOL    HW121854   5.956   4.763   1.039
 6985SOL    HW221855   6.006   4.917   1.015
 6986SOL     OW21856   2.749   0.220   6.235
 6986SOL    HW121857   2.780   0.225   6.140
 6986SOL    HW221858   2.651   0.200   6.238
 6987SOL     OW21859   6.063   1.336   6.373
 6987SOL    HW121860   5.990   1.274   6.346
 6987SOL    HW221861   6.051   1.424   6.327
 6988SOL     OW21862   0.630   6.901   6.204
 6988SOL    HW121863   0.711   6.941   6.159
 6988SOL    HW221864   0.656   6.865   6.293
 6989SOL     OW21865   0.924   3.761   3.084
 6989SOL    HW121866   1.021   3.774   3.107
 6989SOL    HW221867   0.877   3.721   3.163
 6990SOL     OW21868   4.997   2.571   1.470
 6990SOL    HW121869   4.898   2.582   1.459
 6990SOL    HW221870   5.035   2.527   1.389
 6991SOL     OW21871   4.363   4.657   3.513
 6991SOL    HW121872   4.423   4.578   3.502
 6991SOL    HW221873   4.341   4.668   3.610
 6992SOL     OW21874   5.265   7.003   6.374
 6992SOL    HW121875   5.275   6.997   6.473
 6992SOL    HW221876   5.180   6.959   6.346
 6993SOL     OW21877   5.987   0.535   3.128
 6993SOL    HW121878   5.994   0.495   3.220
 6993SOL    HW221879   6.064   0.505   3.072
 6994SOL     OW21880   0.002   2.617   4.538
 6994SOL    HW121881   0.059   2.692   4.505
 6994SOL    HW221882   0.046   2.575   4.617
 6995SOL     OW21883   0.152   5.148   6.091
 6995SOL    HW121884   0.128   5.051   6.095
 6995SOL    HW221885   0.145   5.180   5.996
 6996SOL     OW21886   1.738   0.288   6.487
 6996SOL    HW121887   1.807   0.355   6.460
 6996SOL    HW221888   1.647   0.323   6.465
 6997SOL     OW21889   6.950   5.729   5.465
 6997SOL    HW121890   6.919   5.823   5.450
 6997SOL    HW221891   6.915   5.696   5.552
 6998SOL     OW21892   2.063   0.449   1.326
 6998SOL    HW121893   1.986   0.489   1.277
 6998SOL    HW221894   2.143   0.508   1.315
 6999SOL     OW21895   2.006   2.210   6.990
 6999SOL    HW121896   2.076   2.165   0.027
 6999SOL    HW221897   2.036   2.215   6.895
 7000SOL     OW21898   5.019   0.042   1.622
 7000SOL    HW121899   5.038   7.012   1.707
 7000SOL    HW221900   5.105   0.066   1.578
 7001SOL     OW21901   2.068   3.286   6.359
 7001SOL    HW121902   2.025   3.292   6.269
 7001SOL    HW221903   2.097   3.378   6.388
 7002SOL     OW21904   1.694   5.372   3.664
 7002SOL    HW121905   1.666   5.408   3.575
 7002SOL    HW221906   1.663   5.434   3.736
 7003SOL     OW21907   4.224   5.653   0.634
 7003SOL    HW121908   4.303   5.600   0.604
 7003SOL    HW221909   4.170   5.681   0.554
 7004SOL     OW21910   0.778   5.239   2.047
 7004SOL    HW121911   0.762   5.183   2.128
 7004SOL    HW221912   0.831   5.320   2.073
 7005SOL     OW21913   0.830   6.895   0.696
 7005SOL    HW121914   0.889   6.929   0.769
 7005SOL    HW221915   0.887   6.859   0.622
 7006SOL     OW21916   4.965   5.152   3.998
 7006SOL    HW121917   4.888   5.170   4.059
 7006SOL    HW221918   4.954   5.206   3.914
 7007SOL     OW21919   4.305   0.507   4.136
 7007SOL    HW121920   4.404   0.525   4.143
 7007SOL    HW221921   4.267   0.561   4.062
 7008SOL     OW21922   0.194   4.096   4.340
 7008SOL    HW121923   0.097   4.079   4.357
 7008SOL    HW221924   0.223   4.176   4.393
 7009SOL     OW21925   4.911   6.227   2.481
 7009SOL    HW121926   4.900   6.284   2.562
 7009SOL    HW221927   4.875   6.136   2.499
 7010SOL     OW21928   5.443   3.959   3.757
 7010SOL    HW121929   5.464   4.025   3.828
 7010SOL    HW221930   5.359   3.910   3.780
 7011SOL     OW21931   3.113   6.331   6.780
 7011SOL    HW121932   3.076   6.383   6.857
 7011SOL    HW221933   3.209   6.355   6.767
 7012SOL     OW21934   0.330   1.774   1.521
 7012SOL    HW121935   0.372   1.857   1.484
 7012SOL    HW221936   0.232   1.789   1.533
 7013SOL     OW21937   1.010   6.985   0.191
 7013SOL    HW121938   1.102   7.013   0.218
 7013SOL    HW221939   0.998   7.000   0.092
 7014SOL     OW21940   4.214   3.547   0.679
 7014SOL    HW121941   4.279   3.482   0.717
 7014SOL    HW221942   4.257   3.637   0.673
 7015SOL     OW21943   6.408   4.335   1.422
 7015SOL    HW121944   6.434   4.240   1.438
 7015SOL    HW221945   6.312   4.347   1.446
 7016SOL     OW21946   3.325   4.795   1.433
 7016SOL    HW121947   3.386   4.724   1.399
 7016SOL    HW221948   3.231   4.761   1.436
 7017SOL     OW21949   2.476   5.001   3.208
 7017SOL    HW121950   2.481   5.060   3.128
 7017SOL    HW221951   2.568   4.983   3.243
 7018SOL     OW21952   5.452   3.459   4.558
 7018SOL    HW121953   5.492   3.470   4.467
 7018SOL    HW221954   5.476   3.538   4.614
 7019SOL     OW21955   3.962   4.396   0.670
 7019SOL    HW121956   3.906   4.440   0.599
 7019SOL    HW221957   3.917   4.407   0.759
 7020SOL     OW21958   6.512   4.197   5.790
 7020SOL    HW121959   6.593   4.249   5.817
 7020SOL    HW221960   6.532   4.099   5.796
 7021SOL     OW21961   1.440   2.251   5.592
 7021SOL    HW121962   1.428   2.171   5.650
 7021SOL    HW221963   1.473   2.223   5.502
 7022SOL     OW21964   4.745   6.739   5.881
 7022SOL    HW121965   4.791   6.758   5.794
 7022SOL    HW221966   4.777   6.651   5.917
 7023SOL     OW21967   0.993   2.575   3.430
 7023SOL    HW121968   1.090   2.589   3.415
 7023SOL    HW221969   0.960   2.636   3.502
 7024SOL     OW21970   2.787   3.718   5.309
 7024SOL    HW121971   2.792   3.621   5.284
 7024SOL    HW221972   2.853   3.769   5.254
 7025SOL     OW21973   3.505   0.742   0.588
 7025SOL    HW121974   3.440   0.679   0.630
 7025SOL    HW221975   3.566   0.690   0.527
 7026SOL     OW21976   3.220   2.021   2.130
 7026SOL    HW121977   3.187   1.927   2.114
 7026SOL    HW221978   3.308   2.033   2.085
 7027SOL     OW21979   1.912   5.079   4.228
 7027SOL    HW121980   1.938   5.169   4.264
 7027SOL    HW221981   1.976   5.052   4.156
 7028SOL     OW21982   3.295   1.378   3.281
 7028SOL    HW121983   3.337   1.463   3.251
 7028SOL    HW221984   3.236   1.395   3.360
 7029SOL     OW21985   4.881   4.521   5.052
 7029SOL    HW121986   4.908   4.439   5.000
 7029SOL    HW221987   4.801   4.563   5.008
 7030SOL     OW21988   1.304   0.733   5.097
 7030SOL    HW121989   1.322   0.675   5.177
 7030SOL    HW221990   1.245   0.684   5.032
 7031SOL     OW21991   3.927   5.709   6.069
 7031SOL    HW121992   4.015   5.664   6.085
 7031SOL    HW221993   3.856   5.640   6.055
 7032SOL     OW21994   4.311   1.413   3.905
 7032SOL    HW121995   4.347   1.506   3.906
 7032SOL    HW221996   4.362   1.357   3.971
 7033SOL     OW21997   1.711   2.380   3.373
 7033SOL    HW121998   1.651   2.387   3.453
 7033SOL    HW221999   1.664   2.331   3.300
 7034SOL     OW22000   0.114   0.783   3.277
 7034SOL    HW122001   0.105   0.738   3.188
 7034SOL    HW222002   0.164   0.723   3.340
 7035SOL     OW22003   1.623   0.173   0.744
 7035SOL    HW122004   1.651   0.174   0.648
 7035SOL    HW222005   1.524   0.160   0.750
 7036SOL     OW22006   0.327   0.366   3.096
 7036SOL    HW122007   0.304   0.458   3.063
 7036SOL    HW222008   0.290   0.353   3.188
 7037SOL     OW22009   1.747   1.310   6.685
 7037SOL    HW122010   1.748   1.261   6.773
 7037SOL    HW222011   1.771   1.406   6.700
 7038SOL     OW22012   2.072   3.556   5.165
 7038SOL    HW122013   2.075   3.643   5.116
 7038SOL    HW222014   2.029   3.570   5.254
 7039SOL     OW22015   1.453   5.449   2.673
 7039SOL    HW122016   1.394   5.368   2.677
 7039SOL    HW222017   1.517   5.447   2.749
 7040SOL     OW22018   5.393   2.402   5.776
 7040SOL    HW122019   5.478   2.422   5.826
 7040SOL    HW222020   5.415   2.374   5.683
 7041SOL     OW22021   6.651   1.645   1.964
 7041SOL    HW122022   6.704   1.576   2.013
 7041SOL    HW222023   6.553   1.628   1.978
 7042SOL     OW22024   4.447   5.682   5.181
 7042SOL    HW122025   4.525   5.625   5.207
 7042SOL    HW222026   4.407   5.648   5.097
 7043SOL     OW22027   2.190   4.820   2.845
 7043SOL    HW122028   2.204   4.722   2.861
 7043SOL    HW222029   2.216   4.871   2.927
 7044SOL     OW22030   5.974   4.785   4.492
 7044SOL    HW122031   5.897   4.824   4.543
 7044SOL    HW222032   6.045   4.854   4.480
 7045SOL     OW22033   4.880   5.119   2.881
 7045SOL    HW122034   4.796   5.150   2.837
 7045SOL    HW222035   4.952   5.105   2.812
 7046SOL     OW22036   2.823   1.488   3.545
 7046SOL    HW122037   2.742   1.449   3.503
 7046SOL    HW222038   2.903   1.433   3.521
 7047SOL     OW22039   6.436   0.858   2.442
 7047SOL    HW122040   6.423   0.838   2.540
 7047SOL    HW222041   6.359   0.911   2.408
 7048SOL     OW22042   5.822   6.797   3.869
 7048SOL    HW122043   5.832   6.731   3.944
 7048SOL    HW222044   5.735   6.781   3.823
 7049SOL     OW22045   3.625   1.910   0.656
 7049SOL    HW122046   3.581   1.986   0.704
 7049SOL    HW222047   3.560   1.870   0.592
 7050SOL     OW22048   4.200   3.785   1.707
 7050SOL    HW122049   4.223   3.693   1.737
 7050SOL    HW222050   4.102   3.802   1.723
 7051SOL     OW22051   6.557   6.457   1.027
 7051SOL    HW122052   6.640   6.504   1.058
 7051SOL    HW222053   6.545   6.473   0.929
 7052SOL     OW22054   5.991   1.753   3.345
 7052SOL    HW122055   5.907   1.756   3.290
 7052SOL    HW222056   6.069   1.733   3.286
 7053SOL     OW22057   1.972   2.892   4.961
 7053SOL    HW122058   2.067   2.909   4.937
 7053SOL    HW222059   1.961   2.898   5.060
 7054SOL     OW22060   6.803   6.749   0.353
 7054SOL    HW122061   6.827   6.657   0.382
 7054SOL    HW222062   6.876   6.785   0.295
 7055SOL     OW22063   2.854   0.037   6.413
 7055SOL    HW122064   2.801   6.974   6.389
 7055SOL    HW222065   2.836   0.109   6.345
 7056SOL     OW22066   6.544   5.295   1.515
 7056SOL    HW122067   6.519   5.200   1.534
 7056SOL    HW222068   6.574   5.339   1.599
 7057SOL     OW22069   2.726   4.689   3.801
 7057SOL    HW122070   2.748   4.772   3.751
 7057SOL    HW222071   2.660   4.635   3.749
 7058SOL     OW22072   5.802   3.353   5.157
 7058SOL    HW122073   5.794   3.301   5.242
 7058SOL    HW222074   5.735   3.427   5.156
 7059SOL     OW22075   0.478   1.784   3.968
 7059SOL    HW122076   0.512   1.873   3.938
 7059SOL    HW222077   0.378   1.782   3.958
 7060SOL     OW22078   3.372   0.043   1.932
 7060SOL    HW122079   3.339   6.971   1.909
 7060SOL    HW222080   3.365   0.102   1.852
 7061SOL     OW22081   7.003   3.172   3.663
 7061SOL    HW122082   0.040   3.095   3.633
 7061SOL    HW222083   7.012   3.185   3.762
 7062SOL     OW22084   3.402   2.347   5.396
 7062SOL    HW122085   3.499   2.370   5.385
 7062SOL    HW222086   3.351   2.382   5.318
 7063SOL     OW22087   1.725   6.221   2.042
 7063SOL    HW122088   1.754   6.211   2.137
 7063SOL    HW222089   1.750   6.139   1.991
 7064SOL     OW22090   3.807   2.046   6.987
 7064SOL    HW122091   3.803   2.112   6.912
 7064SOL    HW222092   3.881   1.981   6.971
 7065SOL     OW22093   4.544   3.779   6.169
 7065SOL    HW122094   4.471   3.753   6.106
 7065SOL    HW222095   4.544   3.878   6.180
 7066SOL     OW22096   3.935   0.113   6.251
 7066SOL    HW122097   3.910   0.103   6.347
 7066SOL    HW222098   4.010   0.050   6.230
 7067SOL     OW22099   1.321   3.256   5.258
 7067SOL    HW122100   1.408   3.229   5.217
 7067SOL    HW222101   1.336   3.333   5.320
 7068SOL     OW22102   6.424   4.389   4.764
 7068SOL    HW122103   6.485   4.426   4.834
 7068SOL    HW222104   6.365   4.462   4.729
 7069SOL     OW22105   5.169   2.344   4.554
 7069SOL    HW122106   5.248   2.353   4.614
 7069SOL    HW222107   5.195   2.368   4.460
 7070SOL     OW22108   0.309   6.760   4.733
 7070SOL    HW122109   0.256   6.812   4.666
 7070SOL    HW222110   0.264   6.764   4.822
 7071SOL     OW22111   3.775   6.382   5.780
 7071SOL    HW122112   3.736   6.400   5.690
 7071SOL    HW222113   3.711   6.410   5.851
 7072SOL     OW22114   1.635   6.039   6.985
 7072SOL    HW122115   1.725   5.997   7.002
 7072SOL    HW222116   1.609   6.024   6.890
 7073SOL     OW22117   5.699   0.130   3.867
 7073SOL    HW122118   5.646   0.063   3.814
 7073SOL    HW222119   5.636   0.190   3.916
 7074SOL     OW22120   6.296   2.762   1.587
 7074SOL    HW122121   6.219   2.714   1.629
 7074SOL    HW222122   6.365   2.695   1.558
 7075SOL     OW22123   1.614   4.269   5.028
 7075SOL    HW122124   1.615   4.368   5.040
 7075SOL    HW222125   1.703   4.238   4.995
 7076SOL     OW22126   5.387   3.041   0.295
 7076SOL    HW122127   5.358   3.136   0.282
 7076SOL    HW222128   5.486   3.037   0.305
 7077SOL     OW22129   1.967   4.430   3.934
 7077SOL    HW122130   1.981   4.529   3.927
 7077SOL    HW222131   2.051   4.383   3.907
 7078SOL     OW22132   0.048   6.038   2.007
 7078SOL    HW122133   0.101   5.970   2.058
 7078SOL    HW222134   6.988   6.066   2.061
 7079SOL     OW22135   0.854   0.120   4.177
 7079SOL    HW122136   0.893   0.073   4.256
 7079SOL    HW222137   0.888   0.214   4.174
 7080SOL     OW22138   3.486   1.534   4.861
 7080SOL    HW122139   3.473   1.444   4.902
 7080SOL    HW222140   3.399   1.567   4.824
 7081SOL     OW22141   1.875   5.970   0.077
 7081SOL    HW122142   1.893   5.898   0.143
 7081SOL    HW222143   1.893   6.060   0.118
 7082SOL     OW22144   6.499   4.534   0.169
 7082SOL    HW122145   6.542   4.599   0.105
 7082SOL    HW222146   6.429   4.581   0.222
 7083SOL     OW22147   1.573   1.013   1.935
 7083SOL    HW122148   1.658   0.980   1.976
 7083SOL    HW222149   1.508   1.036   2.008
 7084SOL     OW22150   0.794   5.442   5.677
 7084SOL    HW122151   0.849   5.385   5.616
 7084SOL    HW222152   0.829   5.536   5.676
 7085SOL     OW22153   0.409   1.671   2.232
 7085SOL    HW122154   0.411   1.594   2.167
 7085SOL    HW222155   0.393   1.756   2.181
 7086SOL     OW22156   6.091   0.620   5.780
 7086SOL    HW122157   6.151   0.680   5.833
 7086SOL    HW222158   6.136   0.532   5.766
 7087SOL     OW22159   5.889   3.932   3.083
 7087SOL    HW122160   5.912   4.007   3.145
 7087SOL    HW222161   5.885   3.967   2.989
 7088SOL     OW22162   4.913   2.530   4.054
 7088SOL    HW122163   4.881   2.442   4.018
 7088SOL    HW222164   4.898   2.534   4.153
 7089SOL     OW22165   2.348   2.324   4.822
 7089SOL    HW122166   2.258   2.307   4.862
 7089SOL    HW222167   2.395   2.396   4.873
 7090SOL     OW22168   1.797   1.120   0.499
 7090SOL    HW122169   1.737   1.190   0.539
 7090SOL    HW222170   1.780   1.114   0.401
 7091SOL     OW22171   0.092   1.771   0.996
 7091SOL    HW122172   0.085   1.870   1.000
 7091SOL    HW222173   0.001   1.730   0.998
 7092SOL     OW22174   4.262   3.018   5.430
 7092SOL    HW122175   4.211   2.943   5.473
 7092SOL    HW222176   4.356   3.016   5.463
 7093SOL     OW22177   3.459   4.153   2.167
 7093SOL    HW122178   3.395   4.078   2.179
 7093SOL    HW222179   3.418   4.238   2.201
 7094SOL     OW22180   0.204   6.229   5.927
 7094SOL    HW122181   0.227   6.161   5.997
 7094SOL    HW222182   0.281   6.242   5.866
 7095SOL     OW22183   3.073   4.412   6.019
 7095SOL    HW122184   3.130   4.401   6.100
 7095SOL    HW222185   3.126   4.455   5.946
 7096SOL     OW22186   6.722   0.541   2.429
 7096SOL    HW122187   6.777   0.622   2.447
 7096SOL    HW222188   6.773   0.459   2.455
 7097SOL     OW22189   4.788   0.550   1.504
 7097SOL    HW122190   4.729   0.600   1.567
 7097SOL    HW222191   4.732   0.505   1.435
 7098SOL     OW22192   2.359   5.658   5.436
 7098SOL    HW122193   2.315   5.649   5.346
 7098SOL    HW222194   2.337   5.578   5.492
 7099SOL     OW22195   3.588   1.743   5.041
 7099SOL    HW122196   3.676   1.737   5.087
 7099SOL    HW222197   3.560   1.651   5.012
 7100SOL     OW22198   6.739   3.602   0.037
 7100SOL    HW122199   6.748   3.584   0.135
 7100SOL    HW222200   6.648   3.573   0.007
 7101SOL     OW22201   2.648   1.718   5.611
 7101SOL    HW122202   2.672   1.715   5.708
 7101SOL    HW222203   2.553   1.747   5.600
 7102SOL     OW22204   5.455   0.407   1.144
 7102SOL    HW122205   5.467   0.315   1.107
 7102SOL    HW222206   5.516   0.470   1.096
 7103SOL     OW22207   5.872   5.616   1.884
 7103SOL    HW122208   5.913   5.687   1.827
 7103SOL    HW222209   5.811   5.658   1.951
 7104SOL     OW22210   6.636   3.810   2.675
 7104SOL    HW122211   6.732   3.822   2.699
 7104SOL    HW222212   6.578   3.856   2.743
 7105SOL     OW22213   2.783   3.455   5.252
 7105SOL    HW122214   2.860   3.393   5.265
 7105SOL    HW222215   2.698   3.402   5.247
 7106SOL     OW22216   3.555   3.100   2.209
 7106SOL    HW122217   3.548   3.165   2.134
 7106SOL    HW222218   3.648   3.100   2.246
 7107SOL     OW22219   4.638   0.086   0.625
 7107SOL    HW122220   4.617   0.183   0.612
 7107SOL    HW222221   4.634   0.064   0.722
 7108SOL     OW22222   3.122   5.984   2.536
 7108SOL    HW122223   3.090   6.061   2.480
 7108SOL    HW222224   3.200   6.014   2.591
 7109SOL     OW22225   1.994   0.062   5.519
 7109SOL    HW122226   2.092   0.080   5.527
 7109SOL    HW222227   1.981   6.991   5.477
 7110SOL     OW22228   3.048   5.501   4.346
 7110SOL    HW122229   3.094   5.515   4.434
 7110SOL    HW222230   2.951   5.527   4.355
 7111SOL     OW22231   0.740   2.397   5.108
 7111SOL    HW122232   0.700   2.390   5.016
 7111SOL    HW222233   0.826   2.346   5.111
 7112SOL     OW22234   1.529   5.169   4.426
 7112SOL    HW122235   1.609   5.114   4.447
 7112SOL    HW222236   1.467   5.117   4.367
 7113SOL     OW22237   3.286   3.781   4.823
 7113SOL    HW122238   3.380   3.813   4.809
 7113SOL    HW222239   3.222   3.857   4.812
 7114SOL     OW22240   5.005   5.693   0.715
 7114SOL    HW122241   5.099   5.722   0.695
 7114SOL    HW222242   4.967   5.752   0.787
 7115SOL     OW22243   4.222   2.886   0.135
 7115SOL    HW122244   4.273   2.954   0.187
 7115SOL    HW222245   4.233   2.796   0.177
 7116SOL     OW22246   5.425   4.397   2.923
 7116SOL    HW122247   5.495   4.431   2.860
 7116SOL    HW222248   5.470   4.347   2.998
 7117SOL     OW22249   0.644   6.118   5.258
 7117SOL    HW122250   0.591   6.068   5.327
 7117SOL    HW222251   0.594   6.118   5.171
 7118SOL     OW22252   3.544   4.681   6.339
 7118SOL    HW122253   3.550   4.609   6.409
 7118SOL    HW222254   3.633   4.723   6.327
 7119SOL     OW22255   5.609   0.964   4.196
 7119SOL    HW122256   5.707   0.983   4.206
 7119SOL    HW222257   5.569   1.028   4.131
 7120SOL     OW22258   3.425   2.062   1.944
 7120SOL    HW122259   3.412   2.033   1.850
 7120SOL    HW222260   3.509   2.116   1.952
 7121SOL     OW22261   0.920   6.511   3.739
 7121SOL    HW122262   0.878   6.428   3.774
 7121SOL    HW222263   0.851   6.583   3.730
 7122SOL     OW22264   1.141   0.776   5.752
 7122SOL    HW122265   1.208   0.845   5.723
 7122SOL    HW222266   1.106   0.801   5.842
 7123SOL     OW22267   1.415   5.137   3.917
 7123SOL    HW122268   1.353   5.200   3.964
 7123SOL    HW222269   1.364   5.088   3.846
 7124SOL     OW22270   0.150   2.647   1.803
 7124SOL    HW122271   0.216   2.584   1.763
 7124SOL    HW222272   0.199   2.723   1.846
 7125SOL     OW22273   0.784   0.198   0.382
 7125SOL    HW122274   0.719   0.170   0.311
 7125SOL    HW222275   0.771   0.142   0.464
 7126SOL     OW22276   3.317   5.240   0.827
 7126SOL    HW122277   3.350   5.267   0.918
 7126SOL    HW222278   3.393   5.239   0.763
 7127SOL     OW22279   2.539   6.034   0.022
 7127SOL    HW122280   2.571   5.944   0.053
 7127SOL    HW222281   2.460   6.022   6.981
 7128SOL     OW22282   3.191   3.898   6.615
 7128SOL    HW122283   3.134   3.916   6.695
 7128SOL    HW222284   3.134   3.891   6.533
 7129SOL     OW22285   2.315   1.119   0.529
 7129SOL    HW122286   2.392   1.095   0.470
 7129SOL    HW222287   2.230   1.090   0.486
 7130SOL     OW22288   3.307   6.015   4.269
 7130SOL    HW122289   3.359   5.995   4.352
 7130SOL    HW222290   3.319   5.940   4.203
 7131SOL     OW22291   2.648   0.903   1.404
 7131SOL    HW122292   2.688   0.895   1.313
 7131SOL    HW222293   2.722   0.906   1.472
 7132SOL     OW22294   3.964   4.399   0.019
 7132SOL    HW122295   3.997   4.461   6.967
 7132SOL    HW222296   4.039   4.341   0.049
 7133SOL     OW22297   4.265   4.811   5.215
 7133SOL    HW122298   4.247   4.879   5.144
 7133SOL    HW222299   4.200   4.823   5.291
 7134SOL     OW22300   4.423   6.844   1.896
 7134SOL    HW122301   4.423   6.794   1.982
 7134SOL    HW222302   4.444   6.940   1.913
 7135SOL     OW22303   1.978   2.289   3.246
 7135SOL    HW122304   2.057   2.340   3.280
 7135SOL    HW222305   1.894   2.339   3.270
 7136SOL     OW22306   2.965   1.480   0.498
 7136SOL    HW122307   3.039   1.535   0.460
 7136SOL    HW222308   2.992   1.445   0.588
 7137SOL     OW22309   2.778   1.629   0.364
 7137SOL    HW122310   2.845   1.592   0.428
 7137SOL    HW222311   2.785   1.729   0.363
 7138SOL     OW22312   2.011   2.422   0.713
 7138SOL    HW122313   2.007   2.373   0.800
 7138SOL    HW222314   2.102   2.463   0.702
 7139SOL     OW22315   5.240   5.076   1.722
 7139SOL    HW122316   5.289   5.028   1.649
 7139SOL    HW222317   5.304   5.133   1.773
 7140SOL     OW22318   6.100   4.178   1.036
 7140SOL    HW122319   6.114   4.154   0.940
 7140SOL    HW222320   6.188   4.204   1.077
 7141SOL     OW22321   3.270   6.506   0.956
 7141SOL    HW122322   3.212   6.558   1.020
 7141SOL    HW222323   3.321   6.569   0.898
 7142SOL     OW22324   4.175   6.445   3.514
 7142SOL    HW122325   4.238   6.400   3.578
 7142SOL    HW222326   4.154   6.536   3.549
 7143SOL     OW22327   2.035   3.548   0.112
 7143SOL    HW122328   2.122   3.581   0.075
 7143SOL    HW222329   2.024   3.451   0.090
 7144SOL     OW22330   1.788   1.468   3.200
 7144SOL    HW122331   1.703   1.415   3.211
 7144SOL    HW222332   1.864   1.417   3.240
 7145SOL     OW22333   3.696   0.903   6.522
 7145SOL    HW122334   3.619   0.839   6.524
 7145SOL    HW222335   3.667   0.987   6.477
 7146SOL     OW22336   1.444   0.601   6.527
 7146SOL    HW122337   1.377   0.668   6.494
 7146SOL    HW222338   1.492   0.638   6.607
 7147SOL     OW22339   0.200   5.961   3.145
 7147SOL    HW122340   0.263   5.924   3.078
 7147SOL    HW222341   0.248   6.023   3.207
 7148SOL     OW22342   6.754   6.249   1.422
 7148SOL    HW122343   6.841   6.210   1.389
 7148SOL    HW222344   6.769   6.345   1.448
 7149SOL     OW22345   0.414   6.017   3.896
 7149SOL    HW122346   0.453   6.057   3.979
 7149SOL    HW222347   0.484   5.963   3.848
 7150SOL     OW22348   3.432   2.884   0.752
 7150SOL    HW122349   3.531   2.895   0.752
 7150SOL    HW222350   3.409   2.791   0.724
 7151SOL     OW22351   3.237   6.639   1.210
 7151SOL    HW122352   3.139   6.617   1.213
 7151SOL    HW222353   3.251   6.734   1.238
 7152SOL     OW22354   0.002   0.583   5.452
 7152SOL    HW122355   0.023   0.524   5.374
 7152SOL    HW222356   6.922   0.589   5.464
 7153SOL     OW22357   4.072   5.207   1.733
 7153SOL    HW122358   4.105   5.256   1.813
 7153SOL    HW222359   4.105   5.252   1.650
 7154SOL     OW22360   4.918   6.168   2.833
 7154SOL    HW122361   4.910   6.259   2.793
 7154SOL    HW222362   5.014   6.143   2.842
 7155SOL     OW22363   3.180   3.722   1.324
 7155SOL    HW122364   3.229   3.781   1.388
 7155SOL    HW222365   3.245   3.666   1.273
 7156SOL     OW22366   6.401   3.638   2.588
 7156SOL    HW122367   6.320   3.693   2.607
 7156SOL    HW222368   6.483   3.696   2.595
 7157SOL     OW22369   0.175   4.992   1.842
 7157SOL    HW122370   0.206   4.897   1.838
 7157SOL    HW222371   0.076   4.995   1.849
 7158SOL     OW22372   1.164   0.129   3.855
 7158SOL    HW122373   1.087   0.172   3.903
 7158SOL    HW222374   1.198   0.191   3.785
 7159SOL     OW22375   0.910   5.015   3.950
 7159SOL    HW122376   0.892   5.051   3.859
 7159SOL    HW222377   0.897   4.916   3.950
 7160SOL     OW22378   6.467   6.857   3.000
 7160SOL    HW122379   6.430   6.881   3.090
 7160SOL    HW222380   6.470   6.939   2.942
 7161SOL     OW22381   3.130   3.805   2.990
 7161SOL    HW122382   3.190   3.726   2.999
 7161SOL    HW222383   3.167   3.867   2.921
 7162SOL     OW22384   1.354   5.278   6.059
 7162SOL    HW122385   1.331   5.181   6.044
 7162SOL    HW222386   1.349   5.327   5.972
 7163SOL     OW22387   2.728   0.651   2.459
 7163SOL    HW122388   2.784   0.611   2.387
 7163SOL    HW222389   2.631   0.637   2.438
 7164SOL     OW22390   3.336   0.813   4.962
 7164SOL    HW122391   3.280   0.731   4.960
 7164SOL    HW222392   3.291   0.885   4.909
 7165SOL     OW22393   5.688   6.468   1.497
 7165SOL    HW122394   5.764   6.532   1.483
 7165SOL    HW222395   5.633   6.463   1.415
 7166SOL     OW22396   5.278   1.606   0.150
 7166SOL    HW122397   5.202   1.567   0.099
 7166SOL    HW222398   5.323   1.677   0.095
 7167SOL     OW22399   5.049   3.245   4.588
 7167SOL    HW122400   5.079   3.204   4.674
 7167SOL    HW222401   5.004   3.175   4.532
 7168SOL     OW22402   2.326   2.074   3.258
 7168SOL    HW122403   2.339   2.102   3.353
 7168SOL    HW222404   2.282   2.148   3.207
 7169SOL     OW22405   6.680   4.175   5.427
 7169SOL    HW122406   6.716   4.083   5.411
 7169SOL    HW222407   6.590   4.169   5.469
 7170SOL     OW22408   4.752   0.123   2.723
 7170SOL    HW122409   4.818   0.185   2.767
 7170SOL    HW222410   4.704   0.070   2.793
 7171SOL     OW22411   6.037   4.356   0.574
 7171SOL    HW122412   6.043   4.452   0.550
 7171SOL    HW222413   5.951   4.318   0.538
 7172SOL     OW22414   1.738   0.176   4.437
 7172SOL    HW122415   1.787   0.231   4.504
 7172SOL    HW222416   1.651   0.219   4.415
 7173SOL     OW22417   6.237   4.679   0.119
 7173SOL    HW122418   6.231   4.656   0.021
 7173SOL    HW222419   6.267   4.773   0.129
 7174SOL     OW22420   0.479   4.200   0.928
 7174SOL    HW122421   0.476   4.196   1.028
 7174SOL    HW222422   0.565   4.161   0.896
 7175SOL     OW22423   6.022   2.857   5.581
 7175SOL    HW122424   6.116   2.864   5.614
 7175SOL    HW222425   6.017   2.889   5.486
 7176SOL     OW22426   6.819   1.653   3.280
 7176SOL    HW122427   6.728   1.676   3.315
 7176SOL    HW222428   6.828   1.686   3.186
 7177SOL     OW22429   1.315   4.817   5.365
 7177SOL    HW122430   1.311   4.757   5.285
 7177SOL    HW222431   1.243   4.792   5.430
 7178SOL     OW22432   0.031   1.558   5.903
 7178SOL    HW122433   0.008   1.467   5.869
 7178SOL    HW222434   0.100   1.600   5.844
 7179SOL     OW22435   1.606   3.638   4.657
 7179SOL    HW122436   1.545   3.560   4.671
 7179SOL    HW222437   1.701   3.609   4.670
 7180SOL     OW22438   2.202   4.120   0.244
 7180SOL    HW122439   2.300   4.106   0.251
 7180SOL    HW222440   2.166   4.153   0.331
 7181SOL     OW22441   2.552   0.507   0.404
 7181SOL    HW122442   2.550   0.606   0.415
 7181SOL    HW222443   2.476   0.478   0.345
 7182SOL     OW22444   0.355   3.970   3.897
 7182SOL    HW122445   0.439   4.023   3.887
 7182SOL    HW222446   0.316   3.950   3.807
 7183SOL     OW22447   1.714   5.607   1.772
 7183SOL    HW122448   1.720   5.646   1.680
 7183SOL    HW222449   1.627   5.559   1.781
 7184SOL     OW22450   7.018   1.453   4.218
 7184SOL    HW122451   7.015   1.390   4.141
 7184SOL    HW222452   0.056   1.415   4.291
 7185SOL     OW22453   5.473   1.247   5.647
 7185SOL    HW122454   5.569   1.234   5.669
 7185SOL    HW222455   5.416   1.204   5.717
 7186SOL     OW22456   6.617   1.791   1.724
 7186SOL    HW122457   6.670   1.743   1.794
 7186SOL    HW222458   6.532   1.826   1.764
 7187SOL     OW22459   2.915   4.058   5.301
 7187SOL    HW122460   2.922   3.969   5.257
 7187SOL    HW222461   2.819   4.083   5.311
 7188SOL     OW22462   4.637   6.164   6.901
 7188SOL    HW122463   4.570   6.192   6.970
 7188SOL    HW222464   4.644   6.064   6.899
 7189SOL     OW22465   6.802   1.688   5.886
 7189SOL    HW122466   6.798   1.715   5.982
 7189SOL    HW222467   6.886   1.637   5.869
 7190SOL     OW22468   6.419   5.421   1.300
 7190SOL    HW122469   6.413   5.350   1.230
 7190SOL    HW222470   6.454   5.381   1.385
 7191SOL     OW22471   1.498   4.813   2.734
 7191SOL    HW122472   1.574   4.758   2.701
 7191SOL    HW222473   1.433   4.828   2.660
 7192SOL     OW22474   1.609   4.367   5.804
 7192SOL    HW122475   1.700   4.358   5.762
 7192SOL    HW222476   1.604   4.307   5.884
 7193SOL     OW22477   1.446   2.496   1.823
 7193SOL    HW122478   1.438   2.428   1.895
 7193SOL    HW222479   1.517   2.563   1.849
 7194SOL     OW22480   1.890   2.804   0.063
 7194SOL    HW122481   1.968   2.769   0.115
 7194SOL    HW222482   1.809   2.749   0.084
 7195SOL     OW22483   0.011   4.212   0.738
 7195SOL    HW122484   0.027   4.234   0.642
 7195SOL    HW222485   6.935   4.232   0.762
 7196SOL     OW22486   2.526   3.615   1.695
 7196SOL    HW122487   2.448   3.659   1.651
 7196SOL    HW222488   2.496   3.531   1.741
 7197SOL     OW22489   0.811   2.998   5.581
 7197SOL    HW122490   0.711   3.005   5.576
 7197SOL    HW222491   0.836   2.921   5.639
 7198SOL     OW22492   0.142   1.395   0.424
 7198SOL    HW122493   0.132   1.438   0.334
 7198SOL    HW222494   0.223   1.337   0.425
 7199SOL     OW22495   0.754   0.185   2.453
 7199SOL    HW122496   0.686   0.180   2.526
 7199SOL    HW222497   0.723   0.130   2.375
 7200SOL     OW22498   2.031   2.765   6.641
 7200SOL    HW122499   2.130   2.752   6.651
 7200SOL    HW222500   2.011   2.795   6.548
 7201SOL     OW22501   1.109   5.872   3.721
 7201SOL    HW122502   1.137   5.878   3.817
 7201SOL    HW222503   1.039   5.942   3.703
 7202SOL     OW22504   4.275   0.120   6.854
 7202SOL    HW122505   4.355   0.061   6.866
 7202SOL    HW222506   4.289   0.205   6.904
 7203SOL     OW22507   6.744   0.994   1.311
 7203SOL    HW122508   6.737   0.900   1.346
 7203SOL    HW222509   6.811   0.997   1.237
 7204SOL     OW22510   0.010   0.999   5.494
 7204SOL    HW122511   6.957   1.068   5.501
 7204SOL    HW222512   7.013   0.942   5.413
 7205SOL     OW22513   1.245   4.028   5.221
 7205SOL    HW122514   1.299   4.008   5.139
 7205SOL    HW222515   1.306   4.035   5.300
 7206SOL     OW22516   1.162   0.359   2.197
 7206SOL    HW122517   1.104   0.418   2.142
 7206SOL    HW222518   1.217   0.415   2.259
 7207SOL     OW22519   3.649   0.148   3.999
 7207SOL    HW122520   3.631   0.052   3.978
 7207SOL    HW222521   3.747   0.161   4.017
 7208SOL     OW22522   4.837   0.123   3.792
 7208SOL    HW122523   4.873   0.197   3.850
 7208SOL    HW222524   4.795   0.053   3.850
 7209SOL     OW22525   2.450   2.973   1.670
 7209SOL    HW122526   2.494   3.051   1.626
 7209SOL    HW222527   2.459   2.892   1.612
 7210SOL     OW22528   3.670   1.553   2.911
 7210SOL    HW122529   3.655   1.457   2.933
 7210SOL    HW222530   3.718   1.560   2.823
 7211SOL     OW22531   1.986   6.058   4.974
 7211SOL    HW122532   1.968   6.027   4.881
 7211SOL    HW222533   2.077   6.100   4.978
 7212SOL     OW22534   0.601   6.550   4.958
 7212SOL    HW122535   0.670   6.480   4.975
 7212SOL    HW222536   0.516   6.526   5.004
 7213SOL     OW22537   3.799   6.593   6.813
 7213SOL    HW122538   3.836   6.501   6.814
 7213SOL    HW222539   3.863   6.655   6.858
 7214SOL     OW22540   0.099   0.225   4.637
 7214SOL    HW122541   0.023   0.246   4.575
 7214SOL    HW222542   0.066   0.229   4.731
 7215SOL     OW22543   6.554   2.960   3.979
 7215SOL    HW122544   6.642   3.004   3.999
 7215SOL    HW222545   6.517   2.919   4.063
 7216SOL     OW22546   3.262   0.329   1.200
 7216SOL    HW122547   3.190   0.260   1.193
 7216SOL    HW222548   3.226   0.418   1.174
 7217SOL     OW22549   2.139   3.925   3.691
 7217SOL    HW122550   2.166   3.886   3.603
 7217SOL    HW222551   2.057   3.981   3.679
 7218SOL     OW22552   6.107   2.695   3.831
 7218SOL    HW122553   6.189   2.640   3.846
 7218SOL    HW222554   6.131   2.792   3.832
 7219SOL     OW22555   3.653   0.431   3.087
 7219SOL    HW122556   3.703   0.371   3.149
 7219SOL    HW222557   3.571   0.466   3.133
 7220SOL     OW22558   6.795   3.682   4.494
 7220SOL    HW122559   6.778   3.680   4.395
 7220SOL    HW222560   6.707   3.679   4.543
 7221SOL     OW22561   3.648   5.936   5.241
 7221SOL    HW122562   3.589   5.881   5.182
 7221SOL    HW222563   3.645   5.900   5.334
 7222SOL     OW22564   6.320   6.450   3.510
 7222SOL    HW122565   6.242   6.503   3.545
 7222SOL    HW222566   6.300   6.420   3.417
 7223SOL     OW22567   3.308   1.814   1.369
 7223SOL    HW122568   3.282   1.806   1.273
 7223SOL    HW222569   3.402   1.848   1.376
 7224SOL     OW22570   5.212   2.032   3.929
 7224SOL    HW122571   5.192   2.111   3.985
 7224SOL    HW222572   5.138   2.018   3.863
 7225SOL     OW22573   1.528   6.188   0.485
 7225SOL    HW122574   1.434   6.153   0.491
 7225SOL    HW222575   1.560   6.180   0.391
 7226SOL     OW22576   6.324   0.165   2.063
 7226SOL    HW122577   6.350   0.187   1.969
 7226SOL    HW222578   6.325   0.249   2.118
 7227SOL     OW22579   2.589   1.929   1.366
 7227SOL    HW122580   2.572   1.874   1.448
 7227SOL    HW222581   2.607   1.868   1.289
 7228SOL     OW22582   1.195   1.867   2.799
 7228SOL    HW122583   1.295   1.865   2.812
 7228SOL    HW222584   1.164   1.777   2.768
 7229SOL     OW22585   1.315   5.866   5.896
 7229SOL    HW122586   1.261   5.945   5.923
 7229SOL    HW222587   1.410   5.878   5.927
 7230SOL     OW22588   3.632   5.596   4.777
 7230SOL    HW122589   3.616   5.524   4.844
 7230SOL    HW222590   3.698   5.565   4.709
 7231SOL     OW22591   3.822   0.301   6.066
 7231SOL    HW122592   3.827   0.255   5.977
 7231SOL    HW222593   3.873   0.249   6.134
 7232SOL     OW22594   5.004   6.113   2.115
 7232SOL    HW122595   5.028   6.200   2.158
 7232SOL    HW222596   4.967   6.051   2.184
 7233SOL     OW22597   1.668   1.682   4.143
 7233SOL    HW122598   1.579   1.636   4.146
 7233SOL    HW222599   1.686   1.714   4.050
 7234SOL     OW22600   5.851   2.731   2.871
 7234SOL    HW122601   5.787   2.670   2.917
 7234SOL    HW222602   5.799   2.802   2.823
 7235SOL     OW22603   6.884   4.917   2.560
 7235SOL    HW122604   6.954   4.892   2.626
 7235SOL    HW222605   6.922   4.981   2.493
 7236SOL     OW22606   2.765   1.822   1.960
 7236SOL    HW122607   2.776   1.848   2.056
 7236SOL    HW222608   2.848   1.846   1.910
 7237SOL     OW22609   4.208   0.362   4.533
 7237SOL    HW122610   4.174   0.390   4.623
 7237SOL    HW222611   4.308   0.359   4.534
 7238SOL     OW22612   4.244   1.940   6.484
 7238SOL    HW122613   4.253   1.936   6.384
 7238SOL    HW222614   4.175   1.875   6.514
 7239SOL     OW22615   0.565   1.961   1.614
 7239SOL    HW122616   0.609   2.045   1.583
 7239SOL    HW222617   0.626   1.884   1.596
 7240SOL     OW22618   0.931   1.358   5.947
 7240SOL    HW122619   0.973   1.342   6.036
 7240SOL    HW222620   0.968   1.442   5.907
 7241SOL     OW22621   2.517   0.354   1.025
 7241SOL    HW122622   2.437   0.412   1.041
 7241SOL    HW222623   2.588   0.407   0.978
 7242SOL     OW22624   6.456   5.648   6.761
 7242SOL    HW122625   6.373   5.702   6.770
 7242SOL    HW222626   6.455   5.599   6.674
 7243SOL     OW22627   6.722   4.295   6.802
 7243SOL    HW122628   6.636   4.339   6.774
 7243SOL    HW222629   6.706   4.197   6.815
 7244SOL     OW22630   6.592   0.898   1.740
 7244SOL    HW122631   6.516   0.872   1.680
 7244SOL    HW222632   6.575   0.862   1.832
 7245SOL     OW22633   1.852   3.005   5.225
 7245SOL    HW122634   1.860   3.083   5.163
 7245SOL    HW222635   1.761   2.965   5.216
 7246SOL     OW22636   0.887   0.538   3.754
 7246SOL    HW122637   0.886   0.636   3.773
 7246SOL    HW222638   0.867   0.487   3.839
 7247SOL     OW22639   2.212   1.953   4.622
 7247SOL    HW122640   2.154   1.911   4.552
 7247SOL    HW222641   2.241   2.043   4.590
 7248SOL     OW22642   2.868   1.330   2.925
 7248SOL    HW122643   2.771   1.309   2.942
 7248SOL    HW222644   2.886   1.323   2.827
 7249SOL     OW22645   5.757   4.879   2.198
 7249SOL    HW122646   5.754   4.974   2.168
 7249SOL    HW222647   5.823   4.829   2.142
 7250SOL     OW22648   5.800   6.378   5.854
 7250SOL    HW122649   5.893   6.406   5.878
 7250SOL    HW222650   5.746   6.459   5.830
 7251SOL     OW22651   0.631   6.406   5.268
 7251SOL    HW122652   0.713   6.440   5.222
 7251SOL    HW222653   0.627   6.306   5.259
 7252SOL     OW22654   3.861   3.061   2.229
 7252SOL    HW122655   3.863   3.021   2.321
 7252SOL    HW222656   3.948   3.107   2.211
 7253SOL     OW22657   1.592   6.159   0.211
 7253SOL    HW122658   1.552   6.251   0.210
 7253SOL    HW222659   1.600   6.125   0.117
 7254SOL     OW22660   4.808   5.040   4.795
 7254SOL    HW122661   4.738   4.984   4.753
 7254SOL    HW222662   4.872   4.982   4.846
 7255SOL     OW22663   3.765   3.489   0.280
 7255SOL    HW122664   3.710   3.418   0.323
 7255SOL    HW222665   3.750   3.576   0.327
 7256SOL     OW22666   3.048   5.859   4.558
 7256SOL    HW122667   3.018   5.826   4.468
 7256SOL    HW222668   3.088   5.950   4.549
 7257SOL     OW22669   6.456   1.669   3.652
 7257SOL    HW122670   6.393   1.664   3.575
 7257SOL    HW222671   6.446   1.758   3.698
 7258SOL     OW22672   4.990   1.301   2.721
 7258SOL    HW122673   5.037   1.375   2.672
 7258SOL    HW222674   5.031   1.290   2.812
 7259SOL     OW22675   2.323   3.639   1.158
 7259SOL    HW122676   2.298   3.735   1.173
 7259SOL    HW222677   2.346   3.625   1.061
 7260SOL     OW22678   4.655   1.515   1.365
 7260SOL    HW122679   4.642   1.612   1.382
 7260SOL    HW222680   4.739   1.484   1.410
 7261SOL     OW22681   1.510   3.780   1.909
 7261SOL    HW122682   1.592   3.785   1.852
 7261SOL    HW222683   1.504   3.861   1.966
 7262SOL     OW22684   5.614   2.593   6.327
 7262SOL    HW122685   5.531   2.638   6.295
 7262SOL    HW222686   5.675   2.577   6.250
 7263SOL     OW22687   0.899   6.668   6.871
 7263SOL    HW122688   0.879   6.590   6.813
 7263SOL    HW222689   0.939   6.637   6.957
 7264SOL     OW22690   5.017   2.069   6.610
 7264SOL    HW122691   5.016   2.086   6.708
 7264SOL    HW222692   5.011   2.156   6.561
 7265SOL     OW22693   5.898   4.989   5.702
 7265SOL    HW122694   5.915   4.906   5.754
 7265SOL    HW222695   5.838   4.969   5.625
 7266SOL     OW22696   5.627   6.901   2.701
 7266SOL    HW122697   5.631   6.991   2.658
 7266SOL    HW222698   5.537   6.861   2.688
 7267SOL     OW22699   6.477   6.506   5.313
 7267SOL    HW122700   6.550   6.439   5.326
 7267SOL    HW222701   6.400   6.484   5.374
 7268SOL     OW22702   6.198   5.151   3.737
 7268SOL    HW122703   6.176   5.174   3.832
 7268SOL    HW222704   6.297   5.155   3.724
 7269SOL     OW22705   0.249   5.772   6.515
 7269SOL    HW122706   0.347   5.773   6.496
 7269SOL    HW222707   0.204   5.705   6.456
 7270SOL     OW22708   0.878   3.449   5.224
 7270SOL    HW122709   0.918   3.490   5.306
 7270SOL    HW222710   0.783   3.478   5.214
 7271SOL     OW22711   0.350   5.703   3.870
 7271SOL    HW122712   0.326   5.771   3.940
 7271SOL    HW222713   0.433   5.732   3.823
 7272SOL     OW22714   5.967   5.312   2.127
 7272SOL    HW122715   5.941   5.243   2.194
 7272SOL    HW222716   6.066   5.310   2.114
 7273SOL     OW22717   5.810   4.561   1.383
 7273SOL    HW122718   5.751   4.607   1.316
 7273SOL    HW222719   5.810   4.613   1.469
 7274SOL     OW22720   0.039   5.605   5.924
 7274SOL    HW122721   0.033   5.704   5.942
 7274SOL    HW222722   7.012   5.556   5.998
 7275SOL     OW22723   0.140   6.394   2.545
 7275SOL    HW122724   0.101   6.302   2.544
 7275SOL    HW222725   0.109   6.442   2.628
 7276SOL     OW22726   4.700   1.147   3.050
 7276SOL    HW122727   4.771   1.202   3.095
 7276SOL    HW222728   4.611   1.188   3.065
 7277SOL     OW22729   4.580   0.830   4.213
 7277SOL    HW122730   4.499   0.885   4.199
 7277SOL    HW222731   4.647   0.850   4.142
 7278SOL     OW22732   3.636   2.458   1.432
 7278SOL    HW122733   3.585   2.427   1.512
 7278SOL    HW222734   3.573   2.500   1.367
 7279SOL     OW22735   4.596   4.339   5.946
 7279SOL    HW122736   4.606   4.406   5.872
 7279SOL    HW222737   4.671   4.272   5.940
 7280SOL     OW22738   0.419   2.016   3.551
 7280SOL    HW122739   0.435   1.918   3.564
 7280SOL    HW222740   0.491   2.054   3.494
 7281SOL     OW22741   1.903   1.314   0.709
 7281SOL    HW122742   1.985   1.257   0.712
 7281SOL    HW222743   1.831   1.272   0.763
 7282SOL     OW22744   5.624   5.398   2.142
 7282SOL    HW122745   5.563   5.471   2.112
 7282SOL    HW222746   5.690   5.435   2.208
 7283SOL     OW22747   4.987   0.311   2.832
 7283SOL    HW122748   4.950   0.331   2.923
 7283SOL    HW222749   5.082   0.281   2.840
 7284SOL     OW22750   0.340   2.561   5.750
 7284SOL    HW122751   0.400   2.487   5.778
 7284SOL    HW222752   0.255   2.523   5.713
 7285SOL     OW22753   5.605   3.117   2.401
 7285SOL    HW122754   5.593   3.213   2.376
 7285SOL    HW222755   5.640   3.111   2.495
 7286SOL     OW22756   2.213   0.862   0.775
 7286SOL    HW122757   2.184   0.814   0.858
 7286SOL    HW222758   2.296   0.914   0.794
 7287SOL     OW22759   0.801   2.273   6.050
 7287SOL    HW122760   0.764   2.215   5.978
 7287SOL    HW222761   0.884   2.319   6.017
 7288SOL     OW22762   1.950   1.027   1.925
 7288SOL    HW122763   2.005   1.069   1.998
 7288SOL    HW222764   1.884   0.964   1.966
 7289SOL     OW22765   5.603   1.949   3.957
 7289SOL    HW122766   5.533   1.970   3.889
 7289SOL    HW222767   5.599   1.851   3.980
 7290SOL     OW22768   3.827   1.429   5.211
 7290SOL    HW122769   3.854   1.524   5.221
 7290SOL    HW222770   3.870   1.390   5.130
 7291SOL     OW22771   1.286   6.547   0.362
 7291SOL    HW122772   1.214   6.616   0.357
 7291SOL    HW222773   1.269   6.476   0.294
 7292SOL     OW22774   3.335   0.904   3.354
 7292SOL    HW122775   3.242   0.905   3.393
 7292SOL    HW222776   3.401   0.916   3.427
 7293SOL     OW22777   1.344   2.418   4.689
 7293SOL    HW122778   1.332   2.363   4.607
 7293SOL    HW222779   1.340   2.360   4.770
 7294SOL     OW22780   2.717   4.808   6.556
 7294SOL    HW122781   2.705   4.907   6.566
 7294SOL    HW222782   2.636   4.761   6.590
 7295SOL     OW22783   5.471   3.280   1.287
 7295SOL    HW122784   5.565   3.267   1.257
 7295SOL    HW222785   5.441   3.373   1.265
 7296SOL     OW22786   3.325   6.128   2.279
 7296SOL    HW122787   3.391   6.112   2.352
 7296SOL    HW222788   3.372   6.131   2.191
 7297SOL     OW22789   4.407   0.398   1.486
 7297SOL    HW122790   4.439   0.484   1.526
 7297SOL    HW222791   4.307   0.400   1.481
 7298SOL     OW22792   5.003   5.569   6.206
 7298SOL    HW122793   5.094   5.610   6.211
 7298SOL    HW222794   4.994   5.520   6.119
 7299SOL     OW22795   0.711   2.685   1.103
 7299SOL    HW122796   0.776   2.640   1.042
 7299SOL    HW222797   0.682   2.622   1.174
 7300SOL     OW22798   0.471   6.798   2.348
 7300SOL    HW122799   0.383   6.845   2.347
 7300SOL    HW222800   0.509   6.802   2.441
 7301SOL     OW22801   6.007   1.444   4.349
 7301SOL    HW122802   5.984   1.477   4.441
 7301SOL    HW222803   6.101   1.470   4.327
 7302SOL     OW22804   1.096   2.206   5.525
 7302SOL    HW122805   1.088   2.118   5.479
 7302SOL    HW222806   1.120   2.276   5.459
 7303SOL     OW22807   3.917   1.107   6.977
 7303SOL    HW122808   3.921   1.193   6.925
 7303SOL    HW222809   3.925   1.030   6.915
 7304SOL     OW22810   2.983   5.860   1.952
 7304SOL    HW122811   3.038   5.788   1.911
 7304SOL    HW222812   2.903   5.820   1.997
 7305SOL     OW22813   5.170   0.635   0.297
 7305SOL    HW122814   5.197   0.543   0.325
 7305SOL    HW222815   5.186   0.699   0.372
 7306SOL     OW22816   4.740   1.953   0.947
 7306SOL    HW122817   4.820   1.915   0.901
 7306SOL    HW222818   4.657   1.926   0.897
 7307SOL     OW22819   2.722   6.543   2.667
 7307SOL    HW122820   2.638   6.528   2.615
 7307SOL    HW222821   2.703   6.603   2.745
 7308SOL     OW22822   6.740   2.794   5.164
 7308SOL    HW122823   6.669   2.851   5.121
 7308SOL    HW222824   6.800   2.852   5.219
 7309SOL     OW22825   3.944   4.826   0.602
 7309SOL    HW122826   4.008   4.755   0.573
 7309SOL    HW222827   3.919   4.883   0.524
 7310SOL     OW22828   2.479   3.982   0.451
 7310SOL    HW122829   2.487   4.025   0.361
 7310SOL    HW222830   2.396   4.014   0.496
 7311SOL     OW22831   1.776   2.128   1.371
 7311SOL    HW122832   1.775   2.174   1.460
 7311SOL    HW222833   1.836   2.048   1.376
 7312SOL     OW22834   1.217   3.513   5.157
 7312SOL    HW122835   1.167   3.443   5.107
 7312SOL    HW222836   1.224   3.487   5.254
 7313SOL     OW22837   1.763   0.874   0.696
 7313SOL    HW122838   1.795   0.951   0.641
 7313SOL    HW222839   1.706   0.908   0.771
 7314SOL     OW22840   6.892   5.407   6.092
 7314SOL    HW122841   6.833   5.468   6.145
 7314SOL    HW222842   6.965   5.371   6.150
 7315SOL     OW22843   6.424   6.175   2.316
 7315SOL    HW122844   6.494   6.189   2.245
 7315SOL    HW222845   6.383   6.263   2.340
 7316SOL     OW22846   3.878   3.668   6.393
 7316SOL    HW122847   3.845   3.658   6.487
 7316SOL    HW222848   3.968   3.710   6.394
 7317SOL     OW22849   4.735   1.566   2.141
 7317SOL    HW122850   4.827   1.604   2.127
 7317SOL    HW222851   4.711   1.509   2.063
 7318SOL     OW22852   3.185   0.442   2.010
 7318SOL    HW122853   3.129   0.521   1.985
 7318SOL    HW222854   3.261   0.471   2.068
 7319SOL     OW22855   6.809   3.536   6.814
 7319SOL    HW122856   6.784   3.566   6.906
 7319SOL    HW222857   6.741   3.470   6.781
 7320SOL     OW22858   0.758   3.901   2.388
 7320SOL    HW122859   0.693   3.877   2.316
 7320SOL    HW222860   0.715   3.888   2.477
 7321SOL     OW22861   1.726   0.193   6.039
 7321SOL    HW122862   1.705   0.287   6.066
 7321SOL    HW222863   1.641   0.143   6.023
 7322SOL     OW22864   0.080   2.828   3.037
 7322SOL    HW122865   0.154   2.849   2.974
 7322SOL    HW222866   0.001   2.887   3.017
 7323SOL     OW22867   2.065   2.759   1.518
 7323SOL    HW122868   2.099   2.844   1.476
 7323SOL    HW222869   2.104   2.749   1.609
 7324SOL     OW22870   5.395   5.741   1.784
 7324SOL    HW122871   5.321   5.808   1.780
 7324SOL    HW222872   5.391   5.693   1.872
 7325SOL     OW22873   2.820   0.768   6.599
 7325SOL    HW122874   2.783   0.781   6.691
 7325SOL    HW222875   2.746   0.743   6.537
 7326SOL     OW22876   2.638   6.254   6.262
 7326SOL    HW122877   2.586   6.266   6.177
 7326SOL    HW222878   2.696   6.173   6.254
 7327SOL     OW22879   6.208   1.836   5.963
 7327SOL    HW122880   6.167   1.887   6.038
 7327SOL    HW222881   6.293   1.793   5.994
 7328SOL     OW22882   3.485   0.451   5.948
 7328SOL    HW122883   3.540   0.519   5.899
 7328SOL    HW222884   3.537   0.417   6.027
 7329SOL     OW22885   0.335   3.891   0.998
 7329SOL    HW122886   0.297   3.801   0.980
 7329SOL    HW222887   0.269   3.961   0.970
 7330SOL     OW22888   1.806   2.597   6.807
 7330SOL    HW122889   1.871   2.665   6.773
 7330SOL    HW222890   1.841   2.556   6.891
 7331SOL     OW22891   5.273   5.983   1.460
 7331SOL    HW122892   5.208   6.019   1.527
 7331SOL    HW222893   5.357   6.037   1.464
 7332SOL     OW22894   3.401   6.182   6.926
 7332SOL    HW122895   3.429   6.277   6.941
 7332SOL    HW222896   3.406   6.132   7.012
 7333SOL     OW22897   6.783   3.501   2.339
 7333SOL    HW122898   6.836   3.446   2.404
 7333SOL    HW222899   6.686   3.490   2.357
 7334SOL     OW22900   2.418   5.928   6.602
 7334SOL    HW122901   2.408   5.979   6.516
 7334SOL    HW222902   2.358   5.847   6.600
 7335SOL     OW22903   1.341   2.867   3.558
 7335SOL    HW122904   1.339   2.920   3.473
 7335SOL    HW222905   1.413   2.797   3.551
 7336SOL     OW22906   1.485   6.626   2.394
 7336SOL    HW122907   1.570   6.588   2.357
 7336SOL    HW222908   1.486   6.725   2.386
 7337SOL     OW22909   1.035   3.445   1.080
 7337SOL    HW122910   0.966   3.424   1.149
 7337SOL    HW222911   1.110   3.497   1.123
 7338SOL     OW22912   5.007   1.618   2.163
 7338SOL    HW122913   5.058   1.543   2.204
 7338SOL    HW222914   5.022   1.619   2.064
 7339SOL     OW22915   6.284   0.330   4.408
 7339SOL    HW122916   6.322   0.309   4.498
 7339SOL    HW222917   6.202   0.385   4.418
 7340SOL     OW22918   3.134   1.076   0.402
 7340SOL    HW122919   3.191   1.008   0.448
 7340SOL    HW222920   3.052   1.093   0.457
 7341SOL     OW22921   0.563   4.171   5.722
 7341SOL    HW122922   0.529   4.183   5.629
 7341SOL    HW222923   0.638   4.104   5.722
 7342SOL     OW22924   6.965   1.366   6.760
 7342SOL    HW122925   6.920   1.290   6.713
 7342SOL    HW222926   6.991   1.338   6.852
 7343SOL     OW22927   6.102   4.083   1.557
 7343SOL    HW122928   6.008   4.118   1.559
 7343SOL    HW222929   6.126   4.058   1.463
 7344SOL     OW22930   0.876   1.102   5.879
 7344SOL    HW122931   0.802   1.118   5.815
 7344SOL    HW222932   0.900   1.187   5.925
 7345SOL     OW22933   4.736   5.007   5.202
 7345SOL    HW122934   4.791   4.985   5.283
 7345SOL    HW222935   4.641   5.022   5.229
 7346SOL     OW22936   4.408   5.112   1.894
 7346SOL    HW122937   4.414   5.209   1.869
 7346SOL    HW222938   4.336   5.068   1.841
 7347SOL     OW22939   6.892   2.572   0.525
 7347SOL    HW122940   6.909   2.497   0.588
 7347SOL    HW222941   6.977   2.596   0.477
 7348SOL     OW22942   1.738   4.109   4.700
 7348SOL    HW122943   1.797   4.155   4.766
 7348SOL    HW222944   1.783   4.109   4.610
 7349SOL     OW22945   5.043   1.431   1.164
 7349SOL    HW122946   5.023   1.429   1.066
 7349SOL    HW222947   5.013   1.346   1.206
 7350SOL     OW22948   1.902   2.914   5.611
 7350SOL    HW122949   1.951   3.001   5.618
 7350SOL    HW222950   1.893   2.873   5.702
 7351SOL     OW22951   5.384   6.574   5.183
 7351SOL    HW122952   5.344   6.643   5.123
 7351SOL    HW222953   5.408   6.493   5.129
 7352SOL     OW22954   2.391   1.576   3.312
 7352SOL    HW122955   2.481   1.542   3.338
 7352SOL    HW222956   2.389   1.676   3.319
 7353SOL     OW22957   1.105   0.556   6.865
 7353SOL    HW122958   1.045   0.583   6.790
 7353SOL    HW222959   1.193   0.602   6.856
 7354SOL     OW22960   0.634   1.927   5.444
 7354SOL    HW122961   0.687   1.951   5.363
 7354SOL    HW222962   0.566   1.857   5.421
 7355SOL     OW22963   1.703   0.578   0.697
 7355SOL    HW122964   1.718   0.520   0.777
 7355SOL    HW222965   1.742   0.669   0.714
 7356SOL     OW22966   4.119   4.155   6.002
 7356SOL    HW122967   4.150   4.060   6.001
 7356SOL    HW222968   4.019   4.157   5.998
 7357SOL     OW22969   3.848   6.667   1.511
 7357SOL    HW122970   3.945   6.643   1.506
 7357SOL    HW222971   3.810   6.671   1.419
 7358SOL     OW22972   6.228   3.560   3.146
 7358SOL    HW122973   6.175   3.633   3.103
 7358SOL    HW222974   6.238   3.484   3.081
 7359SOL     OW22975   3.215   1.662   6.379
 7359SOL    HW122976   3.126   1.643   6.339
 7359SOL    HW222977   3.229   1.761   6.385
 7360SOL     OW22978   2.970   3.658   5.665
 7360SOL    HW122979   3.035   3.732   5.649
 7360SOL    HW222980   2.879   3.687   5.634
 7361SOL     OW22981   4.361   0.009   2.245
 7361SOL    HW122982   4.392   6.935   2.226
 7361SOL    HW222983   4.440   0.070   2.252
 7362SOL     OW22984   1.626   4.596   5.027
 7362SOL    HW122985   1.631   4.594   4.928
 7362SOL    HW222986   1.713   4.567   5.066
 7363SOL     OW22987   4.566   1.976   1.628
 7363SOL    HW122988   4.478   1.929   1.634
 7363SOL    HW222989   4.587   2.017   1.717
 7364SOL     OW22990   4.560   0.830   1.264
 7364SOL    HW122991   4.488   0.807   1.198
 7364SOL    HW222992   4.519   0.866   1.347
 7365SOL     OW22993   0.966   5.552   1.597
 7365SOL    HW122994   0.943   5.508   1.510
 7365SOL    HW222995   0.998   5.483   1.662
 7366SOL     OW22996   2.713   6.210   6.846
 7366SOL    HW122997   2.810   6.191   6.864
 7366SOL    HW222998   2.660   6.191   6.928
 7367SOL     OW22999   4.712   2.564   1.110
 7367SOL    HW123000   4.763   2.489   1.152
 7367SOL    HW223001   4.626   2.577   1.159
 7368SOL     OW23002   3.755   2.958   2.738
 7368SOL    HW123003   3.671   2.904   2.745
 7368SOL    HW223004   3.807   2.949   2.823
 7369SOL     OW23005   3.563   2.638   0.206
 7369SOL    HW123006   3.470   2.675   0.204
 7369SOL    HW223007   3.609   2.659   0.120
 7370SOL     OW23008   2.457   0.673   4.270
 7370SOL    HW123009   2.424   0.662   4.364
 7370SOL    HW223010   2.473   0.769   4.251
 7371SOL     OW23011   2.361   6.980   3.634
 7371SOL    HW123012   2.305   7.001   3.553
 7371SOL    HW223013   2.326   6.898   3.678
 7372SOL     OW23014   4.180   0.930   4.530
 7372SOL    HW123015   4.098   0.975   4.566
 7372SOL    HW223016   4.256   0.941   4.595
 7373SOL     OW23017   5.991   1.373   3.783
 7373SOL    HW123018   6.041   1.367   3.869
 7373SOL    HW223019   5.996   1.466   3.747
 7374SOL     OW23020   2.140   1.934   5.164
 7374SOL    HW123021   2.153   1.845   5.208
 7374SOL    HW223022   2.124   2.004   5.234
 7375SOL     OW23023   2.162   2.164   2.787
 7375SOL    HW123024   2.091   2.209   2.840
 7375SOL    HW223025   2.231   2.231   2.758
 7376SOL     OW23026   2.513   1.812   0.461
 7376SOL    HW123027   2.496   1.827   0.558
 7376SOL    HW223028   2.610   1.791   0.447
 7377SOL     OW23029   5.318   4.244   0.521
 7377SOL    HW123030   5.329   4.343   0.524
 7377SOL    HW223031   5.312   4.208   0.614
 7378SOL     OW23032   0.588   0.874   6.108
 7378SOL    HW123033   0.650   0.914   6.041
 7378SOL    HW223034   0.639   0.844   6.188
 7379SOL     OW23035   2.821   1.483   3.154
 7379SOL    HW123036   2.754   1.544   3.112
 7379SOL    HW223037   2.854   1.418   3.086
 7380SOL     OW23038   6.859   4.588   4.601
 7380SOL    HW123039   6.877   4.502   4.649
 7380SOL    HW223040   6.853   4.570   4.503
 7381SOL     OW23041   3.973   3.519   1.099
 7381SOL    HW123042   4.005   3.425   1.097
 7381SOL    HW223043   3.961   3.552   1.005
 7382SOL     OW23044   0.619   6.546   5.582
 7382SOL    HW123045   0.641   6.497   5.498
 7382SOL    HW223046   0.548   6.614   5.563
 7383SOL     OW23047   1.631   0.394   0.914
 7383SOL    HW123048   1.532   0.400   0.928
 7383SOL    HW223049   1.651   0.323   0.847
 7384SOL     OW23050   6.521   6.552   2.654
 7384SOL    HW123051   6.563   6.485   2.715
 7384SOL    HW223052   6.560   6.543   2.563
 7385SOL     OW23053   3.753   5.941   1.921
 7385SOL    HW123054   3.810   5.989   1.987
 7385SOL    HW223055   3.782   5.965   1.828
 7386SOL     OW23056   0.093   2.096   6.576
 7386SOL    HW123057   0.081   2.149   6.660
 7386SOL    HW223058   0.023   2.124   6.510
 7387SOL     OW23059   5.912   6.491   4.824
 7387SOL    HW123060   5.937   6.401   4.859
 7387SOL    HW223061   5.895   6.486   4.726
 7388SOL     OW23062   1.045   5.568   2.284
 7388SOL    HW123063   1.022   5.603   2.374
 7388SOL    HW223064   1.104   5.488   2.293
 7389SOL     OW23065   6.146   3.694   6.697
 7389SOL    HW123066   6.224   3.673   6.756
 7389SOL    HW223067   6.067   3.639   6.725
 7390SOL     OW23068   1.007   1.994   0.930
 7390SOL    HW123069   0.986   2.087   0.959
 7390SOL    HW223070   0.951   1.929   0.981
 7391SOL     OW23071   4.060   3.716   3.843
 7391SOL    HW123072   4.043   3.712   3.745
 7391SOL    HW223073   4.158   3.703   3.861
 7392SOL     OW23074   2.872   6.684   6.514
 7392SOL    HW123075   2.774   6.701   6.503
 7392SOL    HW223076   2.917   6.692   6.425
 7393SOL     OW23077   5.864   4.317   2.914
 7393SOL    HW123078   5.950   4.368   2.905
 7393SOL    HW223079   5.879   4.223   2.883
 7394SOL     OW23080   2.295   2.374   5.866
 7394SOL    HW123081   2.229   2.428   5.813
 7394SOL    HW223082   2.370   2.433   5.895
 7395SOL     OW23083   1.179   3.274   1.372
 7395SOL    HW123084   1.091   3.244   1.336
 7395SOL    HW223085   1.207   3.358   1.326
 7396SOL     OW23086   1.748   6.743   1.204
 7396SOL    HW123087   1.763   6.673   1.135
 7396SOL    HW223088   1.752   6.833   1.162
 7397SOL     OW23089   4.087   5.185   5.066
 7397SOL    HW123090   4.015   5.192   5.135
 7397SOL    HW223091   4.053   5.220   4.979
 7398SOL     OW23092   2.395   4.748   4.611
 7398SOL    HW123093   2.383   4.812   4.687
 7398SOL    HW223094   2.417   4.799   4.528
 7399SOL     OW23095   0.818   2.934   4.806
 7399SOL    HW123096   0.862   2.845   4.791
 7399SOL    HW223097   0.830   2.961   4.901
 7400SOL     OW23098   4.233   2.367   6.090
 7400SOL    HW123099   4.205   2.423   6.168
 7400SOL    HW223100   4.171   2.385   6.013
 7401SOL     OW23101   1.611   2.104   4.256
 7401SOL    HW123102   1.665   2.023   4.279
 7401SOL    HW223103   1.615   2.169   4.333
 7402SOL     OW23104   2.981   5.583   6.282
 7402SOL    HW123105   2.918   5.526   6.229
 7402SOL    HW223106   2.967   5.565   6.380
 7403SOL     OW23107   1.667   3.460   2.632
 7403SOL    HW123108   1.624   3.377   2.596
 7403SOL    HW223109   1.714   3.508   2.558
 7404SOL     OW23110   2.661   5.137   1.908
 7404SOL    HW123111   2.708   5.208   1.856
 7404SOL    HW223112   2.695   5.047   1.882
 7405SOL     OW23113   3.553   4.947   4.874
 7405SOL    HW123114   3.458   4.944   4.843
 7405SOL    HW223115   3.557   4.922   4.971
 7406SOL     OW23116   0.107   2.669   3.986
 7406SOL    HW123117   0.048   2.589   3.973
 7406SOL    HW223118   0.174   2.650   4.058
 7407SOL     OW23119   0.800   0.063   5.145
 7407SOL    HW123120   0.793   0.090   5.241
 7407SOL    HW223121   0.891   0.087   5.110
 7408SOL     OW23122   3.174   3.923   0.151
 7408SOL    HW123123   3.152   3.828   0.172
 7408SOL    HW223124   3.111   3.984   0.198
 7409SOL     OW23125   5.296   2.784   0.335
 7409SOL    HW123126   5.300   2.760   0.237
 7409SOL    HW223127   5.319   2.880   0.346
 7410SOL     OW23128   0.431   6.910   0.176
 7410SOL    HW123129   0.522   6.924   0.137
 7410SOL    HW223130   0.384   6.998   0.184
 7411SOL     OW23131   2.192   0.060   5.966
 7411SOL    HW123132   2.135   0.139   5.987
 7411SOL    HW223133   2.282   0.091   5.936
 7412SOL     OW23134   5.461   0.228   2.338
 7412SOL    HW123135   5.419   0.312   2.371
 7412SOL    HW223136   5.457   0.225   2.239
 7413SOL     OW23137   4.917   5.477   4.073
 7413SOL    HW123138   4.840   5.429   4.115
 7413SOL    HW223139   4.883   5.539   4.002
 7414SOL     OW23140   0.814   1.033   3.698
 7414SOL    HW123141   0.737   1.095   3.681
 7414SOL    HW223142   0.886   1.051   3.630
 7415SOL     OW23143   1.312   5.100   4.273
 7415SOL    HW123144   1.284   5.164   4.345
 7415SOL    HW223145   1.280   5.135   4.184
 7416SOL     OW23146   1.910   1.093   2.475
 7416SOL    HW123147   1.931   1.042   2.558
 7416SOL    HW223148   1.842   1.044   2.421
 7417SOL     OW23149   1.777   2.214   0.710
 7417SOL    HW123150   1.690   2.202   0.756
 7417SOL    HW223151   1.819   2.300   0.738
 7418SOL     OW23152   2.700   5.826   0.744
 7418SOL    HW123153   2.641   5.905   0.758
 7418SOL    HW223154   2.673   5.778   0.661
 7419SOL     OW23155   6.539   2.659   4.194
 7419SOL    HW123156   6.608   2.729   4.214
 7419SOL    HW223157   6.449   2.703   4.182
 7420SOL     OW23158   0.655   6.748   1.230
 7420SOL    HW123159   0.663   6.683   1.155
 7420SOL    HW223160   0.575   6.725   1.285
 7421SOL     OW23161   3.876   4.504   0.914
 7421SOL    HW123162   3.822   4.547   0.842
 7421SOL    HW223163   3.885   4.566   0.991
 7422SOL     OW23164   0.485   4.272   2.450
 7422SOL    HW123165   0.425   4.350   2.434
 7422SOL    HW223166   0.479   4.209   2.373
 7423SOL     OW23167   6.367   2.279   5.427
 7423SOL    HW123168   6.455   2.316   5.396
 7423SOL    HW223169   6.380   2.183   5.453
 7424SOL     OW23170   7.011   0.161   5.406
 7424SOL    HW123171   6.927   0.205   5.374
 7424SOL    HW223172   0.069   0.191   5.351
 7425SOL     OW23173   4.004   6.493   0.045
 7425SOL    HW123174   3.954   6.439   6.996
 7425SOL    HW223175   4.102   6.475   0.037
 7426SOL     OW23176   2.980   1.662   5.782
 7426SOL    HW123177   2.895   1.714   5.768
 7426SOL    HW223178   3.004   1.615   5.697
 7427SOL     OW23179   4.626   0.766   3.587
 7427SOL    HW123180   4.669   0.833   3.527
 7427SOL    HW223181   4.693   0.731   3.652
 7428SOL     OW23182   4.868   2.078   5.347
 7428SOL    HW123183   4.810   2.159   5.358
 7428SOL    HW223184   4.960   2.106   5.321
 7429SOL     OW23185   0.381   6.428   4.130
 7429SOL    HW123186   0.289   6.448   4.097
 7429SOL    HW223187   0.377   6.402   4.227
 7430SOL     OW23188   1.228   3.737   0.396
 7430SOL    HW123189   1.159   3.808   0.387
 7430SOL    HW223190   1.184   3.647   0.396
 7431SOL     OW23191   1.475   2.747   3.292
 7431SOL    HW123192   1.444   2.654   3.316
 7431SOL    HW223193   1.566   2.762   3.330
 7432SOL     OW23194   0.818   1.123   3.129
 7432SOL    HW123195   0.867   1.057   3.071
 7432SOL    HW223196   0.883   1.184   3.173
 7433SOL     OW23197   4.361   5.699   5.890
 7433SOL    HW123198   4.361   5.706   5.790
 7433SOL    HW223199   4.376   5.790   5.929
 7434SOL     OW23200   4.857   5.852   5.191
 7434SOL    HW123201   4.944   5.821   5.153
 7434SOL    HW223202   4.782   5.809   5.142
 7435SOL     OW23203   3.599   5.526   1.056
 7435SOL    HW123204   3.684   5.475   1.065
 7435SOL    HW223205   3.522   5.464   1.068
 7436SOL     OW23206   4.462   4.048   6.259
 7436SOL    HW123207   4.370   4.010   6.263
 7436SOL    HW223208   4.476   4.094   6.171
 7437SOL     OW23209   1.787   5.578   6.878
 7437SOL    HW123210   1.715   5.625   6.929
 7437SOL    HW223211   1.818   5.499   6.931
 7438SOL     OW23212   0.961   5.801   0.186
 7438SOL    HW123213   1.052   5.842   0.183
 7438SOL    HW223214   0.930   5.782   0.093
 7439SOL     OW23215   2.216   6.613   5.497
 7439SOL    HW123216   2.292   6.679   5.489
 7439SOL    HW223217   2.221   6.548   5.422
 7440SOL     OW23218   0.134   2.898   4.489
 7440SOL    HW123219   0.198   2.975   4.491
 7440SOL    HW223220   0.130   2.856   4.580
 7441SOL     OW23221   4.910   6.597   4.495
 7441SOL    HW123222   4.913   6.552   4.406
 7441SOL    HW223223   4.912   6.696   4.482
 7442SOL     OW23224   6.657   1.383   6.009
 7442SOL    HW123225   6.666   1.355   5.913
 7442SOL    HW223226   6.561   1.404   6.028
 7443SOL     OW23227   6.771   6.207   1.797
 7443SOL    HW123228   6.831   6.228   1.719
 7443SOL    HW223229   6.775   6.109   1.816
 7444SOL     OW23230   5.777   2.254   5.669
 7444SOL    HW123231   5.753   2.257   5.572
 7444SOL    HW223232   5.747   2.339   5.713
 7445SOL     OW23233   4.014   0.609   1.139
 7445SOL    HW123234   3.919   0.579   1.138
 7445SOL    HW223235   4.051   0.606   1.046
 7446SOL     OW23236   5.905   2.864   0.569
 7446SOL    HW123237   5.919   2.891   0.474
 7446SOL    HW223238   5.807   2.863   0.589
 7447SOL     OW23239   6.168   2.993   6.853
 7447SOL    HW123240   6.139   2.913   6.800
 7447SOL    HW223241   6.246   2.968   6.910
 7448SOL     OW23242   6.427   6.771   5.475
 7448SOL    HW123243   6.404   6.703   5.406
 7448SOL    HW223244   6.512   6.745   5.521
 7449SOL     OW23245   0.860   4.389   2.071
 7449SOL    HW123246   0.795   4.314   2.085
 7449SOL    HW223247   0.900   4.415   2.158
 7450SOL     OW23248   5.445   2.611   5.286
 7450SOL    HW123249   5.389   2.682   5.327
 7450SOL    HW223250   5.540   2.622   5.316
 7451SOL     OW23251   6.414   5.936   3.012
 7451SOL    HW123252   6.513   5.949   3.020
 7451SOL    HW223253   6.389   5.929   2.915
 7452SOL     OW23254   5.785   6.604   4.102
 7452SOL    HW123255   5.708   6.561   4.149
 7452SOL    HW223256   5.832   6.536   4.046
 7453SOL     OW23257   5.091   5.891   5.571
 7453SOL    HW123258   5.022   5.962   5.556
 7453SOL    HW223259   5.106   5.880   5.670
 7454SOL     OW23260   1.082   2.228   1.840
 7454SOL    HW123261   0.989   2.200   1.864
 7454SOL    HW223262   1.141   2.147   1.834
 7455SOL     OW23263   6.828   2.747   1.769
 7455SOL    HW123264   6.729   2.758   1.761
 7455SOL    HW223265   6.853   2.653   1.748
 7456SOL     OW23266   1.694   1.042   4.461
 7456SOL    HW123267   1.603   1.082   4.461
 7456SOL    HW223268   1.693   0.956   4.513
 7457SOL     OW23269   3.665   0.777   5.406
 7457SOL    HW123270   3.605   0.706   5.371
 7457SOL    HW223271   3.740   0.736   5.457
 7458SOL     OW23272   2.020   6.818   5.393
 7458SOL    HW123273   1.973   6.786   5.475
 7458SOL    HW223274   2.117   6.797   5.399
 7459SOL     OW23275   5.407   0.219   2.066
 7459SOL    HW123276   5.348   0.289   2.025
 7459SOL    HW223277   5.398   0.134   2.014
 7460SOL     OW23278   1.051   5.053   0.312
 7460SOL    HW123279   0.961   5.082   0.282
 7460SOL    HW223280   1.044   5.004   0.399
 7461SOL     OW23281   6.170   0.287   6.693
 7461SOL    HW123282   6.253   0.344   6.695
 7461SOL    HW223283   6.163   0.241   6.605
 7462SOL     OW23284   1.801   4.085   2.565
 7462SOL    HW123285   1.886   4.092   2.512
 7462SOL    HW223286   1.793   3.992   2.602
 7463SOL     OW23287   3.031   4.940   0.476
 7463SOL    HW123288   2.970   5.010   0.514
 7463SOL    HW223289   3.056   4.965   0.383
 7464SOL     OW23290   5.612   6.807   6.049
 7464SOL    HW123291   5.556   6.781   6.127
 7464SOL    HW223292   5.599   6.905   6.030
 7465SOL     OW23293   2.435   5.499   6.641
 7465SOL    HW123294   2.486   5.563   6.584
 7465SOL    HW223295   2.463   5.406   6.619
 7466SOL     OW23296   0.341   0.560   4.373
 7466SOL    HW123297   0.402   0.590   4.300
 7466SOL    HW223298   0.263   0.512   4.334
 7467SOL     OW23299   0.556   1.772   0.767
 7467SOL    HW123300   0.532   1.821   0.683
 7467SOL    HW223301   0.626   1.704   0.746
 7468SOL     OW23302   5.730   2.550   3.846
 7468SOL    HW123303   5.677   2.624   3.806
 7468SOL    HW223304   5.775   2.582   3.929
 7469SOL     OW23305   6.419   0.247   0.354
 7469SOL    HW123306   6.395   0.334   0.311
 7469SOL    HW223307   6.444   0.180   0.284
 7470SOL     OW23308   6.309   4.093   3.040
 7470SOL    HW123309   6.255   4.175   3.060
 7470SOL    HW223310   6.288   4.022   3.107
 7471SOL     OW23311   5.788   6.874   5.720
 7471SOL    HW123312   5.696   6.912   5.720
 7471SOL    HW223313   5.813   6.845   5.812
 7472SOL     OW23314   6.565   0.562   5.874
 7472SOL    HW123315   6.468   0.564   5.896
 7472SOL    HW223316   6.607   0.649   5.899
 7473SOL     OW23317   5.995   5.694   3.967
 7473SOL    HW123318   5.897   5.674   3.965
 7473SOL    HW223319   6.029   5.700   3.873
 7474SOL     OW23320   0.700   1.512   6.107
 7474SOL    HW123321   0.735   1.500   6.014
 7474SOL    HW223322   0.600   1.515   6.105
 7475SOL     OW23323   4.649   2.676   2.432
 7475SOL    HW123324   4.739   2.657   2.393
 7475SOL    HW223325   4.581   2.617   2.389
 7476SOL     OW23326   3.420   1.008   3.906
 7476SOL    HW123327   3.499   0.952   3.931
 7476SOL    HW223328   3.451   1.100   3.882
 7477SOL     OW23329   0.451   1.550   5.787
 7477SOL    HW123330   0.361   1.552   5.743
 7477SOL    HW223331   0.442   1.516   5.881
 7478SOL     OW23332   5.854   3.731   5.181
 7478SOL    HW123333   5.902   3.766   5.100
 7478SOL    HW223334   5.756   3.732   5.164
 7479SOL     OW23335   4.149   2.147   2.386
 7479SOL    HW123336   4.216   2.092   2.436
 7479SOL    HW223337   4.196   2.204   2.318
 7480SOL     OW23338   1.314   4.508   2.498
 7480SOL    HW123339   1.407   4.495   2.533
 7480SOL    HW223340   1.306   4.465   2.408
 7481SOL     OW23341   5.687   5.775   0.750
 7481SOL    HW123342   5.692   5.832   0.668
 7481SOL    HW223343   5.695   5.679   0.724
 7482SOL     OW23344   4.439   2.476   3.085
 7482SOL    HW123345   4.450   2.487   2.986
 7482SOL    HW223346   4.484   2.552   3.132
 7483SOL     OW23347   4.965   3.728   4.561
 7483SOL    HW123348   5.028   3.677   4.621
 7483SOL    HW223349   4.921   3.664   4.499
 7484SOL     OW23350   1.089   6.721   4.633
 7484SOL    HW123351   1.169   6.763   4.592
 7484SOL    HW223352   1.041   6.666   4.565
 7485SOL     OW23353   3.782   6.987   4.507
 7485SOL    HW123354   3.787   6.940   4.418
 7485SOL    HW223355   3.755   0.063   4.493
 7486SOL     OW23356   1.827   5.950   0.441
 7486SOL    HW123357   1.731   5.959   0.416
 7486SOL    HW223358   1.869   6.041   0.446
 7487SOL     OW23359   2.152   0.107   3.080
 7487SOL    HW123360   2.185   0.110   2.986
 7487SOL    HW223361   2.218   0.154   3.140
 7488SOL     OW23362   2.409   6.018   4.221
 7488SOL    HW123363   2.418   6.111   4.183
 7488SOL    HW223364   2.447   6.017   4.314
 7489SOL     OW23365   5.988   2.883   5.923
 7489SOL    HW123366   5.918   2.875   5.994
 7489SOL    HW223367   5.950   2.933   5.845
 7490SOL     OW23368   1.239   0.074   3.215
 7490SOL    HW123369   1.198   0.152   3.262
 7490SOL    HW223370   1.208   7.008   3.258
 7491SOL     OW23371   4.606   2.742   6.674
 7491SOL    HW123372   4.656   2.826   6.656
 7491SOL    HW223373   4.511   2.763   6.696
 7492SOL     OW23374   1.515   0.121   3.158
 7492SOL    HW123375   1.422   0.085   3.147
 7492SOL    HW223376   1.549   0.097   3.249
 7493SOL     OW23377   0.535   3.194   6.534
 7493SOL    HW123378   0.444   3.211   6.572
 7493SOL    HW223379   0.563   3.272   6.479
 7494SOL     OW23380   5.527   1.706   2.566
 7494SOL    HW123381   5.454   1.760   2.610
 7494SOL    HW223382   5.589   1.671   2.636
 7495SOL     OW23383   1.335   1.974   6.759
 7495SOL    HW123384   1.385   2.061   6.752
 7495SOL    HW223385   1.281   1.974   6.843
 7496SOL     OW23386   6.508   2.989   4.256
 7496SOL    HW123387   6.438   2.918   4.263
 7496SOL    HW223388   6.563   2.989   4.340
 7497SOL     OW23389   2.763   4.614   0.294
 7497SOL    HW123390   2.733   4.587   0.386
 7497SOL    HW223391   2.758   4.535   0.233
 7498SOL     OW23392   3.398   0.644   5.278
 7498SOL    HW123393   3.358   0.730   5.246
 7498SOL    HW223394   3.325   0.579   5.299
 7499SOL     OW23395   4.460   1.255   3.149
 7499SOL    HW123396   4.396   1.194   3.104
 7499SOL    HW223397   4.432   1.350   3.134
 7500SOL     OW23398   3.449   5.838   3.279
 7500SOL    HW123399   3.448   5.927   3.234
 7500SOL    HW223400   3.420   5.767   3.213
 7501SOL     OW23401   5.421   3.882   4.795
 7501SOL    HW123402   5.392   3.968   4.752
 7501SOL    HW223403   5.341   3.835   4.831
 7502SOL     OW23404   3.317   0.840   4.525
 7502SOL    HW123405   3.325   0.923   4.471
 7502SOL    HW223406   3.222   0.828   4.554
 7503SOL     OW23407   1.677   0.205   1.378
 7503SOL    HW123408   1.738   0.225   1.302
 7503SOL    HW223409   1.714   0.130   1.433
 7504SOL     OW23410   0.875   6.227   3.260
 7504SOL    HW123411   0.891   6.132   3.234
 7504SOL    HW223412   0.879   6.285   3.179
 7505SOL     OW23413   1.876   2.834   5.861
 7505SOL    HW123414   1.888   2.799   5.954
 7505SOL    HW223415   1.779   2.830   5.836
 7506SOL     OW23416   5.525   1.607   3.157
 7506SOL    HW123417   5.561   1.518   3.132
 7506SOL    HW223418   5.545   1.673   3.085
 7507SOL     OW23419   0.152   1.712   2.668
 7507SOL    HW123420   0.196   1.662   2.743
 7507SOL    HW223421   0.110   1.647   2.605
 7508SOL     OW23422   1.501   6.584   1.641
 7508SOL    HW123423   1.498   6.640   1.724
 7508SOL    HW223424   1.576   6.614   1.583
 7509SOL     OW23425   5.690   3.569   0.458
 7509SOL    HW123426   5.752   3.617   0.396
 7509SOL    HW223427   5.711   3.594   0.552
 7510SOL     OW23428   3.533   3.487   4.849
 7510SOL    HW123429   3.515   3.548   4.771
 7510SOL    HW223430   3.450   3.436   4.871
 7511SOL     OW23431   2.589   5.771   3.854
 7511SOL    HW123432   2.502   5.813   3.884
 7511SOL    HW223433   2.663   5.836   3.869
 7512SOL     OW23434   2.667   6.873   6.362
 7512SOL    HW123435   2.633   6.803   6.425
 7512SOL    HW223436   2.595   6.939   6.343
 7513SOL     OW23437   1.606   1.070   1.634
 7513SOL    HW123438   1.600   1.062   1.734
 7513SOL    HW223439   1.592   1.165   1.607
 7514SOL     OW23440   2.538   5.306   2.438
 7514SOL    HW123441   2.633   5.284   2.460
 7514SOL    HW223442   2.531   5.403   2.414
 7515SOL     OW23443   6.860   5.572   4.498
 7515SOL    HW123444   6.922   5.651   4.495
 7515SOL    HW223445   6.870   5.526   4.586
 7516SOL     OW23446   6.318   5.723   5.785
 7516SOL    HW123447   6.263   5.711   5.868
 7516SOL    HW223448   6.260   5.707   5.705
 7517SOL     OW23449   6.902   2.176   0.488
 7517SOL    HW123450   6.834   2.112   0.526
 7517SOL    HW223451   6.869   2.211   0.400
 7518SOL     OW23452   4.699   4.250   4.346
 7518SOL    HW123453   4.696   4.262   4.446
 7518SOL    HW223454   4.661   4.331   4.302
 7519SOL     OW23455   0.518   6.480   3.858
 7519SOL    HW123456   0.438   6.442   3.813
 7519SOL    HW223457   0.503   6.483   3.957
 7520SOL     OW23458   2.415   0.001   2.420
 7520SOL    HW123459   2.443   0.080   2.367
 7520SOL    HW223460   2.444   0.012   2.515
 7521SOL     OW23461   4.748   2.674   5.763
 7521SOL    HW123462   4.718   2.680   5.667
 7521SOL    HW223463   4.703   2.597   5.808
 7522SOL     OW23464   1.595   1.292   6.121
 7522SOL    HW123465   1.531   1.309   6.195
 7522SOL    HW223466   1.627   1.378   6.083
 7523SOL     OW23467   5.537   0.311   6.461
 7523SOL    HW123468   5.590   0.264   6.531
 7523SOL    HW223469   5.456   0.352   6.503
 7524SOL     OW23470   0.859   2.705   5.064
 7524SOL    HW123471   0.877   2.627   5.004
 7524SOL    HW223472   0.898   2.787   5.023
 7525SOL     OW23473   3.498   0.710   6.518
 7525SOL    HW123474   3.426   0.660   6.566
 7525SOL    HW223475   3.489   0.695   6.420
 7526SOL     OW23476   3.431   3.561   1.472
 7526SOL    HW123477   3.383   3.506   1.540
 7526SOL    HW223478   3.412   3.658   1.488
 7527SOL     OW23479   3.030   5.759   3.445
 7527SOL    HW123480   2.992   5.777   3.355
 7527SOL    HW223481   2.964   5.786   3.515
 7528SOL     OW23482   6.022   2.139   0.472
 7528SOL    HW123483   5.958   2.101   0.405
 7528SOL    HW223484   5.974   2.153   0.559
 7529SOL     OW23485   5.716   1.692   4.412
 7529SOL    HW123486   5.774   1.730   4.339
 7529SOL    HW223487   5.687   1.600   4.387
 7530SOL     OW23488   0.179   2.869   2.244
 7530SOL    HW123489   0.224   2.950   2.281
 7530SOL    HW223490   0.080   2.877   2.259
 7531SOL     OW23491   5.907   2.951   4.599
 7531SOL    HW123492   5.854   3.033   4.581
 7531SOL    HW223493   5.893   2.885   4.526
 7532SOL     OW23494   4.141   6.151   0.040
 7532SOL    HW123495   4.206   6.090   7.011
 7532SOL    HW223496   4.181   6.243   0.046
 7533SOL     OW23497   3.562   1.301   1.629
 7533SOL    HW123498   3.528   1.387   1.591
 7533SOL    HW223499   3.574   1.310   1.728
 7534SOL     OW23500   4.351   6.225   5.336
 7534SOL    HW123501   4.353   6.199   5.240
 7534SOL    HW223502   4.265   6.271   5.356
 7535SOL     OW23503   1.926   0.290   4.883
 7535SOL    HW123504   1.949   0.382   4.916
 7535SOL    HW223505   1.837   0.263   4.919
 7536SOL     OW23506   5.255   4.236   4.502
 7536SOL    HW123507   5.272   4.138   4.501
 7536SOL    HW223508   5.172   4.257   4.451
 7537SOL     OW23509   2.227   5.492   2.177
 7537SOL    HW123510   2.233   5.579   2.128
 7537SOL    HW223511   2.314   5.444   2.171
 7538SOL     OW23512   1.943   2.365   1.258
 7538SOL    HW123513   1.857   2.314   1.248
 7538SOL    HW223514   1.995   2.327   1.335
 7539SOL     OW23515   1.707   3.372   4.076
 7539SOL    HW123516   1.751   3.311   4.010
 7539SOL    HW223517   1.672   3.318   4.153
 7540SOL     OW23518   4.406   0.915   4.729
 7540SOL    HW123519   4.414   0.841   4.663
 7540SOL    HW223520   4.497   0.940   4.761
 7541SOL     OW23521   0.099   4.262   5.109
 7541SOL    HW123522   0.150   4.217   5.182
 7541SOL    HW223523   0.121   4.359   5.108
 7542SOL     OW23524   0.952   5.371   7.010
 7542SOL    HW123525   0.895   5.412   6.939
 7542SOL    HW223526   1.046   5.362   6.976
 7543SOL     OW23527   4.081   1.180   5.672
 7543SOL    HW123528   4.176   1.205   5.656
 7543SOL    HW223529   4.021   1.256   5.647
 7544SOL     OW23530   6.405   2.247   3.368
 7544SOL    HW123531   6.467   2.320   3.397
 7544SOL    HW223532   6.365   2.203   3.449
 7545SOL     OW23533   0.464   5.876   6.886
 7545SOL    HW123534   0.516   5.794   6.862
 7545SOL    HW223535   0.408   5.904   6.808
 7546SOL     OW23536   4.319   1.978   1.347
 7546SOL    HW123537   4.378   1.913   1.299
 7546SOL    HW223538   4.286   1.938   1.432
 7547SOL     OW23539   5.288   1.470   0.379
 7547SOL    HW123540   5.276   1.531   0.300
 7547SOL    HW223541   5.226   1.497   0.452
 7548SOL     OW23542   4.183   2.150   0.304
 7548SOL    HW123543   4.097   2.118   0.346
 7548SOL    HW223544   4.258   2.091   0.334
 7549SOL     OW23545   3.016   2.332   6.883
 7549SOL    HW123546   3.022   2.420   6.931
 7549SOL    HW223547   3.107   2.305   6.852
 7550SOL     OW23548   2.051   4.854   3.775
 7550SOL    HW123549   1.961   4.870   3.736
 7550SOL    HW223550   2.042   4.806   3.863
 7551SOL     OW23551   5.641   2.974   5.360
 7551SOL    HW123552   5.613   2.950   5.453
 7551SOL    HW223553   5.568   2.948   5.296
 7552SOL     OW23554   1.397   6.333   2.980
 7552SOL    HW123555   1.489   6.310   3.013
 7552SOL    HW223556   1.334   6.259   3.003
 7553SOL     OW23557   3.907   6.770   5.499
 7553SOL    HW123558   3.864   6.697   5.445
 7553SOL    HW223559   3.968   6.729   5.568
 7554SOL     OW23560   5.198   0.620   6.602
 7554SOL    HW123561   5.185   0.654   6.696
 7554SOL    HW223562   5.175   0.692   6.537
 7555SOL     OW23563   2.738   5.057   6.633
 7555SOL    HW123564   2.750   5.112   6.550
 7555SOL    HW223565   2.824   5.054   6.684
 7556SOL     OW23566   2.587   2.607   0.760
 7556SOL    HW123567   2.534   2.560   0.831
 7556SOL    HW223568   2.580   2.557   0.674
 7557SOL     OW23569   5.853   0.274   6.166
 7557SOL    HW123570   5.879   0.359   6.120
 7557SOL    HW223571   5.878   0.196   6.108
 7558SOL     OW23572   1.916   2.577   4.926
 7558SOL    HW123573   2.007   2.605   4.893
 7558SOL    HW223574   1.890   2.633   5.004
 7559SOL     OW23575   4.206   3.756   0.363
 7559SOL    HW123576   4.241   3.694   0.292
 7559SOL    HW223577   4.266   3.753   0.443
 7560SOL     OW23578   4.649   6.740   0.907
 7560SOL    HW123579   4.706   6.776   0.981
 7560SOL    HW223580   4.576   6.684   0.945
 7561SOL     OW23581   1.054   3.104   6.404
 7561SOL    HW123582   1.108   3.167   6.348
 7561SOL    HW223583   1.013   3.155   6.480
 7562SOL     OW23584   0.858   5.910   5.570
 7562SOL    HW123585   0.763   5.880   5.565
 7562SOL    HW223586   0.861   6.010   5.578
 7563SOL     OW23587   3.083   6.924   1.386
 7563SOL    HW123588   3.031   6.880   1.459
 7563SOL    HW223589   3.045   6.898   1.297
 7564SOL     OW23590   3.906   0.277   3.822
 7564SOL    HW123591   3.933   0.334   3.899
 7564SOL    HW223592   3.874   0.189   3.855
 7565SOL     OW23593   5.834   3.277   6.453
 7565SOL    HW123594   5.862   3.373   6.449
 7565SOL    HW223595   5.753   3.268   6.511
 7566SOL     OW23596   6.331   4.712   2.601
 7566SOL    HW123597   6.333   4.775   2.523
 7566SOL    HW223598   6.281   4.629   2.575
 7567SOL     OW23599   1.740   1.359   5.246
 7567SOL    HW123600   1.805   1.363   5.170
 7567SOL    HW223601   1.770   1.288   5.311
 7568SOL     OW23602   5.529   5.058   2.559
 7568SOL    HW123603   5.580   5.143   2.570
 7568SOL    HW223604   5.590   4.987   2.523
 7569SOL     OW23605   3.493   4.589   6.085
 7569SOL    HW123606   3.523   4.631   6.170
 7569SOL    HW223607   3.403   4.626   6.059
 7570SOL     OW23608   5.230   4.237   5.074
 7570SOL    HW123609   5.229   4.316   5.136
 7570SOL    HW223610   5.233   4.269   4.979
 7571SOL     OW23611   4.513   4.444   3.422
 7571SOL    HW123612   4.544   4.399   3.339
 7571SOL    HW223613   4.582   4.433   3.494
 7572SOL     OW23614   4.491   0.978   1.780
 7572SOL    HW123615   4.433   0.916   1.728
 7572SOL    HW223616   4.522   0.932   1.863
 7573SOL     OW23617   0.461   6.879   5.103
 7573SOL    HW123618   0.381   6.934   5.127
 7573SOL    HW223619   0.511   6.923   5.028
 7574SOL     OW23620   5.091   0.576   5.579
 7574SOL    HW123621   5.028   0.644   5.540
 7574SOL    HW223622   5.095   0.496   5.519
 7575SOL     OW23623   5.620   0.238   6.731
 7575SOL    HW123624   5.619   0.140   6.747
 7575SOL    HW223625   5.535   0.278   6.766
 7576SOL     OW23626   5.062   3.397   0.346
 7576SOL    HW123627   5.082   3.410   0.443
 7576SOL    HW223628   4.978   3.343   0.336
 7577SOL     OW23629   0.657   6.653   6.618
 7577SOL    HW123630   0.733   6.593   6.642
 7577SOL    HW223631   0.629   6.705   6.699
 7578SOL     OW23632   3.266   5.433   2.128
 7578SOL    HW123633   3.330   5.357   2.129
 7578SOL    HW223634   3.313   5.518   2.151
 7579SOL     OW23635   0.127   0.777   2.319
 7579SOL    HW123636   0.140   0.875   2.308
 7579SOL    HW223637   0.198   0.741   2.381
 7580SOL     OW23638   0.728   4.362   4.172
 7580SOL    HW123639   0.827   4.344   4.163
 7580SOL    HW223640   0.694   4.321   4.257
 7581SOL     OW23641   0.133   2.000   1.565
 7581SOL    HW123642   0.147   2.022   1.661
 7581SOL    HW223643   0.088   1.911   1.557
 7582SOL     OW23644   3.582   1.035   2.842
 7582SOL    HW123645   3.603   1.123   2.799
 7582SOL    HW223646   3.653   0.969   2.819
 7583SOL     OW23647   5.269   2.718   2.211
 7583SOL    HW123648   5.237   2.693   2.120
 7583SOL    HW223649   5.213   2.673   2.280
 7584SOL     OW23650   3.321   0.707   3.133
 7584SOL    HW123651   3.353   0.748   3.047
 7584SOL    HW223652   3.331   0.774   3.207
 7585SOL     OW23653   1.670   2.625   6.531
 7585SOL    HW123654   1.726   2.599   6.453
 7585SOL    HW223655   1.712   2.590   6.615
 7586SOL     OW23656   2.474   6.935   3.998
 7586SOL    HW123657   2.440   6.890   4.081
 7586SOL    HW223658   2.408   6.923   3.924
 7587SOL     OW23659   2.092   1.920   6.764
 7587SOL    HW123660   2.003   1.897   6.724
 7587SOL    HW223661   2.107   2.018   6.758
 7588SOL     OW23662   1.716   2.630   4.059
 7588SOL    HW123663   1.788   2.621   3.992
 7588SOL    HW223664   1.716   2.551   4.120
 7589SOL     OW23665   0.248   0.231   2.207
 7589SOL    HW123666   0.306   0.249   2.128
 7589SOL    HW223667   0.300   0.247   2.291
 7590SOL     OW23668   4.269   2.199   6.445
 7590SOL    HW123669   4.272   2.117   6.501
 7590SOL    HW223670   4.199   2.189   6.374
 7591SOL     OW23671   5.621   4.434   0.811
 7591SOL    HW123672   5.677   4.498   0.760
 7591SOL    HW223673   5.532   4.476   0.831
 7592SOL     OW23674   6.046   5.928   4.936
 7592SOL    HW123675   5.957   5.886   4.915
 7592SOL    HW223676   6.043   5.968   5.028
 7593SOL     OW23677   6.659   3.069   0.298
 7593SOL    HW123678   6.584   3.102   0.356
 7593SOL    HW223679   6.669   2.970   0.310
 7594SOL     OW23680   1.853   4.392   2.368
 7594SOL    HW123681   1.928   4.334   2.336
 7594SOL    HW223682   1.775   4.383   2.306
 7595SOL     OW23683   6.101   3.153   5.843
 7595SOL    HW123684   6.036   3.196   5.905
 7595SOL    HW223685   6.092   3.053   5.850
 7596SOL     OW23686   3.740   6.259   3.934
 7596SOL    HW123687   3.662   6.198   3.942
 7596SOL    HW223688   3.816   6.225   3.990
 7597SOL     OW23689   1.438   6.560   3.091
 7597SOL    HW123690   1.506   6.527   3.157
 7597SOL    HW223691   1.418   6.487   3.026
 7598SOL     OW23692   6.529   0.885   2.990
 7598SOL    HW123693   6.624   0.906   2.969
 7598SOL    HW223694   6.475   0.969   2.994
 7599SOL     OW23695   5.159   2.135   2.553
 7599SOL    HW123696   5.144   2.049   2.505
 7599SOL    HW223697   5.095   2.204   2.519
 7600SOL     OW23698   1.066   1.737   3.475
 7600SOL    HW123699   1.074   1.795   3.394
 7600SOL    HW223700   1.157   1.723   3.514
 7601SOL     OW23701   2.395   4.793   2.238
 7601SOL    HW123702   2.321   4.836   2.289
 7601SOL    HW223703   2.482   4.810   2.283
 7602SOL     OW23704   1.911   3.812   0.071
 7602SOL    HW123705   1.899   3.719   0.035
 7602SOL    HW223706   1.863   3.821   0.158
 7603SOL     OW23707   1.868   5.774   6.425
 7603SOL    HW123708   1.862   5.866   6.463
 7603SOL    HW223709   1.807   5.713   6.476
 7604SOL     OW23710   1.925   3.134   4.099
 7604SOL    HW123711   1.902   3.112   4.004
 7604SOL    HW223712   2.025   3.132   4.110
 7605SOL     OW23713   0.683   0.995   1.217
 7605SOL    HW123714   0.617   1.062   1.182
 7605SOL    HW223715   0.767   1.043   1.243
 7606SOL     OW23716   6.047   3.157   4.730
 7606SOL    HW123717   6.036   3.178   4.827
 7606SOL    HW223718   5.980   3.087   4.704
 7607SOL     OW23719   3.427   4.972   0.536
 7607SOL    HW123720   3.473   5.044   0.588
 7607SOL    HW223721   3.386   5.011   0.454
 7608SOL     OW23722   4.131   3.752   1.152
 7608SOL    HW123723   4.110   3.655   1.150
 7608SOL    HW223724   4.153   3.779   1.246
 7609SOL     OW23725   1.721   3.166   4.552
 7609SOL    HW123726   1.759   3.203   4.467
 7609SOL    HW223727   1.794   3.157   4.620
 7610SOL     OW23728   4.260   4.156   6.546
 7610SOL    HW123729   4.197   4.161   6.468
 7610SOL    HW223730   4.339   4.214   6.528
 7611SOL     OW23731   5.326   3.954   1.832
 7611SOL    HW123732   5.262   3.878   1.842
 7611SOL    HW223733   5.277   4.034   1.797
 7612SOL     OW23734   5.021   3.213   2.384
 7612SOL    HW123735   4.966   3.179   2.461
 7612SOL    HW223736   4.972   3.197   2.298
 7613SOL     OW23737   0.596   2.207   0.803
 7613SOL    HW123738   0.555   2.228   0.714
 7613SOL    HW223739   0.679   2.152   0.789
 7614SOL     OW23740   5.461   2.989   0.796
 7614SOL    HW123741   5.403   2.940   0.731
 7614SOL    HW223742   5.416   3.075   0.823
 7615SOL     OW23743   4.286   4.550   6.922
 7615SOL    HW123744   4.356   4.533   6.991
 7615SOL    HW223745   4.320   4.521   6.833
 7616SOL     OW23746   6.260   6.526   4.613
 7616SOL    HW123747   6.212   6.456   4.665
 7616SOL    HW223748   6.271   6.608   4.669
 7617SOL     OW23749   3.425   6.385   3.688
 7617SOL    HW123750   3.524   6.394   3.695
 7617SOL    HW223751   3.388   6.465   3.641
 7618SOL     OW23752   6.996   2.268   6.053
 7618SOL    HW123753   6.965   2.351   6.007
 7618SOL    HW223754   7.001   2.193   5.987
 7619SOL     OW23755   6.539   3.105   4.835
 7619SOL    HW123756   6.479   3.029   4.811
 7619SOL    HW223757   6.573   3.092   4.928
 7620SOL     OW23758   4.064   5.640   1.805
 7620SOL    HW123759   3.988   5.576   1.792
 7620SOL    HW223760   4.049   5.721   1.748
 7621SOL     OW23761   6.787   0.951   0.629
 7621SOL    HW123762   6.860   1.001   0.675
 7621SOL    HW223763   6.815   0.931   0.535
 7622SOL     OW23764   4.107   5.087   6.719
 7622SOL    HW123765   4.105   4.997   6.675
 7622SOL    HW223766   4.043   5.149   6.673
 7623SOL     OW23767   4.673   4.059   6.848
 7623SOL    HW123768   4.732   3.984   6.879
 7623SOL    HW223769   4.655   4.049   6.750
 7624SOL     OW23770   6.554   4.008   4.829
 7624SOL    HW123771   6.493   4.022   4.907
 7624SOL    HW223772   6.500   3.981   4.749
 7625SOL     OW23773   5.176   0.692   6.884
 7625SOL    HW123774   5.200   0.760   6.954
 7625SOL    HW223775   5.087   0.714   6.845
 7626SOL     OW23776   6.744   0.114   5.069
 7626SOL    HW123777   6.700   0.121   4.979
 7626SOL    HW223778   6.692   0.051   5.127
 7627SOL     OW23779   3.960   3.154   0.542
 7627SOL    HW123780   3.994   3.071   0.584
 7627SOL    HW223781   4.000   3.165   0.451
 7628SOL     OW23782   3.365   2.786   1.681
 7628SOL    HW123783   3.454   2.745   1.661
 7628SOL    HW223784   3.361   2.811   1.778
 7629SOL     OW23785   0.078   4.837   3.825
 7629SOL    HW123786   0.163   4.793   3.797
 7629SOL    HW223787   0.050   4.903   3.755
 7630SOL     OW23788   0.788   0.526   0.627
 7630SOL    HW123789   0.865   0.464   0.640
 7630SOL    HW223790   0.761   0.526   0.531
 7631SOL     OW23791   0.928   2.050   6.319
 7631SOL    HW123792   0.906   2.146   6.338
 7631SOL    HW223793   1.026   2.035   6.327
 7632SOL     OW23794   4.924   3.994   0.940
 7632SOL    HW123795   4.954   4.071   0.996
 7632SOL    HW223796   4.888   4.027   0.853
 7633SOL     OW23797   5.553   0.412   1.907
 7633SOL    HW123798   5.543   0.505   1.872
 7633SOL    HW223799   5.462   0.373   1.923
 7634SOL     OW23800   1.992   1.473   2.107
 7634SOL    HW123801   2.040   1.538   2.166
 7634SOL    HW223802   1.897   1.464   2.137
 7635SOL     OW23803   3.506   4.918   5.156
 7635SOL    HW123804   3.528   4.993   5.218
 7635SOL    HW223805   3.412   4.889   5.170
 7636SOL     OW23806   1.871   2.911   4.243
 7636SOL    HW123807   1.870   3.003   4.204
 7636SOL    HW223808   1.911   2.915   4.335
 7637SOL     OW23809   2.726   6.051   2.437
 7637SOL    HW123810   2.641   6.064   2.387
 7637SOL    HW223811   2.760   6.140   2.469
 7638SOL     OW23812   2.081   5.538   1.487
 7638SOL    HW123813   1.987   5.562   1.463
 7638SOL    HW223814   2.145   5.595   1.435
 7639SOL     OW23815   0.536   1.304   0.678
 7639SOL    HW123816   0.501   1.275   0.589
 7639SOL    HW223817   0.633   1.325   0.670
 7640SOL     OW23818   2.960   1.184   5.739
 7640SOL    HW123819   2.952   1.133   5.654
 7640SOL    HW223820   2.891   1.154   5.804
 7641SOL     OW23821   1.299   3.439   2.647
 7641SOL    HW123822   1.311   3.441   2.547
 7641SOL    HW223823   1.203   3.454   2.669
 7642SOL     OW23824   3.265   1.765   2.689
 7642SOL    HW123825   3.226   1.759   2.781
 7642SOL    HW223826   3.202   1.815   2.629
 7643SOL     OW23827   4.974   2.165   3.191
 7643SOL    HW123828   4.904   2.204   3.251
 7643SOL    HW223829   5.060   2.159   3.241
 7644SOL     OW23830   4.541   2.432   2.137
 7644SOL    HW123831   4.517   2.435   2.234
 7644SOL    HW223832   4.581   2.520   2.110
 7645SOL     OW23833   5.427   4.027   5.612
 7645SOL    HW123834   5.364   3.995   5.541
 7645SOL    HW223835   5.402   4.120   5.640
 7646SOL     OW23836   1.578   2.644   4.400
 7646SOL    HW123837   1.561   2.625   4.497
 7646SOL    HW223838   1.577   2.742   4.385
 7647SOL     OW23839   6.889   2.494   4.010
 7647SOL    HW123840   6.902   2.532   4.101
 7647SOL    HW223841   6.826   2.551   3.958
 7648SOL     OW23842   2.502   1.681   2.536
 7648SOL    HW123843   2.539   1.733   2.459
 7648SOL    HW223844   2.404   1.697   2.543
 7649SOL     OW23845   1.111   0.932   3.587
 7649SOL    HW123846   1.210   0.924   3.579
 7649SOL    HW223847   1.070   0.841   3.588
 7650SOL     OW23848   5.675   0.676   0.387
 7650SOL    HW123849   5.620   0.735   0.446
 7650SOL    HW223850   5.770   0.708   0.387
 7651SOL     OW23851   2.137   0.578   4.468
 7651SOL    HW123852   2.200   0.500   4.456
 7651SOL    HW223853   2.114   0.616   4.378
 7652SOL     OW23854   5.722   2.692   4.710
 7652SOL    HW123855   5.704   2.783   4.746
 7652SOL    HW223856   5.686   2.684   4.617
 7653SOL     OW23857   0.569   2.009   0.189
 7653SOL    HW123858   0.558   2.072   0.111
 7653SOL    HW223859   0.479   1.978   0.220
 7654SOL     OW23860   4.909   3.064   4.442
 7654SOL    HW123861   4.826   3.009   4.436
 7654SOL    HW223862   4.987   3.004   4.461
 7655SOL     OW23863   4.412   6.206   3.352
 7655SOL    HW123864   4.325   6.174   3.312
 7655SOL    HW223865   4.416   6.306   3.348
 7656SOL     OW23866   3.792   3.876   6.979
 7656SOL    HW123867   3.770   3.854   6.884
 7656SOL    HW223868   3.708   3.896   0.010
 7657SOL     OW23869   1.466   2.051   3.379
 7657SOL    HW123870   1.433   2.042   3.285
 7657SOL    HW223871   1.555   2.007   3.386
 7658SOL     OW23872   2.848   0.276   6.930
 7658SOL    HW123873   2.832   0.344   7.001
 7658SOL    HW223874   2.801   0.304   6.846
 7659SOL     OW23875   5.679   4.821   6.448
 7659SOL    HW123876   5.616   4.747   6.474
 7659SOL    HW223877   5.716   4.802   6.357
 7660SOL     OW23878   6.842   5.785   3.791
 7660SOL    HW123879   6.797   5.839   3.721
 7660SOL    HW223880   6.891   5.709   3.749
 7661SOL     OW23881   5.580   2.221   5.140
 7661SOL    HW123882   5.602   2.176   5.053
 7661SOL    HW223883   5.529   2.158   5.198
 7662SOL     OW23884   1.500   3.281   4.622
 7662SOL    HW123885   1.573   3.219   4.594
 7662SOL    HW223886   1.438   3.296   4.545
 7663SOL     OW23887   6.238   4.589   6.483
 7663SOL    HW123888   6.237   4.679   6.527
 7663SOL    HW223889   6.145   4.554   6.477
 7664SOL     OW23890   4.300   0.823   1.653
 7664SOL    HW123891   4.224   0.779   1.701
 7664SOL    HW223892   4.271   0.912   1.620
 7665SOL     OW23893   6.194   0.546   4.850
 7665SOL    HW123894   6.222   0.451   4.867
 7665SOL    HW223895   6.166   0.588   4.936
 7666SOL     OW23896   0.621   4.867   2.543
 7666SOL    HW123897   0.686   4.849   2.617
 7666SOL    HW223898   0.611   4.785   2.487
 7667SOL     OW23899   4.218   0.409   2.754
 7667SOL    HW123900   4.136   0.458   2.724
 7667SOL    HW223901   4.192   0.334   2.815
 7668SOL     OW23902   2.853   5.138   0.596
 7668SOL    HW123903   2.819   5.198   0.524
 7668SOL    HW223904   2.893   5.193   0.669
 7669SOL     OW23905   4.699   1.203   5.299
 7669SOL    HW123906   4.639   1.165   5.229
 7669SOL    HW223907   4.736   1.291   5.268
 7670SOL     OW23908   0.393   4.960   0.642
 7670SOL    HW123909   0.462   4.944   0.571
 7670SOL    HW223910   0.315   4.899   0.627
 7671SOL     OW23911   3.363   0.982   2.558
 7671SOL    HW123912   3.370   0.908   2.491
 7671SOL    HW223913   3.407   1.064   2.522
 7672SOL     OW23914   6.947   6.019   3.044
 7672SOL    HW123915   6.975   6.113   3.027
 7672SOL    HW223916   6.995   5.983   3.124
 7673SOL     OW23917   1.874   6.071   1.682
 7673SOL    HW123918   1.917   6.154   1.647
 7673SOL    HW223919   1.919   5.991   1.642
 7674SOL     OW23920   5.320   1.256   3.822
 7674SOL    HW123921   5.339   1.174   3.768
 7674SOL    HW223922   5.371   1.334   3.786
 7675SOL     OW23923   6.223   6.407   2.740
 7675SOL    HW123924   6.145   6.452   2.783
 7675SOL    HW223925   6.279   6.476   2.694
 7676SOL     OW23926   1.929   2.141   0.350
 7676SOL    HW123927   1.932   2.087   0.434
 7676SOL    HW223928   2.021   2.175   0.328
 7677SOL     OW23929   0.453   4.437   1.920
 7677SOL    HW123930   0.379   4.484   1.968
 7677SOL    HW223931   0.417   4.357   1.872
 7678SOL     OW23932   2.551   2.812   5.290
 7678SOL    HW123933   2.477   2.759   5.248
 7678SOL    HW223934   2.542   2.908   5.263
 7679SOL     OW23935   3.124   6.671   5.961
 7679SOL    HW123936   3.201   6.697   5.903
 7679SOL    HW223937   3.073   6.753   5.987
 7680SOL     OW23938   1.217   0.564   1.058
 7680SOL    HW123939   1.275   0.631   1.011
 7680SOL    HW223940   1.266   0.477   1.065
 7681SOL     OW23941   3.290   0.479   0.925
 7681SOL    HW123942   3.207   0.423   0.925
 7681SOL    HW223943   3.291   0.536   1.007
 7682SOL     OW23944   3.976   6.919   2.403
 7682SOL    HW123945   3.983   6.924   2.303
 7682SOL    HW223946   4.040   6.984   2.444
 7683SOL     OW23947   0.104   1.825   5.270
 7683SOL    HW123948   0.027   1.887   5.284
 7683SOL    HW223949   0.164   1.862   5.199
 7684SOL     OW23950   4.057   1.792   0.944
 7684SOL    HW123951   4.007   1.708   0.965
 7684SOL    HW223952   4.123   1.810   1.017
 7685SOL     OW23953   2.716   1.312   5.669
 7685SOL    HW123954   2.661   1.322   5.586
 7685SOL    HW223955   2.809   1.285   5.645
 7686SOL     OW23956   6.832   6.748   3.340
 7686SOL    HW123957   6.760   6.681   3.356
 7686SOL    HW223958   6.913   6.701   3.305
 7687SOL     OW23959   6.158   5.675   4.916
 7687SOL    HW123960   6.141   5.773   4.915
 7687SOL    HW223961   6.234   5.654   4.854
 7688SOL     OW23962   0.721   6.013   5.933
 7688SOL    HW123963   0.650   6.030   5.864
 7688SOL    HW223964   0.741   5.915   5.937
 7689SOL     OW23965   6.022   6.675   2.539
 7689SOL    HW123966   6.117   6.706   2.533
 7689SOL    HW223967   5.987   6.654   2.448
 7690SOL     OW23968   5.627   5.326   0.033
 7690SOL    HW123969   5.704   5.374   0.076
 7690SOL    HW223970   5.581   5.270   0.102
 7691SOL     OW23971   5.121   4.044   3.101
 7691SOL    HW123972   5.023   4.022   3.106
 7691SOL    HW223973   5.154   4.026   3.008
 7692SOL     OW23974   0.837   6.324   1.844
 7692SOL    HW123975   0.783   6.246   1.815
 7692SOL    HW223976   0.836   6.394   1.773
 7693SOL     OW23977   3.347   0.527   1.733
 7693SOL    HW123978   3.305   0.522   1.824
 7693SOL    HW223979   3.443   0.500   1.740
 7694SOL     OW23980   5.189   3.818   3.652
 7694SOL    HW123981   5.137   3.845   3.571
 7694SOL    HW223982   5.179   3.719   3.666
 7695SOL     OW23983   4.634   0.321   1.334
 7695SOL    HW123984   4.700   0.288   1.402
 7695SOL    HW223985   4.547   0.342   1.380
 7696SOL     OW23986   0.409   1.451   6.040
 7696SOL    HW123987   0.331   1.396   6.011
 7696SOL    HW223988   0.400   1.472   6.137
 7697SOL     OW23989   2.978   6.844   3.661
 7697SOL    HW123990   2.910   6.780   3.697
 7697SOL    HW223991   2.982   6.925   3.719
 7698SOL     OW23992   5.467   1.451   3.720
 7698SOL    HW123993   5.564   1.426   3.716
 7698SOL    HW223994   5.453   1.540   3.676
 7699SOL     OW23995   3.080   6.127   5.926
 7699SOL    HW123996   2.986   6.127   5.959
 7699SOL    HW223997   3.107   6.034   5.901
 7700SOL     OW23998   4.410   5.779   3.066
 7700SOL    HW123999   4.316   5.745   3.076
 7700SOL    HW224000   4.459   5.768   3.152
 7701SOL     OW24001   6.437   2.546   6.417
 7701SOL    HW124002   6.382   2.629   6.418
 7701SOL    HW224003   6.529   2.566   6.383
 7702SOL     OW24004   4.337   6.125   5.074
 7702SOL    HW124005   4.275   6.105   4.999
 7702SOL    HW224006   4.424   6.159   5.038
 7703SOL     OW24007   5.726   6.202   6.482
 7703SOL    HW124008   5.726   6.122   6.422
 7703SOL    HW224009   5.820   6.234   6.494
 7704SOL     OW24010   6.034   0.592   3.575
 7704SOL    HW124011   6.119   0.643   3.580
 7704SOL    HW224012   5.957   0.655   3.576
 7705SOL     OW24013   2.594   6.081   0.813
 7705SOL    HW124014   2.557   6.065   0.904
 7705SOL    HW224015   2.654   6.162   0.816
 7706SOL     OW24016   3.390   3.299   4.544
 7706SOL    HW124017   3.295   3.272   4.563
 7706SOL    HW224018   3.407   3.389   4.583
 7707SOL     OW24019   0.188   3.783   6.091
 7707SOL    HW124020   0.212   3.880   6.088
 7707SOL    HW224021   0.221   3.743   6.176
 7708SOL     OW24022   1.047   6.597   5.677
 7708SOL    HW124023   1.045   6.551   5.765
 7708SOL    HW224024   0.976   6.667   5.673
 7709SOL     OW24025   6.918   4.900   1.837
 7709SOL    HW124026   6.835   4.882   1.890
 7709SOL    HW224027   6.981   4.823   1.848
 7710SOL     OW24028   2.683   2.234   0.074
 7710SOL    HW124029   2.755   2.200   0.014
 7710SOL    HW224030   2.622   2.158   0.099
 7711SOL     OW24031   5.951   5.921   5.924
 7711SOL    HW124032   5.940   5.871   6.010
 7711SOL    HW224033   6.029   5.984   5.933
 7712SOL     OW24034   6.185   4.952   1.024
 7712SOL    HW124035   6.244   4.943   1.104
 7712SOL    HW224036   6.207   5.036   0.974
 7713SOL     OW24037   1.619   4.382   0.764
 7713SOL    HW124038   1.706   4.419   0.795
 7713SOL    HW224039   1.635   4.301   0.708
 7714SOL     OW24040   6.989   4.718   5.847
 7714SOL    HW124041   0.064   4.729   5.814
 7714SOL    HW224042   6.937   4.663   5.781
 7715SOL     OW24043   2.420   1.997   6.933
 7715SOL    HW124044   2.391   2.084   6.892
 7715SOL    HW224045   2.373   1.985   0.002
 7716SOL     OW24046   6.902   4.497   0.878
 7716SOL    HW124047   6.918   4.438   0.958
 7716SOL    HW224048   6.809   4.481   0.843
 7717SOL     OW24049   1.160   1.147   5.708
 7717SOL    HW124050   1.234   1.181   5.767
 7717SOL    HW224051   1.076   1.141   5.762
 7718SOL     OW24052   6.665   3.912   3.294
 7718SOL    HW124053   6.737   3.843   3.284
 7718SOL    HW224054   6.679   3.963   3.378
 7719SOL     OW24055   0.098   4.221   4.829
 7719SOL    HW124056   0.080   4.209   4.926
 7719SOL    HW224057   0.110   4.131   4.786
 7720SOL     OW24058   5.986   2.588   6.617
 7720SOL    HW124059   5.893   2.615   6.592
 7720SOL    HW224060   6.020   2.521   6.550
 7721SOL     OW24061   0.482   5.240   2.370
 7721SOL    HW124062   0.561   5.179   2.378
 7721SOL    HW224063   0.510   5.325   2.326
 7722SOL     OW24064   1.164   4.409   3.572
 7722SOL    HW124065   1.135   4.455   3.656
 7722SOL    HW224066   1.205   4.475   3.510
 7723SOL     OW24067   4.158   2.895   6.886
 7723SOL    HW124068   4.193   2.883   6.978
 7723SOL    HW224069   4.101   2.817   6.861
 7724SOL     OW24070   2.639   3.752   1.065
 7724SOL    HW124071   2.637   3.652   1.071
 7724SOL    HW224072   2.672   3.780   0.975
 7725SOL     OW24073   5.808   1.277   2.705
 7725SOL    HW124074   5.775   1.357   2.654
 7725SOL    HW224075   5.868   1.222   2.646
 7726SOL     OW24076   1.793   5.321   6.009
 7726SOL    HW124077   1.819   5.379   5.932
 7726SOL    HW224078   1.781   5.227   5.978
 7727SOL     OW24079   6.656   2.890   2.182
 7727SOL    HW124080   6.611   2.978   2.163
 7727SOL    HW224081   6.616   2.819   2.124
 7728SOL     OW24082   2.240   2.769   5.168
 7728SOL    HW124083   2.207   2.830   5.240
 7728SOL    HW224084   2.314   2.814   5.117
 7729SOL     OW24085   6.064   1.556   1.298
 7729SOL    HW124086   6.062   1.476   1.238
 7729SOL    HW224087   6.056   1.639   1.244
 7730SOL     OW24088   6.118   4.951   6.054
 7730SOL    HW124089   6.121   4.873   6.116
 7730SOL    HW224090   6.203   4.957   6.002
 7731SOL     OW24091   5.759   0.400   0.536
 7731SOL    HW124092   5.843   0.455   0.535
 7731SOL    HW224093   5.712   0.409   0.448
 7732SOL     OW24094   4.066   0.117   0.463
 7732SOL    HW124095   4.027   0.076   0.380
 7732SOL    HW224096   4.155   0.076   0.483
 7733SOL     OW24097   5.393   6.115   2.061
 7733SOL    HW124098   5.320   6.058   2.024
 7733SOL    HW224099   5.402   6.199   2.007
 7734SOL     OW24100   1.648   4.769   4.431
 7734SOL    HW124101   1.622   4.853   4.384
 7734SOL    HW224102   1.745   4.774   4.455
 7735SOL     OW24103   4.602   6.202   6.319
 7735SOL    HW124104   4.650   6.116   6.302
 7735SOL    HW224105   4.660   6.278   6.292
 7736SOL     OW24106   2.255   3.160   6.873
 7736SOL    HW124107   2.182   3.092   6.873
 7736SOL    HW224108   2.228   3.237   6.815
 7737SOL     OW24109   3.277   0.357   2.661
 7737SOL    HW124110   3.276   0.426   2.733
 7737SOL    HW224111   3.349   0.291   2.680
 7738SOL     OW24112   3.416   5.223   0.330
 7738SOL    HW124113   3.403   5.131   0.293
 7738SOL    HW224114   3.349   5.240   0.402
 7739SOL     OW24115   0.647   2.429   1.854
 7739SOL    HW124116   0.563   2.479   1.879
 7739SOL    HW224117   0.626   2.363   1.782
 7740SOL     OW24118   2.964   1.045   2.866
 7740SOL    HW124119   3.027   1.009   2.796
 7740SOL    HW224120   2.962   1.145   2.860
 7741SOL     OW24121   6.816   4.839   5.517
 7741SOL    HW124122   6.850   4.775   5.586
 7741SOL    HW224123   6.826   4.932   5.550
 7742SOL     OW24124   4.334   2.234   3.131
 7742SOL    HW124125   4.369   2.326   3.112
 7742SOL    HW224126   4.241   2.240   3.167
 7743SOL     OW24127   4.446   2.074   6.963
 7743SOL    HW124128   4.465   2.050   0.039
 7743SOL    HW224129   4.446   1.992   6.907
 7744SOL     OW24130   0.887   0.730   4.158
 7744SOL    HW124131   0.920   0.820   4.128
 7744SOL    HW224132   0.959   0.662   4.142
 7745SOL     OW24133   3.653   1.116   0.074
 7745SOL    HW124134   3.595   1.037   0.093
 7745SOL    HW224135   3.748   1.086   0.064
 7746SOL     OW24136   0.883   0.893   0.539
 7746SOL    HW124137   0.839   0.870   0.626
 7746SOL    HW224138   0.905   0.810   0.490
 7747SOL     OW24139   5.743   6.523   1.067
 7747SOL    HW124140   5.774   6.478   0.983
 7747SOL    HW224141   5.731   6.621   1.050
 7748SOL     OW24142   3.015   3.809   4.125
 7748SOL    HW124143   3.095   3.755   4.096
 7748SOL    HW224144   2.932   3.765   4.093
 7749SOL     OW24145   3.410   3.190   5.219
 7749SOL    HW124146   3.419   3.142   5.306
 7749SOL    HW224147   3.385   3.286   5.235
 7750SOL     OW24148   6.488   5.786   0.119
 7750SOL    HW124149   6.530   5.838   0.045
 7750SOL    HW224150   6.515   5.825   0.207
 7751SOL     OW24151   1.384   2.785   2.605
 7751SOL    HW124152   1.324   2.739   2.540
 7751SOL    HW224153   1.386   2.883   2.585
 7752SOL     OW24154   5.868   6.823   5.973
 7752SOL    HW124155   5.776   6.802   6.004
 7752SOL    HW224156   5.934   6.791   6.041
 7753SOL     OW24157   2.288   0.534   4.087
 7753SOL    HW124158   2.354   0.569   4.155
 7753SOL    HW224159   2.337   0.506   4.005
 7754SOL     OW24160   4.742   6.911   2.181
 7754SOL    HW124161   4.769   7.007   2.178
 7754SOL    HW224162   4.786   6.861   2.106
 7755SOL     OW24163   1.377   2.300   6.039
 7755SOL    HW124164   1.375   2.204   6.067
 7755SOL    HW224165   1.331   2.310   5.950
 7756SOL     OW24166   3.525   5.285   2.398
 7756SOL    HW124167   3.531   5.196   2.443
 7756SOL    HW224168   3.480   5.275   2.310
 7757SOL     OW24169   5.457   5.378   4.743
 7757SOL    HW124170   5.472   5.385   4.842
 7757SOL    HW224171   5.526   5.432   4.695
 7758SOL     OW24172   1.234   1.726   0.097
 7758SOL    HW124173   1.233   1.774   0.009
 7758SOL    HW224174   1.155   1.756   0.151
 7759SOL     OW24175   1.076   1.930   5.448
 7759SOL    HW124176   0.998   1.872   5.427
 7759SOL    HW224177   1.144   1.923   5.375
 7760SOL     OW24178   5.593   3.330   2.889
 7760SOL    HW124179   5.499   3.334   2.923
 7760SOL    HW224180   5.653   3.295   2.961
 7761SOL     OW24181   1.248   6.905   6.204
 7761SOL    HW124182   1.247   6.828   6.268
 7761SOL    HW224183   1.239   6.872   6.111
 7762SOL     OW24184   4.574   0.550   4.192
 7762SOL    HW124185   4.668   0.520   4.209
 7762SOL    HW224186   4.570   0.650   4.195
 7763SOL     OW24187   1.377   1.528   0.265
 7763SOL    HW124188   1.341   1.599   0.204
 7763SOL    HW224189   1.308   1.505   0.334
 7764SOL     OW24190   3.715   2.892   3.214
 7764SOL    HW124191   3.777   2.922   3.286
 7764SOL    HW224192   3.623   2.884   3.250
 7765SOL     OW24193   6.164   2.314   3.780
 7765SOL    HW124194   6.086   2.372   3.755
 7765SOL    HW224195   6.158   2.291   3.878
 7766SOL     OW24196   5.524   2.267   0.085
 7766SOL    HW124197   5.428   2.256   0.110
 7766SOL    HW224198   5.544   2.214   0.002
 7767SOL     OW24199   4.176   6.086   3.826
 7767SOL    HW124200   4.252   6.109   3.885
 7767SOL    HW224201   4.199   6.106   3.731
 7768SOL     OW24202   4.271   4.716   2.515
 7768SOL    HW124203   4.253   4.691   2.610
 7768SOL    HW224204   4.185   4.709   2.463
 7769SOL     OW24205   4.721   2.871   2.815
 7769SOL    HW124206   4.734   2.789   2.759
 7769SOL    HW224207   4.667   2.848   2.896
 7770SOL     OW24208   1.611   4.243   1.994
 7770SOL    HW124209   1.550   4.293   1.932
 7770SOL    HW224210   1.580   4.148   2.001
 7771SOL     OW24211   3.364   2.118   5.178
 7771SOL    HW124212   3.291   2.161   5.125
 7771SOL    HW224213   3.372   2.162   5.267
 7772SOL     OW24214   5.513   0.855   2.333
 7772SOL    HW124215   5.525   0.950   2.305
 7772SOL    HW224216   5.431   0.818   2.288
 7773SOL     OW24217   2.664   5.768   4.535
 7773SOL    HW124218   2.579   5.738   4.490
 7773SOL    HW224219   2.644   5.793   4.629
 7774SOL     OW24220   5.349   1.928   5.984
 7774SOL    HW124221   5.428   1.868   5.978
 7774SOL    HW224222   5.305   1.915   6.073
 7775SOL     OW24223   4.423   6.409   2.096
 7775SOL    HW124224   4.390   6.315   2.105
 7775SOL    HW224225   4.386   6.449   2.012
 7776SOL     OW24226   1.577   4.964   0.377
 7776SOL    HW124227   1.609   4.949   0.283
 7776SOL    HW224228   1.654   4.992   0.434
 7777SOL     OW24229   1.225   0.378   4.506
 7777SOL    HW124230   1.193   0.428   4.586
 7777SOL    HW224231   1.159   0.307   4.482
 7778SOL     OW24232   5.010   4.190   0.690
 7778SOL    HW124233   5.036   4.228   0.601
 7778SOL    HW224234   5.056   4.102   0.704
 7779SOL     OW24235   2.951   2.410   1.097
 7779SOL    HW124236   2.872   2.416   1.035
 7779SOL    HW224237   2.927   2.448   1.186
 7780SOL     OW24238   1.052   4.925   5.724
 7780SOL    HW124239   1.076   4.840   5.770
 7780SOL    HW224240   1.059   5.002   5.788
 7781SOL     OW24241   1.325   4.776   0.435
 7781SOL    HW124242   1.303   4.775   0.533
 7781SOL    HW224243   1.420   4.805   0.423
 7782SOL     OW24244   6.769   4.751   4.816
 7782SOL    HW124245   6.859   4.771   4.855
 7782SOL    HW224246   6.780   4.694   4.736
 7783SOL     OW24247   0.641   5.811   4.546
 7783SOL    HW124248   0.592   5.897   4.556
 7783SOL    HW224249   0.705   5.817   4.469
 7784SOL     OW24250   3.173   3.167   1.401
 7784SOL    HW124251   3.125   3.199   1.483
 7784SOL    HW224252   3.189   3.068   1.409
 7785SOL     OW24253   1.626   5.986   4.036
 7785SOL    HW124254   1.595   5.904   4.084
 7785SOL    HW224255   1.682   5.959   3.957
 7786SOL     OW24256   2.939   6.402   6.543
 7786SOL    HW124257   2.893   6.490   6.532
 7786SOL    HW224258   2.983   6.398   6.632
 7787SOL     OW24259   2.384   2.677   6.318
 7787SOL    HW124260   2.299   2.625   6.307
 7787SOL    HW224261   2.387   2.750   6.249
 7788SOL     OW24262   2.428   5.286   1.526
 7788SOL    HW124263   2.473   5.203   1.495
 7788SOL    HW224264   2.447   5.361   1.463
 7789SOL     OW24265   2.052   6.512   6.309
 7789SOL    HW124266   2.000   6.551   6.385
 7789SOL    HW224267   2.083   6.420   6.334
 7790SOL     OW24268   5.375   5.401   3.333
 7790SOL    HW124269   5.380   5.362   3.424
 7790SOL    HW224270   5.307   5.474   3.332
 7791SOL     OW24271   2.475   6.095   3.823
 7791SOL    HW124272   2.531   6.061   3.748
 7791SOL    HW224273   2.425   6.019   3.864
 7792SOL     OW24274   1.696   4.835   5.351
 7792SOL    HW124275   1.611   4.875   5.386
 7792SOL    HW224276   1.679   4.740   5.324
 7793SOL     OW24277   3.348   0.689   0.199
 7793SOL    HW124278   3.270   0.689   0.261
 7793SOL    HW224279   3.340   0.614   0.134
 7794SOL     OW24280   5.744   4.802   2.962
 7794SOL    HW124281   5.719   4.768   2.871
 7794SOL    HW224282   5.797   4.886   2.953
 7795SOL     OW24283   2.360   4.111   5.609
 7795SOL    HW124284   2.346   4.198   5.657
 7795SOL    HW224285   2.302   4.041   5.648
 7796SOL     OW24286   3.932   3.875   3.423
 7796SOL    HW124287   3.844   3.890   3.468
 7796SOL    HW224288   4.006   3.896   3.487
 7797SOL     OW24289   1.380   6.822   3.071
 7797SOL    HW124290   1.443   6.858   3.140
 7797SOL    HW224291   1.390   6.723   3.065
 7798SOL     OW24292   2.606   3.988   5.562
 7798SOL    HW124293   2.519   4.025   5.595
 7798SOL    HW224294   2.637   4.042   5.484
 7799SOL     OW24295   0.933   6.120   2.613
 7799SOL    HW124296   0.907   6.036   2.565
 7799SOL    HW224297   0.980   6.182   2.550
 7800SOL     OW24298   0.866   5.578   1.041
 7800SOL    HW124299   0.837   5.671   1.018
 7800SOL    HW224300   0.906   5.534   0.961
 7801SOL     OW24301   2.202   1.703   1.771
 7801SOL    HW124302   2.266   1.750   1.831
 7801SOL    HW224303   2.185   1.610   1.806
 7802SOL     OW24304   6.045   2.373   0.720
 7802SOL    HW124305   5.980   2.362   0.796
 7802SOL    HW224306   6.028   2.460   0.674
 7803SOL     OW24307   4.711   1.732   6.370
 7803SOL    HW124308   4.615   1.732   6.397
 7803SOL    HW224309   4.768   1.717   6.451
 7804SOL     OW24310   4.830   2.252   3.953
 7804SOL    HW124311   4.749   2.298   3.990
 7804SOL    HW224312   4.886   2.218   4.028
 7805SOL     OW24313   5.265   2.279   1.166
 7805SOL    HW124314   5.329   2.351   1.195
 7805SOL    HW224315   5.316   2.208   1.117
 7806SOL     OW24316   5.781   1.802   6.508
 7806SOL    HW124317   5.758   1.900   6.514
 7806SOL    HW224318   5.718   1.750   6.565
 7807SOL     OW24319   1.125   4.464   5.259
 7807SOL    HW124320   1.136   4.470   5.159
 7807SOL    HW224321   1.075   4.544   5.292
 7808SOL     OW24322   6.313   2.812   4.235
 7808SOL    HW124323   6.273   2.865   4.310
 7808SOL    HW224324   6.243   2.751   4.196
 7809SOL     OW24325   2.033   5.177   3.840
 7809SOL    HW124326   2.023   5.092   3.891
 7809SOL    HW224327   2.130   5.194   3.822
 7810SOL     OW24328   3.805   0.443   4.617
 7810SOL    HW124329   3.742   0.429   4.694
 7810SOL    HW224330   3.899   0.434   4.650
 7811SOL     OW24331   1.528   5.290   2.245
 7811SOL    HW124332   1.559   5.225   2.175
 7811SOL    HW224333   1.591   5.289   2.323
 7812SOL     OW24334   0.867   1.882   3.973
 7812SOL    HW124335   0.796   1.922   3.914
 7812SOL    HW224336   0.954   1.879   3.923
 7813SOL     OW24337   4.822   2.861   0.117
 7813SOL    HW124338   4.741   2.921   0.119
 7813SOL    HW224339   4.793   2.766   0.119
 7814SOL     OW24340   6.897   3.000   3.025
 7814SOL    HW124341   6.825   3.007   2.957
 7814SOL    HW224342   6.857   2.977   3.114
 7815SOL     OW24343   5.438   0.430   5.563
 7815SOL    HW124344   5.406   0.482   5.484
 7815SOL    HW224345   5.517   0.475   5.603
 7816SOL     OW24346   1.558   2.136   6.458
 7816SOL    HW124347   1.629   2.154   6.526
 7816SOL    HW224348   1.542   2.038   6.451
 7817SOL     OW24349   5.600   5.122   3.108
 7817SOL    HW124350   5.598   5.028   3.076
 7817SOL    HW224351   5.511   5.148   3.144
 7818SOL     OW24352   4.058   0.799   2.564
 7818SOL    HW124353   4.113   0.727   2.521
 7818SOL    HW224354   4.117   0.874   2.593
 7819SOL     OW24355   6.932   3.774   1.865
 7819SOL    HW124356   6.990   3.790   1.786
 7819SOL    HW224357   6.988   3.747   1.943
 7820SOL     OW24358   1.717   2.333   5.837
 7820SOL    HW124359   1.692   2.380   5.753
 7820SOL    HW224360   1.804   2.285   5.824
 7821SOL     OW24361   5.236   6.423   7.019
 7821SOL    HW124362   5.169   6.350   0.013
 7821SOL    HW224363   5.328   6.388   0.017
 7822SOL     OW24364   1.627   1.549   6.264
 7822SOL    HW124365   1.590   1.491   6.336
 7822SOL    HW224366   1.720   1.578   6.289
 7823SOL     OW24367   2.506   3.752   5.311
 7823SOL    HW124368   2.606   3.752   5.314
 7823SOL    HW224369   2.473   3.844   5.289
 7824SOL     OW24370   6.989   0.638   4.082
 7824SOL    HW124371   6.955   0.617   3.990
 7824SOL    HW224372   6.922   0.695   4.129
 7825SOL     OW24373   1.864   2.646   1.342
 7825SOL    HW124374   1.771   2.647   1.380
 7825SOL    HW224375   1.926   2.691   1.406
 7826SOL     OW24376   6.638   1.273   1.187
 7826SOL    HW124377   6.639   1.334   1.267
 7826SOL    HW224378   6.730   1.235   1.174
 7827SOL     OW24379   2.269   5.773   0.851
 7827SOL    HW124380   2.325   5.742   0.928
 7827SOL    HW224381   2.253   5.696   0.789
 7828SOL     OW24382   0.870   4.023   6.414
 7828SOL    HW124383   0.779   4.042   6.376
 7828SOL    HW224384   0.901   4.101   6.467
 7829SOL     OW24385   3.068   3.975   1.429
 7829SOL    HW124386   3.029   3.917   1.501
 7829SOL    HW224387   2.996   4.027   1.385
 7830SOL     OW24388   2.508   4.782   5.574
 7830SOL    HW124389   2.500   4.750   5.479
 7830SOL    HW224390   2.579   4.729   5.621
 7831SOL     OW24391   1.771   6.970   1.041
 7831SOL    HW124392   1.756   6.955   0.943
 7831SOL    HW224393   1.767   0.049   1.060
 7832SOL     OW24394   5.594   0.867   3.296
 7832SOL    HW124395   5.524   0.913   3.241
 7832SOL    HW224396   5.677   0.856   3.242
 7833SOL     OW24397   0.788   0.838   6.323
 7833SOL    HW124398   0.754   0.931   6.340
 7833SOL    HW224399   0.768   0.780   6.402
 7834SOL     OW24400   6.931   1.641   3.606
 7834SOL    HW124401   6.980   1.594   3.532
 7834SOL    HW224402   6.901   1.731   3.575
 7835SOL     OW24403   3.649   2.283   5.750
 7835SOL    HW124404   3.714   2.340   5.700
 7835SOL    HW224405   3.651   2.308   5.847
 7836SOL     OW24406   3.241   3.002   5.070
 7836SOL    HW124407   3.291   3.075   5.116
 7836SOL    HW224408   3.242   2.919   5.126
 7837SOL     OW24409   5.828   5.468   0.158
 7837SOL    HW124410   5.810   5.566   0.155
 7837SOL    HW224411   5.926   5.451   0.147
 7838SOL     OW24412   3.881   0.291   0.569
 7838SOL    HW124413   3.824   0.328   0.496
 7838SOL    HW224414   3.961   0.247   0.529
 7839SOL     OW24415   6.133   4.139   5.067
 7839SOL    HW124416   6.135   4.182   4.977
 7839SOL    HW224417   6.061   4.182   5.122
 7840SOL     OW24418   6.504   2.588   3.712
 7840SOL    HW124419   6.446   2.639   3.648
 7840SOL    HW224420   6.448   2.556   3.788
 7841SOL     OW24421   3.405   1.857   6.210
 7841SOL    HW124422   3.447   1.779   6.255
 7841SOL    HW224423   3.307   1.858   6.229
 7842SOL     OW24424   2.502   2.040   2.968
 7842SOL    HW124425   2.559   2.011   3.045
 7842SOL    HW224426   2.512   2.138   2.954
 7843SOL     OW24427   0.091   5.822   3.363
 7843SOL    HW124428   0.133   5.877   3.290
 7843SOL    HW224429   0.135   5.732   3.366
 7844SOL     OW24430   4.023   6.896   3.006
 7844SOL    HW124431   4.079   6.891   2.924
 7844SOL    HW224432   3.945   6.956   2.990
 7845SOL     OW24433   6.025   1.916   2.966
 7845SOL    HW124434   5.941   1.876   3.003
 7845SOL    HW224435   6.064   1.979   3.033
 7846SOL     OW24436   0.909   1.564   2.189
 7846SOL    HW124437   0.880   1.495   2.255
 7846SOL    HW224438   0.859   1.552   2.103
 7847SOL     OW24439   0.000   1.507   3.354
 7847SOL    HW124440   0.080   1.567   3.348
 7847SOL    HW224441   6.939   1.555   3.319
 7848SOL     OW24442   3.515   3.680   0.696
 7848SOL    HW124443   3.504   3.586   0.664
 7848SOL    HW224444   3.431   3.731   0.681
 7849SOL     OW24445   6.389   4.138   4.258
 7849SOL    HW124446   6.359   4.043   4.253
 7849SOL    HW224447   6.382   4.180   4.167
 7850SOL     OW24448   0.665   1.630   4.602
 7850SOL    HW124449   0.657   1.610   4.505
 7850SOL    HW224450   0.596   1.698   4.628
 7851SOL     OW24451   6.489   1.285   1.741
 7851SOL    HW124452   6.567   1.321   1.689
 7851SOL    HW224453   6.415   1.352   1.740
 7852SOL     OW24454   2.799   1.414   6.170
 7852SOL    HW124455   2.744   1.487   6.213
 7852SOL    HW224456   2.801   1.427   6.071
 7853SOL     OW24457   5.168   2.369   1.928
 7853SOL    HW124458   5.082   2.320   1.915
 7853SOL    HW224459   5.155   2.442   1.995
 7854SOL     OW24460   3.591   3.417   6.885
 7854SOL    HW124461   3.665   3.450   6.943
 7854SOL    HW224462   3.520   3.486   6.877
 7855SOL     OW24463   4.673   6.448   4.625
 7855SOL    HW124464   4.611   6.508   4.677
 7855SOL    HW224465   4.765   6.487   4.627
 7856SOL     OW24466   6.391   5.045   5.043
 7856SOL    HW124467   6.466   5.078   4.985
 7856SOL    HW224468   6.404   4.948   5.063
 7857SOL     OW24469   4.973   2.293   6.450
 7857SOL    HW124470   4.997   2.278   6.354
 7857SOL    HW224471   4.890   2.348   6.455
 7858SOL     OW24472   6.025   6.459   3.679
 7858SOL    HW124473   6.013   6.360   3.671
 7858SOL    HW224474   5.987   6.504   3.598
 7859SOL     OW24475   4.257   2.861   6.538
 7859SOL    HW124476   4.299   2.875   6.628
 7859SOL    HW224477   4.273   2.767   6.508
 7860SOL     OW24478   3.534   0.544   3.300
 7860SOL    HW124479   3.455   0.603   3.284
 7860SOL    HW224480   3.564   0.555   3.395
 7861SOL     OW24481   3.815   4.762   1.725
 7861SOL    HW124482   3.774   4.770   1.815
 7861SOL    HW224483   3.743   4.758   1.656
 7862SOL     OW24484   1.992   4.412   1.824
 7862SOL    HW124485   2.078   4.366   1.847
 7862SOL    HW224486   1.983   4.495   1.880
 7863SOL     OW24487   0.667   4.682   4.359
 7863SOL    HW124488   0.719   4.597   4.372
 7863SOL    HW224489   0.730   4.757   4.340
 7864SOL     OW24490   0.409   5.507   5.085
 7864SOL    HW124491   0.327   5.468   5.043
 7864SOL    HW224492   0.425   5.463   5.173
 7865SOL     OW24493   6.187   6.667   3.879
 7865SOL    HW124494   6.128   6.622   3.812
 7865SOL    HW224495   6.191   6.612   3.962
 7866SOL     OW24496   1.253   1.112   6.055
 7866SOL    HW124497   1.337   1.098   6.107
 7866SOL    HW224498   1.199   1.185   6.097
 7867SOL     OW24499   6.351   6.296   3.941
 7867SOL    HW124500   6.325   6.220   4.001
 7867SOL    HW224501   6.323   6.276   3.848
 7868SOL     OW24502   4.835   6.071   1.504
 7868SOL    HW124503   4.741   6.106   1.502
 7868SOL    HW224504   4.834   5.972   1.511
 7869SOL     OW24505   5.494   3.580   6.983
 7869SOL    HW124506   5.414   3.631   6.953
 7869SOL    HW224507   5.497   3.491   6.936
 7870SOL     OW24508   4.503   4.770   4.068
 7870SOL    HW124509   4.432   4.712   4.107
 7870SOL    HW224510   4.462   4.841   4.011
 7871SOL     OW24511   4.518   2.342   2.415
 7871SOL    HW124512   4.449   2.367   2.482
 7871SOL    HW224513   4.502   2.248   2.384
 7872SOL     OW24514   1.923   3.683   3.514
 7872SOL    HW124515   1.972   3.758   3.469
 7872SOL    HW224516   1.923   3.698   3.612
 7873SOL     OW24517   5.779   6.880   6.342
 7873SOL    HW124518   5.748   6.968   6.378
 7873SOL    HW224519   5.700   6.828   6.309
 7874SOL     OW24520   5.270   2.016   6.822
 7874SOL    HW124521   5.231   1.958   6.750
 7874SOL    HW224522   5.369   2.021   6.810
 7875SOL     OW24523   4.290   3.116   6.426
 7875SOL    HW124524   4.240   3.039   6.464
 7875SOL    HW224525   4.366   3.140   6.486
 7876SOL     OW24526   1.193   6.852   4.175
 7876SOL    HW124527   1.290   6.870   4.191
 7876SOL    HW224528   1.141   6.936   4.190
 7877SOL     OW24529   1.078   2.008   2.539
 7877SOL    HW124530   0.978   2.006   2.540
 7877SOL    HW224531   1.113   1.930   2.590
 7878SOL     OW24532   5.352   4.467   4.874
 7878SOL    HW124533   5.367   4.510   4.963
 7878SOL    HW224534   5.255   4.475   4.850
 7879SOL     OW24535   4.172   5.373   3.669
 7879SOL    HW124536   4.119   5.311   3.728
 7879SOL    HW224537   4.211   5.447   3.723
 7880SOL     OW24538   2.187   5.549   0.716
 7880SOL    HW124539   2.156   5.466   0.761
 7880SOL    HW224540   2.157   5.549   0.620
 7881SOL     OW24541   6.179   4.867   4.831
 7881SOL    HW124542   6.127   4.904   4.908
 7881SOL    HW224543   6.277   4.883   4.846
 7882SOL     OW24544   1.288   3.112   2.133
 7882SOL    HW124545   1.253   3.077   2.220
 7882SOL    HW224546   1.340   3.040   2.087
 7883SOL     OW24547   1.132   0.570   0.588
 7883SOL    HW124548   1.224   0.602   0.564
 7883SOL    HW224549   1.066   0.604   0.521
 7884SOL     OW24550   2.004   3.723   4.802
 7884SOL    HW124551   1.977   3.772   4.719
 7884SOL    HW224552   1.949   3.640   4.811
 7885SOL     OW24553   6.240   5.098   1.327
 7885SOL    HW124554   6.240   5.116   1.426
 7885SOL    HW224555   6.164   5.146   1.284
 7886SOL     OW24556   3.808   5.184   6.712
 7886SOL    HW124557   3.811   5.115   6.783
 7886SOL    HW224558   3.765   5.267   6.747
 7887SOL     OW24559   3.693   2.765   5.454
 7887SOL    HW124560   3.736   2.699   5.393
 7887SOL    HW224561   3.598   2.780   5.426
 7888SOL     OW24562   6.653   6.956   5.287
 7888SOL    HW124563   6.752   6.960   5.276
 7888SOL    HW224564   6.617   6.877   5.237
 7889SOL     OW24565   1.891   5.175   0.840
 7889SOL    HW124566   1.933   5.112   0.906
 7889SOL    HW224567   1.811   5.217   0.881
 7890SOL     OW24568   1.688   2.389   2.796
 7890SOL    HW124569   1.681   2.408   2.894
 7890SOL    HW224570   1.640   2.460   2.745
 7891SOL     OW24571   1.853   3.649   4.057
 7891SOL    HW124572   1.809   3.567   4.093
 7891SOL    HW224573   1.784   3.720   4.042
 7892SOL     OW24574   1.983   0.778   3.941
 7892SOL    HW124575   1.885   0.776   3.962
 7892SOL    HW224576   2.021   0.686   3.952
 7893SOL     OW24577   6.969   6.305   3.028
 7893SOL    HW124578   6.928   6.392   3.000
 7893SOL    HW224579   0.039   6.295   2.983
 7894SOL     OW24580   3.343   6.750   0.798
 7894SOL    HW124581   3.424   6.756   0.740
 7894SOL    HW224582   3.348   6.819   0.870
 7895SOL     OW24583   5.972   0.638   5.294
 7895SOL    HW124584   5.990   0.599   5.204
 7895SOL    HW224585   5.882   0.680   5.294
 7896SOL     OW24586   4.752   3.725   0.212
 7896SOL    HW124587   4.838   3.675   0.202
 7896SOL    HW224588   4.710   3.738   0.121
 7897SOL     OW24589   2.564   4.246   6.943
 7897SOL    HW124590   2.543   4.162   6.892
 7897SOL    HW224591   2.479   4.290   6.971
 7898SOL     OW24592   4.170   1.855   3.680
 7898SOL    HW124593   4.257   1.905   3.676
 7898SOL    HW224594   4.164   1.806   3.767
 7899SOL     OW24595   5.789   1.235   1.391
 7899SOL    HW124596   5.755   1.293   1.464
 7899SOL    HW224597   5.875   1.193   1.419
 7900SOL     OW24598   1.378   5.109   1.450
 7900SOL    HW124599   1.364   5.190   1.393
 7900SOL    HW224600   1.472   5.077   1.439
 7901SOL     OW24601   5.111   1.452   6.419
 7901SOL    HW124602   5.100   1.534   6.361
 7901SOL    HW224603   5.097   1.370   6.363
 7902SOL     OW24604   5.049   6.708   1.274
 7902SOL    HW124605   5.137   6.755   1.283
 7902SOL    HW224606   4.993   6.727   1.355
 7903SOL     OW24607   5.559   1.611   0.492
 7903SOL    HW124608   5.536   1.527   0.443
 7903SOL    HW224609   5.484   1.635   0.554
 7904SOL     OW24610   5.465   6.925   3.236
 7904SOL    HW124611   5.478   6.921   3.335
 7904SOL    HW224612   5.517   6.852   3.193
 7905SOL     OW24613   4.696   2.443   6.813
 7905SOL    HW124614   4.661   2.532   6.784
 7905SOL    HW224615   4.639   2.370   6.775
 7906SOL     OW24616   6.844   5.782   0.214
 7906SOL    HW124617   6.841   5.739   0.124
 7906SOL    HW224618   6.756   5.826   0.233
 7907SOL     OW24619   5.443   2.783   3.228
 7907SOL    HW124620   5.434   2.767   3.130
 7907SOL    HW224621   5.354   2.805   3.267
 7908SOL     OW24622   0.674   1.438   5.659
 7908SOL    HW124623   0.588   1.473   5.696
 7908SOL    HW224624   0.678   1.339   5.672
 7909SOL     OW24625   5.413   3.971   4.511
 7909SOL    HW124626   5.376   3.878   4.510
 7909SOL    HW224627   5.496   3.974   4.456
 7910SOL     OW24628   2.453   3.429   5.840
 7910SOL    HW124629   2.499   3.399   5.756
 7910SOL    HW224630   2.456   3.356   5.908
 7911SOL     OW24631   1.692   3.100   0.216
 7911SOL    HW124632   1.596   3.104   0.191
 7911SOL    HW224633   1.709   3.022   0.276
 7912SOL     OW24634   6.552   4.730   6.997
 7912SOL    HW124635   6.629   4.776   0.023
 7912SOL    HW224636   6.493   4.798   6.955
 7913SOL     OW24637   1.777   4.913   1.015
 7913SOL    HW124638   1.857   4.863   0.982
 7913SOL    HW224639   1.806   4.996   1.062
 7914SOL     OW24640   0.139   4.027   0.386
 7914SOL    HW124641   0.183   4.114   0.408
 7914SOL    HW224642   0.201   3.972   0.329
 7915SOL     OW24643   4.933   3.015   2.195
 7915SOL    HW124644   5.006   3.036   2.130
 7915SOL    HW224645   4.844   3.033   2.152
 7916SOL     OW24646   0.659   3.902   5.173
 7916SOL    HW124647   0.561   3.892   5.153
 7916SOL    HW224648   0.711   3.896   5.088
 7917SOL     OW24649   3.579   4.125   4.715
 7917SOL    HW124650   3.639   4.138   4.794
 7917SOL    HW224651   3.484   4.129   4.745
 7918SOL     OW24652   6.661   1.566   6.633
 7918SOL    HW124653   6.605   1.621   6.570
 7918SOL    HW224654   6.603   1.532   6.707
 7919SOL     OW24655   2.067   4.259   2.279
 7919SOL    HW124656   2.011   4.230   2.201
 7919SOL    HW224657   2.070   4.186   2.347
 7920SOL     OW24658   0.449   5.350   0.665
 7920SOL    HW124659   0.362   5.303   0.652
 7920SOL    HW224660   0.436   5.449   0.659
 7921SOL     OW24661   5.285   6.564   0.562
 7921SOL    HW124662   5.230   6.647   0.568
 7921SOL    HW224663   5.233   6.493   0.514
 7922SOL     OW24664   6.751   6.537   6.855
 7922SOL    HW124665   6.812   6.490   6.792
 7922SOL    HW224666   6.742   6.484   6.940
 7923SOL     OW24667   3.416   0.534   2.143
 7923SOL    HW124668   3.371   0.504   2.227
 7923SOL    HW224669   3.511   0.501   2.143
 7924SOL     OW24670   4.176   0.142   2.118
 7924SOL    HW124671   4.255   0.084   2.137
 7924SOL    HW224672   4.139   0.119   2.027
 7925SOL     OW24673   0.611   1.666   6.403
 7925SOL    HW124674   0.678   1.728   6.364
 7925SOL    HW224675   0.617   1.577   6.359
 7926SOL     OW24676   4.901   1.784   5.313
 7926SOL    HW124677   4.879   1.871   5.356
 7926SOL    HW224678   4.826   1.756   5.253
 7927SOL     OW24679   4.214   4.998   3.440
 7927SOL    HW124680   4.295   4.942   3.459
 7927SOL    HW224681   4.239   5.094   3.437
 7928SOL     OW24682   1.080   2.192   4.449
 7928SOL    HW124683   1.044   2.106   4.484
 7928SOL    HW224684   1.029   2.218   4.366
 7929SOL     OW24685   4.337   4.392   5.822
 7929SOL    HW124686   4.247   4.359   5.851
 7929SOL    HW224687   4.407   4.360   5.886
 7930SOL     OW24688   4.338   5.374   4.270
 7930SOL    HW124689   4.382   5.409   4.353
 7930SOL    HW224690   4.378   5.285   4.246
 7931SOL     OW24691   1.646   1.831   6.411
 7931SOL    HW124692   1.563   1.819   6.466
 7931SOL    HW224693   1.660   1.751   6.354
 7932SOL     OW24694   1.900   6.010   6.588
 7932SOL    HW124695   1.864   6.096   6.551
 7932SOL    HW224696   1.988   6.027   6.631
 7933SOL     OW24697   6.990   5.641   6.665
 7933SOL    HW124698   6.895   5.619   6.642
 7933SOL    HW224699   7.012   5.733   6.633
 7934SOL     OW24700   2.482   4.781   0.090
 7934SOL    HW124701   2.485   4.804   7.011
 7934SOL    HW224702   2.552   4.834   0.138
 7935SOL     OW24703   5.659   6.425   6.865
 7935SOL    HW124704   5.606   6.360   6.919
 7935SOL    HW224705   5.752   6.431   6.902
 7936SOL     OW24706   3.804   6.334   2.264
 7936SOL    HW124707   3.767   6.350   2.356
 7936SOL    HW224708   3.739   6.367   2.196
 7937SOL     OW24709   6.682   6.637   3.720
 7937SOL    HW124710   6.652   6.566   3.657
 7937SOL    HW224711   6.602   6.690   3.750
 7938SOL     OW24712   6.300   5.660   5.137
 7938SOL    HW124713   6.340   5.569   5.143
 7938SOL    HW224714   6.244   5.666   5.054
 7939SOL     OW24715   1.195   2.386   5.339
 7939SOL    HW124716   1.224   2.462   5.397
 7939SOL    HW224717   1.254   2.382   5.258
 7940SOL     OW24718   1.821   3.867   2.072
 7940SOL    HW124719   1.873   3.819   2.143
 7940SOL    HW224720   1.825   3.816   1.987
 7941SOL     OW24721   6.138   0.442   0.745
 7941SOL    HW124722   6.238   0.436   0.747
 7941SOL    HW224723   6.109   0.485   0.660
 7942SOL     OW24724   6.693   5.731   2.529
 7942SOL    HW124725   6.665   5.766   2.618
 7942SOL    HW224726   6.785   5.766   2.507
 7943SOL     OW24727   5.922   2.951   0.317
 7943SOL    HW124728   5.828   2.917   0.307
 7943SOL    HW224729   5.920   3.051   0.322
 7944SOL     OW24730   0.708   2.669   1.592
 7944SOL    HW124731   0.658   2.635   1.672
 7944SOL    HW224732   0.642   2.703   1.525
 7945SOL     OW24733   5.916   6.048   1.965
 7945SOL    HW124734   5.974   6.119   1.924
 7945SOL    HW224735   5.972   5.988   2.021
 7946SOL     OW24736   2.392   1.775   5.509
 7946SOL    HW124737   2.441   1.792   5.423
 7946SOL    HW224738   2.322   1.845   5.522
 7947SOL     OW24739   3.471   2.373   6.316
 7947SOL    HW124740   3.389   2.418   6.351
 7947SOL    HW224741   3.454   2.275   6.306
 7948SOL     OW24742   1.160   6.233   0.752
 7948SOL    HW124743   1.125   6.208   0.842
 7948SOL    HW224744   1.232   6.302   0.763
 7949SOL     OW24745   4.674   4.659   4.403
 7949SOL    HW124746   4.672   4.577   4.459
 7949SOL    HW224747   4.657   4.635   4.308
 7950SOL     OW24748   6.170   5.250   5.041
 7950SOL    HW124749   6.135   5.287   5.127
 7950SOL    HW224750   6.241   5.182   5.060
 7951SOL     OW24751   2.355   4.109   1.511
 7951SOL    HW124752   2.425   4.038   1.517
 7951SOL    HW224753   2.278   4.075   1.457
 7952SOL     OW24754   0.740   3.134   6.779
 7952SOL    HW124755   0.677   3.210   6.763
 7952SOL    HW224756   0.692   3.047   6.768
 7953SOL     OW24757   2.066   2.747   4.167
 7953SOL    HW124758   2.070   2.707   4.076
 7953SOL    HW224759   1.981   2.799   4.177
 7954SOL     OW24760   4.791   4.224   5.025
 7954SOL    HW124761   4.863   4.215   5.094
 7954SOL    HW224762   4.822   4.184   4.939
 7955SOL     OW24763   1.393   6.285   6.973
 7955SOL    HW124764   1.465   6.353   6.991
 7955SOL    HW224765   1.425   6.221   6.904
 7956SOL     OW24766   3.703   6.324   2.531
 7956SOL    HW124767   3.739   6.231   2.535
 7956SOL    HW224768   3.733   6.376   2.611
 7957SOL     OW24769   0.878   0.829   1.871
 7957SOL    HW124770   0.883   0.888   1.952
 7957SOL    HW224771   0.792   0.847   1.822
 7958SOL     OW24772   3.671   5.297   4.383
 7958SOL    HW124773   3.683   5.309   4.284
 7958SOL    HW224774   3.648   5.202   4.403
 7959SOL     OW24775   4.077   5.668   0.861
 7959SOL    HW124776   4.146   5.658   0.789
 7959SOL    HW224777   3.995   5.709   0.822
 7960SOL     OW24778   3.087   1.417   0.745
 7960SOL    HW124779   3.178   1.380   0.764
 7960SOL    HW224780   3.028   1.401   0.825
 7961SOL     OW24781   0.667   0.016   1.190
 7961SOL    HW124782   0.663   6.936   1.207
 7961SOL    HW224783   0.627   0.036   1.101
 7962SOL     OW24784   1.912   0.291   6.905
 7962SOL    HW124785   1.886   0.248   6.818
 7962SOL    HW224786   1.872   0.239   6.981
 7963SOL     OW24787   0.164   1.172   3.686
 7963SOL    HW124788   0.146   1.100   3.753
 7963SOL    HW224789   0.208   1.133   3.605
 7964SOL     OW24790   0.487   4.968   3.783
 7964SOL    HW124791   0.429   5.014   3.716
 7964SOL    HW224792   0.518   5.035   3.851
 7965SOL     OW24793   3.364   3.054   6.371
 7965SOL    HW124794   3.424   3.129   6.401
 7965SOL    HW224795   3.340   3.068   6.275
 7966SOL     OW24796   0.769   3.061   5.294
 7966SOL    HW124797   0.721   3.147   5.307
 7966SOL    HW224798   0.813   3.033   5.379
 7967SOL     OW24799   2.767   5.966   3.901
 7967SOL    HW124800   2.824   6.013   3.834
 7967SOL    HW224801   2.733   6.032   3.968
 7968SOL     OW24802   2.517   2.357   2.941
 7968SOL    HW124803   2.498   2.455   2.936
 7968SOL    HW224804   2.616   2.342   2.936
 7969SOL     OW24805   4.533   6.315   1.044
 7969SOL    HW124806   4.542   6.324   0.945
 7969SOL    HW224807   4.612   6.266   1.080
 7970SOL     OW24808   0.365   2.698   3.135
 7970SOL    HW124809   0.292   2.676   3.071
 7970SOL    HW224810   0.405   2.614   3.171
 7971SOL     OW24811   4.560   1.603   0.716
 7971SOL    HW124812   4.584   1.621   0.811
 7971SOL    HW224813   4.636   1.629   0.657
 7972SOL     OW24814   1.803   3.397   1.125
 7972SOL    HW124815   1.750   3.481   1.111
 7972SOL    HW224816   1.885   3.417   1.178
 7973SOL     OW24817   5.242   4.120   3.621
 7973SOL    HW124818   5.200   4.046   3.567
 7973SOL    HW224819   5.330   4.089   3.657
 7974SOL     OW24820   5.907   0.966   5.370
 7974SOL    HW124821   5.972   1.040   5.388
 7974SOL    HW224822   5.906   0.903   5.448
 7975SOL     OW24823   5.596   0.605   2.756
 7975SOL    HW124824   5.633   0.568   2.842
 7975SOL    HW224825   5.497   0.592   2.755
 7976SOL     OW24826   0.777   0.596   6.545
 7976SOL    HW124827   0.860   0.631   6.589
 7976SOL    HW224828   0.707   0.578   6.615
 7977SOL     OW24829   5.157   5.875   1.777
 7977SOL    HW124830   5.124   5.806   1.712
 7977SOL    HW224831   5.166   5.963   1.730
 7978SOL     OW24832   5.986   3.953   5.937
 7978SOL    HW124833   5.968   3.955   5.839
 7978SOL    HW224834   6.007   3.860   5.966
 7979SOL     OW24835   3.142   7.004   5.237
 7979SOL    HW124836   3.240   6.993   5.254
 7979SOL    HW224837   3.095   0.002   5.324
 7980SOL     OW24838   2.299   5.819   0.065
 7980SOL    HW124839   2.394   5.789   0.057
 7980SOL    HW224840   2.268   5.854   6.996
 7981SOL     OW24841   0.649   5.465   1.740
 7981SOL    HW124842   0.579   5.447   1.810
 7981SOL    HW224843   0.735   5.491   1.784
 7982SOL     OW24844   0.291   2.032   0.280
 7982SOL    HW124845   0.222   1.975   0.326
 7982SOL    HW224846   0.294   2.122   0.322
 7983SOL     OW24847   5.370   1.712   2.117
 7983SOL    HW124848   5.464   1.703   2.083
 7983SOL    HW224849   5.364   1.678   2.210
 7984SOL     OW24850   1.534   2.026   1.439
 7984SOL    HW124851   1.588   1.980   1.510
 7984SOL    HW224852   1.593   2.084   1.384
 7985SOL     OW24853   2.534   6.677   3.838
 7985SOL    HW124854   2.438   6.703   3.834
 7985SOL    HW224855   2.591   6.759   3.850
 7986SOL     OW24856   3.201   0.858   6.580
 7986SOL    HW124857   3.207   0.759   6.589
 7986SOL    HW224858   3.211   0.884   6.484
 7987SOL     OW24859   1.362   3.766   0.074
 7987SOL    HW124860   1.398   3.766   0.168
 7987SOL    HW224861   1.266   3.739   0.075
 7988SOL     OW24862   1.675   2.167   3.591
 7988SOL    HW124863   1.634   2.092   3.539
 7988SOL    HW224864   1.614   2.246   3.589
 7989SOL     OW24865   3.834   2.984   5.544
 7989SOL    HW124866   3.770   2.912   5.516
 7989SOL    HW224867   3.901   2.999   5.470
 7990SOL     OW24868   6.722   3.250   3.223
 7990SOL    HW124869   6.652   3.182   3.244
 7990SOL    HW224870   6.781   3.263   3.302
 7991SOL     OW24871   6.843   0.410   3.555
 7991SOL    HW124872   6.812   0.500   3.525
 7991SOL    HW224873   6.782   0.376   3.626
 7992SOL     OW24874   0.936   6.845   1.723
 7992SOL    HW124875   0.939   6.793   1.809
 7992SOL    HW224876   1.029   6.853   1.687
 7993SOL     OW24877   1.221   6.069   6.560
 7993SOL    HW124878   1.308   6.076   6.511
 7993SOL    HW224879   1.178   6.159   6.566
 7994SOL     OW24880   4.760   0.301   3.198
 7994SOL    HW124881   4.769   0.203   3.180
 7994SOL    HW224882   4.740   0.348   3.112
 7995SOL     OW24883   4.536   4.919   3.232
 7995SOL    HW124884   4.608   4.850   3.235
 7995SOL    HW224885   4.541   4.969   3.145
 7996SOL     OW24886   2.713   0.597   4.508
 7996SOL    HW124887   2.769   0.535   4.454
 7996SOL    HW224888   2.766   0.679   4.530
 7997SOL     OW24889   0.394   1.220   1.371
 7997SOL    HW124890   0.330   1.143   1.374
 7997SOL    HW224891   0.438   1.224   1.281
 7998SOL     OW24892   3.704   5.034   0.914
 7998SOL    HW124893   3.803   5.049   0.925
 7998SOL    HW224894   3.663   5.016   1.003
 7999SOL     OW24895   1.173   6.676   6.335
 7999SOL    HW124896   1.217   6.669   6.425
 7999SOL    HW224897   1.229   6.627   6.268
 8000SOL     OW24898   5.243   6.809   0.243
 8000SOL    HW124899   5.330   6.810   0.292
 8000SOL    HW224900   5.258   6.774   0.150
 8001SOL     OW24901   3.590   5.704   0.851
 8001SOL    HW124902   3.620   5.635   0.917
 8001SOL    HW224903   3.545   5.779   0.899
 8002SOL     OW24904   0.803   2.315   5.564
 8002SOL    HW124905   0.753   2.374   5.501
 8002SOL    HW224906   0.892   2.290   5.524
 8003SOL     OW24907   2.889   5.005   2.685
 8003SOL    HW124908   2.795   5.037   2.702
 8003SOL    HW224909   2.917   5.029   2.593
 8004SOL     OW24910   1.982   3.674   3.803
 8004SOL    HW124911   1.928   3.661   3.886
 8004SOL    HW224912   2.034   3.759   3.809
 8005SOL     OW24913   3.322   0.740   2.669
 8005SOL    HW124914   3.348   0.834   2.646
 8005SOL    HW224915   3.366   0.713   2.755
 8006SOL     OW24916   2.174   0.069   6.526
 8006SOL    HW124917   2.198   0.036   6.435
 8006SOL    HW224918   2.248   0.126   6.562
 8007SOL     OW24919   0.496   1.111   4.441
 8007SOL    HW124920   0.439   1.139   4.518
 8007SOL    HW224921   0.507   1.188   4.378
 8008SOL     OW24922   4.272   5.997   5.702
 8008SOL    HW124923   4.303   5.902   5.694
 8008SOL    HW224924   4.173   6.001   5.684
 8009SOL     OW24925   5.810   0.867   2.776
 8009SOL    HW124926   5.739   0.859   2.706
 8009SOL    HW224927   5.803   0.790   2.839
 8010SOL     OW24928   0.948   1.450   0.543
 8010SOL    HW124929   0.919   1.483   0.633
 8010SOL    HW224930   0.930   1.352   0.536
 8011SOL     OW24931   3.252   2.774   1.010
 8011SOL    HW124932   3.184   2.705   0.985
 8011SOL    HW224933   3.343   2.742   0.987
 8012SOL     OW24934   1.779   5.143   1.806
 8012SOL    HW124935   1.681   5.127   1.794
 8012SOL    HW224936   1.806   5.228   1.760
 8013SOL     OW24937   1.364   4.601   3.467
 8013SOL    HW124938   1.378   4.570   3.373
 8013SOL    HW224939   1.426   4.553   3.528
 8014SOL     OW24940   1.064   6.344   5.138
 8014SOL    HW124941   0.979   6.395   5.153
 8014SOL    HW224942   1.060   6.300   5.049
 8015SOL     OW24943   2.835   0.844   0.527
 8015SOL    HW124944   2.823   0.781   0.604
 8015SOL    HW224945   2.883   0.926   0.558
 8016SOL     OW24946   4.655   0.107   6.669
 8016SOL    HW124947   4.663   0.089   6.767
 8016SOL    HW224948   4.578   0.169   6.652
 8017SOL     OW24949   6.883   6.497   0.435
 8017SOL    HW124950   6.887   6.495   0.335
 8017SOL    HW224951   6.976   6.511   0.471
 8018SOL     OW24952   3.345   2.379   5.967
 8018SOL    HW124953   3.358   2.332   5.880
 8018SOL    HW224954   3.362   2.316   6.042
 8019SOL     OW24955   2.140   3.823   6.158
 8019SOL    HW124956   2.141   3.825   6.258
 8019SOL    HW224957   2.150   3.917   6.124
 8020SOL     OW24958   6.024   6.204   1.138
 8020SOL    HW124959   6.116   6.174   1.163
 8020SOL    HW224960   6.011   6.195   1.040
 8021SOL     OW24961   1.131   1.802   1.595
 8021SOL    HW124962   1.111   1.784   1.499
 8021SOL    HW224963   1.176   1.890   1.605
 8022SOL     OW24964   4.562   7.014   2.894
 8022SOL    HW124965   4.505   6.991   2.815
 8022SOL    HW224966   4.505   0.040   2.964
 8023SOL     OW24967   6.009   5.099   3.533
 8023SOL    HW124968   5.977   5.010   3.565
 8023SOL    HW224969   6.074   5.137   3.599
 8024SOL     OW24970   2.935   5.241   0.034
 8024SOL    HW124971   2.913   5.144   0.045
 8024SOL    HW224972   2.918   5.268   6.958
 8025SOL     OW24973   2.133   6.291   6.451
 8025SOL    HW124974   2.173   6.202   6.428
 8025SOL    HW224975   2.191   6.338   6.517
 8026SOL     OW24976   0.943   4.245   6.557
 8026SOL    HW124977   0.915   4.308   6.629
 8026SOL    HW224978   1.009   4.289   6.496
 8027SOL     OW24979   4.493   1.859   5.419
 8027SOL    HW124980   4.568   1.815   5.469
 8027SOL    HW224981   4.459   1.797   5.349
 8028SOL     OW24982   3.080   4.909   4.575
 8028SOL    HW124983   3.093   4.867   4.485
 8028SOL    HW224984   2.992   4.880   4.612
 8029SOL     OW24985   4.963   2.945   1.072
 8029SOL    HW124986   5.059   2.958   1.100
 8029SOL    HW224987   4.909   2.918   1.151
 8030SOL     OW24988   4.321   4.468   6.669
 8030SOL    HW124989   4.345   4.388   6.725
 8030SOL    HW224990   4.305   4.439   6.575
 8031SOL     OW24991   5.353   6.512   2.720
 8031SOL    HW124992   5.435   6.568   2.717
 8031SOL    HW224993   5.345   6.470   2.811
 8032SOL     OW24994   5.428   4.389   5.890
 8032SOL    HW124995   5.414   4.414   5.793
 8032SOL    HW224996   5.526   4.385   5.909
 8033SOL     OW24997   5.145   3.548   6.514
 8033SOL    HW124998   5.124   3.506   6.602
 8033SOL    HW224999   5.091   3.503   6.442
 8034SOL     OW25000   6.279   0.641   4.613
 8034SOL    HW125001   6.251   0.603   4.701
 8034SOL    HW225002   6.357   0.589   4.577
 8035SOL     OW25003   5.066   1.767   4.549
 8035SOL    HW125004   5.113   1.770   4.461
 8035SOL    HW225005   5.126   1.723   4.617
 8036SOL     OW25006   0.735   4.511   2.834
 8036SOL    HW125007   0.786   4.474   2.757
 8036SOL    HW225008   0.797   4.523   2.912
 8037SOL     OW25009   1.657   3.121   1.592
 8037SOL    HW125010   1.589   3.163   1.532
 8037SOL    HW225011   1.739   3.179   1.595
 8038SOL     OW25012   4.667   0.944   3.254
 8038SOL    HW125013   4.671   1.015   3.184
 8038SOL    HW225014   4.579   0.948   3.301
 8039SOL     OW25015   0.774   1.252   4.188
 8039SOL    HW125016   0.858   1.291   4.150
 8039SOL    HW225017   0.710   1.235   4.113
 8040SOL     OW25018   1.714   6.198   0.751
 8040SOL    HW125019   1.796   6.241   0.713
 8040SOL    HW225020   1.681   6.128   0.687
 8041SOL     OW25021   2.979   1.603   1.762
 8041SOL    HW125022   3.077   1.588   1.745
 8041SOL    HW225023   2.955   1.697   1.738
 8042SOL     OW25024   3.570   2.837   3.810
 8042SOL    HW125025   3.642   2.863   3.745
 8042SOL    HW225026   3.601   2.854   3.903
 8043SOL     OW25027   3.751   6.960   2.591
 8043SOL    HW125028   3.753   6.905   2.674
 8043SOL    HW225029   3.829   6.934   2.533
 8044SOL     OW25030   3.573   2.913   1.087
 8044SOL    HW125031   3.607   2.906   1.180
 8044SOL    HW225032   3.535   2.825   1.058
 8045SOL     OW25033   5.673   0.734   1.297
 8045SOL    HW125034   5.588   0.763   1.342
 8045SOL    HW225035   5.751   0.781   1.340
 8046SOL     OW25036   6.805   5.291   0.346
 8046SOL    HW125037   6.788   5.196   0.373
 8046SOL    HW225038   6.899   5.316   0.370
 8047SOL     OW25039   3.515   5.572   4.430
 8047SOL    HW125040   3.560   5.550   4.343
 8047SOL    HW225041   3.585   5.580   4.501
 8048SOL     OW25042   5.770   0.607   6.134
 8048SOL    HW125043   5.783   0.703   6.159
 8048SOL    HW225044   5.782   0.596   6.036
 8049SOL     OW25045   1.026   0.343   0.396
 8049SOL    HW125046   1.093   0.335   0.322
 8049SOL    HW225047   0.941   0.299   0.370
 8050SOL     OW25048   1.449   3.648   2.713
 8050SOL    HW125049   1.538   3.609   2.690
 8050SOL    HW225050   1.377   3.581   2.695
 8051SOL     OW25051   4.862   5.706   3.113
 8051SOL    HW125052   4.906   5.620   3.087
 8051SOL    HW225053   4.875   5.773   3.040
 8052SOL     OW25054   4.829   1.222   1.888
 8052SOL    HW125055   4.877   1.135   1.886
 8052SOL    HW225056   4.775   1.229   1.972
 8053SOL     OW25057   3.094   4.012   3.663
 8053SOL    HW125058   3.095   4.100   3.711
 8053SOL    HW225059   3.161   4.013   3.590
 8054SOL     OW25060   4.859   0.391   4.704
 8054SOL    HW125061   4.831   0.391   4.608
 8054SOL    HW225062   4.829   0.475   4.748
 8055SOL     OW25063   0.284   0.372   5.453
 8055SOL    HW125064   0.267   0.307   5.528
 8055SOL    HW225065   0.272   0.326   5.365
 8056SOL     OW25066   4.357   2.008   4.203
 8056SOL    HW125067   4.340   1.909   4.210
 8056SOL    HW225068   4.277   2.057   4.237
 8057SOL     OW25069   3.138   1.902   2.920
 8057SOL    HW125070   3.168   1.978   2.863
 8057SOL    HW225071   3.038   1.902   2.926
 8058SOL     OW25072   4.534   0.912   2.522
 8058SOL    HW125073   4.519   1.010   2.534
 8058SOL    HW225074   4.532   0.889   2.425
 8059SOL     OW25075   4.596   2.412   4.707
 8059SOL    HW125076   4.565   2.428   4.801
 8059SOL    HW225077   4.603   2.314   4.690
 8060SOL     OW25078   0.904   2.721   4.025
 8060SOL    HW125079   0.969   2.651   4.053
 8060SOL    HW225080   0.938   2.766   3.942
 8061SOL     OW25081   6.787   0.285   2.106
 8061SOL    HW125082   6.734   0.309   2.188
 8061SOL    HW225083   6.857   0.355   2.090
 8062SOL     OW25084   2.863   5.263   4.524
 8062SOL    HW125085   2.943   5.239   4.579
 8062SOL    HW225086   2.849   5.362   4.528
 8063SOL     OW25087   0.730   3.035   0.413
 8063SOL    HW125088   0.807   2.978   0.440
 8063SOL    HW225089   0.764   3.124   0.382
 8064SOL     OW25090   0.263   5.127   0.854
 8064SOL    HW125091   0.293   5.211   0.899
 8064SOL    HW225092   0.341   5.082   0.812
 8065SOL     OW25093   3.718   6.018   4.631
 8065SOL    HW125094   3.651   5.980   4.695
 8065SOL    HW225095   3.741   6.111   4.659
 8066SOL     OW25096   0.645   2.173   6.268
 8066SOL    HW125097   0.689   2.183   6.179
 8066SOL    HW225098   0.672   2.085   6.309
 8067SOL     OW25099   5.075   2.740   1.664
 8067SOL    HW125100   5.005   2.794   1.711
 8067SOL    HW225101   5.033   2.658   1.624
 8068SOL     OW25102   6.063   4.459   0.274
 8068SOL    HW125103   6.114   4.497   0.197
 8068SOL    HW225104   6.033   4.366   0.252
 8069SOL     OW25105   1.895   6.376   1.300
 8069SOL    HW125106   1.819   6.312   1.283
 8069SOL    HW225107   1.868   6.443   1.369
 8070SOL     OW25108   2.980   2.826   0.480
 8070SOL    HW125109   3.019   2.744   0.438
 8070SOL    HW225110   3.018   2.907   0.435
 8071SOL     OW25111   3.279   6.562   4.935
 8071SOL    HW125112   3.202   6.554   4.998
 8071SOL    HW225113   3.263   6.505   4.855
 8072SOL     OW25114   3.522   0.861   6.798
 8072SOL    HW125115   3.457   0.850   6.723
 8072SOL    HW225116   3.505   0.949   6.842
 8073SOL     OW25117   4.347   5.758   5.635
 8073SOL    HW125118   4.388   5.798   5.553
 8073SOL    HW225119   4.267   5.704   5.608
 8074SOL     OW25120   3.205   2.519   0.646
 8074SOL    HW125121   3.304   2.506   0.647
 8074SOL    HW225122   3.174   2.544   0.738
 8075SOL     OW25123   6.497   1.218   0.697
 8075SOL    HW125124   6.416   1.246   0.748
 8075SOL    HW225125   6.483   1.126   0.659
 8076SOL     OW25126   4.891   2.290   5.790
 8076SOL    HW125127   4.816   2.355   5.783
 8076SOL    HW225128   4.879   2.217   5.723
 8077SOL     OW25129   1.801   5.745   2.171
 8077SOL    HW125130   1.865   5.737   2.094
 8077SOL    HW225131   1.737   5.668   2.169
 8078SOL     OW25132   5.621   1.291   0.959
 8078SOL    HW125133   5.637   1.234   1.039
 8078SOL    HW225134   5.575   1.376   0.986
 8079SOL     OW25135   5.209   1.279   3.316
 8079SOL    HW125136   5.136   1.216   3.344
 8079SOL    HW225137   5.267   1.300   3.395
 8080SOL     OW25138   0.317   3.330   0.245
 8080SOL    HW125139   0.412   3.351   0.268
 8080SOL    HW225140   0.275   3.408   0.199
 8081SOL     OW25141   4.989   6.886   4.510
 8081SOL    HW125142   5.079   6.842   4.513
 8081SOL    HW225143   4.976   6.942   4.591
 8082SOL     OW25144   5.803   0.364   2.086
 8082SOL    HW125145   5.797   0.270   2.122
 8082SOL    HW225146   5.711   0.399   2.071
 8083SOL     OW25147   5.476   3.354   2.445
 8083SOL    HW125148   5.435   3.381   2.532
 8083SOL    HW225149   5.416   3.288   2.399
 8084SOL     OW25150   4.959   6.954   0.189
 8084SOL    HW125151   5.006   6.978   0.103
 8084SOL    HW225152   5.007   6.878   0.233
 8085SOL     OW25153   6.140   0.403   2.925
 8085SOL    HW125154   6.178   0.310   2.923
 8085SOL    HW225155   6.209   0.467   2.891
 8086SOL     OW25156   4.995   0.930   4.086
 8086SOL    HW125157   5.038   1.020   4.078
 8086SOL    HW225158   4.898   0.941   4.108
 8087SOL     OW25159   2.637   1.172   0.912
 8087SOL    HW125160   2.644   1.257   0.859
 8087SOL    HW225161   2.722   1.120   0.904
 8088SOL     OW25162   5.506   2.384   1.235
 8088SOL    HW125163   5.558   2.346   1.312
 8088SOL    HW225164   5.505   2.483   1.240
 8089SOL     OW25165   5.031   2.554   0.094
 8089SOL    HW125166   4.975   2.535   0.013
 8089SOL    HW225167   5.101   2.622   0.070
 8090SOL     OW25168   3.856   2.282   6.569
 8090SOL    HW125169   3.823   2.351   6.505
 8090SOL    HW225170   3.949   2.304   6.598
 8091SOL     OW25171   2.524   4.054   6.496
 8091SOL    HW125172   2.609   4.006   6.477
 8091SOL    HW225173   2.457   4.035   6.424
 8092SOL     OW25174   0.310   2.621   5.195
 8092SOL    HW125175   0.301   2.577   5.285
 8092SOL    HW225176   0.407   2.626   5.170
 8093SOL     OW25177   4.873   5.671   2.638
 8093SOL    HW125178   4.954   5.622   2.606
 8093SOL    HW225179   4.804   5.670   2.566
 8094SOL     OW25180   1.377   3.769   5.051
 8094SOL    HW125181   1.465   3.815   5.043
 8094SOL    HW225182   1.388   3.685   5.104
 8095SOL     OW25183   5.875   3.933   4.137
 8095SOL    HW125184   5.865   4.015   4.193
 8095SOL    HW225185   5.826   3.945   4.051
 8096SOL     OW25186   3.153   5.263   3.895
 8096SOL    HW125187   3.100   5.240   3.813
 8096SOL    HW225188   3.179   5.179   3.942
 8097SOL     OW25189   5.273   6.302   3.393
 8097SOL    HW125190   5.217   6.329   3.315
 8097SOL    HW225191   5.314   6.383   3.435
 8098SOL     OW25192   2.206   6.309   4.154
 8098SOL    HW125193   2.152   6.387   4.120
 8098SOL    HW225194   2.166   6.224   4.119
 8099SOL     OW25195   4.734   6.930   3.929
 8099SOL    HW125196   4.760   6.858   3.993
 8099SOL    HW225197   4.635   6.929   3.915
 8100SOL     OW25198   6.749   0.170   0.143
 8100SOL    HW125199   6.663   0.126   0.169
 8100SOL    HW225200   6.732   0.239   0.073
 8101SOL     OW25201   2.049   0.505   3.981
 8101SOL    HW125202   1.976   0.475   4.042
 8101SOL    HW225203   2.133   0.518   4.034
 8102SOL     OW25204   0.536   4.447   4.645
 8102SOL    HW125205   0.489   4.534   4.631
 8102SOL    HW225206   0.469   4.373   4.652
 8103SOL     OW25207   4.809   0.641   0.875
 8103SOL    HW125208   4.768   0.731   0.864
 8103SOL    HW225209   4.848   0.612   0.787
 8104SOL     OW25210   2.649   7.013   5.978
 8104SOL    HW125211   2.720   7.016   5.908
 8104SOL    HW225212   2.647   6.922   6.019
 8105SOL     OW25213   1.286   2.456   3.144
 8105SOL    HW125214   1.290   2.357   3.133
 8105SOL    HW225215   1.202   2.491   3.103
 8106SOL     OW25216   2.895   5.843   3.220
 8106SOL    HW125217   2.816   5.787   3.247
 8106SOL    HW225218   2.890   5.863   3.122
 8107SOL     OW25219   0.693   5.351   5.143
 8107SOL    HW125220   0.741   5.392   5.221
 8107SOL    HW225221   0.757   5.340   5.067
 8108SOL     OW25222   6.314   3.334   5.111
 8108SOL    HW125223   6.339   3.419   5.065
 8108SOL    HW225224   6.293   3.264   5.043
 8109SOL     OW25225   1.416   3.609   4.338
 8109SOL    HW125226   1.478   3.652   4.404
 8109SOL    HW225227   1.352   3.549   4.386
 8110SOL     OW25228   2.995   6.149   0.650
 8110SOL    HW125229   2.992   6.117   0.555
 8110SOL    HW225230   3.035   6.240   0.654
 8111SOL     OW25231   4.780   0.882   5.280
 8111SOL    HW125232   4.801   0.796   5.326
 8111SOL    HW225233   4.858   0.910   5.224
 8112SOL     OW25234   2.022   1.745   4.530
 8112SOL    HW125235   1.950   1.718   4.466
 8112SOL    HW225236   1.980   1.774   4.616
 8113SOL     OW25237   3.301   3.284   0.975
 8113SOL    HW125238   3.234   3.288   1.049
 8113SOL    HW225239   3.328   3.377   0.949
 8114SOL     OW25240   2.482   3.522   1.327
 8114SOL    HW125241   2.442   3.529   1.418
 8114SOL    HW225242   2.428   3.575   1.262
 8115SOL     OW25243   4.231   0.665   1.295
 8115SOL    HW125244   4.146   0.635   1.251
 8115SOL    HW225245   4.258   0.754   1.258
 8116SOL     OW25246   4.923   6.671   4.881
 8116SOL    HW125247   4.869   6.756   4.878
 8116SOL    HW225248   5.014   6.689   4.845
 8117SOL     OW25249   2.214   1.026   3.763
 8117SOL    HW125250   2.183   0.933   3.746
 8117SOL    HW225251   2.197   1.049   3.859
 8118SOL     OW25252   6.329   2.840   5.610
 8118SOL    HW125253   6.325   2.760   5.551
 8118SOL    HW225254   6.389   2.909   5.570
 8119SOL     OW25255   6.419   5.913   5.118
 8119SOL    HW125256   6.433   5.932   5.021
 8119SOL    HW225257   6.377   5.823   5.128
 8120SOL     OW25258   3.387   4.714   0.165
 8120SOL    HW125259   3.288   4.705   0.154
 8120SOL    HW225260   3.430   4.624   0.166
 8121SOL     OW25261   6.869   5.387   2.004
 8121SOL    HW125262   6.901   5.328   2.079
 8121SOL    HW225263   6.846   5.477   2.041
 8122SOL     OW25264   1.670   5.482   2.488
 8122SOL    HW125265   1.579   5.463   2.525
 8122SOL    HW225266   1.725   5.528   2.558
 8123SOL     OW25267   0.287   0.269   6.624
 8123SOL    HW125268   0.189   0.273   6.642
 8123SOL    HW225269   0.336   0.294   6.708
 8124SOL     OW25270   0.096   6.406   0.563
 8124SOL    HW125271   0.192   6.395   0.587
 8124SOL    HW225272   0.044   6.436   0.644
 8125SOL     OW25273   1.019   0.155   3.048
 8125SOL    HW125274   0.947   0.168   3.116
 8125SOL    HW225275   1.091   0.097   3.087
 8126SOL     OW25276   6.024   4.113   2.266
 8126SOL    HW125277   6.036   4.195   2.322
 8126SOL    HW225278   6.091   4.113   2.192
 8127SOL     OW25279   2.771   5.676   0.403
 8127SOL    HW125280   2.677   5.684   0.435
 8127SOL    HW225281   2.831   5.733   0.460
 8128SOL     OW25282   3.081   3.290   1.156
 8128SOL    HW125283   3.118   3.244   1.237
 8128SOL    HW225284   2.985   3.264   1.144
 8129SOL     OW25285   4.144   0.855   5.862
 8129SOL    HW125286   4.232   0.857   5.815
 8129SOL    HW225287   4.159   0.839   5.960
 8130SOL     OW25288   0.133   4.959   6.413
 8130SOL    HW125289   0.049   4.960   6.358
 8130SOL    HW225290   0.132   4.879   6.473
 8131SOL     OW25291   3.330   0.779   0.892
 8131SOL    HW125292   3.412   0.752   0.942
 8131SOL    HW225293   3.308   0.709   0.824
 8132SOL     OW25294   5.162   6.131   6.500
 8132SOL    HW125295   5.173   6.154   6.597
 8132SOL    HW225296   5.195   6.207   6.445
 8133SOL     OW25297   3.554   5.021   1.954
 8133SOL    HW125298   3.590   4.928   1.967
 8133SOL    HW225299   3.626   5.080   1.917
 8134SOL     OW25300   0.975   1.949   4.547
 8134SOL    HW125301   0.942   1.857   4.527
 8134SOL    HW225302   1.059   1.944   4.600
 8135SOL     OW25303   2.049   6.033   1.349
 8135SOL    HW125304   2.078   6.071   1.261
 8135SOL    HW225305   2.074   6.096   1.422
 8136SOL     OW25306   4.926   4.280   2.970
 8136SOL    HW125307   4.882   4.354   2.919
 8136SOL    HW225308   5.024   4.279   2.950
 8137SOL     OW25309   2.682   1.352   4.537
 8137SOL    HW125310   2.586   1.326   4.545
 8137SOL    HW225311   2.689   1.445   4.503
 8138SOL     OW25312   5.526   2.105   0.608
 8138SOL    HW125313   5.524   2.073   0.513
 8138SOL    HW225314   5.434   2.133   0.636
 8139SOL     OW25315   1.910   2.268   3.760
 8139SOL    HW125316   1.869   2.225   3.679
 8139SOL    HW225317   1.891   2.366   3.760
 8140SOL     OW25318   3.962   0.003   0.204
 8140SOL    HW125319   3.984   6.925   0.191
 8140SOL    HW225320   3.983   0.054   0.121
 8141SOL     OW25321   4.204   6.908   5.585
 8141SOL    HW125322   4.287   6.903   5.641
 8141SOL    HW225323   4.124   6.922   5.644
 8142SOL     OW25324   1.812   5.258   0.409
 8142SOL    HW125325   1.814   5.183   0.476
 8142SOL    HW225326   1.901   5.264   0.364
 8143SOL     OW25327   5.635   5.423   0.327
 8143SOL    HW125328   5.725   5.452   0.294
 8143SOL    HW225329   5.610   5.477   0.408
 8144SOL     OW25330   0.964   6.125   5.798
 8144SOL    HW125331   0.876   6.167   5.774
 8144SOL    HW225332   0.948   6.036   5.841
 8145SOL     OW25333   5.289   5.725   0.675
 8145SOL    HW125334   5.282   5.817   0.714
 8145SOL    HW225335   5.327   5.662   0.744
 8146SOL     OW25336   5.188   0.099   5.267
 8146SOL    HW125337   5.267   0.070   5.320
 8146SOL    HW225338   5.140   0.017   5.233
 8147SOL     OW25339   6.107   0.773   1.138
 8147SOL    HW125340   6.125   0.791   1.041
 8147SOL    HW225341   6.165   0.698   1.169
 8148SOL     OW25342   5.126   5.111   0.343
 8148SOL    HW125343   5.162   5.048   0.275
 8148SOL    HW225344   5.027   5.119   0.333
 8149SOL     OW25345   1.738   6.680   3.502
 8149SOL    HW125346   1.787   6.599   3.469
 8149SOL    HW225347   1.639   6.667   3.488
 8150SOL     OW25348   1.395   4.064   0.888
 8150SOL    HW125349   1.471   4.005   0.861
 8150SOL    HW225350   1.376   4.129   0.815
 8151SOL     OW25351   5.745   5.161   3.468
 8151SOL    HW125352   5.827   5.171   3.526
 8151SOL    HW225353   5.746   5.233   3.398
 8152SOL     OW25354   5.955   3.126   3.319
 8152SOL    HW125355   6.026   3.187   3.284
 8152SOL    HW225356   5.946   3.047   3.258
 8153SOL     OW25357   1.465   1.477   3.758
 8153SOL    HW125358   1.535   1.431   3.813
 8153SOL    HW225359   1.409   1.409   3.711
 8154SOL     OW25360   4.108   6.229   2.867
 8154SOL    HW125361   4.163   6.230   2.784
 8154SOL    HW225362   4.055   6.144   2.872
 8155SOL     OW25363   1.569   3.980   2.092
 8155SOL    HW125364   1.650   3.923   2.102
 8155SOL    HW225365   1.557   4.038   2.173
 8156SOL     OW25366   4.231   6.271   0.402
 8156SOL    HW125367   4.263   6.354   0.356
 8156SOL    HW225368   4.221   6.289   0.500
 8157SOL     OW25369   6.264   4.527   6.791
 8157SOL    HW125370   6.243   4.611   6.741
 8157SOL    HW225371   6.180   4.478   6.812
 8158SOL     OW25372   5.130   4.063   0.240
 8158SOL    HW125373   5.131   3.972   0.283
 8158SOL    HW225374   5.218   4.081   0.198
 8159SOL     OW25375   2.829   5.809   3.655
 8159SOL    HW125376   2.740   5.774   3.627
 8159SOL    HW225377   2.847   5.782   3.750
 8160SOL     OW25378   5.227   0.184   3.889
 8160SOL    HW125379   5.189   0.132   3.812
 8160SOL    HW225380   5.208   0.281   3.875
 8161SOL     OW25381   6.244   3.407   6.213
 8161SOL    HW125382   6.155   3.432   6.252
 8161SOL    HW225383   6.280   3.327   6.262
 8162SOL     OW25384   6.269   6.264   0.133
 8162SOL    HW125385   6.214   6.205   0.074
 8162SOL    HW225386   6.343   6.306   0.079
 8163SOL     OW25387   2.549   4.734   5.298
 8163SOL    HW125388   2.649   4.732   5.296
 8163SOL    HW225389   2.513   4.695   5.214
 8164SOL     OW25390   4.650   1.294   0.855
 8164SOL    HW125391   4.593   1.293   0.773
 8164SOL    HW225392   4.737   1.340   0.834
 8165SOL     OW25393   6.881   4.150   5.736
 8165SOL    HW125394   6.823   4.148   5.655
 8165SOL    HW225395   6.835   4.199   5.810
 8166SOL     OW25396   1.318   0.472   3.298
 8166SOL    HW125397   1.414   0.452   3.283
 8166SOL    HW225398   1.280   0.408   3.365
 8167SOL     OW25399   0.307   1.067   3.434
 8167SOL    HW125400   0.390   1.106   3.393
 8167SOL    HW225401   0.328   0.978   3.473
 8168SOL     OW25402   2.683   0.388   1.563
 8168SOL    HW125403   2.625   0.370   1.484
 8168SOL    HW225404   2.725   0.478   1.554
 8169SOL     OW25405   4.771   2.600   0.627
 8169SOL    HW125406   4.783   2.501   0.618
 8169SOL    HW225407   4.798   2.628   0.719
 8170SOL     OW25408   1.213   5.455   1.440
 8170SOL    HW125409   1.147   5.482   1.369
 8170SOL    HW225410   1.233   5.357   1.430
 8171SOL     OW25411   1.567   1.935   6.972
 8171SOL    HW125412   1.657   1.958   6.934
 8171SOL    HW225413   1.525   1.863   6.916
 8172SOL     OW25414   0.065   1.951   2.105
 8172SOL    HW125415   0.024   2.022   2.162
 8172SOL    HW225416   7.012   1.892   2.068
 8173SOL     OW25417   5.683   2.248   2.227
 8173SOL    HW125418   5.656   2.315   2.158
 8173SOL    HW225419   5.670   2.287   2.319
 8174SOL     OW25420   0.052   0.162   2.415
 8174SOL    HW125421   0.149   0.157   2.436
 8174SOL    HW225422   0.034   0.112   2.330
 8175SOL     OW25423   6.953   3.432   5.253
 8175SOL    HW125424   6.936   3.515   5.199
 8175SOL    HW225425   7.013   3.454   5.330
 8176SOL     OW25426   2.747   4.761   1.434
 8176SOL    HW125427   2.715   4.780   1.527
 8176SOL    HW225428   2.786   4.670   1.430
 8177SOL     OW25429   4.584   0.455   3.645
 8177SOL    HW125430   4.601   0.372   3.591
 8177SOL    HW225431   4.515   0.511   3.599
 8178SOL     OW25432   2.890   6.946   0.508
 8178SOL    HW125433   2.815   6.935   0.574
 8178SOL    HW225434   2.971   6.899   0.542
 8179SOL     OW25435   5.206   1.361   5.036
 8179SOL    HW125436   5.161   1.351   5.125
 8179SOL    HW225437   5.300   1.392   5.050
 8180SOL     OW25438   6.394   1.014   5.998
 8180SOL    HW125439   6.339   1.080   5.948
 8180SOL    HW225440   6.470   1.061   6.044
 8181SOL     OW25441   1.303   1.924   0.834
 8181SOL    HW125442   1.353   1.905   0.918
 8181SOL    HW225443   1.224   1.982   0.855
 8182SOL     OW25444   3.259   3.292   5.623
 8182SOL    HW125445   3.341   3.311   5.676
 8182SOL    HW225446   3.238   3.194   5.627
 8183SOL     OW25447   6.787   2.480   4.542
 8183SOL    HW125448   6.831   2.391   4.545
 8183SOL    HW225449   6.857   2.552   4.546
 8184SOL     OW25450   0.276   0.122   0.262
 8184SOL    HW125451   0.298   0.210   0.220
 8184SOL    HW225452   0.326   0.112   0.348
 8185SOL     OW25453   1.812   0.524   6.781
 8185SOL    HW125454   1.884   0.581   6.742
 8185SOL    HW225455   1.853   0.445   6.827
 8186SOL     OW25456   3.207   4.477   5.807
 8186SOL    HW125457   3.221   4.553   5.743
 8186SOL    HW225458   3.152   4.406   5.762
 8187SOL     OW25459   1.987   1.188   4.848
 8187SOL    HW125460   2.055   1.222   4.783
 8187SOL    HW225461   1.895   1.200   4.810
 8188SOL     OW25462   4.898   3.294   3.764
 8188SOL    HW125463   4.836   3.219   3.789
 8188SOL    HW225464   4.901   3.302   3.665
 8189SOL     OW25465   5.178   5.252   2.928
 8189SOL    HW125466   5.083   5.224   2.938
 8189SOL    HW225467   5.224   5.193   2.861
 8190SOL     OW25468   4.895   4.041   4.241
 8190SOL    HW125469   4.798   4.049   4.263
 8190SOL    HW225470   4.916   3.945   4.220
 8191SOL     OW25471   3.674   5.703   1.755
 8191SOL    HW125472   3.704   5.749   1.838
 8191SOL    HW225473   3.581   5.730   1.733
 8192SOL     OW25474   2.817   5.338   1.797
 8192SOL    HW125475   2.913   5.326   1.822
 8192SOL    HW225476   2.810   5.355   1.698
 8193SOL     OW25477   5.652   5.716   5.863
 8193SOL    HW125478   5.577   5.775   5.833
 8193SOL    HW225479   5.615   5.642   5.920
 8194SOL     OW25480   4.877   1.386   0.668
 8194SOL    HW125481   4.938   1.444   0.614
 8194SOL    HW225482   4.833   1.319   0.608
 8195SOL     OW25483   0.888   6.665   3.205
 8195SOL    HW125484   0.881   6.755   3.249
 8195SOL    HW225485   0.822   6.602   3.246
 8196SOL     OW25486   3.784   6.307   6.596
 8196SOL    HW125487   3.688   6.281   6.608
 8196SOL    HW225488   3.843   6.234   6.628
 8197SOL     OW25489   3.653   1.359   0.182
 8197SOL    HW125490   3.615   1.356   0.274
 8197SOL    HW225491   3.662   1.266   0.146
 8198SOL     OW25492   3.500   6.291   2.756
 8198SOL    HW125493   3.464   6.285   2.849
 8198SOL    HW225494   3.592   6.330   2.758
 8199SOL     OW25495   5.829   2.539   6.127
 8199SOL    HW125496   5.898   2.588   6.181
 8199SOL    HW225497   5.850   2.441   6.127
 8200SOL     OW25498   5.884   4.662   2.034
 8200SOL    HW125499   5.965   4.671   1.975
 8200SOL    HW225500   5.813   4.611   1.985
 8201SOL     OW25501   5.541   0.687   5.171
 8201SOL    HW125502   5.498   0.777   5.178
 8201SOL    HW225503   5.630   0.696   5.127
 8202SOL     OW25504   0.195   5.521   4.026
 8202SOL    HW125505   0.219   5.613   4.056
 8202SOL    HW225506   0.278   5.471   4.001
 8203SOL     OW25507   2.891   2.101   6.954
 8203SOL    HW125508   2.931   2.189   6.928
 8203SOL    HW225509   2.875   2.046   6.871
 8204SOL     OW25510   3.826   4.956   6.884
 8204SOL    HW125511   3.774   4.876   6.853
 8204SOL    HW225512   3.813   4.967   6.983
 8205SOL     OW25513   0.299   4.476   0.339
 8205SOL    HW125514   0.398   4.462   0.344
 8205SOL    HW225515   0.268   4.464   0.245
 8206SOL     OW25516   5.234   2.043   6.405
 8206SOL    HW125517   5.220   1.989   6.488
 8206SOL    HW225518   5.154   2.102   6.390
 8207SOL     OW25519   2.896   3.451   4.458
 8207SOL    HW125520   2.945   3.377   4.413
 8207SOL    HW225521   2.907   3.444   4.557
 8208SOL     OW25522   1.263   6.842   1.697
 8208SOL    HW125523   1.257   6.936   1.729
 8208SOL    HW225524   1.355   6.806   1.714
 8209SOL     OW25525   1.028   1.149   4.849
 8209SOL    HW125526   1.064   1.084   4.916
 8209SOL    HW225527   1.103   1.190   4.797
 8210SOL     OW25528   2.324   1.212   0.916
 8210SOL    HW125529   2.396   1.166   0.864
 8210SOL    HW225530   2.243   1.223   0.858
 8211SOL     OW25531   3.899   4.270   1.722
 8211SOL    HW125532   3.912   4.265   1.822
 8211SOL    HW225533   3.831   4.340   1.701
 8212SOL     OW25534   2.098   2.508   2.095
 8212SOL    HW125535   2.131   2.601   2.115
 8212SOL    HW225536   2.170   2.456   2.049
 8213SOL     OW25537   6.794   4.146   1.781
 8213SOL    HW125538   6.743   4.106   1.705
 8213SOL    HW225539   6.785   4.088   1.862
 8214SOL     OW25540   5.891   5.990   4.228
 8214SOL    HW125541   5.987   5.965   4.220
 8214SOL    HW225542   5.846   5.977   4.140
 8215SOL     OW25543   2.779   5.353   5.850
 8215SOL    HW125544   2.751   5.257   5.855
 8215SOL    HW225545   2.775   5.384   5.755
 8216SOL     OW25546   5.315   5.124   3.798
 8216SOL    HW125547   5.414   5.120   3.782
 8216SOL    HW225548   5.267   5.084   3.721
 8217SOL     OW25549   1.754   4.115   0.199
 8217SOL    HW125550   1.797   4.197   0.235
 8217SOL    HW225551   1.663   4.137   0.163
 8218SOL     OW25552   0.566   0.113   5.785
 8218SOL    HW125553   0.607   0.045   5.724
 8218SOL    HW225554   0.479   0.078   5.820
 8219SOL     OW25555   4.405   2.610   0.625
 8219SOL    HW125556   4.468   2.580   0.696
 8219SOL    HW225557   4.456   2.644   0.547
 8220SOL     OW25558   3.500   2.832   3.352
 8220SOL    HW125559   3.474   2.842   3.448
 8220SOL    HW225560   3.441   2.765   3.308
 8221SOL     OW25561   5.898   6.564   3.441
 8221SOL    HW125562   5.920   6.633   3.372
 8221SOL    HW225563   5.854   6.485   3.397
 8222SOL     OW25564   5.806   1.657   1.392
 8222SOL    HW125565   5.739   1.684   1.322
 8222SOL    HW225566   5.898   1.657   1.352
 8223SOL     OW25567   0.729   4.698   5.455
 8223SOL    HW125568   0.694   4.731   5.543
 8223SOL    HW225569   0.820   4.661   5.467
 8224SOL     OW25570   6.060   0.900   2.642
 8224SOL    HW125571   5.975   0.891   2.694
 8224SOL    HW225572   6.056   0.843   2.561
 8225SOL     OW25573   2.957   1.381   1.003
 8225SOL    HW125574   2.887   1.328   1.050
 8225SOL    HW225575   2.946   1.478   1.024
 8226SOL     OW25576   4.006   0.554   0.628
 8226SOL    HW125577   4.067   0.567   0.550
 8226SOL    HW225578   3.962   0.465   0.622
 8227SOL     OW25579   6.686   1.559   3.032
 8227SOL    HW125580   6.656   1.506   3.111
 8227SOL    HW225581   6.762   1.513   2.987
 8228SOL     OW25582   6.558   1.637   5.735
 8228SOL    HW125583   6.627   1.621   5.806
 8228SOL    HW225584   6.590   1.710   5.674
 8229SOL     OW25585   4.627   2.833   0.748
 8229SOL    HW125586   4.650   2.756   0.687
 8229SOL    HW225587   4.675   2.822   0.835
 8230SOL     OW25588   4.061   0.249   5.337
 8230SOL    HW125589   4.018   0.167   5.373
 8230SOL    HW225590   4.133   0.279   5.399
 8231SOL     OW25591   2.673   4.078   1.229
 8231SOL    HW125592   2.582   4.119   1.220
 8231SOL    HW225593   2.664   3.979   1.237
 8232SOL     OW25594   5.021   1.648   1.616
 8232SOL    HW125595   5.003   1.577   1.685
 8232SOL    HW225596   4.948   1.717   1.620
 8233SOL     OW25597   1.593   5.947   6.246
 8233SOL    HW125598   1.631   5.855   6.236
 8233SOL    HW225599   1.635   6.007   6.177
 8234SOL     OW25600   2.785   3.999   6.633
 8234SOL    HW125601   2.694   3.992   6.674
 8234SOL    HW225602   2.780   3.979   6.535
 8235SOL     OW25603   0.369   3.085   0.130
 8235SOL    HW125604   0.418   3.026   0.195
 8235SOL    HW225605   0.340   3.168   0.176
 8236SOL     OW25606   0.577   4.993   0.430
 8236SOL    HW125607   0.539   5.024   0.342
 8236SOL    HW225608   0.623   5.069   0.475
 8237SOL     OW25609   4.227   6.558   4.117
 8237SOL    HW125610   4.250   6.461   4.116
 8237SOL    HW225611   4.129   6.569   4.136
 8238SOL     OW25612   0.455   5.195   6.148
 8238SOL    HW125613   0.378   5.172   6.089
 8238SOL    HW225614   0.525   5.123   6.141
 8239SOL     OW25615   6.935   0.708   5.801
 8239SOL    HW125616   6.955   0.797   5.842
 8239SOL    HW225617   6.886   0.722   5.714
 8240SOL     OW25618   3.393   4.155   2.494
 8240SOL    HW125619   3.404   4.246   2.534
 8240SOL    HW225620   3.470   4.097   2.522
 8241SOL     OW25621   4.077   6.624   5.691
 8241SOL    HW125622   4.088   6.534   5.735
 8241SOL    HW225623   4.161   6.677   5.704
 8242SOL     OW25624   0.590   4.660   6.242
 8242SOL    HW125625   0.505   4.646   6.192
 8242SOL    HW225626   0.643   4.575   6.244
 8243SOL     OW25627   0.084   2.695   0.341
 8243SOL    HW125628   0.057   2.615   0.288
 8243SOL    HW225629   0.171   2.730   0.306
 8244SOL     OW25630   0.210   0.347   3.982
 8244SOL    HW125631   0.273   0.416   3.945
 8244SOL    HW225632   0.230   0.333   4.079
 8245SOL     OW25633   3.773   1.894   2.436
 8245SOL    HW125634   3.849   1.833   2.413
 8245SOL    HW225635   3.808   1.986   2.453
 8246SOL     OW25636   1.225   3.105   5.831
 8246SOL    HW125637   1.149   3.144   5.883
 8246SOL    HW225638   1.236   3.156   5.746
 8247SOL     OW25639   1.863   0.248   2.283
 8247SOL    HW125640   1.960   0.270   2.276
 8247SOL    HW225641   1.851   0.168   2.342
 8248SOL     OW25642   6.394   5.641   4.730
 8248SOL    HW125643   6.450   5.625   4.650
 8248SOL    HW225644   6.370   5.553   4.772
 8249SOL     OW25645   1.748   2.554   5.983
 8249SOL    HW125646   1.675   2.597   6.036
 8249SOL    HW225647   1.714   2.469   5.942
 8250SOL     OW25648   3.063   3.807   2.006
 8250SOL    HW125649   3.051   3.899   2.042
 8250SOL    HW225650   3.048   3.740   2.079
 8251SOL     OW25651   4.960   3.448   3.995
 8251SOL    HW125652   4.915   3.389   4.062
 8251SOL    HW225653   4.946   3.410   3.903
 8252SOL     OW25654   2.823   1.750   5.172
 8252SOL    HW125655   2.779   1.830   5.131
 8252SOL    HW225656   2.880   1.779   5.250
 8253SOL     OW25657   4.102   4.900   5.476
 8253SOL    HW125658   4.039   4.869   5.404
 8253SOL    HW225659   4.103   4.834   5.551
 8254SOL     OW25660   4.602   4.395   5.127
 8254SOL    HW125661   4.656   4.323   5.084
 8254SOL    HW225662   4.505   4.371   5.121
 8255SOL     OW25663   2.082   0.367   5.230
 8255SOL    HW125664   2.033   0.418   5.160
 8255SOL    HW225665   2.130   0.290   5.187
 8256SOL     OW25666   6.622   6.448   1.937
 8256SOL    HW125667   6.603   6.392   1.856
 8256SOL    HW225668   6.572   6.534   1.931
 8257SOL     OW25669   5.176   4.327   2.858
 8257SOL    HW125670   5.270   4.354   2.878
 8257SOL    HW225671   5.164   4.319   2.759
 8258SOL     OW25672   5.536   1.930   0.781
 8258SOL    HW125673   5.616   1.919   0.840
 8258SOL    HW225674   5.553   2.002   0.714
 8259SOL     OW25675   3.967   1.721   4.250
 8259SOL    HW125676   4.008   1.786   4.314
 8259SOL    HW225677   3.980   1.628   4.284
 8260SOL     OW25678   2.105   6.836   1.041
 8260SOL    HW125679   2.042   6.913   1.041
 8260SOL    HW225680   2.055   6.751   1.027
 8261SOL     OW25681   6.263   6.507   1.959
 8261SOL    HW125682   6.341   6.541   2.010
 8261SOL    HW225683   6.248   6.564   1.879
 8262SOL     OW25684   1.142   3.068   0.386
 8262SOL    HW125685   1.124   2.991   0.447
 8262SOL    HW225686   1.060   3.088   0.333
 8263SOL     OW25687   0.288   2.593   6.038
 8263SOL    HW125688   0.388   2.605   6.038
 8263SOL    HW225689   0.253   2.604   5.945
 8264SOL     OW25690   2.257   6.274   2.177
 8264SOL    HW125691   2.286   6.354   2.125
 8264SOL    HW225692   2.244   6.300   2.273
 8265SOL     OW25693   6.660   0.619   1.117
 8265SOL    HW125694   6.614   0.548   1.170
 8265SOL    HW225695   6.698   0.580   1.034
 8266SOL     OW25696   2.359   1.465   3.565
 8266SOL    HW125697   2.341   1.561   3.588
 8266SOL    HW225698   2.326   1.446   3.473
 8267SOL     OW25699   1.886   3.620   0.922
 8267SOL    HW125700   1.795   3.638   0.959
 8267SOL    HW225701   1.955   3.652   0.987
 8268SOL     OW25702   1.867   6.679   5.606
 8268SOL    HW125703   1.778   6.633   5.615
 8268SOL    HW225704   1.929   6.644   5.675
 8269SOL     OW25705   4.448   0.982   2.252
 8269SOL    HW125706   4.348   0.980   2.250
 8269SOL    HW225707   4.479   1.058   2.309
 8270SOL     OW25708   3.109   6.536   5.176
 8270SOL    HW125709   3.153   6.593   5.246
 8270SOL    HW225710   3.011   6.550   5.178
 8271SOL     OW25711   0.649   0.473   3.603
 8271SOL    HW125712   0.727   0.493   3.663
 8271SOL    HW225713   0.568   0.522   3.635
 8272SOL     OW25714   5.770   2.043   2.378
 8272SOL    HW125715   5.742   2.129   2.336
 8272SOL    HW225716   5.766   2.051   2.478
 8273SOL     OW25717   2.533   1.074   0.380
 8273SOL    HW125718   2.572   1.009   0.315
 8273SOL    HW225719   2.588   1.157   0.383
 8274SOL     OW25720   5.051   4.689   4.170
 8274SOL    HW125721   5.037   4.770   4.112
 8274SOL    HW225722   4.983   4.619   4.147
 8275SOL     OW25723   6.238   0.875   5.078
 8275SOL    HW125724   6.149   0.913   5.103
 8275SOL    HW225725   6.307   0.948   5.080
 8276SOL     OW25726   0.664   2.624   3.941
 8276SOL    HW125727   0.749   2.672   3.920
 8276SOL    HW225728   0.601   2.685   3.988
 8277SOL     OW25729   0.380   6.066   6.309
 8277SOL    HW125730   0.383   6.157   6.352
 8277SOL    HW225731   0.410   5.997   6.375
 8278SOL     OW25732   3.279   1.411   6.302
 8278SOL    HW125733   3.200   1.366   6.260
 8278SOL    HW225734   3.255   1.506   6.323
 8279SOL     OW25735   1.416   6.181   4.873
 8279SOL    HW125736   1.460   6.249   4.814
 8279SOL    HW225737   1.382   6.225   4.956
 8280SOL     OW25738   2.200   3.325   0.074
 8280SOL    HW125739   2.158   3.266   0.144
 8280SOL    HW225740   2.234   3.268   7.018
 8281SOL     OW25741   3.156   4.175   1.817
 8281SOL    HW125742   3.142   4.103   1.885
 8281SOL    HW225743   3.067   4.209   1.785
 8282SOL     OW25744   4.345   3.703   0.132
 8282SOL    HW125745   4.419   3.676   0.194
 8282SOL    HW225746   4.334   3.802   0.135
 8283SOL     OW25747   1.861   5.179   5.456
 8283SOL    HW125748   1.788   5.222   5.509
 8283SOL    HW225749   1.821   5.113   5.393
 8284SOL     OW25750   0.857   3.765   1.095
 8284SOL    HW125751   0.933   3.750   1.032
 8284SOL    HW225752   0.771   3.764   1.044
 8285SOL     OW25753   3.283   3.993   5.332
 8285SOL    HW125754   3.184   3.998   5.347
 8285SOL    HW225755   3.330   4.050   5.398
 8286SOL     OW25756   5.682   1.933   5.459
 8286SOL    HW125757   5.781   1.925   5.469
 8286SOL    HW225758   5.643   1.976   5.540
 8287SOL     OW25759   1.176   5.222   4.477
 8287SOL    HW125760   1.158   5.209   4.575
 8287SOL    HW225761   1.225   5.308   4.464
 8288SOL     OW25762   3.085   2.141   1.901
 8288SOL    HW125763   3.138   2.101   1.976
 8288SOL    HW225764   3.018   2.205   1.938
 8289SOL     OW25765   0.561   6.295   0.422
 8289SOL    HW125766   0.576   6.206   0.379
 8289SOL    HW225767   0.516   6.282   0.511
 8290SOL     OW25768   5.033   1.440   0.899
 8290SOL    HW125769   5.120   1.484   0.878
 8290SOL    HW225770   4.987   1.413   0.814
 8291SOL     OW25771   4.434   6.261   4.777
 8291SOL    HW125772   4.528   6.291   4.794
 8291SOL    HW225773   4.371   6.336   4.799
 8292SOL     OW25774   3.051   6.740   6.943
 8292SOL    HW125775   3.124   6.672   6.930
 8292SOL    HW225776   3.062   6.784   0.013
 8293SOL     OW25777   2.469   5.322   0.451
 8293SOL    HW125778   2.446   5.372   0.534
 8293SOL    HW225779   2.470   5.386   0.373
 8294SOL     OW25780   5.478   3.344   5.414
 8294SOL    HW125781   5.467   3.254   5.457
 8294SOL    HW225782   5.563   3.386   5.446
 8295SOL     OW25783   4.958   5.194   1.571
 8295SOL    HW125784   5.036   5.173   1.631
 8295SOL    HW225785   4.921   5.283   1.597
 8296SOL     OW25786   1.803   4.239   6.499
 8296SOL    HW125787   1.863   4.236   6.579
 8296SOL    HW225788   1.837   4.175   6.430
 8297SOL     OW25789   0.165   3.460   2.441
 8297SOL    HW125790   0.121   3.545   2.411
 8297SOL    HW225791   0.096   3.388   2.451
 8298SOL     OW25792   6.149   1.176   1.198
 8298SOL    HW125793   6.081   1.247   1.182
 8298SOL    HW225794   6.239   1.209   1.170
 8299SOL     OW25795   0.044   2.309   2.667
 8299SOL    HW125796   7.007   2.299   2.585
 8299SOL    HW225797   0.009   2.250   2.739
 8300SOL     OW25798   0.317   5.401   4.295
 8300SOL    HW125799   0.388   5.472   4.289
 8300SOL    HW225800   0.299   5.364   4.203
 8301SOL     OW25801   3.617   1.680   0.962
 8301SOL    HW125802   3.570   1.646   0.880
 8301SOL    HW225803   3.562   1.750   1.006
 8302SOL     OW25804   5.463   6.829   6.537
 8302SOL    HW125805   5.552   6.784   6.547
 8302SOL    HW225806   5.391   6.764   6.560
 8303SOL     OW25807   6.291   0.706   3.625
 8303SOL    HW125808   6.322   0.627   3.679
 8303SOL    HW225809   6.370   0.761   3.599
 8304SOL     OW25810   6.551   3.093   1.264
 8304SOL    HW125811   6.463   3.086   1.311
 8304SOL    HW225812   6.534   3.097   1.165
 8305SOL     OW25813   4.957   4.855   3.981
 8305SOL    HW125814   4.876   4.821   3.935
 8305SOL    HW225815   4.961   4.954   3.974
 8306SOL     OW25816   5.532   1.679   5.447
 8306SOL    HW125817   5.510   1.627   5.530
 8306SOL    HW225818   5.584   1.761   5.471
 8307SOL     OW25819   3.392   5.388   1.782
 8307SOL    HW125820   3.456   5.415   1.854
 8307SOL    HW225821   3.383   5.288   1.782
 8308SOL     OW25822   3.270   5.220   1.247
 8308SOL    HW125823   3.184   5.173   1.266
 8308SOL    HW225824   3.346   5.160   1.273
 8309SOL     OW25825   6.939   5.520   4.125
 8309SOL    HW125826   6.937   5.443   4.189
 8309SOL    HW225827   0.014   5.535   4.094
 8310SOL     OW25828   0.425   5.589   1.333
 8310SOL    HW125829   0.447   5.672   1.282
 8310SOL    HW225830   0.360   5.534   1.281
 8311SOL     OW25831   0.929   1.951   4.900
 8311SOL    HW125832   0.898   1.994   4.815
 8311SOL    HW225833   1.000   1.884   4.879
 8312SOL     OW25834   5.069   0.206   0.054
 8312SOL    HW125835   5.007   0.201   6.994
 8312SOL    HW225836   5.148   0.262   0.031
 8313SOL     OW25837   5.103   6.776   0.497
 8313SOL    HW125838   5.027   6.717   0.521
 8313SOL    HW225839   5.117   6.774   0.398
 8314SOL     OW25840   4.925   0.455   0.195
 8314SOL    HW125841   4.902   0.374   0.249
 8314SOL    HW225842   5.009   0.496   0.231
 8315SOL     OW25843   4.462   3.106   1.026
 8315SOL    HW125844   4.547   3.124   0.976
 8315SOL    HW225845   4.384   3.113   0.964
 8316SOL     OW25846   1.296   2.064   1.793
 8316SOL    HW125847   1.350   1.981   1.807
 8316SOL    HW225848   1.288   2.083   1.695
 8317SOL     OW25849   1.466   3.054   2.520
 8317SOL    HW125850   1.489   3.089   2.610
 8317SOL    HW225851   1.439   3.129   2.461
 8318SOL     OW25852   4.481   1.645   5.759
 8318SOL    HW125853   4.535   1.708   5.814
 8318SOL    HW225854   4.407   1.607   5.814
 8319SOL     OW25855   1.536   2.205   0.847
 8319SOL    HW125856   1.469   2.270   0.885
 8319SOL    HW225857   1.547   2.128   0.910
 8320SOL     OW25858   3.106   3.617   2.409
 8320SOL    HW125859   3.069   3.664   2.489
 8320SOL    HW225860   3.171   3.547   2.439
 8321SOL     OW25861   6.811   6.971   6.339
 8321SOL    HW125862   6.868   6.972   6.257
 8321SOL    HW225863   6.755   6.888   6.339
 8322SOL     OW25864   6.399   0.043   1.326
 8322SOL    HW125865   6.383   0.133   1.364
 8322SOL    HW225866   6.458   0.051   1.245
 8323SOL     OW25867   5.488   5.614   2.023
 8323SOL    HW125868   5.581   5.646   2.040
 8323SOL    HW225869   5.426   5.656   2.090
 8324SOL     OW25870   5.569   6.363   1.271
 8324SOL    HW125871   5.635   6.288   1.269
 8324SOL    HW225872   5.578   6.418   1.187
 8325SOL     OW25873   2.202   3.899   5.325
 8325SOL    HW125874   2.278   3.922   5.266
 8325SOL    HW225875   2.157   3.816   5.292
 8326SOL     OW25876   5.046   3.435   5.546
 8326SOL    HW125877   4.965   3.476   5.503
 8326SOL    HW225878   5.017   3.375   5.620
 8327SOL     OW25879   6.213   0.821   5.890
 8327SOL    HW125880   6.142   0.859   5.950
 8327SOL    HW225881   6.293   0.881   5.892
 8328SOL     OW25882   3.050   6.427   6.111
 8328SOL    HW125883   3.056   6.365   6.033
 8328SOL    HW225884   2.980   6.497   6.094
 8329SOL     OW25885   1.489   3.036   5.984
 8329SOL    HW125886   1.400   3.074   5.958
 8329SOL    HW225887   1.555   3.110   5.993
 8330SOL     OW25888   2.421   1.564   6.873
 8330SOL    HW125889   2.395   1.543   6.967
 8330SOL    HW225890   2.384   1.653   6.847
 8331SOL     OW25891   3.090   0.789   1.203
 8331SOL    HW125892   3.053   0.801   1.111
 8331SOL    HW225893   3.046   0.854   1.265
 8332SOL     OW25894   5.094   5.320   2.181
 8332SOL    HW125895   5.182   5.355   2.148
 8332SOL    HW225896   5.023   5.337   2.112
 8333SOL     OW25897   0.161   6.002   6.181
 8333SOL    HW125898   0.246   6.022   6.229
 8333SOL    HW225899   0.084   6.033   6.236
 8334SOL     OW25900   4.114   0.855   4.264
 8334SOL    HW125901   4.146   0.880   4.173
 8334SOL    HW225902   4.168   0.903   4.333
 8335SOL     OW25903   5.202   0.129   0.265
 8335SOL    HW125904   5.140   0.090   0.334
 8335SOL    HW225905   5.153   0.138   0.178
 8336SOL     OW25906   0.250   4.789   2.980
 8336SOL    HW125907   0.292   4.727   2.914
 8336SOL    HW225908   0.182   4.739   3.034
 8337SOL     OW25909   2.275   6.381   3.245
 8337SOL    HW125910   2.257   6.472   3.207
 8337SOL    HW225911   2.365   6.380   3.288
 8338SOL     OW25912   3.839   5.394   2.190
 8338SOL    HW125913   3.937   5.394   2.172
 8338SOL    HW225914   3.819   5.336   2.269
 8339SOL     OW25915   6.379   0.233   1.809
 8339SOL    HW125916   6.357   0.175   1.730
 8339SOL    HW225917   6.454   0.295   1.784
 8340SOL     OW25918   4.646   3.189   0.822
 8340SOL    HW125919   4.697   3.250   0.883
 8340SOL    HW225920   4.708   3.152   0.753
 8341SOL     OW25921   2.882   6.807   0.250
 8341SOL    HW125922   2.809   6.749   0.215
 8341SOL    HW225923   2.864   6.830   0.346
 8342SOL     OW25924   4.125   6.555   0.893
 8342SOL    HW125925   4.156   6.610   0.816
 8342SOL    HW225926   4.026   6.567   0.906
 8343SOL     OW25927   1.843   5.566   5.215
 8343SOL    HW125928   1.844   5.635   5.142
 8343SOL    HW225929   1.780   5.492   5.190
 8344SOL     OW25930   4.647   5.746   4.980
 8344SOL    HW125931   4.685   5.670   4.927
 8344SOL    HW225932   4.552   5.726   5.004
 8345SOL     OW25933   4.474   1.182   2.488
 8345SOL    HW125934   4.553   1.240   2.465
 8345SOL    HW225935   4.390   1.234   2.476
 8346SOL     OW25936   3.638   5.410   0.210
 8346SOL    HW125937   3.557   5.363   0.177
 8346SOL    HW225938   3.647   5.396   0.309
 8347SOL     OW25939   3.578   5.538   4.168
 8347SOL    HW125940   3.647   5.468   4.153
 8347SOL    HW225941   3.515   5.540   4.090
 8348SOL     OW25942   2.774   0.429   1.891
 8348SOL    HW125943   2.751   0.396   1.983
 8348SOL    HW225944   2.693   0.425   1.833
 8349SOL     OW25945   5.893   6.257   1.564
 8349SOL    HW125946   5.847   6.317   1.499
 8349SOL    HW225947   5.886   6.297   1.656
 8350SOL     OW25948   3.420   6.962   6.066
 8350SOL    HW125949   3.434   6.865   6.082
 8350SOL    HW225950   3.365   7.001   6.139
 8351SOL     OW25951   5.626   5.136   4.033
 8351SOL    HW125952   5.598   5.092   3.948
 8351SOL    HW225953   5.638   5.066   4.104
 8352SOL     OW25954   0.867   0.296   3.469
 8352SOL    HW125955   0.908   0.241   3.542
 8352SOL    HW225956   0.827   0.379   3.509
 8353SOL     OW25957   6.888   3.476   1.752
 8353SOL    HW125958   6.911   3.531   1.833
 8353SOL    HW225959   6.895   3.379   1.775
 8354SOL     OW25960   4.514   6.714   5.501
 8354SOL    HW125961   4.529   6.626   5.545
 8354SOL    HW225962   4.425   6.713   5.454
 8355SOL     OW25963   2.420   1.013   5.874
 8355SOL    HW125964   2.380   0.929   5.912
 8355SOL    HW225965   2.456   1.069   5.949
 8356SOL     OW25966   0.998   0.001   0.903
 8356SOL    HW125967   1.071   6.974   0.953
 8356SOL    HW225968   1.015   0.099   0.901
 8357SOL     OW25969   3.927   6.850   4.701
 8357SOL    HW125970   4.016   6.880   4.668
 8357SOL    HW225971   3.856   6.879   4.637
 8358SOL     OW25972   1.398   4.494   5.359
 8358SOL    HW125973   1.319   4.441   5.328
 8358SOL    HW225974   1.415   4.569   5.295
 8359SOL     OW25975   3.160   0.608   4.940
 8359SOL    HW125976   3.143   0.599   4.842
 8359SOL    HW225977   3.132   0.524   4.987
 8360SOL     OW25978   3.597   6.527   0.911
 8360SOL    HW125979   3.569   6.434   0.887
 8360SOL    HW225980   3.538   6.563   0.983
 8361SOL     OW25981   3.069   0.205   2.497
 8361SOL    HW125982   3.138   0.257   2.548
 8361SOL    HW225983   2.985   0.259   2.492
 8362SOL     OW25984   4.115   2.331   0.556
 8362SOL    HW125985   4.065   2.255   0.515
 8362SOL    HW225986   4.053   2.408   0.571
 8363SOL     OW25987   6.678   2.590   6.272
 8363SOL    HW125988   6.765   2.585   6.321
 8363SOL    HW225989   6.663   2.504   6.223
 8364SOL     OW25990   1.334   2.513   3.400
 8364SOL    HW125991   1.318   2.482   3.306
 8364SOL    HW225992   1.275   2.462   3.462
 8365SOL     OW25993   1.786   3.790   1.811
 8365SOL    HW125994   1.814   3.701   1.775
 8365SOL    HW225995   1.778   3.855   1.736
 8366SOL     OW25996   1.897   6.017   2.189
 8366SOL    HW125997   1.913   6.033   2.287
 8366SOL    HW225998   1.845   5.933   2.176
 8367SOL     OW25999   4.062   5.595   4.649
 8367SOL    HW126000   4.118   5.652   4.709
 8367SOL    HW226001   3.999   5.654   4.597
 8368SOL     OW26002   2.228   5.647   6.309
 8368SOL    HW126003   2.137   5.634   6.269
 8368SOL    HW226004   2.219   5.668   6.407
 8369SOL     OW26005   1.714   6.798   6.211
 8369SOL    HW126006   1.693   6.890   6.244
 8369SOL    HW226007   1.685   6.790   6.116
 8370SOL     OW26008   3.085   1.786   6.016
 8370SOL    HW126009   3.146   1.862   5.995
 8370SOL    HW226010   3.062   1.737   5.932
 8371SOL     OW26011   2.248   4.449   1.128
 8371SOL    HW126012   2.287   4.541   1.117
 8371SOL    HW226013   2.236   4.430   1.226
 8372SOL     OW26014   1.499   5.170   1.861
 8372SOL    HW126015   1.517   5.263   1.831
 8372SOL    HW226016   1.405   5.145   1.836
 8373SOL     OW26017   1.727   0.285   3.976
 8373SOL    HW126018   1.771   0.353   4.034
 8373SOL    HW226019   1.721   0.198   4.024
 8374SOL     OW26020   0.113   0.602   5.042
 8374SOL    HW126021   0.077   0.520   5.087
 8374SOL    HW226022   0.124   0.675   5.110
 8375SOL     OW26023   3.504   6.324   4.979
 8375SOL    HW126024   3.494   6.226   4.997
 8375SOL    HW226025   3.418   6.370   5.002
 8376SOL     OW26026   1.237   0.801   4.469
 8376SOL    HW126027   1.158   0.860   4.484
 8376SOL    HW226028   1.319   0.843   4.510
 8377SOL     OW26029   4.704   6.321   0.809
 8377SOL    HW126030   4.720   6.222   0.818
 8377SOL    HW226031   4.737   6.367   0.891
 8378SOL     OW26032   4.405   5.593   2.629
 8378SOL    HW126033   4.317   5.586   2.676
 8378SOL    HW226034   4.445   5.502   2.620
 8379SOL     OW26035   5.752   2.696   1.201
 8379SOL    HW126036   5.789   2.699   1.108
 8379SOL    HW226037   5.653   2.713   1.198
 8380SOL     OW26038   0.142   0.502   2.654
 8380SOL    HW126039   0.094   0.470   2.573
 8380SOL    HW226040   0.075   0.523   2.726
 8381SOL     OW26041   0.059   2.978   5.018
 8381SOL    HW126042   0.033   3.067   5.056
 8381SOL    HW226043   0.154   2.958   5.042
 8382SOL     OW26044   3.031   0.560   3.124
 8382SOL    HW126045   3.127   0.588   3.130
 8382SOL    HW226046   2.987   0.607   3.048
 8383SOL     OW26047   2.873   0.199   5.983
 8383SOL    HW126048   2.869   0.154   5.894
 8383SOL    HW226049   2.968   0.208   6.012
 8384SOL     OW26050   6.324   0.617   1.178
 8384SOL    HW126051   6.313   0.566   1.263
 8384SOL    HW226052   6.383   0.566   1.116
 8385SOL     OW26053   5.961   2.035   0.858
 8385SOL    HW126054   6.060   2.039   0.867
 8385SOL    HW226055   5.935   2.067   0.766
 8386SOL     OW26056   2.120   5.943   2.388
 8386SOL    HW126057   2.047   5.875   2.378
 8386SOL    HW226058   2.202   5.911   2.341
 8387SOL     OW26059   1.632   1.376   1.924
 8387SOL    HW126060   1.534   1.370   1.906
 8387SOL    HW226061   1.649   1.361   2.022
 8388SOL     OW26062   2.206   6.364   0.454
 8388SOL    HW126063   2.164   6.446   0.413
 8388SOL    HW226064   2.200   6.370   0.553
 8389SOL     OW26065   0.479   3.824   2.282
 8389SOL    HW126066   0.528   3.747   2.242
 8389SOL    HW226067   0.403   3.790   2.337
 8390SOL     OW26068   4.360   1.260   6.687
 8390SOL    HW126069   4.397   1.174   6.654
 8390SOL    HW226070   4.357   1.259   6.787
 8391SOL     OW26071   6.301   5.162   0.879
 8391SOL    HW126072   6.265   5.255   0.879
 8391SOL    HW226073   6.392   5.162   0.922
 8392SOL     OW26074   6.307   3.833   4.639
 8392SOL    HW126075   6.282   3.930   4.638
 8392SOL    HW226076   6.270   3.790   4.722
 8393SOL     OW26077   0.737   6.553   2.895
 8393SOL    HW126078   0.829   6.586   2.876
 8393SOL    HW226079   0.709   6.489   2.822
 8394SOL     OW26080   6.446   2.592   1.425
 8394SOL    HW126081   6.378   2.555   1.363
 8394SOL    HW226082   6.537   2.581   1.386
 8395SOL     OW26083   2.592   7.015   4.994
 8395SOL    HW126084   2.576   0.082   4.946
 8395SOL    HW226085   2.663   6.963   4.947
 8396SOL     OW26086   5.064   5.282   2.453
 8396SOL    HW126087   5.095   5.275   2.358
 8396SOL    HW226088   4.967   5.304   2.454
 8397SOL     OW26089   1.663   0.387   2.454
 8397SOL    HW126090   1.588   0.352   2.511
 8397SOL    HW226091   1.727   0.313   2.434
 8398SOL     OW26092   4.070   1.743   6.576
 8398SOL    HW126093   4.044   1.751   6.672
 8398SOL    HW226094   4.112   1.653   6.561
 8399SOL     OW26095   5.887   6.813   6.715
 8399SOL    HW126096   5.960   6.880   6.723
 8399SOL    HW226097   5.885   6.756   6.798
 8400SOL     OW26098   2.019   0.966   4.489
 8400SOL    HW126099   2.042   1.063   4.484
 8400SOL    HW226100   1.932   0.955   4.537
 8401SOL     OW26101   1.991   1.753   5.419
 8401SOL    HW126102   2.030   1.699   5.345
 8401SOL    HW226103   2.064   1.806   5.463
 8402SOL     OW26104   4.664   1.830   5.913
 8402SOL    HW126105   4.655   1.928   5.925
 8402SOL    HW226106   4.753   1.809   5.872
 8403SOL     OW26107   0.559   2.851   4.707
 8403SOL    HW126108   0.643   2.873   4.757
 8403SOL    HW226109   0.497   2.929   4.708
 8404SOL     OW26110   4.020   6.967   5.818
 8404SOL    HW126111   4.098   0.004   5.845
 8404SOL    HW226112   3.938   0.004   5.816
 8405SOL     OW26113   1.670   1.083   5.537
 8405SOL    HW126114   1.625   1.141   5.469
 8405SOL    HW226115   1.715   1.141   5.605
 8406SOL     OW26116   4.582   0.631   0.533
 8406SOL    HW126117   4.539   0.721   0.525
 8406SOL    HW226118   4.517   0.567   0.572
 8407SOL     OW26119   3.481   6.954   3.526
 8407SOL    HW126120   3.527   6.902   3.598
 8407SOL    HW226121   3.389   6.978   3.555
 8408SOL     OW26122   6.225   3.981   1.304
 8408SOL    HW126123   6.258   3.998   1.211
 8408SOL    HW226124   6.164   3.901   1.304
 8409SOL     OW26125   5.551   2.083   3.132
 8409SOL    HW126126   5.489   2.023   3.081
 8409SOL    HW226127   5.545   2.176   3.096
 8410SOL     OW26128   5.514   0.680   1.830
 8410SOL    HW126129   5.465   0.754   1.784
 8410SOL    HW226130   5.560   0.716   1.911
 8411SOL     OW26131   1.202   5.029   0.046
 8411SOL    HW126132   1.158   5.007   0.133
 8411SOL    HW226133   1.184   5.125   0.022
 8412SOL     OW26134   3.697   1.760   1.503
 8412SOL    HW126135   3.713   1.787   1.408
 8412SOL    HW226136   3.625   1.817   1.542
 8413SOL     OW26137   3.660   5.779   6.613
 8413SOL    HW126138   3.620   5.733   6.533
 8413SOL    HW226139   3.599   5.769   6.691
 8414SOL     OW26140   4.157   5.759   4.002
 8414SOL    HW126141   4.120   5.712   4.082
 8414SOL    HW226142   4.086   5.818   3.964
 8415SOL     OW26143   6.904   6.102   3.988
 8415SOL    HW126144   6.920   6.192   4.029
 8415SOL    HW226145   6.818   6.104   3.937
 8416SOL     OW26146   5.904   3.230   2.780
 8416SOL    HW126147   5.970   3.203   2.709
 8416SOL    HW226148   5.943   3.213   2.870
 8417SOL     OW26149   1.004   4.112   5.912
 8417SOL    HW126150   0.946   4.120   5.994
 8417SOL    HW226151   1.071   4.039   5.926
 8418SOL     OW26152   5.377   5.107   1.093
 8418SOL    HW126153   5.324   5.175   1.042
 8418SOL    HW226154   5.397   5.142   1.184
 8419SOL     OW26155   5.727   7.014   1.887
 8419SOL    HW126156   5.768   0.029   1.972
 8419SOL    HW226157   5.709   0.072   1.826
 8420SOL     OW26158   4.344   0.040   6.556
 8420SOL    HW126159   4.353   0.065   6.460
 8420SOL    HW226160   4.287   0.107   6.603
 8421SOL     OW26161   2.652   5.307   6.744
 8421SOL    HW126162   2.730   5.369   6.753
 8421SOL    HW226163   2.681   5.226   6.692
 8422SOL     OW26164   4.295   1.303   1.687
 8422SOL    HW126165   4.348   1.317   1.771
 8422SOL    HW226166   4.330   1.361   1.615
 8423SOL     OW26167   3.073   4.932   5.794
 8423SOL    HW126168   3.108   4.964   5.882
 8423SOL    HW226169   3.089   5.001   5.724
 8424SOL     OW26170   2.155   2.017   2.395
 8424SOL    HW126171   2.065   1.981   2.372
 8424SOL    HW226172   2.151   2.117   2.402
 8425SOL     OW26173   4.801   4.871   5.817
 8425SOL    HW126174   4.819   4.931   5.895
 8425SOL    HW226175   4.867   4.796   5.817
 8426SOL     OW26176   3.423   3.124   3.359
 8426SOL    HW126177   3.399   3.034   3.322
 8426SOL    HW226178   3.516   3.121   3.395
 8427SOL     OW26179   3.697   4.126   4.952
 8427SOL    HW126180   3.754   4.045   4.964
 8427SOL    HW226181   3.677   4.166   5.041
 8428SOL     OW26182   1.002   5.819   1.468
 8428SOL    HW126183   0.964   5.871   1.544
 8428SOL    HW226184   0.977   5.723   1.477
 8429SOL     OW26185   1.015   6.087   4.378
 8429SOL    HW126186   1.069   6.016   4.424
 8429SOL    HW226187   1.077   6.152   4.334
 8430SOL     OW26188   3.608   5.444   3.277
 8430SOL    HW126189   3.537   5.454   3.347
 8430SOL    HW226190   3.565   5.437   3.187
 8431SOL     OW26191   3.067   4.261   0.723
 8431SOL    HW126192   3.092   4.348   0.766
 8431SOL    HW226193   3.000   4.277   0.651
 8432SOL     OW26194   6.130   6.325   5.820
 8432SOL    HW126195   6.123   6.264   5.741
 8432SOL    HW226196   6.139   6.420   5.788
 8433SOL     OW26197   5.030   2.724   0.459
 8433SOL    HW126198   5.123   2.711   0.423
 8433SOL    HW226199   5.031   2.711   0.558
 8434SOL     OW26200   2.809   0.093   4.645
 8434SOL    HW126201   2.824   0.106   4.743
 8434SOL    HW226202   2.892   0.116   4.594
 8435SOL     OW26203   6.134   0.685   1.475
 8435SOL    HW126204   6.075   0.698   1.395
 8435SOL    HW226205   6.079   0.694   1.559
 8436SOL     OW26206   3.276   6.403   3.442
 8436SOL    HW126207   3.211   6.388   3.368
 8436SOL    HW226208   3.309   6.315   3.477
 8437SOL     OW26209   2.398   1.529   4.250
 8437SOL    HW126210   2.360   1.447   4.293
 8437SOL    HW226211   2.361   1.538   4.157
 8438SOL     OW26212   2.148   5.000   2.606
 8438SOL    HW126213   2.168   4.945   2.687
 8438SOL    HW226214   2.207   5.081   2.606
 8439SOL     OW26215   5.913   4.876   2.644
 8439SOL    HW126216   5.985   4.930   2.601
 8439SOL    HW226217   5.944   4.782   2.657
 8440SOL     OW26218   1.694   1.907   3.458
 8440SOL    HW126219   1.762   1.979   3.468
 8440SOL    HW226220   1.699   1.844   3.536
 8441SOL     OW26221   5.828   6.728   0.196
 8441SOL    HW126222   5.862   6.799   0.257
 8441SOL    HW226223   5.857   6.748   0.102
 8442SOL     OW26224   3.418   1.933   4.984
 8442SOL    HW126225   3.482   1.859   5.005
 8442SOL    HW226226   3.414   1.997   5.060
 8443SOL     OW26227   2.172   4.638   3.542
 8443SOL    HW126228   2.205   4.630   3.637
 8443SOL    HW226229   2.077   4.669   3.542
 8444SOL     OW26230   3.272   6.293   3.937
 8444SOL    HW126231   3.275   6.210   3.880
 8444SOL    HW226232   3.355   6.346   3.923
 8445SOL     OW26233   3.339   6.915   1.238
 8445SOL    HW126234   3.271   6.958   1.297
 8445SOL    HW226235   3.421   6.895   1.291
 8446SOL     OW26236   4.692   5.333   6.767
 8446SOL    HW126237   4.631   5.375   6.835
 8446SOL    HW226238   4.785   5.331   6.802
 8447SOL     OW26239   5.071   1.942   2.132
 8447SOL    HW126240   5.001   1.934   2.061
 8447SOL    HW226241   5.096   1.850   2.165
 8448SOL     OW26242   4.360   5.375   3.971
 8448SOL    HW126243   4.312   5.363   4.058
 8448SOL    HW226244   4.424   5.299   3.957
 8449SOL     OW26245   0.075   2.922   3.599
 8449SOL    HW126246   0.103   2.914   3.503
 8449SOL    HW226247   0.140   2.874   3.656
 8450SOL     OW26248   0.265   6.922   1.094
 8450SOL    HW126249   0.266   6.853   1.166
 8450SOL    HW226250   0.232   6.880   1.009
 8451SOL     OW26251   3.569   1.740   0.150
 8451SOL    HW126252   3.544   1.820   0.097
 8451SOL    HW226253   3.497   1.671   0.143
 8452SOL     OW26254   6.064   1.722   2.684
 8452SOL    HW126255   6.092   1.736   2.779
 8452SOL    HW226256   6.076   1.807   2.633
 8453SOL     OW26257   0.400   4.462   6.867
 8453SOL    HW126258   0.304   4.461   6.840
 8453SOL    HW226259   0.457   4.437   6.789
 8454SOL     OW26260   6.803   6.506   1.537
 8454SOL    HW126261   6.711   6.547   1.533
 8454SOL    HW226262   6.862   6.564   1.592
 8455SOL     OW26263   6.803   2.010   1.801
 8455SOL    HW126264   6.845   1.924   1.830
 8455SOL    HW226265   6.741   2.043   1.872
 8456SOL     OW26266   4.038   5.760   3.321
 8456SOL    HW126267   4.022   5.669   3.358
 8456SOL    HW226268   4.100   5.810   3.382
 8457SOL     OW26269   6.861   6.667   4.952
 8457SOL    HW126270   6.904   6.584   4.988
 8457SOL    HW226271   6.920   6.707   4.882
 8458SOL     OW26272   3.225   0.491   7.010
 8458SOL    HW126273   3.189   0.405   6.975
 8458SOL    HW226274   3.165   0.567   6.982
 8459SOL     OW26275   2.534   5.882   2.142
 8459SOL    HW126276   2.526   5.945   2.219
 8459SOL    HW226277   2.570   5.930   2.062
 8460SOL     OW26278   4.143   4.255   5.282
 8460SOL    HW126279   4.199   4.326   5.239
 8460SOL    HW226280   4.070   4.227   5.221
 8461SOL     OW26281   1.125   3.992   4.763
 8461SOL    HW126282   1.048   4.042   4.803
 8461SOL    HW226283   1.129   4.010   4.665
 8462SOL     OW26284   2.358   2.823   6.701
 8462SOL    HW126285   2.376   2.800   6.796
 8462SOL    HW226286   2.424   2.775   6.642
 8463SOL     OW26287   6.918   6.714   1.194
 8463SOL    HW126288   7.008   6.721   1.237
 8463SOL    HW226289   6.904   6.792   1.132
 8464SOL     OW26290   5.787   3.717   3.849
 8464SOL    HW126291   5.749   3.643   3.904
 8464SOL    HW226292   5.719   3.747   3.783
 8465SOL     OW26293   0.869   3.338   0.636
 8465SOL    HW126294   0.898   3.243   0.646
 8465SOL    HW226295   0.810   3.363   0.712
 8466SOL     OW26296   0.738   6.315   3.810
 8466SOL    HW126297   0.651   6.362   3.823
 8466SOL    HW226298   0.734   6.225   3.855
 8467SOL     OW26299   3.650   6.985   6.836
 8467SOL    HW126300   3.561   6.950   6.806
 8467SOL    HW226301   3.718   6.969   6.765
 8468SOL     OW26302   3.796   1.808   6.575
 8468SOL    HW126303   3.755   1.764   6.655
 8468SOL    HW226304   3.892   1.782   6.567
 8469SOL     OW26305   2.996   1.759   6.740
 8469SOL    HW126306   3.062   1.761   6.815
 8469SOL    HW226307   2.934   1.682   6.751
 8470SOL     OW26308   1.131   4.426   0.136
 8470SOL    HW126309   1.067   4.430   0.059
 8470SOL    HW226310   1.094   4.368   0.208
 8471SOL     OW26311   3.392   1.284   3.057
 8471SOL    HW126312   3.360   1.189   3.057
 8471SOL    HW226313   3.355   1.331   3.138
 8472SOL     OW26314   6.880   0.928   4.580
 8472SOL    HW126315   6.924   0.925   4.670
 8472SOL    HW226316   6.945   0.895   4.510
 8473SOL     OW26317   6.273   5.902   6.830
 8473SOL    HW126318   6.203   5.969   6.805
 8473SOL    HW226319   6.357   5.921   6.780
 8474SOL     OW26320   3.262   3.437   2.203
 8474SOL    HW126321   3.213   3.351   2.217
 8474SOL    HW226322   3.291   3.473   2.292
 8475SOL     OW26323   0.897   2.250   3.194
 8475SOL    HW126324   0.984   2.228   3.237
 8475SOL    HW226325   0.907   2.245   3.094
 8476SOL     OW26326   6.541   1.933   0.885
 8476SOL    HW126327   6.476   1.967   0.817
 8476SOL    HW226328   6.624   1.988   0.882
 8477SOL     OW26329   4.682   6.894   1.674
 8477SOL    HW126330   4.605   6.857   1.726
 8477SOL    HW226331   4.735   6.956   1.733
 8478SOL     OW26332   1.186   0.332   6.074
 8478SOL    HW126333   1.145   0.255   6.123
 8478SOL    HW226334   1.270   0.360   6.121
 8479SOL     OW26335   6.776   2.888   1.262
 8479SOL    HW126336   6.699   2.950   1.248
 8479SOL    HW226337   6.819   2.866   1.174
 8480SOL     OW26338   4.502   1.470   0.069
 8480SOL    HW126339   4.474   1.566   0.081
 8480SOL    HW226340   4.600   1.462   0.083
 8481SOL     OW26341   4.818   1.840   3.377
 8481SOL    HW126342   4.732   1.810   3.418
 8481SOL    HW226343   4.819   1.815   3.280
 8482SOL     OW26344   4.659   5.663   2.165
 8482SOL    HW126345   4.647   5.757   2.130
 8482SOL    HW226346   4.570   5.617   2.165
 8483SOL     OW26347   4.038   6.326   2.039
 8483SOL    HW126348   3.959   6.290   2.089
 8483SOL    HW226349   4.029   6.426   2.030
 8484SOL     OW26350   0.678   5.660   2.958
 8484SOL    HW126351   0.647   5.569   2.933
 8484SOL    HW226352   0.624   5.693   3.036
 8485SOL     OW26353   3.113   3.053   0.415
 8485SOL    HW126354   3.187   3.028   0.353
 8485SOL    HW226355   3.053   3.120   0.371
 8486SOL     OW26356   4.226   1.147   2.822
 8486SOL    HW126357   4.226   1.139   2.922
 8486SOL    HW226358   4.246   1.057   2.782
 8487SOL     OW26359   5.358   1.841   6.249
 8487SOL    HW126360   5.285   1.778   6.223
 8487SOL    HW226361   5.320   1.916   6.303
 8488SOL     OW26362   5.993   5.221   5.552
 8488SOL    HW126363   5.945   5.137   5.580
 8488SOL    HW226364   6.085   5.221   5.591
 8489SOL     OW26365   6.802   1.113   1.002
 8489SOL    HW126366   6.895   1.090   0.974
 8489SOL    HW226367   6.750   1.029   1.019
 8490SOL     OW26368   4.102   6.779   4.342
 8490SOL    HW126369   4.077   6.871   4.310
 8490SOL    HW226370   4.036   6.713   4.307
 8491SOL     OW26371   1.757   6.912   0.760
 8491SOL    HW126372   1.739   6.815   0.739
 8491SOL    HW226373   1.672   6.964   0.752
 8492SOL     OW26374   4.515   4.242   6.459
 8492SOL    HW126375   4.563   4.320   6.420
 8492SOL    HW226376   4.499   4.173   6.388
 8493SOL     OW26377   2.707   2.278   6.378
 8493SOL    HW126378   2.750   2.302   6.291
 8493SOL    HW226379   2.710   2.179   6.391
 8494SOL     OW26380   3.060   4.447   1.272
 8494SOL    HW126381   3.088   4.353   1.254
 8494SOL    HW226382   3.050   4.496   1.186
 8495SOL     OW26383   6.567   4.565   1.401
 8495SOL    HW126384   6.488   4.504   1.410
 8495SOL    HW226385   6.639   4.520   1.349
 8496SOL     OW26386   0.908   1.801   2.316
 8496SOL    HW126387   0.917   1.702   2.306
 8496SOL    HW226388   0.889   1.842   2.227
 8497SOL     OW26389   6.386   1.143   3.609
 8497SOL    HW126390   6.455   1.213   3.593
 8497SOL    HW226391   6.310   1.156   3.545
 8498SOL     OW26392   0.652   6.138   2.986
 8498SOL    HW126393   0.581   6.164   2.921
 8498SOL    HW226394   0.742   6.149   2.944
 8499SOL     OW26395   2.493   4.809   6.294
 8499SOL    HW126396   2.580   4.764   6.274
 8499SOL    HW226397   2.503   4.863   6.378
 8500SOL     OW26398   2.414   6.606   5.246
 8500SOL    HW126399   2.451   6.532   5.301
 8500SOL    HW226400   2.421   6.692   5.296
 8501SOL     OW26401   0.655   1.635   6.898
 8501SOL    HW126402   0.641   1.564   6.829
 8501SOL    HW226403   0.705   1.597   6.976
 8502SOL     OW26404   2.126   4.854   1.210
 8502SOL    HW126405   2.199   4.818   1.151
 8502SOL    HW226406   2.166   4.901   1.288
 8503SOL     OW26407   1.378   6.969   3.931
 8503SOL    HW126408   1.317   0.025   3.906
 8503SOL    HW226409   1.422   6.988   4.018
 8504SOL     OW26410   3.073   5.274   3.087
 8504SOL    HW126411   3.023   5.360   3.100
 8504SOL    HW226412   3.158   5.277   3.139
 8505SOL     OW26413   4.819   3.896   3.680
 8505SOL    HW126414   4.818   3.797   3.694
 8505SOL    HW226415   4.784   3.916   3.588
 8506SOL     OW26416   6.254   1.238   0.171
 8506SOL    HW126417   6.226   1.331   0.148
 8506SOL    HW226418   6.333   1.213   0.115
 8507SOL     OW26419   3.545   1.178   5.423
 8507SOL    HW126420   3.565   1.244   5.351
 8507SOL    HW226421   3.570   1.216   5.512
 8508SOL     OW26422   6.378   1.779   4.855
 8508SOL    HW126423   6.317   1.703   4.875
 8508SOL    HW226424   6.410   1.773   4.760
 8509SOL     OW26425   4.567   1.783   3.540
 8509SOL    HW126426   4.546   1.808   3.445
 8509SOL    HW226427   4.544   1.688   3.556
 8510SOL     OW26428   5.564   4.851   3.155
 8510SOL    HW126429   5.636   4.799   3.109
 8510SOL    HW226430   5.596   4.880   3.245
 8511SOL     OW26431   6.459   4.050   1.424
 8511SOL    HW126432   6.368   4.019   1.395
 8511SOL    HW226433   6.528   4.012   1.361
 8512SOL     OW26434   3.440   2.044   1.300
 8512SOL    HW126435   3.469   2.080   1.389
 8512SOL    HW226436   3.514   1.991   1.259
 8513SOL     OW26437   4.803   3.970   1.916
 8513SOL    HW126438   4.830   3.878   1.947
 8513SOL    HW226439   4.830   4.037   1.985
 8514SOL     OW26440   2.821   2.262   3.839
 8514SOL    HW126441   2.733   2.221   3.815
 8514SOL    HW226442   2.811   2.317   3.922
 8515SOL     OW26443   5.482   1.124   0.172
 8515SOL    HW126444   5.415   1.094   0.104
 8515SOL    HW226445   5.453   1.093   0.263
 8516SOL     OW26446   6.636   1.396   1.482
 8516SOL    HW126447   6.576   1.473   1.462
 8516SOL    HW226448   6.583   1.312   1.484
 8517SOL     OW26449   1.299   3.414   6.980
 8517SOL    HW126450   1.385   3.428   6.931
 8517SOL    HW226451   1.238   3.359   6.923
 8518SOL     OW26452   5.081   4.298   6.719
 8518SOL    HW126453   5.093   4.350   6.804
 8518SOL    HW226454   5.171   4.267   6.686
 8519SOL     OW26455   0.822   4.094   1.325
 8519SOL    HW126456   0.812   3.996   1.345
 8519SOL    HW226457   0.799   4.110   1.229
 8520SOL     OW26458   3.477   3.494   0.407
 8520SOL    HW126459   3.492   3.397   0.386
 8520SOL    HW226460   3.453   3.543   0.323
 8521SOL     OW26461   2.246   5.272   5.744
 8521SOL    HW126462   2.203   5.211   5.678
 8521SOL    HW226463   2.275   5.220   5.824
 8522SOL     OW26464   1.340   6.172   1.241
 8522SOL    HW126465   1.284   6.101   1.284
 8522SOL    HW226466   1.288   6.257   1.238
 8523SOL     OW26467   2.036   6.611   6.762
 8523SOL    HW126468   2.014   6.709   6.767
 8523SOL    HW226469   2.015   6.568   6.850
 8524SOL     OW26470   0.238   2.756   5.544
 8524SOL    HW126471   0.249   2.826   5.473
 8524SOL    HW226472   0.255   2.666   5.505
 8525SOL     OW26473   6.029   4.366   1.925
 8525SOL    HW126474   5.952   4.320   1.881
 8525SOL    HW226475   6.101   4.299   1.944
 8526SOL     OW26476   4.296   6.510   6.670
 8526SOL    HW126477   4.295   6.541   6.575
 8526SOL    HW226478   4.241   6.573   6.726
 8527SOL     OW26479   2.746   1.224   6.380
 8527SOL    HW126480   2.739   1.277   6.295
 8527SOL    HW226481   2.655   1.213   6.420
 8528SOL     OW26482   3.399   1.519   0.064
 8528SOL    HW126483   3.464   1.445   0.046
 8528SOL    HW226484   3.306   1.485   0.050
 8529SOL     OW26485   0.993   0.265   0.936
 8529SOL    HW126486   0.987   0.296   0.841
 8529SOL    HW226487   1.078   0.297   0.976
 8530SOL     OW26488   3.751   4.112   5.743
 8530SOL    HW126489   3.666   4.059   5.741
 8530SOL    HW226490   3.785   4.124   5.649
 8531SOL     OW26491   6.388   5.055   2.579
 8531SOL    HW126492   6.482   5.079   2.555
 8531SOL    HW226493   6.386   5.018   2.671
 8532SOL     OW26494   4.089   4.894   4.745
 8532SOL    HW126495   4.137   4.982   4.744
 8532SOL    HW226496   4.047   4.880   4.834
 8533SOL     OW26497   1.053   7.012   6.617
 8533SOL    HW126498   1.115   0.069   6.637
 8533SOL    HW226499   0.975   0.027   6.565
 8534SOL     OW26500   6.492   2.962   3.689
 8534SOL    HW126501   6.495   2.940   3.786
 8534SOL    HW226502   6.581   2.944   3.647
 8535SOL     OW26503   6.216   1.715   3.956
 8535SOL    HW126504   6.192   1.618   3.965
 8535SOL    HW226505   6.283   1.740   4.026
 8536SOL     OW26506   0.175   2.475   4.761
 8536SOL    HW126507   0.089   2.480   4.812
 8536SOL    HW226508   0.244   2.532   4.806
 8537SOL     OW26509   4.916   0.782   2.659
 8537SOL    HW126510   4.991   0.720   2.635
 8537SOL    HW226511   4.840   0.728   2.695
 8538SOL     OW26512   0.546   0.913   6.975
 8538SOL    HW126513   0.569   1.006   7.003
 8538SOL    HW226514   0.457   0.887   7.013
 8539SOL     OW26515   5.308   0.683   2.534
 8539SOL    HW126516   5.317   0.676   2.633
 8539SOL    HW226517   5.309   0.779   2.507
 8540SOL     OW26518   4.881   0.170   6.233
 8540SOL    HW126519   4.794   0.190   6.188
 8540SOL    HW226520   4.918   0.084   6.199
 8541SOL     OW26521   2.626   1.599   4.405
 8541SOL    HW126522   2.610   1.677   4.465
 8541SOL    HW226523   2.545   1.585   4.347
 8542SOL     OW26524   4.045   4.703   0.142
 8542SOL    HW126525   3.952   4.666   0.135
 8542SOL    HW226526   4.111   4.633   0.118
 8543SOL     OW26527   2.931   0.794   0.981
 8543SOL    HW126528   2.992   0.826   0.908
 8543SOL    HW226529   2.865   0.729   0.943
 8544SOL     OW26530   5.610   2.909   4.359
 8544SOL    HW126531   5.674   2.986   4.357
 8544SOL    HW226532   5.519   2.942   4.383
 8545SOL     OW26533   4.598   6.919   5.380
 8545SOL    HW126534   4.694   6.944   5.389
 8545SOL    HW226535   4.582   6.830   5.423
 8546SOL     OW26536   6.752   1.712   3.823
 8546SOL    HW126537   6.709   1.652   3.891
 8546SOL    HW226538   6.821   1.661   3.773
 8547SOL     OW26539   1.992   6.855   5.991
 8547SOL    HW126540   2.050   6.936   5.986
 8547SOL    HW226541   1.926   6.857   5.915
 8548SOL     OW26542   5.957   2.119   5.310
 8548SOL    HW126543   6.005   2.111   5.223
 8548SOL    HW226544   5.989   2.047   5.372
 8549SOL     OW26545   1.560   2.905   3.925
 8549SOL    HW126546   1.636   2.890   3.988
 8549SOL    HW226547   1.584   2.977   3.860
 8550SOL     OW26548   1.649   4.677   0.047
 8550SOL    HW126549   1.716   4.603   0.036
 8550SOL    HW226550   1.677   4.755   7.012
 8551SOL     OW26551   3.550   3.538   6.538
 8551SOL    HW126552   3.580   3.573   6.449
 8551SOL    HW226553   3.454   3.562   6.552
 8552SOL     OW26554   2.035   0.673   4.228
 8552SOL    HW126555   1.939   0.690   4.251
 8552SOL    HW226556   2.071   0.752   4.178
 8553SOL     OW26557   4.512   4.366   0.306
 8553SOL    HW126558   4.454   4.286   0.296
 8553SOL    HW226559   4.602   4.337   0.340
 8554SOL     OW26560   0.799   4.412   0.773
 8554SOL    HW126561   0.824   4.478   0.844
 8554SOL    HW226562   0.872   4.343   0.765
 8555SOL     OW26563   2.199   1.261   2.679
 8555SOL    HW126564   2.255   1.316   2.741
 8555SOL    HW226565   2.102   1.275   2.701
 8556SOL     OW26566   1.653   6.233   5.251
 8556SOL    HW126567   1.701   6.299   5.308
 8556SOL    HW226568   1.577   6.193   5.303
 8557SOL     OW26569   5.855   0.093   3.074
 8557SOL    HW126570   5.888   0.066   2.983
 8557SOL    HW226571   5.826   0.012   3.124
 8558SOL     OW26572   3.376   4.964   3.418
 8558SOL    HW126573   3.294   4.969   3.475
 8558SOL    HW226574   3.351   4.928   3.328
 8559SOL     OW26575   0.453   0.740   2.815
 8559SOL    HW126576   0.512   0.699   2.746
 8559SOL    HW226577   0.451   0.839   2.804
 8560SOL     OW26578   6.590   6.212   2.080
 8560SOL    HW126579   6.621   6.292   2.029
 8560SOL    HW226580   6.593   6.132   2.020
 8561SOL     OW26581   3.072   0.995   2.361
 8561SOL    HW126582   3.039   1.070   2.304
 8561SOL    HW226583   3.150   0.951   2.317
 8562SOL     OW26584   3.374   5.376   5.675
 8562SOL    HW126585   3.298   5.403   5.734
 8562SOL    HW226586   3.433   5.455   5.659
 8563SOL     OW26587   1.957   4.283   6.732
 8563SOL    HW126588   1.980   4.376   6.761
 8563SOL    HW226589   1.910   4.235   6.806
 8564SOL     OW26590   3.071   1.014   4.549
 8564SOL    HW126591   3.105   1.031   4.457
 8564SOL    HW226592   3.014   1.090   4.578
 8565SOL     OW26593   4.144   5.471   1.036
 8565SOL    HW126594   4.125   5.505   1.128
 8565SOL    HW226595   4.133   5.545   0.970
 8566SOL     OW26596   1.723   0.966   1.385
 8566SOL    HW126597   1.683   0.875   1.377
 8566SOL    HW226598   1.716   0.997   1.480
 8567SOL     OW26599   0.525   2.205   2.680
 8567SOL    HW126600   0.616   2.238   2.704
 8567SOL    HW226601   0.520   2.191   2.581
 8568SOL     OW26602   5.540   1.076   6.344
 8568SOL    HW126603   5.475   1.136   6.390
 8568SOL    HW226604   5.510   0.981   6.352
 8569SOL     OW26605   5.234   1.319   6.024
 8569SOL    HW126606   5.155   1.283   5.974
 8569SOL    HW226607   5.219   1.307   6.122
 8570SOL     OW26608   1.166   2.533   4.960
 8570SOL    HW126609   1.099   2.595   4.919
 8570SOL    HW226610   1.126   2.442   4.969
 8571SOL     OW26611   1.413   5.602   5.425
 8571SOL    HW126612   1.373   5.641   5.507
 8571SOL    HW226613   1.470   5.671   5.379
 8572SOL     OW26614   2.922   4.779   6.961
 8572SOL    HW126615   2.999   4.797   6.899
 8572SOL    HW226616   2.849   4.734   6.911
 8573SOL     OW26617   3.586   6.501   5.938
 8573SOL    HW126618   3.500   6.473   5.980
 8573SOL    HW226619   3.614   6.589   5.975
 8574SOL     OW26620   6.841   5.401   5.333
 8574SOL    HW126621   6.841   5.415   5.234
 8574SOL    HW226622   6.787   5.473   5.377
 8575SOL     OW26623   2.749   2.320   5.017
 8575SOL    HW126624   2.764   2.378   5.097
 8575SOL    HW226625   2.821   2.250   5.013
 8576SOL     OW26626   1.519   4.881   6.737
 8576SOL    HW126627   1.455   4.955   6.760
 8576SOL    HW226628   1.604   4.894   6.787
 8577SOL     OW26629   6.895   6.366   4.105
 8577SOL    HW126630   6.818   6.376   4.168
 8577SOL    HW226631   6.862   6.376   4.011
 8578SOL     OW26632   5.573   1.148   4.643
 8578SOL    HW126633   5.510   1.110   4.575
 8578SOL    HW226634   5.665   1.110   4.628
 8579SOL     OW26635   1.297   0.136   2.723
 8579SOL    HW126636   1.267   0.214   2.778
 8579SOL    HW226637   1.381   0.098   2.762
 8580SOL     OW26638   2.729   6.356   2.376
 8580SOL    HW126639   2.711   6.290   2.303
 8580SOL    HW226640   2.646   6.370   2.430
 8581SOL     OW26641   3.325   3.898   2.231
 8581SOL    HW126642   3.350   3.816   2.180
 8581SOL    HW226643   3.338   3.881   2.329
 8582SOL     OW26644   4.483   4.574   3.095
 8582SOL    HW126645   4.483   4.476   3.078
 8582SOL    HW226646   4.577   4.608   3.099
 8583SOL     OW26647   5.539   0.634   4.688
 8583SOL    HW126648   5.526   0.563   4.757
 8583SOL    HW226649   5.476   0.709   4.705
 8584SOL     OW26650   0.782   4.019   5.740
 8584SOL    HW126651   0.858   4.070   5.779
 8584SOL    HW226652   0.810   3.976   5.654
 8585SOL     OW26653   0.506   5.877   6.439
 8585SOL    HW126654   0.509   5.847   6.343
 8585SOL    HW226655   0.595   5.917   6.464
 8586SOL     OW26656   2.901   0.417   2.811
 8586SOL    HW126657   2.940   0.509   2.806
 8586SOL    HW226658   2.945   0.367   2.886
 8587SOL     OW26659   2.001   6.729   3.870
 8587SOL    HW126660   1.914   6.709   3.826
 8587SOL    HW226661   1.999   6.822   3.909
 8588SOL     OW26662   2.533   0.889   0.112
 8588SOL    HW126663   2.447   0.859   0.155
 8588SOL    HW226664   2.607   0.882   0.179
 8589SOL     OW26665   5.053   2.639   4.943
 8589SOL    HW126666   5.105   2.553   4.935
 8589SOL    HW226667   5.021   2.649   5.037
 8590SOL     OW26668   0.265   6.234   3.864
 8590SOL    HW126669   0.317   6.150   3.851
 8590SOL    HW226670   0.227   6.236   3.956
 8591SOL     OW26671   6.639   4.239   0.180
 8591SOL    HW126672   6.639   4.336   0.203
 8591SOL    HW226673   6.728   4.199   0.202
 8592SOL     OW26674   6.968   2.688   6.916
 8592SOL    HW126675   0.047   2.687   6.933
 8592SOL    HW226676   6.918   2.675   7.002
 8593SOL     OW26677   2.960   6.906   1.133
 8593SOL    HW126678   2.860   6.904   1.133
 8593SOL    HW226679   2.993   6.918   1.039
 8594SOL     OW26680   4.103   2.828   5.536
 8594SOL    HW126681   4.018   2.777   5.519
 8594SOL    HW226682   4.105   2.856   5.632
 8595SOL     OW26683   1.283   2.948   3.277
 8595SOL    HW126684   1.207   2.921   3.218
 8595SOL    HW226685   1.350   2.874   3.280
 8596SOL     OW26686   6.711   5.005   3.748
 8596SOL    HW126687   6.737   5.014   3.844
 8596SOL    HW226688   6.709   4.908   3.724
 8597SOL     OW26689   4.367   1.054   0.670
 8597SOL    HW126690   4.423   1.056   0.753
 8597SOL    HW226691   4.348   1.148   0.640
 8598SOL     OW26692   6.367   6.455   0.811
 8598SOL    HW126693   6.330   6.456   0.904
 8598SOL    HW226694   6.378   6.361   0.781
 8599SOL     OW26695   1.056   2.725   4.376
 8599SOL    HW126696   1.032   2.638   4.418
 8599SOL    HW226697   0.973   2.774   4.349
 8600SOL     OW26698   4.999   5.437   5.977
 8600SOL    HW126699   5.002   5.440   5.877
 8600SOL    HW226700   5.069   5.374   6.011
 8601SOL     OW26701   1.042   0.672   4.884
 8601SOL    HW126702   1.103   0.743   4.851
 8601SOL    HW226703   0.948   0.693   4.856
 8602SOL     OW26704   3.296   5.285   3.244
 8602SOL    HW126705   3.293   5.264   3.341
 8602SOL    HW226706   3.378   5.245   3.203
 8603SOL     OW26707   3.904   5.622   0.468
 8603SOL    HW126708   3.905   5.534   0.514
 8603SOL    HW226709   3.875   5.609   0.373
 8604SOL     OW26710   0.470   3.212   3.469
 8604SOL    HW126711   0.521   3.234   3.386
 8604SOL    HW226712   0.485   3.116   3.493
 8605SOL     OW26713   3.036   5.560   4.755
 8605SOL    HW126714   3.119   5.576   4.701
 8605SOL    HW226715   2.956   5.569   4.696
 8606SOL     OW26716   1.910   3.221   5.808
 8606SOL    HW126717   1.828   3.253   5.761
 8606SOL    HW226718   1.935   3.131   5.772
 8607SOL     OW26719   3.622   6.106   1.115
 8607SOL    HW126720   3.601   6.159   1.198
 8607SOL    HW226721   3.720   6.111   1.097
 8608SOL     OW26722   4.249   5.522   2.933
 8608SOL    HW126723   4.223   5.592   3.000
 8608SOL    HW226724   4.337   5.483   2.958
 8609SOL     OW26725   5.890   1.092   3.328
 8609SOL    HW126726   5.896   1.102   3.427
 8609SOL    HW226727   5.827   1.017   3.305
 8610SOL     OW26728   1.657   2.155   2.618
 8610SOL    HW126729   1.700   2.220   2.681
 8610SOL    HW226730   1.576   2.197   2.577
 8611SOL     OW26731   2.915   1.765   4.350
 8611SOL    HW126732   2.935   1.784   4.254
 8611SOL    HW226733   2.878   1.673   4.358
 8612SOL     OW26734   3.573   3.251   1.121
 8612SOL    HW126735   3.499   3.266   1.187
 8612SOL    HW226736   3.610   3.339   1.091
 8613SOL     OW26737   2.222   1.964   1.151
 8613SOL    HW126738   2.225   1.920   1.241
 8613SOL    HW226739   2.244   2.061   1.160
 8614SOL     OW26740   1.227   3.469   2.324
 8614SOL    HW126741   1.156   3.401   2.341
 8614SOL    HW226742   1.189   3.544   2.270
 8615SOL     OW26743   4.730   1.766   5.101
 8615SOL    HW126744   4.682   1.853   5.087
 8615SOL    HW226745   4.800   1.754   5.031
 8616SOL     OW26746   3.105   4.660   1.798
 8616SOL    HW126747   3.040   4.586   1.815
 8616SOL    HW226748   3.074   4.743   1.846
 8617SOL     OW26749   6.963   1.177   6.380
 8617SOL    HW126750   7.012   1.156   6.464
 8617SOL    HW226751   6.896   1.249   6.398
 8618SOL     OW26752   6.435   6.189   0.750
 8618SOL    HW126753   6.488   6.111   0.783
 8618SOL    HW226754   6.356   6.156   0.699
 8619SOL     OW26755   3.792   4.855   2.416
 8619SOL    HW126756   3.745   4.887   2.498
 8619SOL    HW226757   3.743   4.887   2.335
 8620SOL     OW26758   0.846   0.446   4.018
 8620SOL    HW126759   0.943   0.456   4.041
 8620SOL    HW226760   0.799   0.532   4.033
 8621SOL     OW26761   5.702   1.550   2.857
 8621SOL    HW126762   5.709   1.644   2.823
 8621SOL    HW226763   5.611   1.514   2.837
 8622SOL     OW26764   4.602   2.735   0.446
 8622SOL    HW126765   4.589   2.682   0.362
 8622SOL    HW226766   4.678   2.697   0.499
 8623SOL     OW26767   0.879   3.395   3.647
 8623SOL    HW126768   0.797   3.392   3.704
 8623SOL    HW226769   0.958   3.363   3.700
 8624SOL     OW26770   0.786   3.437   4.686
 8624SOL    HW126771   0.867   3.472   4.733
 8624SOL    HW226772   0.801   3.342   4.659
 8625SOL     OW26773   4.272   0.031   5.893
 8625SOL    HW126774   4.351   6.989   5.885
 8625SOL    HW226775   4.302   0.126   5.882
 8626SOL     OW26776   4.034   3.171   5.660
 8626SOL    HW126777   3.947   3.142   5.620
 8626SOL    HW226778   4.076   3.095   5.708
 8627SOL     OW26779   0.393   1.547   3.427
 8627SOL    HW126780   0.339   1.617   3.381
 8627SOL    HW226781   0.361   1.537   3.521
 8628SOL     OW26782   6.271   6.085   1.168
 8628SOL    HW126783   6.349   6.136   1.133
 8628SOL    HW226784   6.272   5.993   1.129
 8629SOL     OW26785   1.019   4.737   5.249
 8629SOL    HW126786   0.997   4.828   5.213
 8629SOL    HW226787   0.970   4.722   5.334
 8630SOL     OW26788   5.481   4.560   3.371
 8630SOL    HW126789   5.500   4.464   3.350
 8630SOL    HW226790   5.566   4.605   3.398
 8631SOL     OW26791   2.386   5.853   6.265
 8631SOL    HW126792   2.467   5.805   6.300
 8631SOL    HW226793   2.308   5.790   6.263
 8632SOL     OW26794   3.738   6.449   3.720
 8632SOL    HW126795   3.775   6.424   3.631
 8632SOL    HW226796   3.754   6.375   3.785
 8633SOL     OW26797   5.251   2.112   4.839
 8633SOL    HW126798   5.283   2.064   4.920
 8633SOL    HW226799   5.170   2.066   4.803
 8634SOL     OW26800   5.629   3.237   0.091
 8634SOL    HW126801   5.545   3.276   0.055
 8634SOL    HW226802   5.625   3.137   0.086
 8635SOL     OW26803   5.494   4.376   6.411
 8635SOL    HW126804   5.413   4.402   6.464
 8635SOL    HW226805   5.488   4.416   6.319
 8636SOL     OW26806   5.104   5.783   0.441
 8636SOL    HW126807   5.056   5.700   0.469
 8636SOL    HW226808   5.199   5.780   0.474
 8637SOL     OW26809   2.177   0.988   0.228
 8637SOL    HW126810   2.133   0.925   0.163
 8637SOL    HW226811   2.227   1.058   0.178
 8638SOL     OW26812   2.938   2.961   6.790
 8638SOL    HW126813   2.892   2.957   6.879
 8638SOL    HW226814   2.894   2.898   6.727
 8639SOL     OW26815   5.427   2.308   1.871
 8639SOL    HW126816   5.338   2.343   1.899
 8639SOL    HW226817   5.451   2.229   1.928
 8640SOL     OW26818   4.603   3.784   0.714
 8640SOL    HW126819   4.650   3.742   0.636
 8640SOL    HW226820   4.668   3.794   0.790
 8641SOL     OW26821   5.905   5.156   4.506
 8641SOL    HW126822   5.889   5.157   4.605
 8641SOL    HW226823   5.825   5.195   4.460
 8642SOL     OW26824   2.665   0.143   3.034
 8642SOL    HW126825   2.759   0.150   3.068
 8642SOL    HW226826   2.631   0.234   3.014
 8643SOL     OW26827   3.018   0.637   6.452
 8643SOL    HW126828   2.984   0.647   6.358
 8643SOL    HW226829   2.952   0.678   6.515
 8644SOL     OW26830   4.456   2.249   5.629
 8644SOL    HW126831   4.412   2.163   5.603
 8644SOL    HW226832   4.550   2.230   5.658
 8645SOL     OW26833   4.400   4.434   1.137
 8645SOL    HW126834   4.363   4.447   1.045
 8645SOL    HW226835   4.335   4.470   1.204
 8646SOL     OW26836   6.260   1.106   1.592
 8646SOL    HW126837   6.307   1.022   1.620
 8646SOL    HW226838   6.328   1.178   1.574
 8647SOL     OW26839   2.523   5.823   5.878
 8647SOL    HW126840   2.549   5.735   5.838
 8647SOL    HW226841   2.433   5.814   5.922
 8648SOL     OW26842   6.502   0.888   3.571
 8648SOL    HW126843   6.492   0.987   3.578
 8648SOL    HW226844   6.477   0.857   3.480
 8649SOL     OW26845   5.447   4.749   5.886
 8649SOL    HW126846   5.420   4.843   5.907
 8649SOL    HW226847   5.378   4.707   5.827
 8650SOL     OW26848   1.971   4.899   5.729
 8650SOL    HW126849   2.017   4.973   5.681
 8650SOL    HW226850   1.872   4.916   5.729
 8651SOL     OW26851   3.531   0.294   0.867
 8651SOL    HW126852   3.535   0.268   0.771
 8651SOL    HW226853   3.457   0.359   0.882
 8652SOL     OW26854   2.081   3.835   4.090
 8652SOL    HW126855   2.064   3.752   4.142
 8652SOL    HW226856   1.996   3.868   4.049
 8653SOL     OW26857   6.329   0.931   6.269
 8653SOL    HW126858   6.335   0.956   6.172
 8653SOL    HW226859   6.237   0.896   6.289
 8654SOL     OW26860   0.905   5.094   1.064
 8654SOL    HW126861   1.002   5.106   1.042
 8654SOL    HW226862   0.850   5.139   0.993
 8655SOL     OW26863   6.428   1.434   3.821
 8655SOL    HW126864   6.487   1.361   3.787
 8655SOL    HW226865   6.436   1.514   3.761
 8656SOL     OW26866   6.632   0.888   1.029
 8656SOL    HW126867   6.537   0.921   1.024
 8656SOL    HW226868   6.634   0.799   1.074
 8657SOL     OW26869   5.007   4.236   0.401
 8657SOL    HW126870   5.048   4.321   0.369
 8657SOL    HW226871   5.041   4.160   0.345
 8658SOL     OW26872   4.175   6.710   0.398
 8658SOL    HW126873   4.115   6.774   0.351
 8658SOL    HW226874   4.138   6.689   0.488
 8659SOL     OW26875   4.733   1.604   3.052
 8659SOL    HW126876   4.824   1.597   3.011
 8659SOL    HW226877   4.742   1.614   3.151
 8660SOL     OW26878   5.702   4.047   0.536
 8660SOL    HW126879   5.701   4.058   0.635
 8660SOL    HW226880   5.745   4.127   0.494
 8661SOL     OW26881   5.910   4.272   1.209
 8661SOL    HW126882   5.986   4.258   1.144
 8661SOL    HW226883   5.835   4.318   1.162
 8662SOL     OW26884   4.712   6.102   1.083
 8662SOL    HW126885   4.721   6.078   0.987
 8662SOL    HW226886   4.802   6.118   1.123
 8663SOL     OW26887   2.980   6.099   1.786
 8663SOL    HW126888   2.978   6.185   1.838
 8663SOL    HW226889   3.002   6.024   1.848
 8664SOL     OW26890   2.820   6.297   0.812
 8664SOL    HW126891   2.875   6.228   0.763
 8664SOL    HW226892   2.875   6.337   0.885
 8665SOL     OW26893   5.487   6.324   4.988
 8665SOL    HW126894   5.526   6.234   5.009
 8665SOL    HW226895   5.513   6.351   4.895
 8666SOL     OW26896   5.160   1.437   4.240
 8666SOL    HW126897   5.167   1.441   4.140
 8666SOL    HW226898   5.125   1.525   4.274
 8667SOL     OW26899   5.072   2.251   2.937
 8667SOL    HW126900   5.033   2.236   3.027
 8667SOL    HW226901   5.115   2.341   2.933
 8668SOL     OW26902   5.535   4.263   3.124
 8668SOL    HW126903   5.501   4.249   3.217
 8668SOL    HW226904   5.563   4.176   3.084
 8669SOL     OW26905   2.322   6.279   0.208
 8669SOL    HW126906   2.297   6.305   0.301
 8669SOL    HW226907   2.242   6.282   0.149
 8670SOL     OW26908   3.837   4.088   5.274
 8670SOL    HW126909   3.763   4.154   5.258
 8670SOL    HW226910   3.800   3.995   5.269
 8671SOL     OW26911   5.244   1.841   3.601
 8671SOL    HW126912   5.314   1.910   3.621
 8671SOL    HW226913   5.276   1.781   3.528
 8672SOL     OW26914   1.793   4.980   3.811
 8672SOL    HW126915   1.731   4.988   3.733
 8672SOL    HW226916   1.852   5.060   3.815
 8673SOL     OW26917   6.043   2.625   0.584
 8673SOL    HW126918   5.980   2.701   0.601
 8673SOL    HW226919   6.040   2.601   0.487
 8674SOL     OW26920   5.535   5.560   3.687
 8674SOL    HW126921   5.522   5.626   3.613
 8674SOL    HW226922   5.447   5.534   3.725
 8675SOL     OW26923   2.919   2.103   4.226
 8675SOL    HW126924   2.937   2.117   4.128
 8675SOL    HW226925   2.875   2.184   4.264
 8676SOL     OW26926   4.515   0.436   2.756
 8676SOL    HW126927   4.542   0.374   2.682
 8676SOL    HW226928   4.429   0.405   2.797
 8677SOL     OW26929   2.602   5.839   5.147
 8677SOL    HW126930   2.619   5.928   5.104
 8677SOL    HW226931   2.599   5.769   5.076
 8678SOL     OW26932   6.593   0.370   1.221
 8678SOL    HW126933   6.540   0.320   1.290
 8678SOL    HW226934   6.677   0.320   1.201
 8679SOL     OW26935   0.021   2.588   3.125
 8679SOL    HW126936   0.031   2.676   3.078
 8679SOL    HW226937   0.053   2.514   3.066
 8680SOL     OW26938   1.152   3.979   1.016
 8680SOL    HW126939   1.122   3.891   0.977
 8680SOL    HW226940   1.235   4.009   0.970
 8681SOL     OW26941   4.664   5.216   0.446
 8681SOL    HW126942   4.581   5.216   0.390
 8681SOL    HW226943   4.691   5.311   0.465
 8682SOL     OW26944   5.679   0.241   1.758
 8682SOL    HW126945   5.639   0.311   1.817
 8682SOL    HW226946   5.670   0.270   1.662
 8683SOL     OW26947   2.019   2.287   2.973
 8683SOL    HW126948   1.997   2.263   3.067
 8683SOL    HW226949   1.999   2.383   2.956
 8684SOL     OW26950   0.575   2.665   5.129
 8684SOL    HW126951   0.565   2.764   5.127
 8684SOL    HW226952   0.670   2.641   5.107
 8685SOL     OW26953   0.715   1.897   6.262
 8685SOL    HW126954   0.710   1.886   6.162
 8685SOL    HW226955   0.790   1.959   6.284
 8686SOL     OW26956   0.276   1.235   1.675
 8686SOL    HW126957   0.200   1.291   1.643
 8686SOL    HW226958   0.348   1.232   1.605
 8687SOL     OW26959   4.341   5.608   2.228
 8687SOL    HW126960   4.267   5.597   2.162
 8687SOL    HW226961   4.356   5.521   2.276
 8688SOL     OW26962   2.432   6.250   0.575
 8688SOL    HW126963   2.346   6.282   0.537
 8688SOL    HW226964   2.416   6.168   0.630
 8689SOL     OW26965   3.970   3.991   1.569
 8689SOL    HW126966   3.955   3.923   1.641
 8689SOL    HW226967   3.896   3.987   1.502
 8690SOL     OW26968   1.410   3.103   3.007
 8690SOL    HW126969   1.394   3.147   3.095
 8690SOL    HW226970   1.450   3.012   3.021
 8691SOL     OW26971   3.261   2.166   6.460
 8691SOL    HW126972   3.326   2.120   6.520
 8691SOL    HW226973   3.259   2.264   6.482
 8692SOL     OW26974   1.894   1.812   4.005
 8692SOL    HW126975   1.837   1.818   4.086
 8692SOL    HW226976   1.934   1.901   3.986
 8693SOL     OW26977   6.207   0.953   0.246
 8693SOL    HW126978   6.257   0.951   0.332
 8693SOL    HW226979   6.212   1.045   0.207
 8694SOL     OW26980   4.685   0.919   4.503
 8694SOL    HW126981   4.737   0.883   4.580
 8694SOL    HW226982   4.608   0.859   4.484
 8695SOL     OW26983   3.750   2.358   6.014
 8695SOL    HW126984   3.723   2.436   6.071
 8695SOL    HW226985   3.728   2.273   6.062
 8696SOL     OW26986   2.200   5.348   0.110
 8696SOL    HW126987   2.257   5.318   0.033
 8696SOL    HW226988   2.255   5.403   0.173
 8697SOL     OW26989   6.817   2.673   0.128
 8697SOL    HW126990   6.813   2.742   0.200
 8697SOL    HW226991   6.787   2.585   0.165
 8698SOL     OW26992   5.453   6.063   4.709
 8698SOL    HW126993   5.443   5.995   4.636
 8698SOL    HW226994   5.491   6.147   4.671
 8699SOL     OW26995   2.858   2.205   5.944
 8699SOL    HW126996   2.764   2.214   5.912
 8699SOL    HW226997   2.919   2.198   5.865
 8700SOL     OW26998   0.668   0.937   4.575
 8700SOL    HW126999   0.648   0.996   4.497
 8700SOL    HW227000   0.588   0.883   4.598
 8701SOL     OW27001   0.356   1.255   0.348
 8701SOL    HW127002   0.411   1.332   0.318
 8701SOL    HW227003   0.415   1.176   0.365
 8702SOL     OW27004   4.848   4.948   1.475
 8702SOL    HW127005   4.786   4.926   1.550
 8702SOL    HW227006   4.897   5.033   1.495
 8703SOL     OW27007   3.127   4.640   0.127
 8703SOL    HW127008   3.057   4.699   0.086
 8703SOL    HW227009   3.085   4.586   0.201
 8704SOL     OW27010   6.933   3.681   2.942
 8704SOL    HW127011   0.012   3.664   2.947
 8704SOL    HW227012   6.884   3.594   2.943
 8705SOL     OW27013   4.922   1.343   6.216
 8705SOL    HW127014   4.944   1.247   6.197
 8705SOL    HW227015   4.852   1.347   6.288
 8706SOL     OW27016   4.707   1.916   6.693
 8706SOL    HW127017   4.719   1.951   6.785
 8706SOL    HW227018   4.649   1.980   6.641
 8707SOL     OW27019   0.274   2.440   6.771
 8707SOL    HW127020   0.260   2.516   6.708
 8707SOL    HW227021   0.185   2.402   6.797
 8708SOL     OW27022   5.070   2.568   2.410
 8708SOL    HW127023   5.072   2.551   2.509
 8708SOL    HW227024   5.112   2.491   2.362
 8709SOL     OW27025   6.827   6.057   7.000
 8709SOL    HW127026   6.757   5.991   6.973
 8709SOL    HW227027   6.918   6.021   6.976
 8710SOL     OW27028   2.194   3.223   4.366
 8710SOL    HW127029   2.223   3.181   4.281
 8710SOL    HW227030   2.186   3.154   4.438
 8711SOL     OW27031   0.965   6.403   3.071
 8711SOL    HW127032   1.062   6.409   3.049
 8711SOL    HW227033   0.930   6.494   3.094
 8712SOL     OW27034   4.284   2.207   4.917
 8712SOL    HW127035   4.264   2.305   4.925
 8712SOL    HW227036   4.382   2.195   4.903
 8713SOL     OW27037   0.421   3.044   4.085
 8713SOL    HW127038   0.324   3.056   4.106
 8713SOL    HW227039   0.433   3.028   3.987
 8714SOL     OW27040   1.133   1.182   6.436
 8714SOL    HW127041   1.111   1.092   6.398
 8714SOL    HW227042   1.193   1.171   6.515
 8715SOL     OW27043   4.899   0.126   1.190
 8715SOL    HW127044   4.889   0.106   1.288
 8715SOL    HW227045   4.918   0.223   1.177
 8716SOL     OW27046   0.084   0.101   1.082
 8716SOL    HW127047   0.147   0.026   1.099
 8716SOL    HW227048   0.135   0.188   1.083
 8717SOL     OW27049   3.632   3.685   4.012
 8717SOL    HW127050   3.627   3.738   4.096
 8717SOL    HW227051   3.707   3.619   4.018
 8718SOL     OW27052   0.989   3.512   4.859
 8718SOL    HW127053   1.059   3.582   4.875
 8718SOL    HW227054   0.994   3.444   4.932
 8719SOL     OW27055   3.268   0.564   6.115
 8719SOL    HW127056   3.359   0.557   6.075
 8719SOL    HW227057   3.203   0.510   6.062
 8720SOL     OW27058   6.102   4.687   6.194
 8720SOL    HW127059   6.020   4.695   6.251
 8720SOL    HW227060   6.094   4.608   6.134
 8721SOL     OW27061   6.948   2.930   2.343
 8721SOL    HW127062   6.947   2.926   2.443
 8721SOL    HW227063   6.857   2.910   2.307
 8722SOL     OW27064   4.413   1.801   6.884
 8722SOL    HW127065   4.483   1.745   6.841
 8722SOL    HW227066   4.404   1.776   6.980
 8723SOL     OW27067   4.946   5.781   0.991
 8723SOL    HW127068   4.847   5.771   0.985
 8723SOL    HW227069   4.970   5.878   0.986
 8724SOL     OW27070   4.677   0.093   5.783
 8724SOL    HW127071   4.749   0.111   5.850
 8724SOL    HW227072   4.716   0.055   5.700
 8725SOL     OW27073   1.635   6.759   5.952
 8725SOL    HW127074   1.637   6.822   5.874
 8725SOL    HW227075   1.675   6.671   5.925
 8726SOL     OW27076   0.258   0.670   2.097
 8726SOL    HW127077   0.251   0.724   2.014
 8726SOL    HW227078   0.237   0.727   2.176
 8727SOL     OW27079   6.982   5.729   2.699
 8727SOL    HW127080   6.957   5.787   2.622
 8727SOL    HW227081   0.021   5.780   2.762
 8728SOL     OW27082   5.459   0.585   3.170
 8728SOL    HW127083   5.491   0.667   3.218
 8728SOL    HW227084   5.529   0.557   3.104
 8729SOL     OW27085   4.369   5.617   4.934
 8729SOL    HW127086   4.290   5.672   4.907
 8729SOL    HW227087   4.354   5.522   4.905
 8730SOL     OW27088   6.459   3.851   2.222
 8730SOL    HW127089   6.558   3.865   2.219
 8730SOL    HW227090   6.439   3.753   2.215
 8731SOL     OW27091   2.214   2.336   2.349
 8731SOL    HW127092   2.260   2.424   2.338
 8731SOL    HW227093   2.117   2.351   2.369
 8732SOL     OW27094   5.633   4.958   1.739
 8732SOL    HW127095   5.695   5.014   1.793
 8732SOL    HW227096   5.603   4.879   1.793
 8733SOL     OW27097   1.506   5.402   1.076
 8733SOL    HW127098   1.556   5.416   0.990
 8733SOL    HW227099   1.414   5.442   1.067
 8734SOL     OW27100   1.854   4.667   1.934
 8734SOL    HW127101   1.858   4.763   1.908
 8734SOL    HW227102   1.859   4.659   2.034
 8735SOL     OW27103   0.973   2.638   0.314
 8735SOL    HW127104   1.036   2.594   0.250
 8735SOL    HW227105   1.023   2.669   0.395
 8736SOL     OW27106   0.921   5.700   6.444
 8736SOL    HW127107   1.007   5.745   6.468
 8736SOL    HW227108   0.873   5.753   6.374
 8737SOL     OW27109   2.327   6.785   5.941
 8737SOL    HW127110   2.297   6.880   5.942
 8737SOL    HW227111   2.262   6.729   5.992
 8738SOL     OW27112   2.118   5.653   4.600
 8738SOL    HW127113   2.085   5.584   4.664
 8738SOL    HW227114   2.198   5.700   4.638
 8739SOL     OW27115   5.580   5.320   6.227
 8739SOL    HW127116   5.492   5.291   6.264
 8739SOL    HW227117   5.653   5.290   6.289
 8740SOL     OW27118   4.989   0.955   4.910
 8740SOL    HW127119   4.961   0.882   4.848
 8740SOL    HW227120   4.996   1.041   4.859
 8741SOL     OW27121   2.733   1.483   1.692
 8741SOL    HW127122   2.735   1.465   1.594
 8741SOL    HW227123   2.822   1.517   1.722
 8742SOL     OW27124   5.787   6.395   0.822
 8742SOL    HW127125   5.807   6.426   0.730
 8742SOL    HW227126   5.846   6.317   0.845
 8743SOL     OW27127   1.315   0.563   2.341
 8743SOL    HW127128   1.297   0.598   2.433
 8743SOL    HW227129   1.399   0.604   2.306
 8744SOL     OW27130   3.173   2.824   6.445
 8744SOL    HW127131   3.097   2.783   6.496
 8744SOL    HW227132   3.171   2.923   6.456
 8745SOL     OW27133   5.731   2.871   6.118
 8745SOL    HW127134   5.657   2.926   6.157
 8745SOL    HW227135   5.802   2.857   6.187
 8746SOL     OW27136   5.342   4.165   4.766
 8746SOL    HW127137   5.354   4.248   4.820
 8746SOL    HW227138   5.368   4.182   4.672
 8747SOL     OW27139   0.719   2.804   3.182
 8747SOL    HW127140   0.678   2.800   3.091
 8747SOL    HW227141   0.729   2.711   3.219
 8748SOL     OW27142   0.040   1.398   4.904
 8748SOL    HW127143   0.024   1.490   4.941
 8748SOL    HW227144   0.087   1.405   4.816
 8749SOL     OW27145   2.611   0.869   6.144
 8749SOL    HW127146   2.610   0.966   6.122
 8749SOL    HW227147   2.538   0.822   6.092
 8750SOL     OW27148   3.520   3.756   5.534
 8750SOL    HW127149   3.610   3.716   5.517
 8750SOL    HW227150   3.455   3.683   5.555
 8751SOL     OW27151   6.291   1.419   2.123
 8751SOL    HW127152   6.291   1.319   2.128
 8751SOL    HW227153   6.196   1.452   2.121
 8752SOL     OW27154   2.816   3.974   0.512
 8752SOL    HW127155   2.770   4.036   0.575
 8752SOL    HW227156   2.914   3.971   0.532
 8753SOL     OW27157   4.249   1.658   5.567
 8753SOL    HW127158   4.187   1.736   5.572
 8753SOL    HW227159   4.339   1.685   5.602
 8754SOL     OW27160   1.231   3.270   5.614
 8754SOL    HW127161   1.267   3.262   5.521
 8754SOL    HW227162   1.148   3.326   5.613
 8755SOL     OW27163   2.372   0.095   1.031
 8755SOL    HW127164   2.441   0.164   1.056
 8755SOL    HW227165   2.297   0.140   0.983
 8756SOL     OW27166   1.589   2.728   3.575
 8756SOL    HW127167   1.593   2.828   3.572
 8756SOL    HW227168   1.659   2.690   3.515
 8757SOL     OW27169   4.078   6.386   5.826
 8757SOL    HW127170   3.987   6.413   5.855
 8757SOL    HW227171   4.104   6.300   5.870
 8758SOL     OW27172   4.780   5.998   2.613
 8758SOL    HW127173   4.810   6.053   2.691
 8758SOL    HW227174   4.792   5.901   2.634
 8759SOL     OW27175   4.065   2.401   0.208
 8759SOL    HW127176   4.116   2.319   0.235
 8759SOL    HW227177   4.050   2.399   0.109
 8760SOL     OW27178   1.594   1.238   4.964
 8760SOL    HW127179   1.604   1.320   4.906
 8760SOL    HW227180   1.550   1.264   5.050
 8761SOL     OW27181   5.732   2.628   2.322
 8761SOL    HW127182   5.666   2.640   2.247
 8761SOL    HW227183   5.760   2.718   2.356
 8762SOL     OW27184   1.436   4.103   2.861
 8762SOL    HW127185   1.343   4.085   2.894
 8762SOL    HW227186   1.484   4.017   2.849
 8763SOL     OW27187   0.015   6.941   5.525
 8763SOL    HW127188   6.938   6.939   5.552
 8763SOL    HW227189   0.033   0.005   5.472
 8764SOL     OW27190   5.135   0.677   5.191
 8764SOL    HW127191   5.111   0.765   5.231
 8764SOL    HW227192   5.202   0.631   5.250
 8765SOL     OW27193   5.417   0.023   4.390
 8765SOL    HW127194   5.423   6.994   4.303
 8765SOL    HW227195   5.382   0.116   4.375
 8766SOL     OW27196   4.700   4.371   3.633
 8766SOL    HW127197   4.790   4.413   3.620
 8766SOL    HW227198   4.711   4.280   3.673
 8767SOL     OW27199   4.634   6.287   2.833
 8767SOL    HW127200   4.674   6.235   2.909
 8767SOL    HW227201   4.702   6.347   2.793
 8768SOL     OW27202   1.488   3.023   0.429
 8768SOL    HW127203   1.468   2.995   0.335
 8768SOL    HW227204   1.413   3.078   0.465
 8769SOL     OW27205   0.636   0.724   3.938
 8769SOL    HW127206   0.634   0.714   3.838
 8769SOL    HW227207   0.717   0.775   3.965
 8770SOL     OW27208   4.998   4.564   2.447
 8770SOL    HW127209   5.006   4.653   2.491
 8770SOL    HW227210   4.951   4.501   2.508
 8771SOL     OW27211   1.042   0.280   6.798
 8771SOL    HW127212   1.013   0.365   6.843
 8771SOL    HW227213   1.130   0.295   6.753
 8772SOL     OW27214   4.879   6.758   6.765
 8772SOL    HW127215   4.897   6.660   6.758
 8772SOL    HW227216   4.858   6.795   6.675
 8773SOL     OW27217   4.602   2.536   3.505
 8773SOL    HW127218   4.524   2.575   3.457
 8773SOL    HW227219   4.607   2.438   3.487
 8774SOL     OW27220   1.333   1.163   6.653
 8774SOL    HW127221   1.250   1.159   6.709
 8774SOL    HW227222   1.408   1.116   6.700
 8775SOL     OW27223   6.356   0.085   5.756
 8775SOL    HW127224   6.447   0.058   5.788
 8775SOL    HW227225   6.327   0.023   5.683
 8776SOL     OW27226   3.725   3.285   6.316
 8776SOL    HW127227   3.783   3.205   6.329
 8776SOL    HW227228   3.781   3.360   6.279
 8777SOL     OW27229   6.866   3.760   1.337
 8777SOL    HW127230   6.775   3.739   1.374
 8777SOL    HW227231   6.933   3.697   1.374
 8778SOL     OW27232   6.317   2.568   4.882
 8778SOL    HW127233   6.226   2.576   4.843
 8778SOL    HW227234   6.377   2.637   4.840
 8779SOL     OW27235   2.819   5.241   2.406
 8779SOL    HW127236   2.814   5.146   2.374
 8779SOL    HW227237   2.885   5.291   2.350
 8780SOL     OW27238   0.828   5.742   2.647
 8780SOL    HW127239   0.868   5.795   2.572
 8780SOL    HW227240   0.798   5.804   2.719
 8781SOL     OW27241   5.664   1.331   3.124
 8781SOL    HW127242   5.760   1.343   3.149
 8781SOL    HW227243   5.613   1.296   3.202
 8782SOL     OW27244   5.162   6.614   1.753
 8782SOL    HW127245   5.257   6.638   1.734
 8782SOL    HW227246   5.158   6.544   1.824
 8783SOL     OW27247   6.271   3.950   3.294
 8783SOL    HW127248   6.303   3.870   3.242
 8783SOL    HW227249   6.299   3.941   3.389
 8784SOL     OW27250   5.676   4.219   6.566
 8784SOL    HW127251   5.633   4.276   6.496
 8784SOL    HW227252   5.644   4.125   6.557
 8785SOL     OW27253   6.069   3.004   6.530
 8785SOL    HW127254   6.086   3.064   6.608
 8785SOL    HW227255   6.078   3.056   6.445
 8786SOL     OW27256   1.729   0.023   0.224
 8786SOL    HW127257   1.701   6.959   0.177
 8786SOL    HW227258   1.829   0.023   0.235
 8787SOL     OW27259   2.953   2.740   1.573
 8787SOL    HW127260   2.968   2.645   1.599
 8787SOL    HW227261   2.978   2.752   1.477
 8788SOL     OW27262   0.377   2.095   6.241
 8788SOL    HW127263   0.467   2.121   6.275
 8788SOL    HW227264   0.324   2.053   6.315
 8789SOL     OW27265   6.209   0.039   5.995
 8789SOL    HW127266   6.243   0.122   5.951
 8789SOL    HW227267   6.202   6.985   5.927
 8790SOL     OW27268   0.654   0.709   6.811
 8790SOL    HW127269   0.634   0.805   6.825
 8790SOL    HW227270   0.658   0.662   6.899
 8791SOL     OW27271   5.429   6.990   4.918
 8791SOL    HW127272   5.453   6.917   4.981
 8791SOL    HW227273   5.419   0.057   4.968
 8792SOL     OW27274   3.262   6.661   3.083
 8792SOL    HW127275   3.307   6.573   3.076
 8792SOL    HW227276   3.306   6.716   3.154
 8793SOL     OW27277   1.921   4.442   3.396
 8793SOL    HW127278   1.936   4.424   3.299
 8793SOL    HW227279   1.850   4.511   3.406
 8794SOL     OW27280   3.931   6.309   1.766
 8794SOL    HW127281   3.991   6.336   1.691
 8794SOL    HW227282   3.985   6.299   1.850
 8795SOL     OW27283   1.675   5.735   5.691
 8795SOL    HW127284   1.705   5.753   5.597
 8795SOL    HW227285   1.649   5.821   5.734
 8796SOL     OW27286   3.886   2.198   4.022
 8796SOL    HW127287   3.970   2.144   4.013
 8796SOL    HW227288   3.885   2.270   3.953
 8797SOL     OW27289   0.387   7.000   6.139
 8797SOL    HW127290   0.476   6.956   6.141
 8797SOL    HW227291   0.368   0.021   6.229
 8798SOL     OW27292   4.888   5.817   5.896
 8798SOL    HW127293   4.827   5.806   5.974
 8798SOL    HW227294   4.869   5.745   5.829
 8799SOL     OW27295   2.388   4.880   3.851
 8799SOL    HW127296   2.465   4.923   3.804
 8799SOL    HW227297   2.302   4.922   3.821
 8800SOL     OW27298   5.920   3.624   5.431
 8800SOL    HW127299   6.000   3.565   5.420
 8800SOL    HW227300   5.889   3.654   5.340
 8801SOL     OW27301   0.223   2.156   5.144
 8801SOL    HW127302   0.199   2.061   5.124
 8801SOL    HW227303   0.322   2.164   5.152
 8802SOL     OW27304   1.656   6.663   0.719
 8802SOL    HW127305   1.651   6.585   0.655
 8802SOL    HW227306   1.649   6.629   0.812
 8803SOL     OW27307   6.181   5.598   6.639
 8803SOL    HW127308   6.129   5.683   6.626
 8803SOL    HW227309   6.156   5.558   6.727
 8804SOL     OW27310   2.909   0.550   2.298
 8804SOL    HW127311   2.896   0.480   2.368
 8804SOL    HW227312   3.003   0.547   2.264
 8805SOL     OW27313   2.918   0.175   4.181
 8805SOL    HW127314   2.852   0.144   4.112
 8805SOL    HW227315   3.010   0.173   4.142
 8806SOL     OW27316   2.856   5.454   2.683
 8806SOL    HW127317   2.854   5.481   2.587
 8806SOL    HW227318   2.876   5.534   2.740
 8807SOL     OW27319   5.682   6.932   0.036
 8807SOL    HW127320   5.627   6.856   0.069
 8807SOL    HW227321   5.667   6.945   6.957
 8808SOL     OW27322   6.014   2.777   0.077
 8808SOL    HW127323   6.104   2.796   0.036
 8808SOL    HW227324   5.989   2.853   0.138
 8809SOL     OW27325   4.800   5.352   3.839
 8809SOL    HW127326   4.879   5.344   3.779
 8809SOL    HW227327   4.776   5.449   3.849
 8810SOL     OW27328   5.323   0.697   6.131
 8810SOL    HW127329   5.399   0.658   6.078
 8810SOL    HW227330   5.257   0.739   6.069
 8811SOL     OW27331   3.037   1.348   3.431
 8811SOL    HW127332   3.039   1.264   3.376
 8811SOL    HW227333   3.012   1.425   3.373
 8812SOL     OW27334   2.158   0.228   0.872
 8812SOL    HW127335   2.159   0.326   0.852
 8812SOL    HW227336   2.100   0.181   0.807
 8813SOL     OW27337   1.617   4.955   1.411
 8813SOL    HW127338   1.542   4.890   1.417
 8813SOL    HW227339   1.699   4.916   1.455
 8814SOL     OW27340   5.317   0.094   1.177
 8814SOL    HW127341   5.244   0.159   1.156
 8814SOL    HW227342   5.277   0.013   1.220
 8815SOL     OW27343   6.237   6.922   0.506
 8815SOL    HW127344   6.166   6.872   0.556
 8815SOL    HW227345   6.200   7.009   0.473
 8816SOL     OW27346   1.635   0.030   6.710
 8816SOL    HW127347   1.645   0.086   6.628
 8816SOL    HW227348   1.603   0.087   6.786
 8817SOL     OW27349   0.802   5.352   4.869
 8817SOL    HW127350   0.746   5.299   4.805
 8817SOL    HW227351   0.879   5.296   4.899
 8818SOL     OW27352   0.399   4.240   4.563
 8818SOL    HW127353   0.368   4.161   4.616
 8818SOL    HW227354   0.320   4.294   4.535
 8819SOL     OW27355   5.184   5.152   4.993
 8819SOL    HW127356   5.144   5.167   4.902
 8819SOL    HW227357   5.280   5.181   4.993
 8820SOL     OW27358   2.006   0.909   5.041
 8820SOL    HW127359   1.952   0.973   4.986
 8820SOL    HW227360   2.067   0.959   5.102
 8821SOL     OW27361   2.686   6.517   0.111
 8821SOL    HW127362   2.615   6.580   0.143
 8821SOL    HW227363   2.650   6.424   0.111
 8822SOL     OW27364   0.141   6.924   4.542
 8822SOL    HW127365   0.140   6.891   4.448
 8822SOL    HW227366   0.102   7.015   4.546
 8823SOL     OW27367   2.596   0.619   1.274
 8823SOL    HW127368   2.644   0.546   1.225
 8823SOL    HW227369   2.573   0.692   1.209
 8824SOL     OW27370   1.188   2.810   0.550
 8824SOL    HW127371   1.214   2.878   0.618
 8824SOL    HW227372   1.089   2.800   0.550
 8825SOL     OW27373   2.150   6.972   2.484
 8825SOL    HW127374   2.235   0.003   2.497
 8825SOL    HW227375   2.154   6.920   2.399
 8826SOL     OW27376   6.305   3.352   1.162
 8826SOL    HW127377   6.310   3.392   1.254
 8826SOL    HW227378   6.302   3.253   1.169
 8827SOL     OW27379   3.847   1.495   2.706
 8827SOL    HW127380   3.818   1.489   2.611
 8827SOL    HW227381   3.880   1.587   2.725
 8828SOL     OW27382   4.759   5.498   5.467
 8828SOL    HW127383   4.667   5.498   5.506
 8828SOL    HW227384   4.753   5.512   5.368
 8829SOL     OW27385   5.342   2.574   0.491
 8829SOL    HW127386   5.337   2.665   0.451
 8829SOL    HW227387   5.394   2.578   0.576
 8830SOL     OW27388   1.278   1.748   2.283
 8830SOL    HW127389   1.359   1.751   2.341
 8830SOL    HW227390   1.233   1.659   2.293
 8831SOL     OW27391   4.780   1.964   4.161
 8831SOL    HW127392   4.697   1.927   4.204
 8831SOL    HW227393   4.800   1.912   4.078
 8832SOL     OW27394   0.124   5.253   3.143
 8832SOL    HW127395   0.045   5.281   3.088
 8832SOL    HW227396   0.182   5.193   3.089
 8833SOL     OW27397   2.634   5.575   5.361
 8833SOL    HW127398   2.553   5.628   5.335
 8833SOL    HW227399   2.656   5.510   5.288
 8834SOL     OW27400   5.093   4.072   4.697
 8834SOL    HW127401   5.175   4.117   4.732
 8834SOL    HW227402   5.112   4.032   4.608
 8835SOL     OW27403   5.137   0.734   5.929
 8835SOL    HW127404   5.145   0.811   5.866
 8835SOL    HW227405   5.155   0.649   5.881
 8836SOL     OW27406   5.072   3.497   6.880
 8836SOL    HW127407   4.985   3.516   6.834
 8836SOL    HW227408   5.100   3.403   6.860
 8837SOL     OW27409   6.720   5.818   3.005
 8837SOL    HW127410   6.689   5.761   3.081
 8837SOL    HW227411   6.785   5.886   3.038
 8838SOL     OW27412   2.696   5.568   3.208
 8838SOL    HW127413   2.668   5.635   3.277
 8838SOL    HW227414   2.615   5.525   3.168
 8839SOL     OW27415   5.620   5.132   3.751
 8839SOL    HW127416   5.619   5.033   3.735
 8839SOL    HW227417   5.677   5.176   3.681
 8840SOL     OW27418   6.867   2.123   2.545
 8840SOL    HW127419   6.849   2.171   2.631
 8840SOL    HW227420   6.858   2.025   2.559
 8841SOL     OW27421   0.631   1.175   5.022
 8841SOL    HW127422   0.680   1.150   4.939
 8841SOL    HW227423   0.535   1.193   5.000
 8842SOL     OW27424   3.538   2.864   2.431
 8842SOL    HW127425   3.536   2.950   2.380
 8842SOL    HW227426   3.477   2.870   2.510
 8843SOL     OW27427   1.618   2.875   5.793
 8843SOL    HW127428   1.570   2.789   5.775
 8843SOL    HW227429   1.566   2.930   5.858
 8844SOL     OW27430   6.813   2.608   6.671
 8844SOL    HW127431   6.762   2.690   6.647
 8844SOL    HW227432   6.867   2.625   6.753
 8845SOL     OW27433   3.670   3.194   0.070
 8845SOL    HW127434   3.720   3.263   0.018
 8845SOL    HW227435   3.590   3.165   0.017
 8846SOL     OW27436   3.316   5.445   3.993
 8846SOL    HW127437   3.242   5.389   3.956
 8846SOL    HW227438   3.290   5.479   4.084
 8847SOL     OW27439   2.735   0.982   3.055
 8847SOL    HW127440   2.829   0.983   3.019
 8847SOL    HW227441   2.670   0.980   2.979
 8848SOL     OW27442   2.389   0.896   1.532
 8848SOL    HW127443   2.389   0.924   1.627
 8848SOL    HW227444   2.481   0.904   1.494
 8849SOL     OW27445   2.966   6.518   3.483
 8849SOL    HW127446   2.869   6.505   3.505
 8849SOL    HW227447   3.022   6.492   3.561
 8850SOL     OW27448   0.584   2.387   0.432
 8850SOL    HW127449   0.678   2.395   0.465
 8850SOL    HW227450   0.581   2.405   0.334
 8851SOL     OW27451   1.403   4.059   3.806
 8851SOL    HW127452   1.387   4.034   3.901
 8851SOL    HW227453   1.364   3.989   3.746
 8852SOL     OW27454   6.918   2.473   5.552
 8852SOL    HW127455   6.969   2.455   5.468
 8852SOL    HW227456   6.901   2.571   5.560
 8853SOL     OW27457   3.041   0.949   1.419
 8853SOL    HW127458   3.116   0.920   1.479
 8853SOL    HW227459   2.954   0.942   1.469
 8854SOL     OW27460   3.295   2.647   5.887
 8854SOL    HW127461   3.310   2.551   5.911
 8854SOL    HW227462   3.303   2.704   5.969
 8855SOL     OW27463   6.753   5.509   1.292
 8855SOL    HW127464   6.685   5.436   1.282
 8855SOL    HW227465   6.832   5.489   1.234
 8856SOL     OW27466   0.360   6.323   6.435
 8856SOL    HW127467   0.401   6.323   6.527
 8856SOL    HW227468   0.319   6.412   6.418
 8857SOL     OW27469   6.960   1.647   4.412
 8857SOL    HW127470   6.980   1.575   4.346
 8857SOL    HW227471   6.872   1.689   4.390
 8858SOL     OW27472   0.323   3.539   4.636
 8858SOL    HW127473   0.415   3.577   4.650
 8858SOL    HW227474   0.256   3.596   4.682
 8859SOL     OW27475   1.427   0.921   3.562
 8859SOL    HW127476   1.400   0.854   3.494
 8859SOL    HW227477   1.456   0.875   3.646
 8860SOL     OW27478   6.987   2.316   2.116
 8860SOL    HW127479   6.976   2.351   2.022
 8860SOL    HW227480   6.953   2.384   2.181
 8861SOL     OW27481   4.240   1.047   6.511
 8861SOL    HW127482   4.322   1.078   6.463
 8861SOL    HW227483   4.184   1.127   6.535
 8862SOL     OW27484   5.452   6.952   3.800
 8862SOL    HW127485   5.444   6.863   3.755
 8862SOL    HW227486   5.381   7.013   3.765
 8863SOL     OW27487   2.291   4.629   3.799
 8863SOL    HW127488   2.318   4.715   3.842
 8863SOL    HW227489   2.274   4.560   3.869
 8864SOL     OW27490   2.793   5.278   6.421
 8864SOL    HW127491   2.871   5.330   6.454
 8864SOL    HW227492   2.788   5.284   6.321
 8865SOL     OW27493   3.076   0.556   4.692
 8865SOL    HW127494   3.005   0.624   4.674
 8865SOL    HW227495   3.091   0.500   4.610
 8866SOL     OW27496   5.134   0.075   3.016
 8866SOL    HW127497   5.130   0.174   3.004
 8866SOL    HW227498   5.166   0.054   3.109
 8867SOL     OW27499   5.743   4.674   3.413
 8867SOL    HW127500   5.814   4.664   3.343
 8867SOL    HW227501   5.724   4.771   3.427
 8868SOL     OW27502   0.163   3.178   1.591
 8868SOL    HW127503   0.204   3.155   1.679
 8868SOL    HW227504   0.069   3.145   1.589
 8869SOL     OW27505   3.593   6.257   5.328
 8869SOL    HW127506   3.550   6.167   5.317
 8869SOL    HW227507   3.691   6.250   5.312
 8870SOL     OW27508   2.617   6.781   1.010
 8870SOL    HW127509   2.660   6.795   0.921
 8870SOL    HW227510   2.519   6.794   1.002
 8871SOL     OW27511   1.727   0.759   4.022
 8871SOL    HW127512   1.756   0.770   4.117
 8871SOL    HW227513   1.647   0.699   4.019
 8872SOL     OW27514   1.676   4.540   5.438
 8872SOL    HW127515   1.737   4.476   5.392
 8872SOL    HW227516   1.582   4.522   5.410
 8873SOL     OW27517   0.745   6.757   2.286
 8873SOL    HW127518   0.646   6.752   2.297
 8873SOL    HW227519   0.778   6.671   2.246
 8874SOL     OW27520   2.551   5.575   2.373
 8874SOL    HW127521   2.531   5.631   2.292
 8874SOL    HW227522   2.648   5.583   2.396
 8875SOL     OW27523   0.375   3.533   4.301
 8875SOL    HW127524   0.354   3.500   4.393
 8875SOL    HW227525   0.315   3.610   4.278
 8876SOL     OW27526   2.446   6.817   5.400
 8876SOL    HW127527   2.484   6.808   5.492
 8876SOL    HW227528   2.494   6.890   5.351
 8877SOL     OW27529   2.999   1.599   3.886
 8877SOL    HW127530   3.010   1.669   3.957
 8877SOL    HW227531   3.082   1.595   3.830
 8878SOL     OW27532   5.179   5.296   1.056
 8878SOL    HW127533   5.159   5.381   1.007
 8878SOL    HW227534   5.129   5.294   1.142
 8879SOL     OW27535   4.378   4.977   2.414
 8879SOL    HW127536   4.329   4.987   2.327
 8879SOL    HW227537   4.326   4.916   2.474
 8880SOL     OW27538   4.437   5.832   4.556
 8880SOL    HW127539   4.380   5.819   4.638
 8880SOL    HW227540   4.522   5.781   4.567
 8881SOL     OW27541   5.160   6.207   3.993
 8881SOL    HW127542   5.187   6.298   3.962
 8881SOL    HW227543   5.215   6.181   4.073
 8882SOL     OW27544   5.443   0.818   1.442
 8882SOL    HW127545   5.389   0.809   1.525
 8882SOL    HW227546   5.385   0.853   1.368
 8883SOL     OW27547   2.183   6.261   6.014
 8883SOL    HW127548   2.224   6.169   6.010
 8883SOL    HW227549   2.255   6.330   6.005
 8884SOL     OW27550   5.981   3.130   5.066
 8884SOL    HW127551   6.071   3.168   5.046
 8884SOL    HW227552   5.937   3.185   5.137
 8885SOL     OW27553   5.383   4.440   1.259
 8885SOL    HW127554   5.295   4.408   1.295
 8885SOL    HW227555   5.455   4.375   1.285
 8886SOL     OW27556   2.716   6.067   4.970
 8886SOL    HW127557   2.742   6.119   5.051
 8886SOL    HW227558   2.796   6.053   4.912
 8887SOL     OW27559   3.697   0.951   0.827
 8887SOL    HW127560   3.683   0.979   0.922
 8887SOL    HW227561   3.665   0.857   0.814
 8888SOL     OW27562   2.074   1.611   5.790
 8888SOL    HW127563   1.998   1.579   5.847
 8888SOL    HW227564   2.111   1.534   5.738
 8889SOL     OW27565   6.863   6.984   0.017
 8889SOL    HW127566   6.821   0.034   0.076
 8889SOL    HW227567   6.922   6.925   0.072
 8890SOL     OW27568   0.185   6.252   5.477
 8890SOL    HW127569   0.203   6.282   5.571
 8890SOL    HW227570   0.147   6.159   5.478
 8891SOL     OW27571   4.019   3.595   6.930
 8891SOL    HW127572   4.074   3.678   6.929
 8891SOL    HW227573   4.023   3.551   6.840
 8892SOL     OW27574   3.720   4.948   2.974
 8892SOL    HW127575   3.644   4.908   2.922
 8892SOL    HW227576   3.804   4.899   2.952
 8893SOL     OW27577   0.917   5.445   4.114
 8893SOL    HW127578   0.924   5.390   4.197
 8893SOL    HW227579   0.827   5.488   4.111
 8894SOL     OW27580   2.912   1.819   6.463
 8894SOL    HW127581   2.938   1.780   6.552
 8894SOL    HW227582   2.938   1.755   6.391
 8895SOL     OW27583   6.876   2.754   2.097
 8895SOL    HW127584   6.804   2.814   2.133
 8895SOL    HW227585   6.882   2.765   1.997
 8896SOL     OW27586   2.180   3.136   5.185
 8896SOL    HW127587   2.276   3.108   5.180
 8896SOL    HW227588   2.125   3.062   5.223
 8897SOL     OW27589   2.298   2.497   3.796
 8897SOL    HW127590   2.388   2.476   3.757
 8897SOL    HW227591   2.249   2.411   3.813
 8898SOL     OW27592   4.908   3.526   2.680
 8898SOL    HW127593   4.871   3.592   2.745
 8898SOL    HW227594   4.985   3.566   2.631
 8899SOL     OW27595   0.973   4.464   1.191
 8899SOL    HW127596   0.933   4.442   1.280
 8899SOL    HW227597   1.023   4.551   1.197
 8900SOL     OW27598   5.640   2.985   3.049
 8900SOL    HW127599   5.598   2.941   3.129
 8900SOL    HW227600   5.682   3.071   3.077
 8901SOL     OW27601   1.389   1.724   4.962
 8901SOL    HW127602   1.330   1.725   5.043
 8901SOL    HW227603   1.349   1.664   4.892
 8902SOL     OW27604   0.548   5.753   0.355
 8902SOL    HW127605   0.518   5.735   0.262
 8902SOL    HW227606   0.625   5.694   0.378
 8903SOL     OW27607   0.730   2.023   4.280
 8903SOL    HW127608   0.822   1.985   4.278
 8903SOL    HW227609   0.697   2.026   4.375
 8904SOL     OW27610   7.006   0.880   4.809
 8904SOL    HW127611   0.024   0.905   4.898
 8904SOL    HW227612   7.000   0.780   4.802
 8905SOL     OW27613   2.161   3.276   3.558
 8905SOL    HW127614   2.154   3.336   3.478
 8905SOL    HW227615   2.178   3.182   3.529
 8906SOL     OW27616   0.978   6.205   0.573
 8906SOL    HW127617   1.047   6.219   0.643
 8906SOL    HW227618   1.002   6.125   0.517
 8907SOL     OW27619   3.211   3.023   5.541
 8907SOL    HW127620   3.122   3.006   5.499
 8907SOL    HW227621   3.233   2.950   5.605
 8908SOL     OW27622   1.586   5.652   0.047
 8908SOL    HW127623   1.667   5.633   0.102
 8908SOL    HW227624   1.536   5.729   0.086
 8909SOL     OW27625   2.385   1.509   5.441
 8909SOL    HW127626   2.410   1.603   5.466
 8909SOL    HW227627   2.346   1.509   5.349
 8910SOL     OW27628   0.619   2.761   5.748
 8910SOL    HW127629   0.718   2.760   5.762
 8910SOL    HW227630   0.581   2.845   5.785
 8911SOL     OW27631   4.724   2.854   4.438
 8911SOL    HW127632   4.637   2.825   4.478
 8911SOL    HW227633   4.710   2.879   4.342
 8912SOL     OW27634   3.402   3.639   0.197
 8912SOL    HW127635   3.318   3.685   0.169
 8912SOL    HW227636   3.421   3.564   0.133
 8913SOL     OW27637   4.065   5.247   6.135
 8913SOL    HW127638   4.053   5.255   6.036
 8913SOL    HW227639   3.976   5.240   6.180
 8914SOL     OW27640   4.479   0.035   4.761
 8914SOL    HW127641   4.433   0.070   4.842
 8914SOL    HW227642   4.464   6.956   4.753
 8915SOL     OW27643   1.525   2.399   3.561
 8915SOL    HW127644   1.450   2.454   3.526
 8915SOL    HW227645   1.577   2.452   3.628
 8916SOL     OW27646   6.565   3.149   0.969
 8916SOL    HW127647   6.537   3.234   0.924
 8916SOL    HW227648   6.504   3.075   0.940
 8917SOL     OW27649   6.292   2.587   0.203
 8917SOL    HW127650   6.317   2.557   0.295
 8917SOL    HW227651   6.300   2.510   0.140
 8918SOL     OW27652   0.025   4.407   1.434
 8918SOL    HW127653   6.959   4.364   1.465
 8918SOL    HW227654   0.068   4.454   1.512
 8919SOL     OW27655   4.684   4.153   0.082
 8919SOL    HW127656   4.742   4.231   0.105
 8919SOL    HW227657   4.693   4.133   7.004
 8920SOL     OW27658   0.081   1.784   6.904
 8920SOL    HW127659   0.141   1.853   6.945
 8920SOL    HW227660   7.007   1.821   6.899
 8921SOL     OW27661   1.577   2.916   1.768
 8921SOL    HW127662   1.531   2.852   1.707
 8921SOL    HW227663   1.578   3.007   1.727
 8922SOL     OW27664   4.105   5.291   2.208
 8922SOL    HW127665   4.191   5.310   2.256
 8922SOL    HW227666   4.052   5.224   2.260
 8923SOL     OW27667   1.825   1.568   6.665
 8923SOL    HW127668   1.912   1.538   6.627
 8923SOL    HW227669   1.831   1.665   6.689
 8924SOL     OW27670   5.151   5.673   5.368
 8924SOL    HW127671   5.131   5.696   5.273
 8924SOL    HW227672   5.133   5.751   5.427
 8925SOL     OW27673   0.620   0.882   3.060
 8925SOL    HW127674   0.668   0.840   2.983
 8925SOL    HW227675   0.684   0.940   3.111
 8926SOL     OW27676   6.574   3.065   6.334
 8926SOL    HW127677   6.593   3.148   6.281
 8926SOL    HW227678   6.564   2.987   6.272
 8927SOL     OW27679   0.292   1.107   4.674
 8927SOL    HW127680   0.208   1.129   4.724
 8927SOL    HW227681   0.329   1.020   4.706
 8928SOL     OW27682   1.478   0.063   6.111
 8928SOL    HW127683   1.516   0.020   6.029
 8928SOL    HW227684   1.391   0.019   6.134
 8929SOL     OW27685   5.456   1.427   5.148
 8929SOL    HW127686   5.471   1.473   5.060
 8929SOL    HW227687   5.409   1.489   5.211
 8930SOL     OW27688   1.135   2.764   4.657
 8930SOL    HW127689   1.160   2.776   4.561
 8930SOL    HW227690   1.203   2.808   4.716
 8931SOL     OW27691   3.010   3.810   1.082
 8931SOL    HW127692   2.964   3.899   1.071
 8931SOL    HW227693   3.027   3.794   1.179
 8932SOL     OW27694   5.954   2.134   1.858
 8932SOL    HW127695   6.038   2.138   1.804
 8932SOL    HW227696   5.875   2.150   1.800
 8933SOL     OW27697   2.483   3.000   6.273
 8933SOL    HW127698   2.446   3.004   6.366
 8933SOL    HW227699   2.567   2.945   6.273
 8934SOL     OW27700   2.433   5.655   4.392
 8934SOL    HW127701   2.484   5.611   4.319
 8934SOL    HW227702   2.337   5.661   4.366
 8935SOL     OW27703   0.772   4.440   0.071
 8935SOL    HW127704   0.734   4.348   0.083
 8935SOL    HW227705   0.697   4.505   0.056
 8936SOL     OW27706   1.285   3.990   2.270
 8936SOL    HW127707   1.275   3.927   2.347
 8936SOL    HW227708   1.368   4.045   2.282
 8937SOL     OW27709   0.638   0.375   5.485
 8937SOL    HW127710   0.559   0.419   5.442
 8937SOL    HW227711   0.618   0.355   5.581
 8938SOL     OW27712   0.306   6.309   0.150
 8938SOL    HW127713   0.367   6.236   0.119
 8938SOL    HW227714   0.231   6.270   0.203
 8939SOL     OW27715   5.357   3.827   4.102
 8939SOL    HW127716   5.320   3.771   4.176
 8939SOL    HW227717   5.348   3.924   4.126
 8940SOL     OW27718   0.239   1.333   2.094
 8940SOL    HW127719   0.185   1.281   2.027
 8940SOL    HW227720   0.298   1.398   2.046
 8941SOL     OW27721   6.337   2.585   5.478
 8941SOL    HW127722   6.286   2.586   5.392
 8941SOL    HW227723   6.291   2.525   5.544
 8942SOL     OW27724   6.478   4.822   5.286
 8942SOL    HW127725   6.424   4.825   5.370
 8942SOL    HW227726   6.423   4.784   5.212
 8943SOL     OW27727   3.476   5.015   6.067
 8943SOL    HW127728   3.426   5.022   5.981
 8943SOL    HW227729   3.570   4.985   6.050
 8944SOL     OW27730   5.724   4.627   5.701
 8944SOL    HW127731   5.809   4.616   5.753
 8944SOL    HW227732   5.655   4.672   5.757
 8945SOL     OW27733   1.075   0.403   2.909
 8945SOL    HW127734   1.004   0.397   2.839
 8945SOL    HW227735   1.072   0.321   2.967
 8946SOL     OW27736   3.176   1.352   5.122
 8946SOL    HW127737   3.258   1.307   5.089
 8946SOL    HW227738   3.177   1.448   5.095
 8947SOL     OW27739   1.949   3.576   5.741
 8947SOL    HW127740   1.967   3.674   5.753
 8947SOL    HW227741   2.035   3.529   5.719
 8948SOL     OW27742   5.770   6.198   4.355
 8948SOL    HW127743   5.812   6.116   4.315
 8948SOL    HW227744   5.833   6.275   4.345
 8949SOL     OW27745   2.713   6.803   0.755
 8949SOL    HW127746   2.698   6.711   0.718
 8949SOL    HW227747   2.655   6.868   0.707
 8950SOL     OW27748   4.667   4.430   6.223
 8950SOL    HW127749   4.753   4.383   6.238
 8950SOL    HW227750   4.626   4.399   6.137
 8951SOL     OW27751   1.207   1.878   5.222
 8951SOL    HW127752   1.188   1.782   5.243
 8951SOL    HW227753   1.306   1.893   5.222
 8952SOL     OW27754   1.585   6.587   2.852
 8952SOL    HW127755   1.550   6.548   2.937
 8952SOL    HW227756   1.523   6.565   2.777
 8953SOL     OW27757   1.625   3.998   6.845
 8953SOL    HW127758   1.633   4.046   6.758
 8953SOL    HW227759   1.716   3.980   6.882
 8954SOL     OW27760   0.840   0.439   4.897
 8954SOL    HW127761   0.767   0.491   4.852
 8954SOL    HW227762   0.913   0.421   4.831
 8955SOL     OW27763   0.002   5.059   2.395
 8955SOL    HW127764   6.998   5.146   2.438
 8955SOL    HW227765   0.086   5.070   2.341
 8956SOL     OW27766   1.466   0.893   6.951
 8956SOL    HW127767   1.368   0.878   6.940
 8956SOL    HW227768   1.482   0.961   0.004
 8957SOL     OW27769   2.872   4.696   0.859
 8957SOL    HW127770   2.909   4.666   0.771
 8957SOL    HW227771   2.801   4.765   0.843
 8958SOL     OW27772   0.675   1.327   4.678
 8958SOL    HW127773   0.701   1.234   4.705
 8958SOL    HW227774   0.696   1.391   4.753
 8959SOL     OW27775   1.859   4.638   1.500
 8959SOL    HW127776   1.944   4.591   1.524
 8959SOL    HW227777   1.874   4.737   1.504
 8960SOL     OW27778   4.818   4.497   2.782
 8960SOL    HW127779   4.732   4.549   2.773
 8960SOL    HW227780   4.832   4.441   2.701
 8961SOL     OW27781   2.301   1.222   4.108
 8961SOL    HW127782   2.369   1.233   4.036
 8961SOL    HW227783   2.217   1.184   4.068
 8962SOL     OW27784   6.140   5.617   2.046
 8962SOL    HW127785   6.158   5.600   1.949
 8962SOL    HW227786   6.096   5.537   2.087
 8963SOL     OW27787   4.009   6.102   4.028
 8963SOL    HW127788   4.057   6.081   3.943
 8963SOL    HW227789   4.068   6.078   4.106
 8964SOL     OW27790   4.957   3.382   3.178
 8964SOL    HW127791   4.940   3.286   3.161
 8964SOL    HW227792   5.054   3.396   3.198
 8965SOL     OW27793   2.683   4.859   0.242
 8965SOL    HW127794   2.628   4.906   0.311
 8965SOL    HW227795   2.727   4.779   0.283
 8966SOL     OW27796   6.888   4.109   0.274
 8966SOL    HW127797   6.956   4.179   0.250
 8966SOL    HW227798   6.935   4.029   0.312
 8967SOL     OW27799   4.118   0.510   1.507
 8967SOL    HW127800   4.086   0.571   1.580
 8967SOL    HW227801   4.134   0.562   1.424
 8968SOL     OW27802   4.834   5.277   3.101
 8968SOL    HW127803   4.798   5.223   3.177
 8968SOL    HW227804   4.853   5.217   3.023
 8969SOL     OW27805   6.919   1.404   4.578
 8969SOL    HW127806   6.965   1.318   4.554
 8969SOL    HW227807   6.985   1.479   4.575
 8970SOL     OW27808   2.453   2.924   0.462
 8970SOL    HW127809   2.380   2.987   0.488
 8970SOL    HW227810   2.515   2.969   0.398
 8971SOL     OW27811   5.501   5.471   1.223
 8971SOL    HW127812   5.424   5.507   1.170
 8971SOL    HW227813   5.481   5.377   1.252
 8972SOL     OW27814   5.401   4.732   6.452
 8972SOL    HW127815   5.378   4.634   6.454
 8972SOL    HW227816   5.350   4.776   6.378
 8973SOL     OW27817   0.652   3.088   2.180
 8973SOL    HW127818   0.607   3.008   2.140
 8973SOL    HW227819   0.616   3.171   2.136
 8974SOL     OW27820   0.966   4.284   5.668
 8974SOL    HW127821   0.996   4.234   5.750
 8974SOL    HW227822   1.024   4.259   5.591
 8975SOL     OW27823   1.664   6.940   5.411
 8975SOL    HW127824   1.734   6.900   5.471
 8975SOL    HW227825   1.604   6.867   5.376
 8976SOL     OW27826   6.847   5.174   5.931
 8976SOL    HW127827   6.933   5.192   5.884
 8976SOL    HW227828   6.822   5.253   5.987
 8977SOL     OW27829   6.120   2.375   0.396
 8977SOL    HW127830   6.190   2.414   0.456
 8977SOL    HW227831   6.098   2.283   0.426
 8978SOL     OW27832   5.961   0.163   4.258
 8978SOL    HW127833   6.033   0.115   4.308
 8978SOL    HW227834   5.997   0.195   4.170
 8979SOL     OW27835   1.394   4.012   4.733
 8979SOL    HW127836   1.401   4.024   4.634
 8979SOL    HW227837   1.301   3.982   4.757
 8980SOL     OW27838   3.024   2.666   5.526
 8980SOL    HW127839   3.046   2.602   5.453
 8980SOL    HW227840   2.935   2.707   5.509
 8981SOL     OW27841   4.284   1.452   5.886
 8981SOL    HW127842   4.280   1.410   5.795
 8981SOL    HW227843   4.224   1.402   5.949
 8982SOL     OW27844   0.891   2.446   1.548
 8982SOL    HW127845   0.872   2.544   1.559
 8982SOL    HW227846   0.916   2.407   1.636
 8983SOL     OW27847   1.408   5.886   0.023
 8983SOL    HW127848   1.479   5.956   0.024
 8983SOL    HW227849   1.334   5.915   6.981
 8984SOL     OW27850   6.807   7.000   4.599
 8984SOL    HW127851   6.744   7.012   4.522
 8984SOL    HW227852   6.848   0.069   4.623
 8985SOL     OW27853   2.680   2.105   1.114
 8985SOL    HW127854   2.768   2.096   1.160
 8985SOL    HW227855   2.636   2.191   1.141
 8986SOL     OW27856   4.577   5.325   2.240
 8986SOL    HW127857   4.650   5.363   2.184
 8986SOL    HW227858   4.561   5.229   2.216
 8987SOL     OW27859   4.926   6.662   1.015
 8987SOL    HW127860   4.902   6.566   1.034
 8987SOL    HW227861   4.956   6.706   1.099
 8988SOL     OW27862   1.238   3.582   5.748
 8988SOL    HW127863   1.163   3.535   5.700
 8988SOL    HW227864   1.238   3.555   5.844
 8989SOL     OW27865   5.195   3.943   1.340
 8989SOL    HW127866   5.231   3.962   1.249
 8989SOL    HW227867   5.245   3.998   1.408
 8990SOL     OW27868   2.086   5.999   3.197
 8990SOL    HW127869   2.161   5.977   3.135
 8990SOL    HW227870   2.122   6.011   3.290
 8991SOL     OW27871   1.439   1.356   6.841
 8991SOL    HW127872   1.378   1.378   6.918
 8991SOL    HW227873   1.395   1.287   6.783
 8992SOL     OW27874   5.771   1.652   6.977
 8992SOL    HW127875   5.687   1.600   6.996
 8992SOL    HW227876   5.837   1.593   6.930
 8993SOL     OW27877   4.623   2.174   2.861
 8993SOL    HW127878   4.620   2.113   2.940
 8993SOL    HW227879   4.658   2.123   2.782
 8994SOL     OW27880   1.432   4.740   4.794
 8994SOL    HW127881   1.509   4.687   4.829
 8994SOL    HW227882   1.357   4.678   4.769
 8995SOL     OW27883   0.715   2.928   0.133
 8995SOL    HW127884   0.718   2.850   0.196
 8995SOL    HW227885   0.736   3.012   0.182
 8996SOL     OW27886   6.174   5.029   0.645
 8996SOL    HW127887   6.236   5.075   0.709
 8996SOL    HW227888   6.079   5.045   0.674
 8997SOL     OW27889   4.680   1.278   5.768
 8997SOL    HW127890   4.720   1.193   5.803
 8997SOL    HW227891   4.635   1.327   5.843
 8998SOL     OW27892   6.259   3.647   4.420
 8998SOL    HW127893   6.297   3.706   4.491
 8998SOL    HW227894   6.164   3.672   4.402
 8999SOL     OW27895   4.686   6.471   6.995
 8999SOL    HW127896   4.614   6.496   6.930
 8999SOL    HW227897   4.738   6.394   6.959
 9000SOL     OW27898   1.966   4.078   0.857
 9000SOL    HW127899   1.948   4.115   0.766
 9000SOL    HW227900   2.015   3.991   0.849
 9001SOL     OW27901   1.298   5.658   2.547
 9001SOL    HW127902   1.364   5.706   2.489
 9001SOL    HW227903   1.338   5.570   2.576
 9002SOL     OW27904   0.201   4.872   5.249
 9002SOL    HW127905   0.209   4.804   5.176
 9002SOL    HW227906   0.292   4.903   5.275
 9003SOL     OW27907   5.046   3.412   1.664
 9003SOL    HW127908   4.949   3.419   1.688
 9003SOL    HW227909   5.088   3.337   1.715
 9004SOL     OW27910   3.722   6.742   1.232
 9004SOL    HW127911   3.731   6.820   1.170
 9004SOL    HW227912   3.644   6.686   1.205
 9005SOL     OW27913   5.326   2.395   4.304
 9005SOL    HW127914   5.388   2.319   4.326
 9005SOL    HW227915   5.343   2.470   4.368
 9006SOL     OW27916   2.251   6.470   1.009
 9006SOL    HW127917   2.295   6.494   1.096
 9006SOL    HW227918   2.252   6.371   0.998
 9007SOL     OW27919   3.592   0.976   4.372
 9007SOL    HW127920   3.686   0.952   4.399
 9007SOL    HW227921   3.570   1.067   4.407
 9008SOL     OW27922   1.442   5.587   3.370
 9008SOL    HW127923   1.450   5.686   3.355
 9008SOL    HW227924   1.346   5.563   3.382
 9009SOL     OW27925   3.125   6.936   0.642
 9009SOL    HW127926   3.179   6.886   0.575
 9009SOL    HW227927   3.185   6.997   0.694
 9010SOL     OW27928   1.278   6.298   3.802
 9010SOL    HW127929   1.321   6.248   3.877
 9010SOL    HW227930   1.266   6.393   3.827
 9011SOL     OW27931   5.254   2.385   2.229
 9011SOL    HW127932   5.190   2.309   2.242
 9011SOL    HW227933   5.348   2.351   2.236
 9012SOL     OW27934   1.962   4.023   1.199
 9012SOL    HW127935   1.867   4.047   1.220
 9012SOL    HW227936   1.997   4.084   1.128
 9013SOL     OW27937   6.972   6.623   5.286
 9013SOL    HW127938   6.980   6.538   5.233
 9013SOL    HW227939   6.920   6.605   5.370
 9014SOL     OW27940   6.546   1.916   0.174
 9014SOL    HW127941   6.454   1.911   0.214
 9014SOL    HW227942   6.543   1.973   0.092
 9015SOL     OW27943   4.906   1.124   1.338
 9015SOL    HW127944   4.881   1.030   1.314
 9015SOL    HW227945   4.837   1.187   1.303
 9016SOL     OW27946   0.528   6.589   6.391
 9016SOL    HW127947   0.607   6.592   6.330
 9016SOL    HW227948   0.554   6.622   6.482
 9017SOL     OW27949   4.175   1.825   3.145
 9017SOL    HW127950   4.153   1.737   3.188
 9017SOL    HW227951   4.256   1.814   3.087
 9018SOL     OW27952   4.102   2.350   6.938
 9018SOL    HW127953   4.138   2.261   6.967
 9018SOL    HW227954   4.077   2.346   6.841
 9019SOL     OW27955   1.518   6.412   2.031
 9019SOL    HW127956   1.575   6.330   2.032
 9019SOL    HW227957   1.560   6.483   2.088
 9020SOL     OW27958   0.278   4.506   1.623
 9020SOL    HW127959   0.236   4.475   1.708
 9020SOL    HW227960   0.320   4.596   1.638
 9021SOL     OW27961   6.649   0.317   3.729
 9021SOL    HW127962   6.601   0.405   3.728
 9021SOL    HW227963   6.694   0.305   3.818
 9022SOL     OW27964   2.836   2.267   6.695
 9022SOL    HW127965   2.896   2.292   6.771
 9022SOL    HW227966   2.842   2.168   6.679
 9023SOL     OW27967   3.202   3.198   2.521
 9023SOL    HW127968   3.178   3.186   2.425
 9023SOL    HW227969   3.297   3.227   2.528
 9024SOL     OW27970   0.962   4.476   4.931
 9024SOL    HW127971   0.871   4.492   4.892
 9024SOL    HW227972   1.020   4.432   4.862
 9025SOL     OW27973   0.842   5.226   0.221
 9025SOL    HW127974   0.899   5.274   0.155
 9025SOL    HW227975   0.855   5.267   0.312
 9026SOL     OW27976   4.162   3.045   1.279
 9026SOL    HW127977   4.238   3.036   1.344
 9026SOL    HW227978   4.184   2.995   1.195
 9027SOL     OW27979   1.340   2.307   3.884
 9027SOL    HW127980   1.350   2.301   3.785
 9027SOL    HW227981   1.427   2.281   3.928
 9028SOL     OW27982   2.309   3.509   5.286
 9028SOL    HW127983   2.220   3.536   5.249
 9028SOL    HW227984   2.358   3.590   5.318
 9029SOL     OW27985   3.785   6.703   4.883
 9029SOL    HW127986   3.720   6.755   4.937
 9029SOL    HW227987   3.826   6.762   4.813
 9030SOL     OW27988   2.280   1.503   3.047
 9030SOL    HW127989   2.319   1.568   2.982
 9030SOL    HW227990   2.329   1.508   3.134
 9031SOL     OW27991   4.157   5.577   4.287
 9031SOL    HW127992   4.073   5.525   4.306
 9031SOL    HW227993   4.228   5.515   4.254
 9032SOL     OW27994   3.922   2.838   0.442
 9032SOL    HW127995   3.972   2.771   0.387
 9032SOL    HW227996   3.865   2.894   0.381
 9033SOL     OW27997   0.896   4.110   3.340
 9033SOL    HW127998   0.822   4.126   3.275
 9033SOL    HW227999   0.857   4.081   3.428
 9034SOL     OW28000   2.914   0.507   5.608
 9034SOL    HW128001   2.831   0.549   5.572
 9034SOL    HW228002   2.937   0.549   5.696
 9035SOL     OW28003   1.449   4.910   6.460
 9035SOL    HW128004   1.477   4.873   6.549
 9035SOL    HW228005   1.450   5.010   6.463
 9036SOL     OW28006   1.364   1.468   5.785
 9036SOL    HW128007   1.365   1.488   5.883
 9036SOL    HW228008   1.387   1.371   5.772
 9037SOL     OW28009   1.095   3.769   5.183
 9037SOL    HW128010   1.130   3.863   5.186
 9037SOL    HW228011   1.151   3.714   5.122
 9038SOL     OW28012   4.513   6.892   5.814
 9038SOL    HW128013   4.567   6.973   5.791
 9038SOL    HW228014   4.567   6.832   5.873
 9039SOL     OW28015   2.565   5.876   5.411
 9039SOL    HW128016   2.493   5.812   5.439
 9039SOL    HW228017   2.592   5.856   5.317
 9040SOL     OW28018   3.518   1.285   2.395
 9040SOL    HW128019   3.571   1.200   2.393
 9040SOL    HW228020   3.579   1.362   2.411
 9041SOL     OW28021   0.832   2.201   1.696
 9041SOL    HW128022   0.865   2.112   1.665
 9041SOL    HW228023   0.774   2.241   1.625
 9042SOL     OW28024   3.085   0.757   4.116
 9042SOL    HW128025   3.145   0.766   4.036
 9042SOL    HW228026   3.003   0.812   4.102
 9043SOL     OW28027   1.208   1.030   0.235
 9043SOL    HW128028   1.300   1.020   0.196
 9043SOL    HW228029   1.160   0.942   0.228
 9044SOL     OW28030   6.297   0.824   0.487
 9044SOL    HW128031   6.368   0.863   0.546
 9044SOL    HW228032   6.338   0.757   0.426
 9045SOL     OW28033   2.348   1.234   2.217
 9045SOL    HW128034   2.281   1.241   2.290
 9045SOL    HW228035   2.407   1.315   2.218
 9046SOL     OW28036   3.599   3.585   3.303
 9046SOL    HW128037   3.535   3.511   3.283
 9046SOL    HW228038   3.551   3.673   3.298
 9047SOL     OW28039   1.901   3.317   6.108
 9047SOL    HW128040   1.921   3.289   6.014
 9047SOL    HW228041   1.906   3.417   6.115
 9048SOL     OW28042   5.312   3.163   6.226
 9048SOL    HW128043   5.216   3.141   6.239
 9048SOL    HW228044   5.330   3.257   6.254
 9049SOL     OW28045   3.257   0.068   5.721
 9049SOL    HW128046   3.349   0.049   5.755
 9049SOL    HW228047   3.220   7.004   5.679
 9050SOL     OW28048   0.290   3.202   0.533
 9050SOL    HW128049   0.328   3.292   0.550
 9050SOL    HW228050   0.244   3.169   0.615
 9051SOL     OW28051   3.855   6.607   0.941
 9051SOL    HW128052   3.769   6.561   0.962
 9051SOL    HW228053   3.837   6.702   0.917
 9052SOL     OW28054   2.589   2.022   4.088
 9052SOL    HW128055   2.564   1.927   4.071
 9052SOL    HW228056   2.583   2.074   4.003
 9053SOL     OW28057   1.965   0.903   2.705
 9053SOL    HW128058   2.048   0.905   2.760
 9053SOL    HW228059   1.943   0.809   2.680
 9054SOL     OW28060   3.064   6.053   3.215
 9054SOL    HW128061   3.124   6.050   3.134
 9054SOL    HW228062   2.992   5.984   3.206
 9055SOL     OW28063   5.318   2.639   4.412
 9055SOL    HW128064   5.363   2.679   4.492
 9055SOL    HW228065   5.324   2.703   4.335
 9056SOL     OW28066   0.489   1.254   2.199
 9056SOL    HW128067   0.496   1.172   2.256
 9056SOL    HW228068   0.393   1.272   2.177
 9057SOL     OW28069   4.919   4.293   6.234
 9057SOL    HW128070   4.925   4.196   6.212
 9057SOL    HW228071   5.009   4.336   6.221
 9058SOL     OW28072   2.347   2.122   2.185
 9058SOL    HW128073   2.280   2.161   2.247
 9058SOL    HW228074   2.435   2.111   2.232
 9059SOL     OW28075   0.981   2.275   4.181
 9059SOL    HW128076   1.023   2.362   4.156
 9059SOL    HW228077   0.901   2.259   4.124
 9060SOL     OW28078   6.338   2.746   3.566
 9060SOL    HW128079   6.384   2.834   3.576
 9060SOL    HW228080   6.260   2.757   3.504
 9061SOL     OW28081   2.330   5.564   2.547
 9061SOL    HW128082   2.242   5.552   2.500
 9061SOL    HW228083   2.397   5.600   2.483
 9062SOL     OW28084   1.478   5.993   1.913
 9062SOL    HW128085   1.578   5.993   1.907
 9062SOL    HW228086   1.449   5.932   1.987
 9063SOL     OW28087   2.489   6.951   3.067
 9063SOL    HW128088   2.533   0.018   3.040
 9063SOL    HW228089   2.550   6.874   3.048
 9064SOL     OW28090   6.419   1.994   5.432
 9064SOL    HW128091   6.360   1.944   5.368
 9064SOL    HW228092   6.400   1.963   5.525
 9065SOL     OW28093   3.324   0.195   5.459
 9065SOL    HW128094   3.303   0.259   5.385
 9065SOL    HW228095   3.250   0.129   5.469
 9066SOL     OW28096   4.789   6.072   0.824
 9066SOL    HW128097   4.886   6.062   0.802
 9066SOL    HW228098   4.734   6.028   0.754
 9067SOL     OW28099   6.931   0.556   4.423
 9067SOL    HW128100   6.891   0.544   4.514
 9067SOL    HW228101   6.860   0.580   4.358
 9068SOL     OW28102   2.503   6.813   4.697
 9068SOL    HW128103   2.536   6.908   4.694
 9068SOL    HW228104   2.569   6.754   4.652
 9069SOL     OW28105   1.985   3.510   1.287
 9069SOL    HW128106   1.932   3.595   1.281
 9069SOL    HW228107   2.076   3.530   1.324
 9070SOL     OW28108   1.220   3.714   4.826
 9070SOL    HW128109   1.183   3.804   4.803
 9070SOL    HW228110   1.297   3.725   4.890
 9071SOL     OW28111   5.747   0.252   1.491
 9071SOL    HW128112   5.758   0.171   1.434
 9071SOL    HW228113   5.799   0.328   1.452
 9072SOL     OW28114   0.080   1.551   1.822
 9072SOL    HW128115   0.071   1.562   1.921
 9072SOL    HW228116   7.011   1.520   1.785
 9073SOL     OW28117   3.087   6.812   2.415
 9073SOL    HW128118   3.030   6.734   2.440
 9073SOL    HW228119   3.122   6.856   2.497
 9074SOL     OW28120   1.679   2.131   2.077
 9074SOL    HW128121   1.597   2.100   2.126
 9074SOL    HW228122   1.656   2.155   1.983
 9075SOL     OW28123   1.097   1.448   1.994
 9075SOL    HW128124   1.077   1.496   1.908
 9075SOL    HW228125   1.053   1.496   2.069
 9076SOL     OW28126   6.609   2.228   5.835
 9076SOL    HW128127   6.645   2.291   5.767
 9076SOL    HW228128   6.660   2.142   5.832
 9077SOL     OW28129   4.198   0.570   0.412
 9077SOL    HW128130   4.177   0.483   0.366
 9077SOL    HW228131   4.295   0.589   0.404
 9078SOL     OW28132   4.218   3.355   6.327
 9078SOL    HW128133   4.253   3.267   6.360
 9078SOL    HW228134   4.279   3.391   6.256
 9079SOL     OW28135   3.339   0.884   4.255
 9079SOL    HW128136   3.300   0.798   4.221
 9079SOL    HW228137   3.435   0.869   4.280
 9080SOL     OW28138   4.128   2.491   6.303
 9080SOL    HW128139   4.202   2.491   6.371
 9080SOL    HW228140   4.065   2.565   6.322
 9081SOL     OW28141   3.505   6.999   2.456
 9081SOL    HW128142   3.590   6.980   2.506
 9081SOL    HW228143   3.429   6.956   2.504
 9082SOL     OW28144   1.960   0.542   5.436
 9082SOL    HW128145   2.017   0.461   5.420
 9082SOL    HW228146   1.898   0.556   5.359
 9083SOL     OW28147   3.257   5.583   5.907
 9083SOL    HW128148   3.301   5.668   5.879
 9083SOL    HW228149   3.162   5.584   5.877
 9084SOL     OW28150   3.175   4.047   4.517
 9084SOL    HW128151   3.199   4.014   4.426
 9084SOL    HW228152   3.166   4.147   4.515
 9085SOL     OW28153   2.356   0.173   1.830
 9085SOL    HW128154   2.374   0.271   1.819
 9085SOL    HW228155   2.356   0.129   1.740
 9086SOL     OW28156   1.126   4.509   0.508
 9086SOL    HW128157   1.061   4.434   0.500
 9086SOL    HW228158   1.122   4.546   0.601
 9087SOL     OW28159   4.342   2.240   1.494
 9087SOL    HW128160   4.263   2.274   1.546
 9087SOL    HW228161   4.319   2.152   1.453
 9088SOL     OW28162   0.130   6.489   1.053
 9088SOL    HW128163   0.197   6.418   1.073
 9088SOL    HW228164   0.071   6.459   0.978
 9089SOL     OW28165   5.364   5.559   5.702
 9089SOL    HW128166   5.356   5.605   5.790
 9089SOL    HW228167   5.277   5.517   5.677
 9090SOL     OW28168   0.034   1.254   4.038
 9090SOL    HW128169   7.009   1.237   3.950
 9090SOL    HW228170   0.122   1.207   4.041
 9091SOL     OW28171   3.389   4.159   6.912
 9091SOL    HW128172   3.369   4.182   6.817
 9091SOL    HW228173   3.331   4.215   6.972
 9092SOL     OW28174   6.434   0.674   6.632
 9092SOL    HW128175   6.529   0.702   6.640
 9092SOL    HW228176   6.377   0.727   6.695
 9093SOL     OW28177   0.966   5.826   5.811
 9093SOL    HW128178   0.986   5.729   5.823
 9093SOL    HW228179   0.932   5.842   5.718
 9094SOL     OW28180   6.475   4.803   2.966
 9094SOL    HW128181   6.573   4.790   2.981
 9094SOL    HW228182   6.424   4.736   3.021
 9095SOL     OW28183   4.755   4.892   6.374
 9095SOL    HW128184   4.782   4.797   6.390
 9095SOL    HW228185   4.714   4.929   6.456
 9096SOL     OW28186   6.273   5.300   2.510
 9096SOL    HW128187   6.299   5.352   2.429
 9096SOL    HW228188   6.326   5.215   2.514
 9097SOL     OW28189   1.111   1.610   1.136
 9097SOL    HW128190   1.185   1.552   1.171
 9097SOL    HW228191   1.145   1.704   1.124
 9098SOL     OW28192   3.601   2.035   4.562
 9098SOL    HW128193   3.521   2.050   4.620
 9098SOL    HW228194   3.646   1.951   4.590
 9099SOL     OW28195   3.364   3.369   6.084
 9099SOL    HW128196   3.447   3.395   6.035
 9099SOL    HW228197   3.286   3.376   6.022
 9100SOL     OW28198   0.062   3.194   3.056
 9100SOL    HW128199   0.061   3.263   3.129
 9100SOL    HW228200   6.988   3.161   3.040
 9101SOL     OW28201   2.754   2.628   1.749
 9101SOL    HW128202   2.817   2.558   1.783
 9101SOL    HW228203   2.795   2.674   1.671
 9102SOL     OW28204   3.665   6.623   2.162
 9102SOL    HW128205   3.684   6.653   2.256
 9102SOL    HW228206   3.684   6.697   2.099
 9103SOL     OW28207   5.648   2.299   6.694
 9103SOL    HW128208   5.586   2.328   6.622
 9103SOL    HW228209   5.630   2.350   6.777
 9104SOL     OW28210   0.064   6.408   1.721
 9104SOL    HW128211   0.127   6.395   1.797
 9104SOL    HW228212   0.020   6.497   1.731
 9105SOL     OW28213   0.454   1.177   6.192
 9105SOL    HW128214   0.433   1.126   6.108
 9105SOL    HW228215   0.379   1.242   6.210
 9106SOL     OW28216   5.504   3.728   1.370
 9106SOL    HW128217   5.476   3.701   1.278
 9106SOL    HW228218   5.461   3.667   1.437
 9107SOL     OW28219   2.256   0.881   6.676
 9107SOL    HW128220   2.186   0.863   6.607
 9107SOL    HW228221   2.285   0.977   6.671
 9108SOL     OW28222   4.974   4.138   5.190
 9108SOL    HW128223   5.067   4.132   5.155
 9108SOL    HW228224   4.933   4.046   5.191
 9109SOL     OW28225   6.078   3.771   2.982
 9109SOL    HW128226   6.017   3.829   3.036
 9109SOL    HW228227   6.036   3.750   2.894
 9110SOL     OW28228   1.949   5.356   4.261
 9110SOL    HW128229   2.015   5.375   4.188
 9110SOL    HW228230   1.859   5.390   4.234
 9111SOL     OW28231   4.562   2.919   0.025
 9111SOL    HW128232   4.512   2.834   0.035
 9111SOL    HW228233   4.500   2.996   0.040
 9112SOL     OW28234   2.330   5.759   2.803
 9112SOL    HW128235   2.351   5.722   2.713
 9112SOL    HW228236   2.263   5.700   2.848
 9113SOL     OW28237   5.167   2.546   2.668
 9113SOL    HW128238   5.145   2.453   2.641
 9113SOL    HW228239   5.260   2.569   2.639
 9114SOL     OW28240   6.805   5.306   3.842
 9114SOL    HW128241   6.739   5.317   3.917
 9114SOL    HW228242   6.759   5.319   3.755
 9115SOL     OW28243   5.675   5.500   5.113
 9115SOL    HW128244   5.637   5.541   5.196
 9115SOL    HW228245   5.717   5.571   5.056
 9116SOL     OW28246   0.492   6.789   2.906
 9116SOL    HW128247   0.520   6.709   2.853
 9116SOL    HW228248   0.399   6.776   2.940
 9117SOL     OW28249   3.636   2.912   5.811
 9117SOL    HW128250   3.618   2.830   5.756
 9117SOL    HW228251   3.611   2.993   5.757
 9118SOL     OW28252   6.347   3.446   0.259
 9118SOL    HW128253   6.304   3.382   0.195
 9118SOL    HW228254   6.329   3.540   0.229
 9119SOL     OW28255   3.635   1.028   2.231
 9119SOL    HW128256   3.716   1.018   2.173
 9119SOL    HW228257   3.661   1.015   2.327
 9120SOL     OW28258   0.127   1.822   5.702
 9120SOL    HW128259   0.194   1.808   5.628
 9120SOL    HW228260   0.173   1.812   5.790
 9121SOL     OW28261   3.731   6.284   4.736
 9121SOL    HW128262   3.652   6.316   4.684
 9121SOL    HW228263   3.702   6.257   4.828
 9122SOL     OW28264   2.491   4.537   2.026
 9122SOL    HW128265   2.591   4.543   2.019
 9122SOL    HW228266   2.459   4.459   1.972
 9123SOL     OW28267   2.257   0.830   4.497
 9123SOL    HW128268   2.239   0.732   4.484
 9123SOL    HW228269   2.171   0.880   4.503
 9124SOL     OW28270   3.859   5.489   0.903
 9124SOL    HW128271   3.850   5.447   0.994
 9124SOL    HW228272   3.945   5.540   0.899
 9125SOL     OW28273   4.097   4.446   1.261
 9125SOL    HW128274   4.069   4.389   1.185
 9125SOL    HW228275   4.028   4.443   1.333
 9126SOL     OW28276   5.090   3.883   1.701
 9126SOL    HW128277   5.112   3.827   1.621
 9126SOL    HW228278   5.073   3.824   1.780
 9127SOL     OW28279   6.759   1.940   5.793
 9127SOL    HW128280   6.761   1.851   5.838
 9127SOL    HW228281   6.796   1.931   5.700
 9128SOL     OW28282   6.136   2.389   5.520
 9128SOL    HW128283   6.084   2.310   5.550
 9128SOL    HW228284   6.223   2.360   5.480
 9129SOL     OW28285   6.252   1.527   0.217
 9129SOL    HW128286   6.192   1.524   0.137
 9129SOL    HW228287   6.234   1.611   0.269
 9130SOL     OW28288   1.098   4.634   6.166
 9130SOL    HW128289   1.031   4.570   6.127
 9130SOL    HW228290   1.158   4.584   6.229
 9131SOL     OW28291   5.172   3.314   5.943
 9131SOL    HW128292   5.236   3.378   5.900
 9131SOL    HW228293   5.079   3.335   5.913
 9132SOL     OW28294   1.190   5.113   4.764
 9132SOL    HW128295   1.282   5.150   4.756
 9132SOL    HW228296   1.192   5.015   4.741
 9133SOL     OW28297   3.482   0.270   1.321
 9133SOL    HW128298   3.394   0.283   1.275
 9133SOL    HW228299   3.503   0.350   1.377
 9134SOL     OW28300   4.276   5.516   1.399
 9134SOL    HW128301   4.363   5.485   1.361
 9134SOL    HW228302   4.247   5.599   1.351
 9135SOL     OW28303   1.048   6.476   1.403
 9135SOL    HW128304   1.126   6.486   1.464
 9135SOL    HW228305   1.019   6.565   1.369
 9136SOL     OW28306   4.597   5.946   5.709
 9136SOL    HW128307   4.622   5.870   5.649
 9136SOL    HW228308   4.510   5.985   5.678
 9137SOL     OW28309   3.809   0.680   6.683
 9137SOL    HW128310   3.735   0.660   6.747
 9137SOL    HW228311   3.810   0.778   6.663
 9138SOL     OW28312   1.229   3.944   6.329
 9138SOL    HW128313   1.240   4.013   6.401
 9138SOL    HW228314   1.293   3.965   6.254
 9139SOL     OW28315   1.404   1.429   2.265
 9139SOL    HW128316   1.497   1.444   2.232
 9139SOL    HW228317   1.350   1.385   2.193
 9140SOL     OW28318   0.928   4.455   1.826
 9140SOL    HW128319   0.896   4.419   1.914
 9140SOL    HW228320   0.851   4.460   1.762
 9141SOL     OW28321   6.490   6.361   6.991
 9141SOL    HW128322   6.474   6.457   6.967
 9141SOL    HW228323   6.545   6.356   0.055
 9142SOL     OW28324   0.520   3.752   1.474
 9142SOL    HW128325   0.468   3.796   1.401
 9142SOL    HW228326   0.523   3.653   1.457
 9143SOL     OW28327   0.040   4.164   1.829
 9143SOL    HW128328   0.069   4.091   1.891
 9143SOL    HW228329   6.960   4.164   1.820
 9144SOL     OW28330   3.415   5.177   4.638
 9144SOL    HW128331   3.419   5.084   4.600
 9144SOL    HW228332   3.503   5.199   4.679
 9145SOL     OW28333   1.622   5.949   6.658
 9145SOL    HW128334   1.622   5.850   6.641
 9145SOL    HW228335   1.716   5.980   6.672
 9146SOL     OW28336   5.406   3.409   2.692
 9146SOL    HW128337   5.497   3.398   2.731
 9146SOL    HW228338   5.365   3.494   2.726
 9147SOL     OW28339   6.757   0.388   4.918
 9147SOL    HW128340   6.678   0.327   4.918
 9147SOL    HW228341   6.770   0.427   4.827
 9148SOL     OW28342   5.952   6.677   1.911
 9148SOL    HW128343   5.988   6.729   1.833
 9148SOL    HW228344   5.979   6.723   1.996
 9149SOL     OW28345   5.843   2.806   2.064
 9149SOL    HW128346   5.795   2.761   1.989
 9149SOL    HW228347   5.787   2.881   2.100
 9150SOL     OW28348   3.439   4.160   0.976
 9150SOL    HW128349   3.385   4.100   0.918
 9150SOL    HW228350   3.519   4.111   1.010
 9151SOL     OW28351   2.141   3.825   3.436
 9151SOL    HW128352   2.150   3.745   3.377
 9151SOL    HW228353   2.177   3.906   3.388
 9152SOL     OW28354   1.706   4.477   4.477
 9152SOL    HW128355   1.687   4.533   4.397
 9152SOL    HW228356   1.805   4.468   4.489
 9153SOL     OW28357   0.209   2.639   6.975
 9153SOL    HW128358   0.277   2.620   6.905
 9153SOL    HW228359   0.216   2.734   7.004
 9154SOL     OW28360   5.157   3.963   3.421
 9154SOL    HW128361   5.141   4.039   3.358
 9154SOL    HW228362   5.219   3.897   3.379
 9155SOL     OW28363   2.215   4.522   2.988
 9155SOL    HW128364   2.119   4.507   3.011
 9155SOL    HW228365   2.253   4.592   3.048
 9156SOL     OW28366   6.542   2.446   1.787
 9156SOL    HW128367   6.605   2.458   1.864
 9156SOL    HW228368   6.448   2.447   1.822
 9157SOL     OW28369   3.358   4.261   6.610
 9157SOL    HW128370   3.324   4.353   6.627
 9157SOL    HW228371   3.314   4.224   6.528
 9158SOL     OW28372   6.415   3.593   4.201
 9158SOL    HW128373   6.369   3.595   4.290
 9158SOL    HW228374   6.350   3.618   4.129
 9159SOL     OW28375   1.728   0.536   3.725
 9159SOL    HW128376   1.718   0.471   3.801
 9159SOL    HW228377   1.750   0.485   3.642
 9160SOL     OW28378   0.388   5.976   5.545
 9160SOL    HW128379   0.357   5.967   5.450
 9160SOL    HW228380   0.316   5.944   5.607
 9161SOL     OW28381   6.358   5.061   3.342
 9161SOL    HW128382   6.306   5.083   3.425
 9161SOL    HW228383   6.296   5.024   3.273
 9162SOL     OW28384   3.910   0.266   2.894
 9162SOL    HW128385   3.902   0.358   2.932
 9162SOL    HW228386   3.880   0.267   2.799
 9163SOL     OW28387   6.888   3.365   2.775
 9163SOL    HW128388   6.951   3.288   2.786
 9163SOL    HW228389   6.860   3.397   2.866
 9164SOL     OW28390   1.781   1.010   7.015
 9164SOL    HW128391   1.773   0.954   6.932
 9164SOL    HW228392   1.769   1.106   6.991
 9165SOL     OW28393   4.645   1.639   6.120
 9165SOL    HW128394   4.667   1.657   6.216
 9165SOL    HW228395   4.596   1.718   6.082
 9166SOL     OW28396   4.437   5.322   0.800
 9166SOL    HW128397   4.510   5.254   0.803
 9166SOL    HW228398   4.455   5.387   0.726
 9167SOL     OW28399   1.526   2.363   6.284
 9167SOL    HW128400   1.526   2.286   6.347
 9167SOL    HW228401   1.502   2.330   6.192
 9168SOL     OW28402   6.465   5.990   6.674
 9168SOL    HW128403   6.498   6.080   6.704
 9168SOL    HW228404   6.524   5.956   6.601
 9169SOL     OW28405   6.350   5.949   6.022
 9169SOL    HW128406   6.279   5.879   6.025
 9169SOL    HW228407   6.421   5.921   5.957
 9170SOL     OW28408   1.850   1.040   6.599
 9170SOL    HW128409   1.945   1.063   6.575
 9170SOL    HW228410   1.796   1.124   6.602
 9171SOL     OW28411   3.045   5.421   0.470
 9171SOL    HW128412   2.951   5.392   0.484
 9171SOL    HW228413   3.073   5.480   0.545
 9172SOL     OW28414   4.402   2.163   4.568
 9172SOL    HW128415   4.501   2.151   4.565
 9172SOL    HW228416   4.358   2.075   4.583
 9173SOL     OW28417   6.186   2.930   4.443
 9173SOL    HW128418   6.090   2.903   4.433
 9173SOL    HW228419   6.192   3.026   4.468
 9174SOL     OW28420   0.687   5.947   0.019
 9174SOL    HW128421   0.748   5.880   6.996
 9174SOL    HW228422   0.594   5.935   7.002
 9175SOL     OW28423   1.374   6.724   6.979
 9175SOL    HW128424   1.332   6.651   0.013
 9175SOL    HW228425   1.307   6.763   6.916
 9176SOL     OW28426   2.805   6.795   1.446
 9176SOL    HW128427   2.792   6.888   1.482
 9176SOL    HW228428   2.831   6.734   1.521
 9177SOL     OW28429   1.605   2.563   3.785
 9177SOL    HW128430   1.568   2.642   3.736
 9177SOL    HW228431   1.617   2.586   3.881
 9178SOL     OW28432   2.423   5.076   6.026
 9178SOL    HW128433   2.455   5.018   6.100
 9178SOL    HW228434   2.324   5.091   6.036
 9179SOL     OW28435   2.254   5.938   5.111
 9179SOL    HW128436   2.286   6.010   5.050
 9179SOL    HW228437   2.333   5.900   5.160
 9180SOL     OW28438   6.348   2.525   3.918
 9180SOL    HW128439   6.395   2.518   4.006
 9180SOL    HW228440   6.299   2.440   3.899
 9181SOL     OW28441   5.229   2.729   3.402
 9181SOL    HW128442   5.184   2.702   3.487
 9181SOL    HW228443   5.222   2.654   3.336
 9182SOL     OW28444   3.273   1.018   3.084
 9182SOL    HW128445   3.284   0.986   3.178
 9182SOL    HW228446   3.183   1.062   3.074
 9183SOL     OW28447   4.824   3.854   6.494
 9183SOL    HW128448   4.748   3.910   6.526
 9183SOL    HW228449   4.788   3.776   6.442
 9184SOL     OW28450   3.703   2.171   1.076
 9184SOL    HW128451   3.745   2.220   1.153
 9184SOL    HW228452   3.763   2.096   1.048
 9185SOL     OW28453   0.862   6.716   5.983
 9185SOL    HW128454   0.871   6.805   5.939
 9185SOL    HW228455   0.789   6.663   5.939
 9186SOL     OW28456   4.945   0.144   5.590
 9186SOL    HW128457   5.012   0.217   5.574
 9186SOL    HW228458   4.967   0.095   5.674
 9187SOL     OW28459   4.430   2.322   6.772
 9187SOL    HW128460   4.401   2.245   6.828
 9187SOL    HW228461   4.395   2.407   6.810
 9188SOL     OW28462   1.124   0.523   1.588
 9188SOL    HW128463   1.192   0.588   1.553
 9188SOL    HW228464   1.094   0.464   1.513
 9189SOL     OW28465   3.024   0.553   3.621
 9189SOL    HW128466   2.977   0.635   3.654
 9189SOL    HW228467   3.122   0.562   3.637
 9190SOL     OW28468   6.732   3.687   5.403
 9190SOL    HW128469   6.676   3.665   5.482
 9190SOL    HW228470   6.782   3.772   5.420
 9191SOL     OW28471   4.604   6.648   6.491
 9191SOL    HW128472   4.628   6.571   6.551
 9191SOL    HW228473   4.677   6.717   6.495
 9192SOL     OW28474   6.518   3.543   6.295
 9192SOL    HW128475   6.494   3.474   6.227
 9192SOL    HW228476   6.437   3.565   6.350
 9193SOL     OW28477   3.382   3.914   4.058
 9193SOL    HW128478   3.428   3.998   4.031
 9193SOL    HW228479   3.447   3.854   4.105
 9194SOL     OW28480   3.435   5.825   1.750
 9194SOL    HW128481   3.407   5.872   1.834
 9194SOL    HW228482   3.356   5.782   1.708
 9195SOL     OW28483   2.193   2.541   4.292
 9195SOL    HW128484   2.133   2.615   4.263
 9195SOL    HW228485   2.289   2.567   4.276
 9196SOL     OW28486   5.966   0.211   3.791
 9196SOL    HW128487   5.996   0.158   3.711
 9196SOL    HW228488   5.897   0.159   3.841
 9197SOL     OW28489   3.618   4.689   1.045
 9197SOL    HW128490   3.715   4.714   1.039
 9197SOL    HW228491   3.564   4.770   1.067
 9198SOL     OW28492   5.934   4.108   6.155
 9198SOL    HW128493   5.948   4.069   6.064
 9198SOL    HW228494   5.982   4.052   6.223
 9199SOL     OW28495   0.550   3.083   6.099
 9199SOL    HW128496   0.532   3.176   6.130
 9199SOL    HW228497   0.475   3.023   6.127
 9200SOL     OW28498   2.123   5.724   6.539
 9200SOL    HW128499   2.045   5.753   6.483
 9200SOL    HW228500   2.093   5.714   6.634
 9201SOL     OW28501   0.357   3.881   1.311
 9201SOL    HW128502   0.335   3.974   1.342
 9201SOL    HW228503   0.349   3.877   1.212
 9202SOL     OW28504   1.136   5.568   4.428
 9202SOL    HW128505   1.079   5.543   4.506
 9202SOL    HW228506   1.222   5.516   4.431
 9203SOL     OW28507   5.486   2.331   6.106
 9203SOL    HW128508   5.394   2.364   6.124
 9203SOL    HW228509   5.495   2.237   6.140
 9204SOL     OW28510   4.936   3.679   3.392
 9204SOL    HW128511   4.891   3.668   3.480
 9204SOL    HW228512   5.017   3.621   3.388
 9205SOL     OW28513   5.293   3.816   2.594
 9205SOL    HW128514   5.237   3.780   2.519
 9205SOL    HW228515   5.351   3.890   2.559
 9206SOL     OW28516   3.144   0.506   4.260
 9206SOL    HW128517   3.141   0.599   4.223
 9206SOL    HW228518   3.053   0.478   4.289
 9207SOL     OW28519   3.539   6.493   5.648
 9207SOL    HW128520   3.548   6.528   5.741
 9207SOL    HW228521   3.513   6.396   5.652
 9208SOL     OW28522   5.384   4.228   2.321
 9208SOL    HW128523   5.316   4.301   2.330
 9208SOL    HW228524   5.425   4.232   2.230
 9209SOL     OW28525   4.156   0.521   2.054
 9209SOL    HW128526   4.247   0.536   2.016
 9209SOL    HW228527   4.162   0.456   2.130
 9210SOL     OW28528   0.840   0.857   0.996
 9210SOL    HW128529   0.811   0.928   1.061
 9210SOL    HW228530   0.880   0.780   1.046
 9211SOL     OW28531   5.120   2.450   5.887
 9211SOL    HW128532   5.053   2.378   5.871
 9211SOL    HW228533   5.203   2.430   5.836
 9212SOL     OW28534   4.847   4.085   4.784
 9212SOL    HW128535   4.933   4.061   4.739
 9212SOL    HW228536   4.813   4.007   4.837
 9213SOL     OW28537   5.092   6.175   4.378
 9213SOL    HW128538   5.126   6.260   4.420
 9213SOL    HW228539   5.001   6.191   4.341
 9214SOL     OW28540   0.329   2.501   5.452
 9214SOL    HW128541   0.424   2.502   5.483
 9214SOL    HW228542   0.287   2.414   5.475
 9215SOL     OW28543   0.728   4.394   2.416
 9215SOL    HW128544   0.798   4.367   2.483
 9215SOL    HW228545   0.655   4.326   2.415
 9216SOL     OW28546   2.545   0.078   4.607
 9216SOL    HW128547   2.515   0.057   4.514
 9216SOL    HW228548   2.645   0.072   4.613
 9217SOL     OW28549   5.432   1.313   6.821
 9217SOL    HW128550   5.480   1.247   6.763
 9217SOL    HW228551   5.388   1.382   6.764
 9218SOL     OW28552   3.910   0.968   6.657
 9218SOL    HW128553   3.820   0.955   6.616
 9218SOL    HW228554   3.952   1.051   6.621
 9219SOL     OW28555   4.285   3.281   5.632
 9219SOL    HW128556   4.192   3.251   5.653
 9219SOL    HW228557   4.337   3.204   5.595
 9220SOL     OW28558   1.822   6.034   2.478
 9220SOL    HW128559   1.814   6.089   2.562
 9220SOL    HW228560   1.883   5.957   2.494
 9221SOL     OW28561   2.470   0.379   5.650
 9221SOL    HW128562   2.437   0.473   5.666
 9221SOL    HW228563   2.399   0.327   5.603
 9222SOL     OW28564   2.402   4.479   4.851
 9222SOL    HW128565   2.371   4.421   4.776
 9222SOL    HW228566   2.373   4.573   4.834
 9223SOL     OW28567   1.176   2.392   3.579
 9223SOL    HW128568   1.082   2.422   3.595
 9223SOL    HW228569   1.182   2.293   3.593
 9224SOL     OW28570   1.789   2.913   3.700
 9224SOL    HW128571   1.745   2.992   3.658
 9224SOL    HW228572   1.779   2.917   3.799
 9225SOL     OW28573   3.846   6.425   6.262
 9225SOL    HW128574   3.872   6.484   6.186
 9225SOL    HW228575   3.903   6.446   6.342
 9226SOL     OW28576   1.350   0.666   1.504
 9226SOL    HW128577   1.389   0.576   1.484
 9226SOL    HW228578   1.418   0.721   1.554
 9227SOL     OW28579   2.473   5.517   1.344
 9227SOL    HW128580   2.565   5.492   1.374
 9227SOL    HW228581   2.473   5.611   1.309
 9228SOL     OW28582   2.157   2.328   6.355
 9228SOL    HW128583   2.255   2.334   6.337
 9228SOL    HW228584   2.112   2.413   6.326
 9229SOL     OW28585   1.052   5.166   6.429
 9229SOL    HW128586   1.045   5.101   6.505
 9229SOL    HW228587   0.995   5.134   6.353
 9230SOL     OW28588   5.004   2.619   3.651
 9230SOL    HW128589   5.003   2.532   3.601
 9230SOL    HW228590   5.061   2.609   3.733
 9231SOL     OW28591   0.981   4.587   5.500
 9231SOL    HW128592   1.069   4.602   5.546
 9231SOL    HW228593   0.951   4.493   5.517
 9232SOL     OW28594   2.649   5.780   1.025
 9232SOL    HW128595   2.733   5.773   1.079
 9232SOL    HW228596   2.671   5.788   0.928
 9233SOL     OW28597   1.197   6.942   0.615
 9233SOL    HW128598   1.239   6.987   0.536
 9233SOL    HW228599   1.121   6.884   0.583
 9234SOL     OW28600   2.530   5.695   0.559
 9234SOL    HW128601   2.507   5.629   0.631
 9234SOL    HW228602   2.454   5.702   0.495
 9235SOL     OW28603   2.533   2.479   3.441
 9235SOL    HW128604   2.469   2.404   3.426
 9235SOL    HW228605   2.499   2.562   3.395
 9236SOL     OW28606   2.510   3.201   6.729
 9236SOL    HW128607   2.535   3.271   6.662
 9236SOL    HW228608   2.424   3.225   6.772
 9237SOL     OW28609   0.311   5.786   2.956
 9237SOL    HW128610   0.400   5.781   3.002
 9237SOL    HW228611   0.253   5.711   2.987
 9238SOL     OW28612   3.112   2.504   6.104
 9238SOL    HW128613   3.166   2.566   6.160
 9238SOL    HW228614   3.170   2.464   6.033
 9239SOL     OW28615   6.707   4.749   6.317
 9239SOL    HW128616   6.632   4.684   6.315
 9239SOL    HW228617   6.736   4.770   6.223
 9240SOL     OW28618   5.225   2.986   2.870
 9240SOL    HW128619   5.130   2.970   2.896
 9240SOL    HW228620   5.231   3.000   2.771
 9241SOL     OW28621   0.192   5.442   0.347
 9241SOL    HW128622   0.185   5.529   0.396
 9241SOL    HW228623   0.148   5.451   0.257
 9242SOL     OW28624   1.824   3.356   2.006
 9242SOL    HW128625   1.918   3.349   2.040
 9242SOL    HW228626   1.786   3.264   1.994
 9243SOL     OW28627   0.867   0.323   2.002
 9243SOL    HW128628   0.789   0.357   2.055
 9243SOL    HW228629   0.855   0.224   1.987
 9244SOL     OW28630   2.752   6.541   6.215
 9244SOL    HW128631   2.754   6.462   6.276
 9244SOL    HW228632   2.657   6.564   6.193
 9245SOL     OW28633   0.299   4.304   3.827
 9245SOL    HW128634   0.223   4.281   3.767
 9245SOL    HW228635   0.348   4.220   3.851
 9246SOL     OW28636   6.099   0.244   4.039
 9246SOL    HW128637   6.068   0.250   3.944
 9246SOL    HW228638   6.195   0.270   4.044
 9247SOL     OW28639   4.286   5.253   3.425
 9247SOL    HW128640   4.304   5.320   3.352
 9247SOL    HW228641   4.270   5.302   3.511
 9248SOL     OW28642   2.990   2.149   5.486
 9248SOL    HW128643   3.029   2.057   5.481
 9248SOL    HW228644   2.904   2.151   5.435
 9249SOL     OW28645   4.458   5.396   1.256
 9249SOL    HW128646   4.515   5.463   1.208
 9249SOL    HW228647   4.515   5.343   1.319
 9250SOL     OW28648   6.791   3.015   4.065
 9250SOL    HW128649   6.857   2.964   4.010
 9250SOL    HW228650   6.795   2.981   4.160
 9251SOL     OW28651   4.476   2.094   2.299
 9251SOL    HW128652   4.393   2.098   2.244
 9251SOL    HW228653   4.521   2.006   2.285
 9252SOL     OW28654   5.504   0.468   4.925
 9252SOL    HW128655   5.483   0.547   4.983
 9252SOL    HW228656   5.437   0.396   4.941
 9253SOL     OW28657   5.217   5.282   6.065
 9253SOL    HW128658   5.265   5.273   5.978
 9253SOL    HW228659   5.200   5.192   6.104
 9254SOL     OW28660   5.095   5.111   2.697
 9254SOL    HW128661   5.192   5.093   2.711
 9254SOL    HW228662   5.084   5.173   2.620
 9255SOL     OW28663   5.278   3.191   6.545
 9255SOL    HW128664   5.348   3.262   6.531
 9255SOL    HW228665   5.313   3.103   6.514
 9256SOL     OW28666   1.975   0.059   1.632
 9256SOL    HW128667   2.022   6.992   1.651
 9256SOL    HW228668   2.013   0.100   1.549
 9257SOL     OW28669   6.036   5.737   2.976
 9257SOL    HW128670   6.122   5.780   2.950
 9257SOL    HW228671   5.960   5.799   2.957
 9258SOL     OW28672   3.850   3.035   1.138
 9258SOL    HW128673   3.758   3.055   1.173
 9258SOL    HW228674   3.907   3.117   1.149
 9259SOL     OW28675   1.728   1.138   0.241
 9259SOL    HW128676   1.707   1.231   0.211
 9259SOL    HW228677   1.733   1.078   0.161
 9260SOL     OW28678   6.998   2.781   5.902
 9260SOL    HW128679   0.022   2.773   5.812
 9260SOL    HW228680   6.954   2.871   5.910
 9261SOL     OW28681   4.674   0.892   6.483
 9261SOL    HW128682   4.635   0.884   6.574
 9261SOL    HW228683   4.715   0.805   6.456
 9262SOL     OW28684   1.114   6.463   5.438
 9262SOL    HW128685   1.064   6.506   5.514
 9262SOL    HW228686   1.050   6.406   5.386
 9263SOL     OW28687   3.184   5.219   2.383
 9263SOL    HW128688   3.195   5.295   2.448
 9263SOL    HW228689   3.198   5.132   2.431
 9264SOL     OW28690   4.347   3.079   0.282
 9264SOL    HW128691   4.411   3.036   0.345
 9264SOL    HW228692   4.397   3.140   0.220
 9265SOL     OW28693   3.780   2.500   6.415
 9265SOL    HW128694   3.740   2.496   6.323
 9265SOL    HW228695   3.783   2.595   6.446
 9266SOL     OW28696   0.372   5.923   1.713
 9266SOL    HW128697   0.408   5.991   1.776
 9266SOL    HW228698   0.350   5.966   1.626
 9267SOL     OW28699   0.718   2.199   4.066
 9267SOL    HW128700   0.703   2.130   4.138
 9267SOL    HW228701   0.690   2.289   4.100
 9268SOL     OW28702   1.140   6.555   2.636
 9268SOL    HW128703   1.143   6.655   2.636
 9268SOL    HW228704   1.134   6.522   2.542
 9269SOL     OW28705   3.853   0.094   6.531
 9269SOL    HW128706   3.870   0.192   6.519
 9269SOL    HW228707   3.757   0.079   6.553
 9270SOL     OW28708   4.060   0.821   5.583
 9270SOL    HW128709   3.999   0.743   5.590
 9270SOL    HW228710   4.096   0.843   5.674
 9271SOL     OW28711   6.686   0.209   0.476
 9271SOL    HW128712   6.754   0.146   0.438
 9271SOL    HW228713   6.596   0.165   0.474
 9272SOL     OW28714   0.650   6.129   6.170
 9272SOL    HW128715   0.584   6.054   6.168
 9272SOL    HW228716   0.688   6.142   6.078
 9273SOL     OW28717   5.469   6.090   2.778
 9273SOL    HW128718   5.527   6.165   2.747
 9273SOL    HW228719   5.526   6.018   2.817
 9274SOL     OW28720   6.817   2.334   6.744
 9274SOL    HW128721   6.799   2.422   6.700
 9274SOL    HW228722   6.742   2.312   6.806
 9275SOL     OW28723   0.033   6.606   6.947
 9275SOL    HW128724   0.075   6.680   7.001
 9275SOL    HW228725   6.998   6.645   6.873
 9276SOL     OW28726   2.237   4.920   6.584
 9276SOL    HW128727   2.170   4.932   6.657
 9276SOL    HW228728   2.276   5.008   6.558
 9277SOL     OW28729   3.749   5.650   2.731
 9277SOL    HW128730   3.831   5.648   2.788
 9277SOL    HW228731   3.668   5.639   2.789
 9278SOL     OW28732   1.283   0.687   5.497
 9278SOL    HW128733   1.359   0.749   5.518
 9278SOL    HW228734   1.251   0.644   5.581
 9279SOL     OW28735   3.676   6.892   2.034
 9279SOL    HW128736   3.650   6.988   2.023
 9279SOL    HW228737   3.642   6.839   1.956
 9280SOL     OW28738   2.205   1.696   2.592
 9280SOL    HW128739   2.211   1.785   2.637
 9280SOL    HW228740   2.111   1.662   2.596
 9281SOL     OW28741   3.515   3.939   6.284
 9281SOL    HW128742   3.585   4.003   6.252
 9281SOL    HW228743   3.514   3.939   6.384
 9282SOL     OW28744   4.393   1.057   4.146
 9282SOL    HW128745   4.443   1.136   4.110
 9282SOL    HW228746   4.327   1.025   4.078
 9283SOL     OW28747   5.159   0.302   5.441
 9283SOL    HW128748   5.245   0.304   5.491
 9283SOL    HW228749   5.158   0.225   5.378
 9284SOL     OW28750   2.720   3.742   5.592
 9284SOL    HW128751   2.720   3.700   5.501
 9284SOL    HW228752   2.670   3.829   5.588
 9285SOL     OW28753   5.286   3.182   0.886
 9285SOL    HW128754   5.192   3.190   0.852
 9285SOL    HW228755   5.285   3.179   0.986
 9286SOL     OW28756   5.009   5.493   0.522
 9286SOL    HW128757   5.047   5.405   0.551
 9286SOL    HW228758   5.018   5.560   0.595
 9287SOL     OW28759   3.616   4.354   5.717
 9287SOL    HW128760   3.638   4.265   5.756
 9287SOL    HW228761   3.517   4.369   5.723
 9288SOL     OW28762   4.869   1.936   3.084
 9288SOL    HW128763   4.901   2.026   3.113
 9288SOL    HW228764   4.832   1.943   2.991
 9289SOL     OW28765   4.373   1.035   6.890
 9289SOL    HW128766   4.378   1.125   6.933
 9289SOL    HW228767   4.290   0.988   6.918
 9290SOL     OW28768   6.485   0.837   3.973
 9290SOL    HW128769   6.501   0.739   3.985
 9290SOL    HW228770   6.401   0.863   4.021
 9291SOL     OW28771   1.959   6.148   6.185
 9291SOL    HW128772   2.020   6.195   6.121
 9291SOL    HW228773   2.014   6.095   6.250
 9292SOL     OW28774   1.983   1.355   6.907
 9292SOL    HW128775   2.000   1.444   6.949
 9292SOL    HW228776   1.954   1.290   6.977
 9293SOL     OW28777   5.390   3.447   6.479
 9293SOL    HW128778   5.300   3.486   6.496
 9293SOL    HW228779   5.450   3.517   6.441
 9294SOL     OW28780   4.942   0.885   6.600
 9294SOL    HW128781   4.923   0.831   6.682
 9294SOL    HW228782   4.855   0.908   6.555
 9295SOL     OW28783   6.499   0.721   5.003
 9295SOL    HW128784   6.563   0.698   5.076
 9295SOL    HW228785   6.406   0.727   5.040
 9296SOL     OW28786   2.217   5.219   0.533
 9296SOL    HW128787   2.177   5.239   0.623
 9296SOL    HW228788   2.315   5.202   0.543
 9297SOL     OW28789   0.735   6.548   3.390
 9297SOL    HW128790   0.723   6.617   3.461
 9297SOL    HW228791   0.659   6.484   3.392
 9298SOL     OW28792   1.110   6.327   6.612
 9298SOL    HW128793   1.180   6.391   6.579
 9298SOL    HW228794   1.095   6.341   6.710
 9299SOL     OW28795   0.984   1.561   3.816
 9299SOL    HW128796   1.050   1.507   3.764
 9299SOL    HW228797   1.032   1.637   3.861
 9300SOL     OW28798   0.464   5.220   5.262
 9300SOL    HW128799   0.531   5.273   5.209
 9300SOL    HW228800   0.409   5.282   5.318
 9301SOL     OW28801   6.869   4.408   5.061
 9301SOL    HW128802   6.925   4.427   4.980
 9301SOL    HW228803   6.900   4.465   5.137
 9302SOL     OW28804   2.254   3.046   4.593
 9302SOL    HW128805   2.348   3.057   4.561
 9302SOL    HW228806   2.254   3.028   4.691
 9303SOL     OW28807   2.739   4.351   0.128
 9303SOL    HW128808   2.818   4.289   0.129
 9303SOL    HW228809   2.684   4.333   0.046
 9304SOL     OW28810   4.389   5.227   0.367
 9304SOL    HW128811   4.344   5.142   0.392
 9304SOL    HW228812   4.373   5.246   0.270
 9305SOL     OW28813   3.503   1.009   0.638
 9305SOL    HW128814   3.576   1.027   0.705
 9305SOL    HW228815   3.517   0.920   0.596
 9306SOL     OW28816   0.575   4.143   5.435
 9306SOL    HW128817   0.509   4.068   5.438
 9306SOL    HW228818   0.616   4.147   5.344
 9307SOL     OW28819   1.322   4.244   0.706
 9307SOL    HW128820   1.229   4.281   0.712
 9307SOL    HW228821   1.387   4.311   0.741
 9308SOL     OW28822   1.277   4.522   1.414
 9308SOL    HW128823   1.326   4.444   1.454
 9308SOL    HW228824   1.218   4.564   1.484
 9309SOL     OW28825   4.090   6.326   5.467
 9309SOL    HW128826   4.100   6.381   5.550
 9309SOL    HW228827   4.082   6.386   5.388
 9310SOL     OW28828   5.614   6.336   5.551
 9310SOL    HW128829   5.624   6.241   5.581
 9310SOL    HW228830   5.614   6.339   5.451
 9311SOL     OW28831   5.536   4.652   1.242
 9311SOL    HW128832   5.556   4.698   1.156
 9311SOL    HW228833   5.480   4.571   1.225
 9312SOL     OW28834   1.290   2.168   1.103
 9312SOL    HW128835   1.343   2.218   1.172
 9312SOL    HW228836   1.250   2.233   1.038
 9313SOL     OW28837   0.376   0.345   1.462
 9313SOL    HW128838   0.467   0.373   1.496
 9313SOL    HW228839   0.323   0.307   1.538
 9314SOL     OW28840   6.371   3.766   0.888
 9314SOL    HW128841   6.415   3.682   0.919
 9314SOL    HW228842   6.364   3.830   0.964
 9315SOL     OW28843   6.333   0.443   6.169
 9315SOL    HW128844   6.361   0.509   6.240
 9315SOL    HW228845   6.245   0.471   6.131
 9316SOL     OW28846   5.737   6.986   5.382
 9316SOL    HW128847   5.773   0.052   5.420
 9316SOL    HW228848   5.643   7.000   5.350
 9317SOL     OW28849   3.996   5.378   3.115
 9317SOL    HW128850   3.980   5.471   3.149
 9317SOL    HW228851   4.075   5.378   3.055
 9318SOL     OW28852   4.283   6.765   0.069
 9318SOL    HW128853   4.239   6.782   7.000
 9318SOL    HW228854   4.214   6.769   0.142
 9319SOL     OW28855   2.420   2.819   0.711
 9319SOL    HW128856   2.491   2.759   0.747
 9319SOL    HW228857   2.449   2.857   0.624
 9320SOL     OW28858   4.618   0.531   5.810
 9320SOL    HW128859   4.610   0.454   5.747
 9320SOL    HW228860   4.527   0.554   5.846
 9321SOL     OW28861   1.202   1.579   5.608
 9321SOL    HW128862   1.250   1.630   5.536
 9321SOL    HW228863   1.269   1.550   5.678
 9322SOL     OW28864   6.936   4.560   6.350
 9322SOL    HW128865   6.998   4.591   6.421
 9322SOL    HW228866   6.862   4.627   6.339
 9323SOL     OW28867   2.305   1.995   4.976
 9323SOL    HW128868   2.364   2.073   4.993
 9323SOL    HW228869   2.235   1.990   5.048
 9324SOL     OW28870   2.125   3.777   2.377
 9324SOL    HW128871   2.150   3.823   2.292
 9324SOL    HW228872   2.108   3.680   2.359
 9325SOL     OW28873   0.681   6.303   0.903
 9325SOL    HW128874   0.776   6.303   0.933
 9325SOL    HW228875   0.621   6.282   0.981
 9326SOL     OW28876   3.163   4.867   6.861
 9326SOL    HW128877   3.194   4.788   6.809
 9326SOL    HW228878   3.239   4.905   6.914
 9327SOL     OW28879   4.370   0.137   3.078
 9327SOL    HW128880   4.360   0.219   3.135
 9327SOL    HW228881   4.384   0.057   3.135
 9328SOL     OW28882   1.921   0.518   5.039
 9328SOL    HW128883   1.928   0.616   5.056
 9328SOL    HW228884   1.825   0.491   5.040
 9329SOL     OW28885   6.633   5.739   0.577
 9329SOL    HW128886   6.683   5.673   0.633
 9329SOL    HW228887   6.687   5.823   0.570
 9330SOL     OW28888   0.297   0.307   6.139
 9330SOL    HW128889   0.315   0.381   6.074
 9330SOL    HW228890   0.212   0.261   6.114
 9331SOL     OW28891   1.869   1.779   6.086
 9331SOL    HW128892   1.790   1.811   6.033
 9331SOL    HW228893   1.888   1.843   6.160
 9332SOL     OW28894   4.345   5.832   0.834
 9332SOL    HW128895   4.314   5.811   0.927
 9332SOL    HW228896   4.297   5.773   0.769
 9333SOL     OW28897   3.797   5.637   6.921
 9333SOL    HW128898   3.707   5.593   6.928
 9333SOL    HW228899   3.791   5.731   6.953
 9334SOL     OW28900   5.126   0.571   4.670
 9334SOL    HW128901   5.105   0.477   4.642
 9334SOL    HW228902   5.185   0.614   4.601
 9335SOL     OW28903   1.637   1.413   0.211
 9335SOL    HW128904   1.666   1.498   0.255
 9335SOL    HW228905   1.541   1.395   0.232
 9336SOL     OW28906   5.496   0.336   4.265
 9336SOL    HW128907   5.444   0.348   4.350
 9336SOL    HW228908   5.557   0.258   4.273
 9337SOL     OW28909   5.180   0.825   6.331
 9337SOL    HW128910   5.239   0.768   6.273
 9337SOL    HW228911   5.092   0.839   6.285
 9338SOL     OW28912   6.995   6.186   1.318
 9338SOL    HW128913   0.023   6.237   1.391
 9338SOL    HW228914   0.039   6.123   1.275
 9339SOL     OW28915   5.656   5.931   0.518
 9339SOL    HW128916   5.667   6.025   0.550
 9339SOL    HW228917   5.594   5.929   0.440
 9340SOL     OW28918   4.229   4.688   2.804
 9340SOL    HW128919   4.177   4.614   2.846
 9340SOL    HW228920   4.224   4.769   2.862
 9341SOL     OW28921   6.371   3.923   0.479
 9341SOL    HW128922   6.322   3.848   0.524
 9341SOL    HW228923   6.459   3.938   0.525
 9342SOL     OW28924   2.907   0.784   4.627
 9342SOL    HW128925   2.823   0.832   4.650
 9342SOL    HW228926   2.979   0.850   4.605
 9343SOL     OW28927   5.054   3.493   2.015
 9343SOL    HW128928   5.081   3.480   2.110
 9343SOL    HW228929   5.008   3.411   1.981
 9344SOL     OW28930   5.112   5.857   6.509
 9344SOL    HW128931   5.027   5.869   6.560
 9344SOL    HW228932   5.149   5.946   6.483
 9345SOL     OW28933   6.757   4.743   0.611
 9345SOL    HW128934   6.813   4.664   0.585
 9345SOL    HW228935   6.756   4.751   0.711
 9346SOL     OW28936   5.130   6.721   2.100
 9346SOL    HW128937   5.157   6.629   2.071
 9346SOL    HW228938   5.030   6.729   2.096
 9347SOL     OW28939   3.100   5.611   0.676
 9347SOL    HW128940   3.024   5.669   0.649
 9347SOL    HW228941   3.172   5.667   0.718
 9348SOL     OW28942   2.714   4.926   3.291
 9348SOL    HW128943   2.743   4.862   3.221
 9348SOL    HW228944   2.739   4.891   3.381
 9349SOL     OW28945   6.366   5.733   2.117
 9349SOL    HW128946   6.443   5.689   2.072
 9349SOL    HW228947   6.281   5.690   2.086
 9350SOL     OW28948   0.521   1.836   4.698
 9350SOL    HW128949   0.581   1.916   4.690
 9350SOL    HW228950   0.427   1.866   4.709
 9351SOL     OW28951   2.898   0.679   6.207
 9351SOL    HW128952   2.921   0.772   6.177
 9351SOL    HW228953   2.900   0.617   6.128
 9352SOL     OW28954   2.663   3.014   5.611
 9352SOL    HW128955   2.702   2.984   5.698
 9352SOL    HW228956   2.565   2.993   5.610
 9353SOL     OW28957   1.876   4.158   2.089
 9353SOL    HW128958   1.857   4.060   2.091
 9353SOL    HW228959   1.815   4.203   2.025
 9354SOL     OW28960   5.968   1.823   0.366
 9354SOL    HW128961   5.979   1.726   0.389
 9354SOL    HW228962   6.055   1.871   0.380
 9355SOL     OW28963   6.602   1.106   4.315
 9355SOL    HW128964   6.605   1.189   4.372
 9355SOL    HW228965   6.680   1.107   4.252
 9356SOL     OW28966   4.439   5.366   1.800
 9356SOL    HW128967   4.387   5.430   1.744
 9356SOL    HW228968   4.509   5.415   1.851
 9357SOL     OW28969   2.759   3.737   6.825
 9357SOL    HW128970   2.857   3.715   6.821
 9357SOL    HW228971   2.736   3.772   6.916
 9358SOL     OW28972   6.203   3.617   1.790
 9358SOL    HW128973   6.294   3.660   1.796
 9358SOL    HW228974   6.133   3.686   1.807
 9359SOL     OW28975   0.854   3.207   5.718
 9359SOL    HW128976   0.846   3.130   5.654
 9359SOL    HW228977   0.882   3.173   5.808
 9360SOL     OW28978   1.254   6.848   5.924
 9360SOL    HW128979   1.236   6.858   5.826
 9360SOL    HW228980   1.294   6.758   5.941
 9361SOL     OW28981   2.772   6.648   3.710
 9361SOL    HW128982   2.830   6.595   3.772
 9361SOL    HW228983   2.676   6.630   3.731
 9362SOL     OW28984   1.466   1.690   2.088
 9362SOL    HW128985   1.396   1.725   2.149
 9362SOL    HW228986   1.554   1.689   2.135
 9363SOL     OW28987   4.141   5.336   1.941
 9363SOL    HW128988   4.146   5.318   2.040
 9363SOL    HW228989   4.174   5.429   1.923
 9364SOL     OW28990   4.658   3.357   5.921
 9364SOL    HW128991   4.693   3.445   5.953
 9364SOL    HW228992   4.559   3.353   5.936
 9365SOL     OW28993   2.843   1.885   5.464
 9365SOL    HW128994   2.785   1.966   5.464
 9365SOL    HW228995   2.798   1.811   5.515
 9366SOL     OW28996   2.766   1.263   0.397
 9366SOL    HW128997   2.711   1.346   0.384
 9366SOL    HW228998   2.836   1.258   0.326
 9367SOL     OW28999   6.812   5.790   3.270
 9367SOL    HW129000   6.879   5.766   3.340
 9367SOL    HW229001   6.783   5.708   3.222
 9368SOL     OW29002   2.915   1.741   3.580
 9368SOL    HW129003   2.883   1.646   3.578
 9368SOL    HW229004   2.979   1.756   3.505
 9369SOL     OW29005   0.160   0.955   5.728
 9369SOL    HW129006   0.093   0.960   5.803
 9369SOL    HW229007   0.112   0.944   5.641
 9370SOL     OW29008   4.698   0.649   2.773
 9370SOL    HW129009   4.620   0.591   2.747
 9370SOL    HW229010   4.665   0.740   2.797
 9371SOL     OW29011   2.138   4.602   0.858
 9371SOL    HW129012   2.171   4.578   0.950
 9371SOL    HW229013   2.184   4.544   0.791
 9372SOL     OW29014   5.677   5.876   3.062
 9372SOL    HW129015   5.745   5.883   3.135
 9372SOL    HW229016   5.594   5.833   3.097
 9373SOL     OW29017   4.192   2.146   2.781
 9373SOL    HW129018   4.149   2.069   2.734
 9373SOL    HW229019   4.156   2.152   2.874
 9374SOL     OW29020   6.237   3.670   0.616
 9374SOL    HW129021   6.146   3.712   0.617
 9374SOL    HW229022   6.292   3.711   0.689
 9375SOL     OW29023   6.734   1.816   3.070
 9375SOL    HW129024   6.714   1.719   3.054
 9375SOL    HW229025   6.683   1.872   3.005
 9376SOL     OW29026   2.561   3.939   1.518
 9376SOL    HW129027   2.603   3.896   1.438
 9376SOL    HW229028   2.631   3.972   1.580
 9377SOL     OW29029   1.627   5.605   3.845
 9377SOL    HW129030   1.649   5.589   3.941
 9377SOL    HW229031   1.563   5.682   3.838
 9378SOL     OW29032   0.681   0.373   5.127
 9378SOL    HW129033   0.748   0.384   5.054
 9378SOL    HW229034   0.725   0.388   5.216
 9379SOL     OW29035   4.499   5.279   5.726
 9379SOL    HW129036   4.434   5.283   5.803
 9379SOL    HW229037   4.469   5.343   5.655
 9380SOL     OW29038   5.792   4.488   4.697
 9380SOL    HW129039   5.729   4.427   4.744
 9380SOL    HW229040   5.865   4.516   4.760
 9381SOL     OW29041   2.727   2.899   5.848
 9381SOL    HW129042   2.805   2.839   5.831
 9381SOL    HW229043   2.751   2.965   5.919
 9382SOL     OW29044   3.676   1.322   3.006
 9382SOL    HW129045   3.744   1.254   2.978
 9382SOL    HW229046   3.608   1.279   3.065
 9383SOL     OW29047   1.853   6.076   4.416
 9383SOL    HW129048   1.951   6.058   4.412
 9383SOL    HW229049   1.830   6.149   4.351
 9384SOL     OW29050   3.040   6.053   1.516
 9384SOL    HW129051   2.959   6.020   1.467
 9384SOL    HW229052   3.019   6.061   1.613
 9385SOL     OW29053   4.299   0.828   3.167
 9385SOL    HW129054   4.250   0.742   3.161
 9385SOL    HW229055   4.398   0.810   3.170
 9386SOL     OW29056   2.422   6.338   4.640
 9386SOL    HW129057   2.449   6.256   4.689
 9386SOL    HW229058   2.335   6.322   4.593
 9387SOL     OW29059   2.654   1.383   6.845
 9387SOL    HW129060   2.652   1.343   6.937
 9387SOL    HW229061   2.576   1.444   6.834
 9388SOL     OW29062   2.288   5.672   3.263
 9388SOL    HW129063   2.206   5.623   3.230
 9388SOL    HW229064   2.366   5.609   3.264
 9389SOL     OW29065   1.371   6.575   4.958
 9389SOL    HW129066   1.317   6.587   5.041
 9389SOL    HW229067   1.443   6.507   4.976
 9390SOL     OW29068   3.552   5.383   4.928
 9390SOL    HW129069   3.461   5.347   4.911
 9390SOL    HW229070   3.620   5.322   4.886
 9391SOL     OW29071   2.650   1.009   4.933
 9391SOL    HW129072   2.677   1.089   4.987
 9391SOL    HW229073   2.550   1.003   4.930
 9392SOL     OW29074   6.788   0.266   5.278
 9392SOL    HW129075   6.715   0.306   5.334
 9392SOL    HW229076   6.749   0.227   5.195
 9393SOL     OW29077   2.845   0.163   4.912
 9393SOL    HW129078   2.747   0.152   4.926
 9393SOL    HW229079   2.864   0.258   4.884
 9394SOL     OW29080   6.952   1.585   2.086
 9394SOL    HW129081   6.939   1.487   2.068
 9394SOL    HW229082   0.013   1.597   2.144
 9395SOL     OW29083   2.321   1.528   0.442
 9395SOL    HW129084   2.241   1.523   0.502
 9395SOL    HW229085   2.320   1.614   0.392
 9396SOL     OW29086   1.677   5.431   3.395
 9396SOL    HW129087   1.661   5.336   3.367
 9396SOL    HW229088   1.600   5.487   3.366
 9397SOL     OW29089   3.113   0.253   6.915
 9397SOL    HW129090   3.147   0.216   7.002
 9397SOL    HW229091   3.014   0.263   6.920
 9398SOL     OW29092   0.776   0.144   5.439
 9398SOL    HW129093   0.868   0.155   5.476
 9398SOL    HW229094   0.725   0.229   5.451
 9399SOL     OW29095   6.771   1.900   6.421
 9399SOL    HW129096   6.871   1.893   6.427
 9399SOL    HW229097   6.741   1.866   6.332
 9400SOL     OW29098   4.232   2.090   1.833
 9400SOL    HW129099   4.147   2.130   1.866
 9400SOL    HW229100   4.303   2.161   1.828
 9401SOL     OW29101   5.177   7.013   3.281
 9401SOL    HW129102   5.269   6.975   3.269
 9401SOL    HW229103   5.169   0.032   3.373
 9402SOL     OW29104   1.265   5.006   3.694
 9402SOL    HW129105   1.292   4.911   3.707
 9402SOL    HW229106   1.199   5.011   3.619
 9403SOL     OW29107   6.006   1.661   2.327
 9403SOL    HW129108   6.025   1.594   2.397
 9403SOL    HW229109   5.915   1.701   2.342
 9404SOL     OW29110   1.223   3.429   6.277
 9404SOL    HW129111   1.135   3.470   6.302
 9404SOL    HW229112   1.209   3.332   6.256
 9405SOL     OW29113   0.726   5.856   2.305
 9405SOL    HW129114   0.663   5.904   2.367
 9405SOL    HW229115   0.673   5.803   2.239
 9406SOL     OW29116   0.055   2.778   6.227
 9406SOL    HW129117   0.060   2.744   6.133
 9406SOL    HW229118   7.013   2.720   6.280
 9407SOL     OW29119   2.781   5.113   3.522
 9407SOL    HW129120   2.762   5.211   3.526
 9407SOL    HW229121   2.758   5.078   3.431
 9408SOL     OW29122   3.814   1.687   6.095
 9408SOL    HW129123   3.818   1.704   6.193
 9408SOL    HW229124   3.828   1.590   6.077
 9409SOL     OW29125   5.725   4.610   6.768
 9409SOL    HW129126   5.775   4.600   6.854
 9409SOL    HW229127   5.676   4.697   6.769
 9410SOL     OW29128   3.021   6.290   1.989
 9410SOL    HW129129   3.002   6.234   2.070
 9410SOL    HW229130   3.015   6.387   2.014
 9411SOL     OW29131   3.654   3.769   1.643
 9411SOL    HW129132   3.633   3.861   1.677
 9411SOL    HW229133   3.600   3.702   1.693
 9412SOL     OW29134   0.243   3.058   1.826
 9412SOL    HW129135   0.167   2.994   1.841
 9412SOL    HW229136   0.291   3.073   1.913
 9413SOL     OW29137   3.505   6.344   4.322
 9413SOL    HW129138   3.427   6.283   4.311
 9413SOL    HW229139   3.587   6.291   4.340
 9414SOL     OW29140   3.103   0.788   3.484
 9414SOL    HW129141   3.027   0.729   3.461
 9414SOL    HW229142   3.087   0.831   3.573
 9415SOL     OW29143   2.508   6.820   1.725
 9415SOL    HW129144   2.501   6.823   1.625
 9415SOL    HW229145   2.598   6.853   1.753
 9416SOL     OW29146   0.651   2.228   1.195
 9416SOL    HW129147   0.639   2.200   1.291
 9416SOL    HW229148   0.582   2.182   1.139
 9417SOL     OW29149   3.657   6.763   6.011
 9417SOL    HW129150   3.684   6.831   6.078
 9417SOL    HW229151   3.732   6.747   5.947
 9418SOL     OW29152   3.383   5.994   1.267
 9418SOL    HW129153   3.477   5.960   1.261
 9418SOL    HW229154   3.383   6.093   1.271
 9419SOL     OW29155   3.465   5.132   5.626
 9419SOL    HW129156   3.425   5.069   5.692
 9419SOL    HW229157   3.444   5.226   5.652
 9420SOL     OW29158   6.929   2.500   5.196
 9420SOL    HW129159   6.832   2.518   5.180
 9420SOL    HW229160   6.976   2.586   5.216
 9421SOL     OW29161   2.064   6.699   4.956
 9421SOL    HW129162   2.154   6.732   4.983
 9421SOL    HW229163   2.071   6.605   4.923
 9422SOL     OW29164   5.054   6.046   3.360
 9422SOL    HW129165   4.984   6.080   3.296
 9422SOL    HW229166   5.062   6.109   3.437
 9423SOL     OW29167   4.232   0.429   3.500
 9423SOL    HW129168   4.259   0.359   3.565
 9423SOL    HW229169   4.291   0.509   3.509
 9424SOL     OW29170   4.866   0.299   5.131
 9424SOL    HW129171   4.792   0.366   5.140
 9424SOL    HW229172   4.873   0.245   5.215
 9425SOL     OW29173   6.755   3.324   6.361
 9425SOL    HW129174   6.830   3.337   6.426
 9425SOL    HW229175   6.682   3.390   6.381
 9426SOL     OW29176   2.811   1.904   0.318
 9426SOL    HW129177   2.739   1.973   0.305
 9426SOL    HW229178   2.863   1.895   0.233
 9427SOL     OW29179   2.606   5.504   4.249
 9427SOL    HW129180   2.618   5.502   4.150
 9427SOL    HW229181   2.612   5.411   4.285
 9428SOL     OW29182   5.655   1.142   1.174
 9428SOL    HW129183   5.705   1.183   1.250
 9428SOL    HW229184   5.710   1.068   1.134
 9429SOL     OW29185   2.060   3.705   2.087
 9429SOL    HW129186   2.152   3.713   2.050
 9429SOL    HW229187   2.038   3.608   2.101
 9430SOL     OW29188   0.550   4.607   2.459
 9430SOL    HW129189   0.497   4.630   2.377
 9430SOL    HW229190   0.614   4.533   2.438
 9431SOL     OW29191   5.647   3.957   1.298
 9431SOL    HW129192   5.736   3.927   1.332
 9431SOL    HW229193   5.579   3.886   1.316
 9432SOL     OW29194   4.956   0.527   3.540
 9432SOL    HW129195   4.958   0.433   3.506
 9432SOL    HW229196   4.906   0.531   3.626
 9433SOL     OW29197   3.612   5.082   3.501
 9433SOL    HW129198   3.676   5.013   3.535
 9433SOL    HW229199   3.525   5.038   3.479
 9434SOL     OW29200   5.187   5.013   3.589
 9434SOL    HW129201   5.243   5.010   3.506
 9434SOL    HW229202   5.098   5.051   3.567
 9435SOL     OW29203   0.452   2.482   4.913
 9435SOL    HW129204   0.502   2.470   4.999
 9435SOL    HW229205   0.405   2.570   4.912
 9436SOL     OW29206   1.040   3.197   2.055
 9436SOL    HW129207   1.006   3.290   2.043
 9436SOL    HW229208   1.134   3.199   2.089
 9437SOL     OW29209   2.642   6.323   3.567
 9437SOL    HW129210   2.595   6.350   3.651
 9437SOL    HW229211   2.681   6.232   3.579
 9438SOL     OW29212   6.960   0.079   1.479
 9438SOL    HW129213   6.861   0.077   1.490
 9438SOL    HW229214   6.982   0.115   1.388
 9439SOL     OW29215   0.305   3.462   1.754
 9439SOL    HW129216   0.223   3.411   1.730
 9439SOL    HW229217   0.386   3.409   1.729
 9440SOL     OW29218   4.217   5.005   4.126
 9440SOL    HW129219   4.127   5.046   4.140
 9440SOL    HW229220   4.216   4.911   4.160
 9441SOL     OW29221   1.345   3.725   5.363
 9441SOL    HW129222   1.435   3.739   5.320
 9441SOL    HW229223   1.273   3.742   5.296
 9442SOL     OW29224   4.343   3.388   0.432
 9442SOL    HW129225   4.326   3.482   0.463
 9442SOL    HW229226   4.355   3.388   0.332
 9443SOL     OW29227   2.565   5.053   1.416
 9443SOL    HW129228   2.487   5.000   1.383
 9443SOL    HW229229   2.625   5.076   1.339
 9444SOL     OW29230   1.235   3.981   6.865
 9444SOL    HW129231   1.312   3.918   6.875
 9444SOL    HW229232   1.151   3.929   6.853
 9445SOL     OW29233   5.787   3.532   2.942
 9445SOL    HW129234   5.820   3.510   3.034
 9445SOL    HW229235   5.713   3.469   2.917
 9446SOL     OW29236   6.657   6.347   4.215
 9446SOL    HW129237   6.600   6.269   4.237
 9446SOL    HW229238   6.623   6.391   4.132
 9447SOL     OW29239   6.020   3.212   4.192
 9447SOL    HW129240   5.992   3.304   4.220
 9447SOL    HW229241   6.120   3.205   4.197
 9448SOL     OW29242   7.007   6.625   6.461
 9448SOL    HW129243   0.010   6.539   6.507
 9448SOL    HW229244   0.073   6.676   6.446
 9449SOL     OW29245   6.662   5.858   6.924
 9449SOL    HW129246   6.627   5.862   6.830
 9449SOL    HW229247   6.712   5.773   6.938
 9450SOL     OW29248   2.979   5.881   5.084
 9450SOL    HW129249   2.920   5.802   5.069
 9450SOL    HW229250   2.932   5.946   5.145
 9451SOL     OW29251   3.968   6.570   6.054
 9451SOL    HW129252   3.931   6.646   5.999
 9451SOL    HW229253   4.060   6.595   6.086
 9452SOL     OW29254   1.489   3.837   0.348
 9452SOL    HW129255   1.452   3.761   0.401
 9452SOL    HW229256   1.438   3.921   0.369
 9453SOL     OW29257   2.020   4.976   3.208
 9453SOL    HW129258   2.074   4.956   3.290
 9453SOL    HW229259   1.930   4.934   3.217
 9454SOL     OW29260   2.442   3.610   6.800
 9454SOL    HW129261   2.503   3.626   6.722
 9454SOL    HW229262   2.437   3.693   6.856
 9455SOL     OW29263   3.796   1.782   2.688
 9455SOL    HW129264   3.713   1.833   2.706
 9455SOL    HW229265   3.802   1.761   2.591
 9456SOL     OW29266   0.546   3.502   1.111
 9456SOL    HW129267   0.474   3.471   1.049
 9456SOL    HW229268   0.570   3.596   1.090
 9457SOL     OW29269   2.081   3.812   5.084
 9457SOL    HW129270   2.055   3.790   4.990
 9457SOL    HW229271   2.172   3.854   5.084
 9458SOL     OW29272   1.615   3.476   0.333
 9458SOL    HW129273   1.597   3.415   0.411
 9458SOL    HW229274   1.702   3.523   0.347
 9459SOL     OW29275   5.001   4.691   2.764
 9459SOL    HW129276   5.069   4.670   2.835
 9459SOL    HW229277   4.926   4.626   2.770
 9460SOL     OW29278   0.448   2.750   4.060
 9460SOL    HW129279   0.409   2.666   4.097
 9460SOL    HW229280   0.417   2.828   4.114
 9461SOL     OW29281   6.459   1.896   2.652
 9461SOL    HW129282   6.481   1.803   2.623
 9461SOL    HW229283   6.460   1.956   2.572
 9462SOL     OW29284   2.090   3.768   2.694
 9462SOL    HW129285   2.115   3.748   2.600
 9462SOL    HW229286   2.155   3.835   2.732
 9463SOL     OW29287   0.286   0.930   1.427
 9463SOL    HW129288   0.191   0.920   1.455
 9463SOL    HW229289   0.297   0.897   1.333
 9464SOL     OW29290   5.722   0.125   1.258
 9464SOL    HW129291   5.686   0.105   1.167
 9464SOL    HW229292   5.791   0.198   1.252
 9465SOL     OW29293   1.555   5.268   3.172
 9465SOL    HW129294   1.536   5.347   3.113
 9465SOL    HW229295   1.476   5.251   3.231
 9466SOL     OW29296   4.508   5.041   5.588
 9466SOL    HW129297   4.519   5.044   5.489
 9466SOL    HW229298   4.518   5.133   5.625
 9467SOL     OW29299   0.949   2.792   1.657
 9467SOL    HW129300   0.964   2.886   1.688
 9467SOL    HW229301   0.853   2.782   1.630
 9468SOL     OW29302   6.196   2.496   6.065
 9468SOL    HW129303   6.274   2.552   6.039
 9468SOL    HW229304   6.152   2.460   5.982
 9469SOL     OW29305   6.191   6.258   1.517
 9469SOL    HW129306   6.093   6.255   1.537
 9469SOL    HW229307   6.210   6.338   1.460
 9470SOL     OW29308   4.526   4.168   5.490
 9470SOL    HW129309   4.565   4.112   5.417
 9470SOL    HW229310   4.441   4.126   5.523
 9471SOL     OW29311   6.588   1.323   4.466
 9471SOL    HW129312   6.503   1.375   4.468
 9471SOL    HW229313   6.617   1.303   4.560
 9472SOL     OW29314   5.811   3.100   4.323
 9472SOL    HW129315   5.780   3.150   4.404
 9472SOL    HW229316   5.896   3.140   4.289
 9473SOL     OW29317   3.051   5.451   5.298
 9473SOL    HW129318   3.012   5.380   5.239
 9473SOL    HW229319   2.982   5.521   5.316
 9474SOL     OW29320   0.053   3.176   0.316
 9474SOL    HW129321   0.151   3.166   0.332
 9474SOL    HW229322   0.029   3.273   0.310
 9475SOL     OW29323   3.166   3.498   6.883
 9475SOL    HW129324   3.228   3.488   6.960
 9475SOL    HW229325   3.188   3.430   6.813
 9476SOL     OW29326   2.964   3.852   5.128
 9476SOL    HW129327   3.063   3.843   5.135
 9476SOL    HW229328   2.937   3.863   5.033
 9477SOL     OW29329   0.462   4.108   2.215
 9477SOL    HW129330   0.534   4.148   2.157
 9477SOL    HW229331   0.490   4.017   2.246
 9478SOL     OW29332   5.540   3.606   6.328
 9478SOL    HW129333   5.558   3.566   6.239
 9478SOL    HW229334   5.623   3.605   6.383
 9479SOL     OW29335   4.444   6.584   6.921
 9479SOL    HW129336   4.424   6.621   6.830
 9479SOL    HW229337   4.417   6.651   6.991
 9480SOL     OW29338   5.158   3.523   0.870
 9480SOL    HW129339   5.134   3.470   0.951
 9480SOL    HW229340   5.115   3.613   0.875
 9481SOL     OW29341   5.291   3.201   2.339
 9481SOL    HW129342   5.199   3.232   2.361
 9481SOL    HW229343   5.290   3.158   2.248
 9482SOL     OW29344   6.688   0.882   3.277
 9482SOL    HW129345   6.590   0.866   3.277
 9482SOL    HW229346   6.725   0.862   3.186
 9483SOL     OW29347   0.790   1.457   1.966
 9483SOL    HW129348   0.825   1.470   1.873
 9483SOL    HW229349   0.764   1.361   1.978
 9484SOL     OW29350   3.940   1.059   3.504
 9484SOL    HW129351   3.843   1.065   3.482
 9484SOL    HW229352   3.951   1.051   3.603
 9485SOL     OW29353   0.868   0.050   1.916
 9485SOL    HW129354   0.844   7.002   1.986
 9485SOL    HW229355   0.900   0.002   1.834
 9486SOL     OW29356   2.826   6.116   1.041
 9486SOL    HW129357   2.870   6.125   0.952
 9486SOL    HW229358   2.782   6.203   1.065
 9487SOL     OW29359   2.957   3.199   3.244
 9487SOL    HW129360   2.955   3.270   3.174
 9487SOL    HW229361   3.051   3.176   3.267
 9488SOL     OW29362   1.429   6.366   0.798
 9488SOL    HW129363   1.480   6.288   0.760
 9488SOL    HW229364   1.459   6.383   0.892
 9489SOL     OW29365   4.098   4.138   1.303
 9489SOL    HW129366   4.073   4.094   1.217
 9489SOL    HW229367   4.184   4.100   1.336
 9490SOL     OW29368   6.863   5.782   1.183
 9490SOL    HW129369   6.819   5.693   1.169
 9490SOL    HW229370   6.800   5.843   1.231
 9491SOL     OW29371   6.813   3.767   3.983
 9491SOL    HW129372   6.835   3.853   3.936
 9491SOL    HW229373   6.812   3.693   3.916
 9492SOL     OW29374   3.507   2.863   2.931
 9492SOL    HW129375   3.533   2.956   2.958
 9492SOL    HW229376   3.539   2.799   3.000
 9493SOL     OW29377   3.915   5.315   3.728
 9493SOL    HW129378   3.872   5.279   3.645
 9493SOL    HW229379   3.889   5.259   3.807
 9494SOL     OW29380   4.509   4.805   1.918
 9494SOL    HW129381   4.549   4.775   1.831
 9494SOL    HW229382   4.445   4.879   1.901
 9495SOL     OW29383   6.777   1.884   3.500
 9495SOL    HW129384   6.850   1.952   3.492
 9495SOL    HW229385   6.694   1.918   3.455
 9496SOL     OW29386   5.755   5.032   1.197
 9496SOL    HW129387   5.830   4.991   1.146
 9496SOL    HW229388   5.669   5.017   1.148
 9497SOL     OW29389   6.065   5.841   6.614
 9497SOL    HW129390   6.015   5.855   6.528
 9497SOL    HW229391   6.016   5.887   6.688
 9498SOL     OW29392   5.480   6.886   4.612
 9498SOL    HW129393   5.500   6.932   4.699
 9498SOL    HW229394   5.503   6.947   4.536
 9499SOL     OW29395   1.880   4.883   6.676
 9499SOL    HW129396   1.840   4.871   6.766
 9499SOL    HW229397   1.874   4.979   6.649
 9500SOL     OW29398   5.191   0.394   0.654
 9500SOL    HW129399   5.144   0.314   0.689
 9500SOL    HW229400   5.289   0.386   0.671
 9501SOL     OW29401   2.837   1.463   5.110
 9501SOL    HW129402   2.808   1.422   5.197
 9501SOL    HW229403   2.872   1.555   5.127
 9502SOL     OW29404   0.003   2.275   5.008
 9502SOL    HW129405   7.016   2.303   5.104
 9502SOL    HW229406   0.070   2.202   4.999
 9503SOL     OW29407   0.190   1.937   1.208
 9503SOL    HW129408   0.218   1.963   1.301
 9503SOL    HW229409   0.269   1.903   1.157
 9504SOL     OW29410   6.774   2.078   0.954
 9504SOL    HW129411   6.775   2.175   0.977
 9504SOL    HW229412   6.868   2.042   0.955
 9505SOL     OW29413   5.352   5.024   3.386
 9505SOL    HW129414   5.335   5.073   3.301
 9505SOL    HW229415   5.348   4.925   3.370
 9506SOL     OW29416   0.318   2.684   6.669
 9506SOL    HW129417   0.326   2.707   6.572
 9506SOL    HW229418   0.357   2.757   6.725
 9507SOL     OW29419   0.937   1.799   3.095
 9507SOL    HW129420   0.984   1.732   3.037
 9507SOL    HW229421   1.001   1.839   3.160
 9508SOL     OW29422   6.479   4.076   0.741
 9508SOL    HW129423   6.391   4.106   0.706
 9508SOL    HW229424   6.468   4.045   0.836
 9509SOL     OW29425   0.431   0.816   5.016
 9509SOL    HW129426   0.429   0.717   5.030
 9509SOL    HW229427   0.496   0.857   5.080
 9510SOL     OW29428   1.248   3.787   2.465
 9510SOL    HW129429   1.202   3.797   2.553
 9510SOL    HW229430   1.283   3.694   2.456
 9511SOL     OW29431   0.385   1.540   0.198
 9511SOL    HW129432   0.312   1.493   0.149
 9511SOL    HW229433   0.378   1.639   0.183
 9512SOL     OW29434   5.317   1.397   1.217
 9512SOL    HW129435   5.351   1.445   1.298
 9512SOL    HW229436   5.224   1.428   1.197
 9513SOL     OW29437   1.524   3.592   5.716
 9513SOL    HW129438   1.425   3.578   5.723
 9513SOL    HW229439   1.551   3.670   5.773
 9514SOL     OW29440   2.086   4.557   6.744
 9514SOL    HW129441   2.173   4.516   6.717
 9514SOL    HW229442   2.045   4.604   6.666
 9515SOL     OW29443   1.569   6.404   1.411
 9515SOL    HW129444   1.611   6.331   1.357
 9515SOL    HW229445   1.612   6.408   1.501
 9516SOL     OW29446   5.593   3.509   4.986
 9516SOL    HW129447   5.594   3.604   5.017
 9516SOL    HW229448   5.502   3.470   5.002
 9517SOL     OW29449   0.665   4.663   1.247
 9517SOL    HW129450   0.619   4.712   1.321
 9517SOL    HW229451   0.764   4.675   1.256
 9518SOL     OW29452   1.008   1.819   0.217
 9518SOL    HW129453   0.956   1.898   0.185
 9518SOL    HW229454   0.950   1.765   0.278
 9519SOL     OW29455   3.397   4.186   4.237
 9519SOL    HW129456   3.316   4.128   4.228
 9519SOL    HW229457   3.409   4.239   4.153
 9520SOL     OW29458   0.743   1.513   3.274
 9520SOL    HW129459   0.820   1.567   3.241
 9520SOL    HW229460   0.767   1.469   3.361
 9521SOL     OW29461   4.364   5.120   1.304
 9521SOL    HW129462   4.385   5.216   1.287
 9521SOL    HW229463   4.346   5.074   1.217
 9522SOL     OW29464   4.077   5.323   1.450
 9522SOL    HW129465   4.005   5.392   1.448
 9522SOL    HW229466   4.166   5.366   1.436
 9523SOL     OW29467   2.384   5.393   4.494
 9523SOL    HW129468   2.414   5.475   4.444
 9523SOL    HW229469   2.286   5.381   4.481
 9524SOL     OW29470   2.710   2.911   0.842
 9524SOL    HW129471   2.700   2.889   0.745
 9524SOL    HW229472   2.801   2.883   0.872
 9525SOL     OW29473   2.401   2.147   5.657
 9525SOL    HW129474   2.369   2.068   5.606
 9525SOL    HW229475   2.353   2.229   5.626
 9526SOL     OW29476   5.318   4.881   0.941
 9526SOL    HW129477   5.269   4.852   0.859
 9526SOL    HW229478   5.366   4.967   0.923
 9527SOL     OW29479   0.658   0.586   4.203
 9527SOL    HW129480   0.579   0.646   4.218
 9527SOL    HW229481   0.740   0.643   4.190
 9528SOL     OW29482   6.836   1.677   0.980
 9528SOL    HW129483   6.821   1.579   0.989
 9528SOL    HW229484   6.756   1.726   1.014
 9529SOL     OW29485   6.324   3.184   6.371
 9529SOL    HW129486   6.262   3.117   6.329
 9529SOL    HW229487   6.416   3.146   6.376
 9530SOL     OW29488   1.783   2.633   3.392
 9530SOL    HW129489   1.874   2.650   3.354
 9530SOL    HW229490   1.754   2.540   3.371
 9531SOL     OW29491   4.846   4.518   2.197
 9531SOL    HW129492   4.764   4.462   2.214
 9531SOL    HW229493   4.895   4.531   2.283
 9532SOL     OW29494   0.286   6.019   1.448
 9532SOL    HW129495   0.240   6.099   1.410
 9532SOL    HW229496   0.221   5.944   1.457
 9533SOL     OW29497   6.822   5.829   5.185
 9533SOL    HW129498   6.753   5.770   5.226
 9533SOL    HW229499   6.829   5.913   5.239
 9534SOL     OW29500   7.017   3.938   5.203
 9534SOL    HW129501   0.096   3.957   5.208
 9534SOL    HW229502   6.970   4.012   5.154
 9535SOL     OW29503   1.704   0.447   5.753
 9535SOL    HW129504   1.643   0.429   5.676
 9535SOL    HW229505   1.661   0.417   5.838
 9536SOL     OW29506   3.161   3.855   5.636
 9536SOL    HW129507   3.160   3.952   5.611
 9536SOL    HW229508   3.181   3.847   5.734
 9537SOL     OW29509   2.845   0.435   4.329
 9537SOL    HW129510   2.851   0.336   4.312
 9537SOL    HW229511   2.832   0.483   4.243
 9538SOL     OW29512   5.972   0.923   3.579
 9538SOL    HW129513   5.874   0.905   3.574
 9538SOL    HW229514   6.003   0.914   3.674
 9539SOL     OW29515   3.568   3.810   4.244
 9539SOL    HW129516   3.611   3.765   4.323
 9539SOL    HW229517   3.552   3.907   4.265
 9540SOL     OW29518   5.794   4.582   4.277
 9540SOL    HW129519   5.704   4.615   4.305
 9540SOL    HW229520   5.864   4.627   4.332
 9541SOL     OW29521   3.056   0.625   5.808
 9541SOL    HW129522   3.087   0.699   5.867
 9541SOL    HW229523   3.135   0.581   5.765
 9542SOL     OW29524   4.934   4.329   4.675
 9542SOL    HW129525   4.927   4.234   4.707
 9542SOL    HW229526   4.965   4.329   4.579
 9543SOL     OW29527   3.384   0.709   5.900
 9543SOL    HW129528   3.453   0.779   5.881
 9543SOL    HW229529   3.304   0.751   5.942
 9544SOL     OW29530   6.986   2.081   3.456
 9544SOL    HW129531   6.956   2.176   3.446
 9544SOL    HW229532   0.037   2.076   3.527
 9545SOL     OW29533   5.399   6.013   4.130
 9545SOL    HW129534   5.303   5.985   4.121
 9545SOL    HW229535   5.446   5.949   4.190
 9546SOL     OW29536   4.305   2.053   5.213
 9546SOL    HW129537   4.304   1.981   5.144
 9546SOL    HW229538   4.399   2.064   5.248
 9547SOL     OW29539   2.712   4.864   4.513
 9547SOL    HW129540   2.761   4.817   4.440
 9547SOL    HW229541   2.773   4.878   4.591
 9548SOL     OW29542   5.724   4.334   5.868
 9548SOL    HW129543   5.673   4.249   5.877
 9548SOL    HW229544   5.819   4.314   5.845
 9549SOL     OW29545   2.655   2.987   1.362
 9549SOL    HW129546   2.714   3.040   1.423
 9549SOL    HW229547   2.658   3.026   1.270
 9550SOL     OW29548   6.773   1.304   0.291
 9550SOL    HW129549   6.809   1.398   0.293
 9550SOL    HW229550   6.708   1.295   0.217
 9551SOL     OW29551   5.648   2.034   5.723
 9551SOL    HW129552   5.722   2.100   5.707
 9551SOL    HW229553   5.573   2.080   5.770
 9552SOL     OW29554   1.487   6.958   4.174
 9552SOL    HW129555   1.499   6.875   4.227
 9552SOL    HW229556   1.575   7.005   4.163
 9553SOL     OW29557   5.968   2.308   0.135
 9553SOL    HW129558   6.030   2.348   0.203
 9553SOL    HW229559   6.022   2.259   0.066
 9554SOL     OW29560   2.770   6.848   1.776
 9554SOL    HW129561   2.799   6.833   1.870
 9554SOL    HW229562   2.804   6.936   1.744
 9555SOL     OW29563   0.794   0.798   2.866
 9555SOL    HW129564   0.751   0.710   2.884
 9555SOL    HW229565   0.885   0.783   2.827
 9556SOL     OW29566   1.805   3.950   1.605
 9556SOL    HW129567   1.903   3.953   1.624
 9556SOL    HW229568   1.775   4.040   1.574
 9557SOL     OW29569   6.855   5.693   2.039
 9557SOL    HW129570   6.880   5.753   1.964
 9557SOL    HW229571   6.938   5.657   2.082
 9558SOL     OW29572   6.154   6.361   5.122
 9558SOL    HW129573   6.120   6.440   5.173
 9558SOL    HW229574   6.245   6.381   5.087
 9559SOL     OW29575   0.212   5.175   1.206
 9559SOL    HW129576   0.128   5.186   1.154
 9559SOL    HW229577   0.192   5.180   1.304
 9560SOL     OW29578   1.956   1.817   3.292
 9560SOL    HW129579   1.907   1.901   3.316
 9560SOL    HW229580   1.901   1.765   3.226
 9561SOL     OW29581   2.081   0.458   0.609
 9561SOL    HW129582   2.041   0.406   0.533
 9561SOL    HW229583   2.122   0.542   0.574
 9562SOL     OW29584   2.690   0.633   5.540
 9562SOL    HW129585   2.675   0.599   5.447
 9562SOL    HW229586   2.602   0.656   5.581
 9563SOL     OW29587   6.877   6.225   0.548
 9563SOL    HW129588   6.973   6.253   0.556
 9563SOL    HW229589   6.844   6.244   0.456
 9564SOL     OW29590   2.885   0.318   0.650
 9564SOL    HW129591   2.847   0.287   0.563
 9564SOL    HW229592   2.871   0.247   0.719
 9565SOL     OW29593   3.645   0.399   4.823
 9565SOL    HW129594   3.571   0.365   4.766
 9565SOL    HW229595   3.608   0.452   4.899
 9566SOL     OW29596   2.144   4.696   6.965
 9566SOL    HW129597   2.159   4.637   0.025
 9566SOL    HW229598   2.125   4.639   6.885
 9567SOL     OW29599   4.756   5.110   1.245
 9567SOL    HW129600   4.791   5.042   1.309
 9567SOL    HW229601   4.726   5.191   1.295
 9568SOL     OW29602   4.067   2.187   6.269
 9568SOL    HW129603   4.026   2.270   6.231
 9568SOL    HW229604   4.024   2.107   6.227
 9569SOL     OW29605   6.719   1.624   2.367
 9569SOL    HW129606   6.807   1.595   2.330
 9569SOL    HW229607   6.709   1.723   2.358
 9570SOL     OW29608   0.969   3.464   2.117
 9570SOL    HW129609   0.900   3.431   2.180
 9570SOL    HW229610   1.019   3.540   2.158
 9571SOL     OW29611   3.846   4.197   5.972
 9571SOL    HW129612   3.803   4.284   5.997
 9571SOL    HW229613   3.828   4.177   5.876
 9572SOL     OW29614   2.239   5.227   1.959
 9572SOL    HW129615   2.148   5.267   1.970
 9572SOL    HW229616   2.276   5.204   2.049
 9573SOL     OW29617   0.392   2.918   6.820
 9573SOL    HW129618   0.303   2.945   6.783
 9573SOL    HW229619   0.385   2.906   6.919
 9574SOL     OW29620   4.094   3.378   3.434
 9574SOL    HW129621   3.995   3.370   3.422
 9574SOL    HW229622   4.127   3.304   3.492
 9575SOL     OW29623   0.464   1.155   1.109
 9575SOL    HW129624   0.490   1.087   1.041
 9575SOL    HW229625   0.442   1.241   1.064
 9576SOL     OW29626   1.903   0.641   1.875
 9576SOL    HW129627   1.942   0.710   1.815
 9576SOL    HW229628   1.878   0.560   1.821
 9577SOL     OW29629   1.037   0.539   5.991
 9577SOL    HW129630   1.044   0.612   6.060
 9577SOL    HW229631   1.097   0.463   6.017
 9578SOL     OW29632   0.300   3.981   3.498
 9578SOL    HW129633   0.384   4.018   3.459
 9578SOL    HW229634   0.253   3.926   3.429
 9579SOL     OW29635   1.652   5.006   2.517
 9579SOL    HW129636   1.563   4.965   2.498
 9579SOL    HW229637   1.645   5.067   2.596
 9580SOL     OW29638   4.673   3.544   0.554
 9580SOL    HW129639   4.625   3.457   0.557
 9580SOL    HW229640   4.766   3.532   0.589
 9581SOL     OW29641   0.614   4.792   5.719
 9581SOL    HW129642   0.542   4.734   5.757
 9581SOL    HW229643   0.647   4.855   5.789
 9582SOL     OW29644   4.925   5.334   6.348
 9582SOL    HW129645   4.990   5.392   6.300
 9582SOL    HW229646   4.918   5.246   6.301
 9583SOL     OW29647   3.697   4.027   1.058
 9583SOL    HW129648   3.743   3.989   0.979
 9583SOL    HW229649   3.739   4.114   1.083
 9584SOL     OW29650   6.876   5.451   0.110
 9584SOL    HW129651   6.975   5.458   0.124
 9584SOL    HW229652   6.834   5.409   0.191
 9585SOL     OW29653   7.018   0.163   4.334
 9585SOL    HW129654   6.969   0.152   4.247
 9585SOL    HW229655   6.969   0.228   4.392
 9586SOL     OW29656   5.529   4.686   2.211
 9586SOL    HW129657   5.534   4.610   2.276
 9586SOL    HW229658   5.605   4.749   2.227
 9587SOL     OW29659   6.922   0.950   1.903
 9587SOL    HW129660   6.917   0.869   1.844
 9587SOL    HW229661   6.881   1.028   1.856
 9588SOL     OW29662   6.456   1.594   1.449
 9588SOL    HW129663   6.452   1.691   1.425
 9588SOL    HW229664   6.419   1.581   1.541
 9589SOL     OW29665   2.229   4.770   6.351
 9589SOL    HW129666   2.235   4.813   6.441
 9589SOL    HW229667   2.315   4.783   6.302
 9590SOL     OW29668   6.520   3.115   2.044
 9590SOL    HW129669   6.456   3.044   2.072
 9590SOL    HW229670   6.514   3.193   2.106
 9591SOL     OW29671   3.283   6.080   6.293
 9591SOL    HW129672   3.305   6.022   6.371
 9591SOL    HW229673   3.259   6.172   6.325
 9592SOL     OW29674   4.065   4.151   1.021
 9592SOL    HW129675   4.062   4.054   0.996
 9592SOL    HW229676   4.141   4.195   0.972
 9593SOL     OW29677   0.258   1.138   5.503
 9593SOL    HW129678   0.320   1.085   5.561
 9593SOL    HW229679   0.168   1.095   5.503
 9594SOL     OW29680   1.620   5.739   2.792
 9594SOL    HW129681   1.546   5.806   2.781
 9594SOL    HW229682   1.679   5.766   2.868
 9595SOL     OW29683   0.703   4.223   5.212
 9595SOL    HW129684   0.724   4.176   5.126
 9595SOL    HW229685   0.654   4.307   5.193
 9596SOL     OW29686   6.714   5.544   6.657
 9596SOL    HW129687   6.696   5.499   6.745
 9596SOL    HW229688   6.633   5.537   6.599
 9597SOL     OW29689   0.555   4.753   1.485
 9597SOL    HW129690   0.620   4.730   1.557
 9597SOL    HW229691   0.464   4.763   1.525
 9598SOL     OW29692   1.406   3.238   3.984
 9598SOL    HW129693   1.408   3.158   4.045
 9598SOL    HW229694   1.441   3.318   4.033
 9599SOL     OW29695   4.160   6.953   4.984
 9599SOL    HW129696   4.211   7.014   5.045
 9599SOL    HW229697   4.120   7.006   4.910
 9600SOL     OW29698   2.032   0.671   6.713
 9600SOL    HW129699   2.121   0.628   6.725
 9600SOL    HW229700   2.030   0.720   6.625
 9601SOL     OW29701   5.345   4.119   1.490
 9601SOL    HW129702   5.418   4.176   1.451
 9601SOL    HW229703   5.351   4.121   1.589
 9602SOL     OW29704   6.673   5.066   6.364
 9602SOL    HW129705   6.675   4.974   6.403
 9602SOL    HW229706   6.589   5.079   6.312
 9603SOL     OW29707   3.813   1.717   4.002
 9603SOL    HW129708   3.870   1.721   4.083
 9603SOL    HW229709   3.863   1.754   3.924
 9604SOL     OW29710   4.175   0.308   6.591
 9604SOL    HW129711   4.223   0.376   6.646
 9604SOL    HW229712   4.077   0.321   6.601
 9605SOL     OW29713   0.524   5.258   3.517
 9605SOL    HW129714   0.564   5.286   3.430
 9605SOL    HW229715   0.469   5.175   3.503
 9606SOL     OW29716   2.156   6.661   6.092
 9606SOL    HW129717   2.131   6.605   6.171
 9606SOL    HW229718   2.080   6.722   6.069
 9607SOL     OW29719   1.367   1.803   0.593
 9607SOL    HW129720   1.348   1.871   0.665
 9607SOL    HW229721   1.393   1.849   0.509
 9608SOL     OW29722   6.773   6.040   2.376
 9608SOL    HW129723   6.744   5.972   2.309
 9608SOL    HW229724   6.703   6.050   2.446
 9609SOL     OW29725   1.810   3.907   6.429
 9609SOL    HW129726   1.781   3.894   6.524
 9609SOL    HW229727   1.742   3.865   6.368
 9610SOL     OW29728   1.651   4.968   4.213
 9610SOL    HW129729   1.575   5.033   4.207
 9610SOL    HW229730   1.737   5.017   4.201
 9611SOL     OW29731   0.120   6.402   6.605
 9611SOL    HW129732   0.174   6.443   6.678
 9611SOL    HW229733   0.177   6.340   6.551
 9612SOL     OW29734   0.782   4.113   1.794
 9612SOL    HW129735   0.785   4.030   1.850
 9612SOL    HW229736   0.868   4.163   1.804
 9613SOL     OW29737   4.839   6.149   3.194
 9613SOL    HW129738   4.791   6.226   3.153
 9613SOL    HW229739   4.780   6.068   3.193
 9614SOL     OW29740   3.410   2.391   0.262
 9614SOL    HW129741   3.441   2.486   0.268
 9614SOL    HW229742   3.367   2.375   0.173
 9615SOL     OW29743   0.565   0.149   0.817
 9615SOL    HW129744   0.528   0.058   0.837
 9615SOL    HW229745   0.643   0.167   0.877
 9616SOL     OW29746   4.514   3.281   1.232
 9616SOL    HW129747   4.500   3.217   1.156
 9616SOL    HW229748   4.433   3.338   1.242
 9617SOL     OW29749   2.122   2.922   3.860
 9617SOL    HW129750   2.147   3.018   3.873
 9617SOL    HW229751   2.028   2.908   3.890
 9618SOL     OW29752   3.606   6.815   5.687
 9618SOL    HW129753   3.608   6.825   5.587
 9618SOL    HW229754   3.691   6.771   5.718
 9619SOL     OW29755   1.125   6.531   7.007
 9619SOL    HW129756   1.080   6.461   0.043
 9619SOL    HW229757   1.160   6.489   6.922
 9620SOL     OW29758   4.107   2.364   6.637
 9620SOL    HW129759   4.170   2.291   6.610
 9620SOL    HW229760   4.125   2.445   6.581
 9621SOL     OW29761   0.866   1.131   2.310
 9621SOL    HW129762   0.811   1.063   2.358
 9621SOL    HW229763   0.824   1.222   2.322
 9622SOL     OW29764   6.686   0.885   0.303
 9622SOL    HW129765   6.623   0.808   0.308
 9622SOL    HW229766   6.634   0.971   0.308
 9623SOL     OW29767   3.265   4.697   5.654
 9623SOL    HW129768   3.167   4.712   5.650
 9623SOL    HW229769   3.310   4.748   5.580
 9624SOL     OW29770   6.366   4.545   3.089
 9624SOL    HW129771   6.380   4.457   3.044
 9624SOL    HW229772   6.387   4.536   3.187
 9625SOL     OW29773   5.019   5.544   0.215
 9625SOL    HW129774   4.986   5.461   0.169
 9625SOL    HW229775   5.005   5.534   0.314
 9626SOL     OW29776   2.658   6.476   6.756
 9626SOL    HW129777   2.680   6.385   6.790
 9626SOL    HW229778   2.727   6.541   6.788
 9627SOL     OW29779   0.077   4.593   3.056
 9627SOL    HW129780   0.089   4.497   3.029
 9627SOL    HW229781   7.009   4.627   3.021
 9628SOL     OW29782   5.993   4.920   6.877
 9628SOL    HW129783   5.950   4.915   6.786
 9628SOL    HW229784   5.965   5.005   6.922
 9629SOL     OW29785   0.375   6.426   2.867
 9629SOL    HW129786   0.414   6.445   2.958
 9629SOL    HW229787   0.393   6.504   2.807
 9630SOL     OW29788   6.136   6.590   5.705
 9630SOL    HW129789   6.211   6.567   5.643
 9630SOL    HW229790   6.051   6.598   5.653
 9631SOL     OW29791   6.056   0.541   0.189
 9631SOL    HW129792   6.062   0.446   0.160
 9631SOL    HW229793   5.976   0.583   0.147
 9632SOL     OW29794   2.142   5.560   2.875
 9632SOL    HW129795   2.216   5.510   2.829
 9632SOL    HW229796   2.103   5.502   2.947
 9633SOL     OW29797   4.944   5.060   6.956
 9633SOL    HW129798   5.036   5.052   6.917
 9633SOL    HW229799   4.904   5.148   6.930
 9634SOL     OW29800   0.983   6.807   4.853
 9634SOL    HW129801   1.044   6.774   4.780
 9634SOL    HW229802   0.914   6.867   4.813
 9635SOL     OW29803   1.410   4.378   5.607
 9635SOL    HW129804   1.421   4.412   5.513
 9635SOL    HW229805   1.499   4.380   5.652
 9636SOL     OW29806   4.178   1.700   5.959
 9636SOL    HW129807   4.240   1.626   5.934
 9636SOL    HW229808   4.085   1.677   5.929
 9637SOL     OW29809   2.297   2.066   0.154
 9637SOL    HW129810   2.360   2.144   0.150
 9637SOL    HW229811   2.281   2.042   0.250
 9638SOL     OW29812   6.969   3.402   0.168
 9638SOL    HW129813   6.964   3.425   0.071
 9638SOL    HW229814   6.957   3.485   0.223
 9639SOL     OW29815   4.470   1.569   2.139
 9639SOL    HW129816   4.452   1.480   2.181
 9639SOL    HW229817   4.566   1.594   2.153
 9640SOL     OW29818   3.070   1.610   3.252
 9640SOL    HW129819   3.155   1.598   3.202
 9640SOL    HW229820   2.992   1.588   3.192
 9641SOL     OW29821   5.391   6.341   0.725
 9641SOL    HW129822   5.384   6.429   0.677
 9641SOL    HW229823   5.433   6.356   0.815
 9642SOL     OW29824   2.547   6.023   4.472
 9642SOL    HW129825   2.623   6.086   4.487
 9642SOL    HW229826   2.582   5.930   4.460
 9643SOL     OW29827   6.360   4.588   4.217
 9643SOL    HW129828   6.290   4.543   4.162
 9643SOL    HW229829   6.451   4.565   4.182
 9644SOL     OW29830   0.392   5.204   4.485
 9644SOL    HW129831   0.481   5.225   4.524
 9644SOL    HW229832   0.368   5.274   4.417
 9645SOL     OW29833   3.420   5.008   3.770
 9645SOL    HW129834   3.344   4.959   3.727
 9645SOL    HW229835   3.455   5.077   3.707
 9646SOL     OW29836   2.743   4.754   2.250
 9646SOL    HW129837   2.747   4.709   2.160
 9646SOL    HW229838   2.713   4.688   2.319
 9647SOL     OW29839   0.738   5.713   1.557
 9647SOL    HW129840   0.648   5.704   1.600
 9647SOL    HW229841   0.792   5.632   1.577
 9648SOL     OW29842   3.541   1.973   0.032
 9648SOL    HW129843   3.624   2.010   7.010
 9648SOL    HW229844   3.464   1.988   6.989
 9649SOL     OW29845   2.459   5.147   6.860
 9649SOL    HW129846   2.555   5.171   6.842
 9649SOL    HW229847   2.400   5.223   6.834
 9650SOL     OW29848   4.924   4.523   3.132
 9650SOL    HW129849   4.881   4.434   3.116
 9650SOL    HW229850   5.022   4.518   3.111
 9651SOL     OW29851   6.474   0.630   6.980
 9651SOL    HW129852   6.542   0.683   6.930
 9651SOL    HW229853   6.395   0.687   7.001
 9652SOL     OW29854   2.169   4.195   1.021
 9652SOL    HW129855   2.093   4.189   0.956
 9652SOL    HW229856   2.202   4.289   1.024
 9653SOL     OW29857   4.481   5.319   5.106
 9653SOL    HW129858   4.454   5.353   5.016
 9653SOL    HW229859   4.577   5.291   5.104
 9654SOL     OW29860   3.725   3.319   2.419
 9654SOL    HW129861   3.802   3.259   2.441
 9654SOL    HW229862   3.759   3.411   2.398
 9655SOL     OW29863   6.492   1.077   0.309
 9655SOL    HW129864   6.489   1.174   0.335
 9655SOL    HW229865   6.466   1.068   0.213
 9656SOL     OW29866   4.117   2.063   0.834
 9656SOL    HW129867   4.179   2.126   0.880
 9656SOL    HW229868   4.085   1.994   0.900
 9657SOL     OW29869   6.087   1.980   3.456
 9657SOL    HW129870   6.091   2.047   3.382
 9657SOL    HW229871   6.036   1.900   3.425
 9658SOL     OW29872   5.773   1.777   2.407
 9658SOL    HW129873   5.756   1.874   2.391
 9658SOL    HW229874   5.689   1.734   2.441
 9659SOL     OW29875   6.744   3.332   0.476
 9659SOL    HW129876   6.812   3.354   0.545
 9659SOL    HW229877   6.739   3.233   0.464
 9660SOL     OW29878   0.049   6.603   2.374
 9660SOL    HW129879   0.050   6.694   2.415
 9660SOL    HW229880   0.080   6.536   2.441
 9661SOL     OW29881   3.288   6.338   1.771
 9661SOL    HW129882   3.321   6.401   1.841
 9661SOL    HW229883   3.192   6.314   1.790
 9662SOL     OW29884   4.472   3.067   5.624
 9662SOL    HW129885   4.491   3.057   5.722
 9662SOL    HW229886   4.554   3.101   5.578
 9663SOL     OW29887   0.035   5.988   3.769
 9663SOL    HW129888   0.020   6.072   3.821
 9663SOL    HW229889   7.003   5.913   3.811
 9664SOL     OW29890   5.652   6.441   3.815
 9664SOL    HW129891   5.662   6.372   3.744
 9664SOL    HW229892   5.617   6.399   3.899
 9665SOL     OW29893   4.877   6.661   0.005
 9665SOL    HW129894   4.831   6.572   0.008
 9665SOL    HW229895   4.888   6.690   6.929
 9666SOL     OW29896   6.110   3.690   1.311
 9666SOL    HW129897   6.031   3.634   1.336
 9666SOL    HW229898   6.136   3.670   1.216
 9667SOL     OW29899   3.969   3.400   5.378
 9667SOL    HW129900   3.903   3.406   5.303
 9667SOL    HW229901   4.044   3.339   5.353
 9668SOL     OW29902   6.970   0.904   6.177
 9668SOL    HW129903   6.936   0.965   6.248
 9668SOL    HW229904   6.996   0.816   6.218
 9669SOL     OW29905   1.379   0.231   2.096
 9669SOL    HW129906   1.319   0.299   2.138
 9669SOL    HW229907   1.325   0.164   2.046
 9670SOL     OW29908   6.220   4.808   6.667
 9670SOL    HW129909   6.128   4.841   6.691
 9670SOL    HW229910   6.285   4.884   6.671
 9671SOL     OW29911   5.817   4.729   7.008
 9671SOL    HW129912   5.886   4.793   6.973
 9671SOL    HW229913   5.730   4.747   6.962
 9672SOL     OW29914   1.770   5.927   3.801
 9672SOL    HW129915   1.863   5.909   3.771
 9672SOL    HW229916   1.709   5.932   3.721
 9673SOL     OW29917   5.372   3.782   0.576
 9673SOL    HW129918   5.371   3.687   0.608
 9673SOL    HW229919   5.371   3.784   0.476
 9674SOL     OW29920   2.642   6.186   3.130
 9674SOL    HW129921   2.725   6.191   3.074
 9674SOL    HW229922   2.562   6.193   3.071
 9675SOL     OW29923   5.783   2.401   0.535
 9675SOL    HW129924   5.734   2.383   0.450
 9675SOL    HW229925   5.873   2.439   0.514
 9676SOL     OW29926   1.191   3.918   5.594
 9676SOL    HW129927   1.245   3.834   5.587
 9676SOL    HW229928   1.249   3.997   5.575
 9677SOL     OW29929   1.310   5.084   5.202
 9677SOL    HW129930   1.394   5.104   5.151
 9677SOL    HW229931   1.295   4.985   5.202
 9678SOL     OW29932   3.270   3.583   3.099
 9678SOL    HW129933   3.181   3.539   3.109
 9678SOL    HW229934   3.342   3.514   3.109
 9679SOL     OW29935   2.490   1.009   2.173
 9679SOL    HW129936   2.443   1.094   2.194
 9679SOL    HW229937   2.427   0.947   2.126
 9680SOL     OW29938   5.019   1.010   2.704
 9680SOL    HW129939   4.952   1.079   2.678
 9680SOL    HW229940   4.982   0.919   2.685
 9681SOL     OW29941   3.297   1.294   0.413
 9681SOL    HW129942   3.384   1.244   0.414
 9681SOL    HW229943   3.223   1.231   0.393
 9682SOL     OW29944   5.178   4.769   3.807
 9682SOL    HW129945   5.102   4.817   3.851
 9682SOL    HW229946   5.259   4.774   3.865
 9683SOL     OW29947   2.754   5.380   0.435
 9683SOL    HW129948   2.661   5.343   0.432
 9683SOL    HW229949   2.750   5.478   0.416
 9684SOL     OW29950   0.049   3.172   5.235
 9684SOL    HW129951   0.143   3.206   5.245
 9684SOL    HW229952   7.007   3.248   5.215
 9685SOL     OW29953   2.847   4.505   1.443
 9685SOL    HW129954   2.933   4.495   1.393
 9685SOL    HW229955   2.793   4.421   1.435
 9686SOL     OW29956   6.353   1.300   6.827
 9686SOL    HW129957   6.366   1.382   6.771
 9686SOL    HW229958   6.416   1.304   6.905
 9687SOL     OW29959   1.468   0.714   3.774
 9687SOL    HW129960   1.554   0.696   3.725
 9687SOL    HW229961   1.466   0.659   3.857
 9688SOL     OW29962   0.520   3.146   2.429
 9688SOL    HW129963   0.579   3.141   2.509
 9688SOL    HW229964   0.576   3.151   2.346
 9689SOL     OW29965   1.231   5.430   6.654
 9689SOL    HW129966   1.137   5.396   6.641
 9689SOL    HW229967   1.229   5.528   6.673
 9690SOL     OW29968   5.685   5.812   6.758
 9690SOL    HW129969   5.707   5.859   6.843
 9690SOL    HW229970   5.610   5.748   6.773
 9691SOL     OW29971   3.044   5.235   1.572
 9691SOL    HW129972   3.012   5.220   1.479
 9691SOL    HW229973   3.076   5.149   1.612
 9692SOL     OW29974   3.980   5.295   2.629
 9692SOL    HW129975   3.993   5.229   2.555
 9692SOL    HW229976   3.893   5.278   2.675
 9693SOL     OW29977   6.118   4.842   1.374
 9693SOL    HW129978   6.021   4.863   1.381
 9693SOL    HW229979   6.165   4.918   1.330
 9694SOL     OW29980   2.333   0.785   0.314
 9694SOL    HW129981   2.261   0.851   0.293
 9694SOL    HW229982   2.380   0.812   0.398
 9695SOL     OW29983   0.035   3.874   2.507
 9695SOL    HW129984   7.000   3.861   2.591
 9695SOL    HW229985   0.039   3.788   2.457
 9696SOL     OW29986   5.264   3.498   0.618
 9696SOL    HW129987   5.245   3.479   0.714
 9696SOL    HW229988   5.305   3.418   0.575
 9697SOL     OW29989   0.203   5.508   6.800
 9697SOL    HW129990   0.131   5.563   6.758
 9697SOL    HW229991   0.279   5.496   6.736
 9698SOL     OW29992   4.469   1.176   6.158
 9698SOL    HW129993   4.505   1.267   6.135
 9698SOL    HW229994   4.473   1.162   6.256
 9699SOL     OW29995   6.617   4.944   6.690
 9699SOL    HW129996   6.695   4.995   6.726
 9699SOL    HW229997   6.647   4.853   6.662
 9700SOL     OW29998   4.347   5.367   4.855
 9700SOL    HW129999   4.270   5.305   4.843
 9700SOL    HW230000   4.423   5.338   4.797
 9701SOL     OW30001   3.800   4.963   5.360
 9701SOL    HW130002   3.776   4.891   5.295
 9701SOL    HW230003   3.742   4.955   5.441
 9702SOL     OW30004   4.555   0.319   0.017
 9702SOL    HW130005   4.562   0.334   0.116
 9702SOL    HW230006   4.630   0.260   7.006
 9703SOL     OW30007   4.521   4.585   3.759
 9703SOL    HW130008   4.585   4.660   3.738
 9703SOL    HW230009   4.560   4.499   3.727
 9704SOL     OW30010   3.409   0.853   2.914
 9704SOL    HW130011   3.481   0.909   2.873
 9704SOL    HW230012   3.339   0.913   2.953
 9705SOL     OW30013   6.014   4.430   6.445
 9705SOL    HW130014   6.050   4.349   6.493
 9705SOL    HW230015   5.916   4.438   6.462
 9706SOL     OW30016   0.366   3.423   0.902
 9706SOL    HW130017   0.336   3.483   0.829
 9706SOL    HW230018   0.295   3.355   0.921
 9707SOL     OW30019   6.849   5.095   2.078
 9707SOL    HW130020   6.885   5.037   2.151
 9707SOL    HW230021   6.865   5.052   1.989
 9708SOL     OW30022   1.410   1.981   2.626
 9708SOL    HW130023   1.456   2.059   2.584
 9708SOL    HW230024   1.316   2.007   2.650
 9709SOL     OW30025   5.948   6.448   3.132
 9709SOL    HW130026   5.945   6.442   3.032
 9709SOL    HW230027   6.043   6.461   3.162
 9710SOL     OW30028   0.208   1.072   1.889
 9710SOL    HW130029   0.229   1.125   1.807
 9710SOL    HW230030   0.111   1.047   1.889
 9711SOL     OW30031   1.995   4.891   6.059
 9711SOL    HW130032   1.955   4.823   6.121
 9711SOL    HW230033   1.938   4.900   5.978
 9712SOL     OW30034   6.144   3.961   6.609
 9712SOL    HW130035   6.064   4.007   6.649
 9712SOL    HW230036   6.160   3.874   6.657
 9713SOL     OW30037   1.221   5.113   3.105
 9713SOL    HW130038   1.258   5.165   3.182
 9713SOL    HW230039   1.290   5.048   3.073
 9714SOL     OW30040   2.982   0.247   0.302
 9714SOL    HW130041   2.946   0.192   0.377
 9714SOL    HW230042   2.926   0.330   0.292
 9715SOL     OW30043   5.313   4.038   6.403
 9715SOL    HW130044   5.313   4.100   6.481
 9715SOL    HW230045   5.242   3.969   6.415
 9716SOL     OW30046   3.815   3.018   0.271
 9716SOL    HW130047   3.903   3.065   0.265
 9716SOL    HW230048   3.751   3.059   0.205
 9717SOL     OW30049   5.238   6.057   5.744
 9717SOL    HW130050   5.194   6.008   5.819
 9717SOL    HW230051   5.324   6.097   5.775
 9718SOL     OW30052   4.865   2.562   0.304
 9718SOL    HW130053   4.926   2.545   0.227
 9718SOL    HW230054   4.909   2.626   0.368
 9719SOL     OW30055   6.467   1.738   6.012
 9719SOL    HW130056   6.511   1.725   5.923
 9719SOL    HW230057   6.536   1.735   6.084
 9720SOL     OW30058   6.905   5.434   2.296
 9720SOL    HW130059   6.962   5.515   2.301
 9720SOL    HW230060   6.935   5.367   2.364
 9721SOL     OW30061   0.253   2.492   1.558
 9721SOL    HW130062   0.254   2.559   1.483
 9721SOL    HW230063   0.159   2.459   1.571
 9722SOL     OW30064   6.493   0.126   3.965
 9722SOL    HW130065   6.422   0.164   4.025
 9722SOL    HW230066   6.570   0.190   3.960
 9723SOL     OW30067   2.101   6.728   3.347
 9723SOL    HW130068   2.191   6.758   3.313
 9723SOL    HW230069   2.112   6.643   3.397
 9724SOL     OW30070   1.497   4.446   0.459
 9724SOL    HW130071   1.499   4.351   0.427
 9724SOL    HW230072   1.511   4.449   0.558
 9725SOL     OW30073   3.968   4.823   6.335
 9725SOL    HW130074   3.952   4.802   6.431
 9725SOL    HW230075   4.063   4.802   6.312
 9726SOL     OW30076   5.244   0.504   4.147
 9726SOL    HW130077   5.188   0.578   4.186
 9726SOL    HW230078   5.332   0.501   4.195
 9727SOL     OW30079   0.629   3.797   5.746
 9727SOL    HW130080   0.701   3.730   5.765
 9727SOL    HW230081   0.668   3.889   5.751
 9728SOL     OW30082   0.274   0.751   6.111
 9728SOL    HW130083   0.292   0.833   6.056
 9728SOL    HW230084   0.325   0.756   6.196
 9729SOL     OW30085   1.087   4.288   3.177
 9729SOL    HW130086   1.039   4.242   3.252
 9729SOL    HW230087   1.184   4.298   3.201
 9730SOL     OW30088   1.069   3.798   3.768
 9730SOL    HW130089   0.999   3.835   3.830
 9730SOL    HW230090   1.027   3.729   3.709
 9731SOL     OW30091   4.652   4.554   1.165
 9731SOL    HW130092   4.579   4.488   1.180
 9731SOL    HW230093   4.629   4.641   1.209
 9732SOL     OW30094   6.009   5.620   3.286
 9732SOL    HW130095   5.986   5.536   3.335
 9732SOL    HW230096   6.032   5.598   3.192
 9733SOL     OW30097   5.426   5.101   0.759
 9733SOL    HW130098   5.430   5.194   0.723
 9733SOL    HW230099   5.359   5.048   0.708
 9734SOL     OW30100   6.511   1.639   2.559
 9734SOL    HW130101   6.590   1.617   2.500
 9734SOL    HW230102   6.436   1.578   2.537
 9735SOL     OW30103   2.567   4.685   3.434
 9735SOL    HW130104   2.490   4.748   3.443
 9735SOL    HW230105   2.557   4.611   3.500
 9736SOL     OW30106   6.277   1.820   6.768
 9736SOL    HW130107   6.235   1.899   6.723
 9736SOL    HW230108   6.206   1.764   6.811
 9737SOL     OW30109   5.793   2.599   4.128
 9737SOL    HW130110   5.851   2.672   4.092
 9737SOL    HW230111   5.837   2.559   4.209
 9738SOL     OW30112   1.489   0.327   1.229
 9738SOL    HW130113   1.392   0.305   1.237
 9738SOL    HW230114   1.540   0.278   1.300
 9739SOL     OW30115   6.081   4.632   1.837
 9739SOL    HW130116   6.105   4.631   1.740
 9739SOL    HW230117   6.097   4.541   1.877
 9740SOL     OW30118   6.440   2.589   3.172
 9740SOL    HW130119   6.460   2.530   3.250
 9740SOL    HW230120   6.411   2.533   3.095
 9741SOL     OW30121   4.867   1.286   3.246
 9741SOL    HW130122   4.912   1.355   3.190
 9741SOL    HW230123   4.935   1.225   3.285
 9742SOL     OW30124   4.609   6.934   1.278
 9742SOL    HW130125   4.523   6.931   1.226
 9742SOL    HW230126   4.671   7.001   1.237
 9743SOL     OW30127   0.733   1.900   5.126
 9743SOL    HW130128   0.689   1.981   5.164
 9743SOL    HW230129   0.783   1.925   5.043
 9744SOL     OW30130   0.428   0.067   2.970
 9744SOL    HW130131   0.408   0.137   2.902
 9744SOL    HW230132   0.484   7.014   2.929
 9745SOL     OW30133   6.441   2.665   5.968
 9745SOL    HW130134   6.367   2.723   5.934
 9745SOL    HW230135   6.517   2.667   5.903
 9746SOL     OW30136   6.653   0.851   5.677
 9746SOL    HW130137   6.613   0.770   5.635
 9746SOL    HW230138   6.602   0.932   5.649
 9747SOL     OW30139   2.195   0.969   1.307
 9747SOL    HW130140   2.271   0.946   1.368
 9747SOL    HW230141   2.110   0.972   1.359
 9748SOL     OW30142   0.521   1.372   3.272
 9748SOL    HW130143   0.613   1.412   3.272
 9748SOL    HW230144   0.457   1.434   3.316
 9749SOL     OW30145   2.129   1.623   5.217
 9749SOL    HW130146   2.220   1.599   5.183
 9749SOL    HW230147   2.060   1.595   5.150
 9750SOL     OW30148   5.842   4.504   3.610
 9750SOL    HW130149   5.764   4.449   3.641
 9750SOL    HW230150   5.809   4.582   3.557
 9751SOL     OW30151   0.445   0.846   0.563
 9751SOL    HW130152   0.361   0.861   0.615
 9751SOL    HW230153   0.524   0.862   0.623
 9752SOL     OW30154   4.916   1.830   5.806
 9752SOL    HW130155   4.954   1.742   5.778
 9752SOL    HW230156   4.938   1.900   5.738
 9753SOL     OW30157   5.782   6.110   5.776
 9753SOL    HW130158   5.806   6.202   5.808
 9753SOL    HW230159   5.841   6.043   5.822
 9754SOL     OW30160   0.862   1.325   6.540
 9754SOL    HW130161   0.799   1.319   6.463
 9754SOL    HW230162   0.940   1.383   6.515
 9755SOL     OW30163   4.155   3.384   5.066
 9755SOL    HW130164   4.254   3.390   5.079
 9755SOL    HW230165   4.118   3.309   5.122
 9756SOL     OW30166   5.925   3.270   0.871
 9756SOL    HW130167   5.981   3.329   0.928
 9756SOL    HW230168   5.954   3.278   0.775
 9757SOL     OW30169   6.031   3.893   3.455
 9757SOL    HW130170   6.127   3.874   3.476
 9757SOL    HW230171   5.987   3.934   3.534
 9758SOL     OW30172   2.460   6.994   6.700
 9758SOL    HW130173   2.555   0.001   6.680
 9758SOL    HW230174   2.399   0.051   6.678
 9759SOL     OW30175   2.042   6.918   6.783
 9759SOL    HW130176   2.061   6.989   6.716
 9759SOL    HW230177   2.062   6.952   6.875
 9760SOL     OW30178   4.822   3.329   5.165
 9760SOL    HW130179   4.913   3.354   5.196
 9760SOL    HW230180   4.778   3.408   5.122
 9761SOL     OW30181   6.062   0.833   2.328
 9761SOL    HW130182   6.010   0.843   2.243
 9761SOL    HW230183   6.083   0.737   2.343
 9762SOL     OW30184   3.884   1.713   4.615
 9762SOL    HW130185   3.939   1.638   4.652
 9762SOL    HW230186   3.840   1.762   4.691
 9763SOL     OW30187   4.915   2.387   2.146
 9763SOL    HW130188   4.940   2.471   2.099
 9763SOL    HW230189   4.896   2.315   2.079
 9764SOL     OW30190   0.458   2.982   3.107
 9764SOL    HW130191   0.445   2.902   3.167
 9764SOL    HW230192   0.492   3.059   3.161
 9765SOL     OW30193   6.666   1.519   3.553
 9765SOL    HW130194   6.602   1.574   3.606
 9765SOL    HW230195   6.758   1.556   3.562
 9766SOL     OW30196   2.609   0.557   3.315
 9766SOL    HW130197   2.661   0.641   3.331
 9766SOL    HW230198   2.634   0.489   3.384
 9767SOL     OW30199   4.980   1.517   5.400
 9767SOL    HW130200   4.985   1.616   5.394
 9767SOL    HW230201   4.940   1.490   5.487
 9768SOL     OW30202   5.768   2.074   3.289
 9768SOL    HW130203   5.689   2.075   3.228
 9768SOL    HW230204   5.851   2.095   3.237
 9769SOL     OW30205   2.791   0.797   2.688
 9769SOL    HW130206   2.871   0.851   2.662
 9769SOL    HW230207   2.763   0.740   2.610
 9770SOL     OW30208   5.766   6.991   0.322
 9770SOL    HW130209   5.801   0.042   0.260
 9770SOL    HW230210   5.686   6.946   0.282
 9771SOL     OW30211   2.895   4.915   1.263
 9771SOL    HW130212   2.864   4.885   1.172
 9771SOL    HW230213   2.859   4.853   1.332
 9772SOL     OW30214   1.236   6.122   3.017
 9772SOL    HW130215   1.145   6.102   2.983
 9772SOL    HW230216   1.234   6.126   3.117
 9773SOL     OW30217   5.139   5.911   4.414
 9773SOL    HW130218   5.066   5.858   4.456
 9773SOL    HW230219   5.106   6.003   4.393
 9774SOL     OW30220   6.775   5.099   1.655
 9774SOL    HW130221   6.834   5.044   1.714
 9774SOL    HW230222   6.719   5.160   1.711
 9775SOL     OW30223   2.124   0.786   3.711
 9775SOL    HW130224   2.107   0.709   3.650
 9775SOL    HW230225   2.067   0.776   3.793
 9776SOL     OW30226   0.851   4.683   4.081
 9776SOL    HW130227   0.880   4.707   3.989
 9776SOL    HW230228   0.762   4.638   4.078
 9777SOL     OW30229   5.420   4.496   6.173
 9777SOL    HW130230   5.425   4.455   6.082
 9777SOL    HW230231   5.369   4.582   6.168
 9778SOL     OW30232   0.353   0.876   3.104
 9778SOL    HW130233   0.453   0.887   3.099
 9778SOL    HW230234   0.332   0.787   3.145
 9779SOL     OW30235   2.044   0.802   4.778
 9779SOL    HW130236   2.142   0.785   4.764
 9779SOL    HW230237   2.029   0.832   4.872
 9780SOL     OW30238   2.690   1.712   1.188
 9780SOL    HW130239   2.784   1.736   1.166
 9780SOL    HW230240   2.647   1.671   1.107
 9781SOL     OW30241   1.810   3.610   4.389
 9781SOL    HW130242   1.897   3.660   4.397
 9781SOL    HW230243   1.829   3.512   4.380
 9782SOL     OW30244   6.593   0.573   1.480
 9782SOL    HW130245   6.535   0.650   1.455
 9782SOL    HW230246   6.656   0.553   1.405
 9783SOL     OW30247   5.127   1.837   3.121
 9783SOL    HW130248   5.120   1.776   3.200
 9783SOL    HW230249   5.041   1.887   3.110
 9784SOL     OW30250   4.113   1.293   4.514
 9784SOL    HW130251   4.050   1.242   4.573
 9784SOL    HW230252   4.135   1.238   4.434
 9785SOL     OW30253   0.464   3.649   5.929
 9785SOL    HW130254   0.507   3.715   5.867
 9785SOL    HW230255   0.392   3.694   5.981
 9786SOL     OW30256   2.333   4.369   6.981
 9786SOL    HW130257   2.273   4.415   0.029
 9786SOL    HW230258   2.301   4.274   6.969
 9787SOL     OW30259   4.495   3.506   1.663
 9787SOL    HW130260   4.591   3.476   1.668
 9787SOL    HW230261   4.489   3.586   1.604
 9788SOL     OW30262   0.614   0.832   3.669
 9788SOL    HW130263   0.607   0.847   3.570
 9788SOL    HW230264   0.654   0.912   3.712
 9789SOL     OW30265   1.299   5.598   0.297
 9789SOL    HW130266   1.243   5.517   0.280
 9789SOL    HW230267   1.266   5.643   0.380
 9790SOL     OW30268   6.051   4.023   5.378
 9790SOL    HW130269   6.036   4.038   5.476
 9790SOL    HW230270   6.003   4.094   5.327
 9791SOL     OW30271   0.049   1.223   2.674
 9791SOL    HW130272   7.006   1.252   2.746
 9791SOL    HW230273   0.089   1.134   2.698
 9792SOL     OW30274   5.186   5.393   1.671
 9792SOL    HW130275   5.170   5.461   1.600
 9792SOL    HW230276   5.282   5.363   1.668
 9793SOL     OW30277   5.071   5.293   3.446
 9793SOL    HW130278   5.080   5.372   3.385
 9793SOL    HW230279   4.999   5.233   3.412
 9794SOL     OW30280   6.316   3.977   0.233
 9794SOL    HW130281   6.401   3.959   0.183
 9794SOL    HW230282   6.317   3.929   0.321
 9795SOL     OW30283   2.045   2.001   4.229
 9795SOL    HW130284   2.000   2.005   4.140
 9795SOL    HW230285   2.144   1.991   4.216
 9796SOL     OW30286   4.509   2.307   1.692
 9796SOL    HW130287   4.464   2.275   1.608
 9796SOL    HW230288   4.607   2.290   1.685
 9797SOL     OW30289   3.002   5.096   6.706
 9797SOL    HW130290   3.055   5.069   6.787
 9797SOL    HW230291   3.065   5.114   6.630
 9798SOL     OW30292   3.030   0.173   1.205
 9798SOL    HW130293   3.011   0.075   1.209
 9798SOL    HW230294   2.975   0.221   1.274
 9799SOL     OW30295   3.431   3.820   3.336
 9799SOL    HW130296   3.426   3.817   3.436
 9799SOL    HW230297   3.345   3.854   3.299
 9800SOL     OW30298   3.727   6.508   5.095
 9800SOL    HW130299   3.654   6.460   5.047
 9800SOL    HW230300   3.728   6.604   5.066
 9801SOL     OW30301   4.740   3.928   0.397
 9801SOL    HW130302   4.644   3.946   0.420
 9801SOL    HW230303   4.745   3.877   0.311
 9802SOL     OW30304   0.831   3.269   1.697
 9802SOL    HW130305   0.921   3.228   1.682
 9802SOL    HW230306   0.836   3.334   1.773
 9803SOL     OW30307   6.487   1.485   0.049
 9803SOL    HW130308   6.475   1.551   6.994
 9803SOL    HW230309   6.415   1.498   0.117
 9804SOL     OW30310   1.135   6.415   2.871
 9804SOL    HW130311   1.120   6.487   2.803
 9804SOL    HW230312   1.233   6.401   2.883
 9805SOL     OW30313   1.203   6.338   5.800
 9805SOL    HW130314   1.103   6.341   5.795
 9805SOL    HW230315   1.240   6.306   5.713
 9806SOL     OW30316   1.466   1.317   1.045
 9806SOL    HW130317   1.469   1.304   0.946
 9806SOL    HW230318   1.482   1.229   1.091
 9807SOL     OW30319   2.074   3.201   0.296
 9807SOL    HW130320   2.013   3.254   0.353
 9807SOL    HW230321   2.051   3.104   0.303
 9808SOL     OW30322   5.853   1.450   5.369
 9808SOL    HW130323   5.809   1.361   5.385
 9808SOL    HW230324   5.828   1.483   5.278
 9809SOL     OW30325   0.620   2.096   6.817
 9809SOL    HW130326   0.706   2.087   6.768
 9809SOL    HW230327   0.570   2.009   6.813
 9810SOL     OW30328   2.460   2.451   4.055
 9810SOL    HW130329   2.459   2.501   4.142
 9810SOL    HW230330   2.365   2.438   4.024
 9811SOL     OW30331   5.315   5.835   3.794
 9811SOL    HW130332   5.356   5.795   3.876
 9811SOL    HW230333   5.341   5.931   3.788
 9812SOL     OW30334   3.053   2.162   5.744
 9812SOL    HW130335   3.019   2.137   5.653
 9812SOL    HW230336   3.136   2.217   5.734
 9813SOL     OW30337   5.996   0.580   6.767
 9813SOL    HW130338   6.023   0.516   6.696
 9813SOL    HW230339   5.911   0.626   6.740
 9814SOL     OW30340   0.179   1.047   0.268
 9814SOL    HW130341   0.080   1.051   0.274
 9814SOL    HW230342   0.219   1.124   0.318
 9815SOL     OW30343   5.792   3.885   2.631
 9815SOL    HW130344   5.834   3.800   2.662
 9815SOL    HW230345   5.722   3.914   2.697
 9816SOL     OW30346   0.253   1.782   5.941
 9816SOL    HW130347   0.242   1.763   6.038
 9816SOL    HW230348   0.325   1.851   5.929
 9817SOL     OW30349   2.441   5.499   2.779
 9817SOL    HW130350   2.523   5.554   2.791
 9817SOL    HW230351   2.407   5.509   2.686
 9818SOL     OW30352   1.637   0.719   4.483
 9818SOL    HW130353   1.711   0.698   4.546
 9818SOL    HW230354   1.556   0.748   4.534
 9819SOL     OW30355   4.752   2.911   4.984
 9819SOL    HW130356   4.740   3.008   4.963
 9819SOL    HW230357   4.781   2.863   4.901
 9820SOL     OW30358   3.608   3.486   6.023
 9820SOL    HW130359   3.634   3.564   6.080
 9820SOL    HW230360   3.626   3.401   6.072
 9821SOL     OW30361   4.972   0.861   0.593
 9821SOL    HW130362   5.028   0.943   0.607
 9821SOL    HW230363   4.880   0.887   0.563
 9822SOL     OW30364   2.589   5.675   3.597
 9822SOL    HW130365   2.603   5.577   3.607
 9822SOL    HW230366   2.556   5.713   3.683
 9823SOL     OW30367   2.289   0.076   1.590
 9823SOL    HW130368   2.309   7.010   1.542
 9823SOL    HW230369   2.235   0.136   1.531
 9824SOL     OW30370   1.802   5.746   4.301
 9824SOL    HW130371   1.842   5.837   4.313
 9824SOL    HW230372   1.838   5.704   4.218
 9825SOL     OW30373   5.238   6.788   4.483
 9825SOL    HW130374   5.326   6.834   4.487
 9825SOL    HW230375   5.249   6.698   4.439
 9826SOL     OW30376   3.351   6.353   5.402
 9826SOL    HW130377   3.446   6.326   5.387
 9826SOL    HW230378   3.296   6.333   5.321
 9827SOL     OW30379   1.585   4.037   3.301
 9827SOL    HW130380   1.612   4.003   3.390
 9827SOL    HW230381   1.568   3.961   3.239
 9828SOL     OW30382   3.221   2.774   5.232
 9828SOL    HW130383   3.183   2.681   5.224
 9828SOL    HW230384   3.304   2.771   5.289
 9829SOL     OW30385   4.328   5.785   6.448
 9829SOL    HW130386   4.369   5.875   6.461
 9829SOL    HW230387   4.237   5.796   6.406
 9830SOL     OW30388   5.135   1.713   1.881
 9830SOL    HW130389   5.206   1.756   1.937
 9830SOL    HW230390   5.172   1.691   1.791
 9831SOL     OW30391   1.339   4.197   2.554
 9831SOL    HW130392   1.252   4.183   2.507
 9831SOL    HW230393   1.323   4.203   2.653
 9832SOL     OW30394   4.825   5.854   1.770
 9832SOL    HW130395   4.826   5.944   1.813
 9832SOL    HW230396   4.893   5.795   1.813
 9833SOL     OW30397   3.408   3.402   3.300
 9833SOL    HW130398   3.426   3.304   3.304
 9833SOL    HW230399   3.370   3.433   3.387
 9834SOL     OW30400   1.945   4.576   5.605
 9834SOL    HW130401   1.911   4.643   5.671
 9834SOL    HW230402   2.044   4.584   5.597
 9835SOL     OW30403   3.728   3.178   4.162
 9835SOL    HW130404   3.693   3.208   4.251
 9835SOL    HW230405   3.822   3.147   4.173
 9836SOL     OW30406   0.729   3.996   4.321
 9836SOL    HW130407   0.726   4.084   4.367
 9836SOL    HW230408   0.644   3.946   4.339
 9837SOL     OW30409   4.885   0.470   2.639
 9837SOL    HW130410   4.809   0.511   2.689
 9837SOL    HW230411   4.925   0.395   2.693
 9838SOL     OW30412   1.477   6.890   0.589
 9838SOL    HW130413   1.525   6.804   0.604
 9838SOL    HW230414   1.403   6.900   0.655
 9839SOL     OW30415   5.098   6.270   3.108
 9839SOL    HW130416   5.035   6.193   3.114
 9839SOL    HW230417   5.062   6.347   3.161
 9840SOL     OW30418   4.921   1.968   0.682
 9840SOL    HW130419   4.847   2.033   0.668
 9840SOL    HW230420   4.974   1.958   0.598
 9841SOL     OW30421   1.167   4.325   4.002
 9841SOL    HW130422   1.214   4.387   3.939
 9841SOL    HW230423   1.234   4.265   4.045
 9842SOL     OW30424   3.392   3.321   1.331
 9842SOL    HW130425   3.315   3.263   1.361
 9842SOL    HW230426   3.381   3.413   1.369
 9843SOL     OW30427   6.810   0.017   1.759
 9843SOL    HW130428   6.721   7.006   1.792
 9843SOL    HW230429   6.811   0.116   1.749
 9844SOL     OW30430   6.270   1.159   4.049
 9844SOL    HW130431   6.246   1.115   3.962
 9844SOL    HW230432   6.318   1.094   4.107
 9845SOL     OW30433   1.655   2.180   3.145
 9845SOL    HW130434   1.740   2.228   3.124
 9845SOL    HW230435   1.634   2.115   3.072
 9846SOL     OW30436   4.342   2.161   0.567
 9846SOL    HW130437   4.253   2.205   0.555
 9846SOL    HW230438   4.388   2.200   0.646
 9847SOL     OW30439   4.109   3.324   2.369
 9847SOL    HW130440   4.053   3.259   2.419
 9847SOL    HW230441   4.117   3.409   2.421
 9848SOL     OW30442   4.376   4.887   5.941
 9848SOL    HW130443   4.439   4.895   5.864
 9848SOL    HW230444   4.428   4.881   6.026
 9849SOL     OW30445   0.668   0.111   6.449
 9849SOL    HW130446   0.709   0.021   6.437
 9849SOL    HW230447   0.739   0.176   6.478
 9850SOL     OW30448   0.180   0.961   3.846
 9850SOL    HW130449   0.209   0.902   3.771
 9850SOL    HW230450   0.203   0.917   3.933
 9851SOL     OW30451   2.208   0.046   4.360
 9851SOL    HW130452   2.301   0.016   4.381
 9851SOL    HW230453   2.166   0.084   4.443
 9852SOL     OW30454   1.726   1.683   5.075
 9852SOL    HW130455   1.757   1.691   5.170
 9852SOL    HW230456   1.733   1.771   5.029
 9853SOL     OW30457   6.668   3.374   5.344
 9853SOL    HW130458   6.767   3.362   5.348
 9853SOL    HW230459   6.646   3.452   5.285
 9854SOL     OW30460   0.516   5.616   4.281
 9854SOL    HW130461   0.550   5.620   4.374
 9854SOL    HW230462   0.501   5.709   4.246
 9855SOL     OW30463   2.169   3.594   0.390
 9855SOL    HW130464   2.191   3.519   0.454
 9855SOL    HW230465   2.161   3.558   0.298
 9856SOL     OW30466   5.369   4.512   3.839
 9856SOL    HW130467   5.282   4.505   3.790
 9856SOL    HW230468   5.400   4.607   3.838
 9857SOL     OW30469   5.235   2.488   2.976
 9857SOL    HW130470   5.174   2.541   2.917
 9857SOL    HW230471   5.326   2.485   2.934
 9858SOL     OW30472   0.444   6.731   1.423
 9858SOL    HW130473   0.361   6.684   1.450
 9858SOL    HW230474   0.442   6.825   1.456
 9859SOL     OW30475   6.536   5.077   4.085
 9859SOL    HW130476   6.465   5.020   4.127
 9859SOL    HW230477   6.498   5.166   4.061
 9860SOL     OW30478   1.513   2.616   4.681
 9860SOL    HW130479   1.509   2.697   4.740
 9860SOL    HW230480   1.446   2.548   4.713
 9861SOL     OW30481   2.733   0.440   3.531
 9861SOL    HW130482   2.819   0.485   3.555
 9861SOL    HW230483   2.751   0.344   3.509
 9862SOL     OW30484   2.680   3.726   0.537
 9862SOL    HW130485   2.589   3.706   0.501
 9862SOL    HW230486   2.712   3.813   0.501
 9863SOL     OW30487   3.198   5.534   0.960
 9863SOL    HW130488   3.137   5.542   0.880
 9863SOL    HW230489   3.226   5.626   0.988
 9864SOL     OW30490   3.548   0.520   5.065
 9864SOL    HW130491   3.641   0.550   5.085
 9864SOL    HW230492   3.484   0.561   5.130
 9865SOL     OW30493   1.234   6.223   4.260
 9865SOL    HW130494   1.273   6.214   4.169
 9865SOL    HW230495   1.295   6.179   4.327
 9866SOL     OW30496   6.160   4.544   5.179
 9866SOL    HW130497   6.229   4.473   5.193
 9866SOL    HW230498   6.071   4.512   5.214
 9867SOL     OW30499   6.424   2.172   2.896
 9867SOL    HW130500   6.467   2.241   2.839
 9867SOL    HW230501   6.367   2.112   2.838
 9868SOL     OW30502   0.916   3.325   4.188
 9868SOL    HW130503   0.979   3.387   4.235
 9868SOL    HW230504   0.903   3.356   4.094
 9869SOL     OW30505   0.446   2.956   0.826
 9869SOL    HW130506   0.516   3.016   0.787
 9869SOL    HW230507   0.478   2.861   0.823
 9870SOL     OW30508   4.366   6.446   2.679
 9870SOL    HW130509   4.294   6.378   2.663
 9870SOL    HW230510   4.369   6.468   2.777
 9871SOL     OW30511   6.562   3.357   5.649
 9871SOL    HW130512   6.527   3.426   5.586
 9871SOL    HW230513   6.489   3.293   5.673
 9872SOL     OW30514   2.810   5.542   4.591
 9872SOL    HW130515   2.806   5.628   4.541
 9872SOL    HW230516   2.722   5.523   4.633
 9873SOL     OW30517   2.165   2.550   6.872
 9873SOL    HW130518   2.189   2.542   6.776
 9873SOL    HW230519   2.076   2.506   6.888
 9874SOL     OW30520   0.263   3.433   5.531
 9874SOL    HW130521   0.198   3.507   5.513
 9874SOL    HW230522   0.326   3.460   5.604
 9875SOL     OW30523   6.605   5.837   2.756
 9875SOL    HW130524   6.651   5.805   2.839
 9875SOL    HW230525   6.513   5.869   2.780
 9876SOL     OW30526   5.707   0.847   3.717
 9876SOL    HW130527   5.637   0.837   3.647
 9876SOL    HW230528   5.689   0.784   3.793
 9877SOL     OW30529   6.594   4.762   4.418
 9877SOL    HW130530   6.506   4.810   4.422
 9877SOL    HW230531   6.589   4.680   4.477
 9878SOL     OW30532   2.465   3.698   5.987
 9878SOL    HW130533   2.468   3.693   6.086
 9878SOL    HW230534   2.448   3.607   5.949
 9879SOL     OW30535   6.764   4.772   5.259
 9879SOL    HW130536   6.787   4.806   5.351
 9879SOL    HW230537   6.665   4.757   5.253
 9880SOL     OW30538   2.313   0.518   1.060
 9880SOL    HW130539   2.230   0.476   1.023
 9880SOL    HW230540   2.297   0.616   1.075
 9881SOL     OW30541   6.721   1.470   4.291
 9881SOL    HW130542   6.669   1.412   4.354
 9881SOL    HW230543   6.818   1.446   4.296
 9882SOL     OW30544   3.273   3.578   5.737
 9882SOL    HW130545   3.229   3.603   5.650
 9882SOL    HW230546   3.206   3.536   5.798
 9883SOL     OW30547   0.930   6.190   1.435
 9883SOL    HW130548   1.020   6.160   1.466
 9883SOL    HW230549   0.928   6.290   1.431
 9884SOL     OW30550   3.841   2.119   0.732
 9884SOL    HW130551   3.800   2.029   0.718
 9884SOL    HW230552   3.936   2.108   0.763
 9885SOL     OW30553   0.642   3.223   4.437
 9885SOL    HW130554   0.660   3.313   4.396
 9885SOL    HW230555   0.562   3.230   4.497
 9886SOL     OW30556   0.218   6.275   2.307
 9886SOL    HW130557   0.221   6.344   2.379
 9886SOL    HW230558   0.190   6.318   2.221
 9887SOL     OW30559   3.198   0.200   0.160
 9887SOL    HW130560   3.126   0.232   0.221
 9887SOL    HW230561   3.287   0.210   0.205
 9888SOL     OW30562   5.640   6.019   3.472
 9888SOL    HW130563   5.586   6.065   3.402
 9888SOL    HW230564   5.600   5.929   3.491
 9889SOL     OW30565   1.196   5.155   2.423
 9889SOL    HW130566   1.209   5.232   2.361
 9889SOL    HW230567   1.207   5.185   2.517
 9890SOL     OW30568   6.896   3.360   1.158
 9890SOL    HW130569   6.869   3.290   1.092
 9890SOL    HW230570   6.982   3.335   1.201
 9891SOL     OW30571   5.328   4.822   1.387
 9891SOL    HW130572   5.392   4.756   1.350
 9891SOL    HW230573   5.246   4.775   1.421
 9892SOL     OW30574   2.471   5.418   3.371
 9892SOL    HW130575   2.450   5.350   3.301
 9892SOL    HW230576   2.418   5.400   3.453
 9893SOL     OW30577   6.649   6.289   2.726
 9893SOL    HW130578   6.629   6.223   2.653
 9893SOL    HW230579   6.748   6.293   2.741
 9894SOL     OW30580   2.347   1.501   6.583
 9894SOL    HW130581   2.380   1.529   6.673
 9894SOL    HW230582   2.406   1.428   6.547
 9895SOL     OW30583   6.221   2.173   5.805
 9895SOL    HW130584   6.155   2.157   5.732
 9895SOL    HW230585   6.264   2.262   5.792
 9896SOL     OW30586   4.962   2.195   0.137
 9896SOL    HW130587   4.959   2.157   0.229
 9896SOL    HW230588   4.876   2.242   0.117
 9897SOL     OW30589   5.000   0.475   2.396
 9897SOL    HW130590   4.973   0.493   2.490
 9897SOL    HW230591   5.099   0.460   2.392
 9898SOL     OW30592   0.732   4.821   4.643
 9898SOL    HW130593   0.632   4.819   4.647
 9898SOL    HW230594   0.762   4.911   4.612
 9899SOL     OW30595   6.418   4.863   2.323
 9899SOL    HW130596   6.469   4.936   2.369
 9899SOL    HW230597   6.410   4.885   2.226
 9900SOL     OW30598   2.283   1.962   2.663
 9900SOL    HW130599   2.256   1.965   2.567
 9900SOL    HW230600   2.223   2.023   2.716
 9901SOL     OW30601   1.577   2.120   0.378
 9901SOL    HW130602   1.655   2.168   0.339
 9901SOL    HW230603   1.508   2.105   0.307
 9902SOL     OW30604   3.623   3.086   1.375
 9902SOL    HW130605   3.676   3.112   1.455
 9902SOL    HW230606   3.573   3.165   1.341
 9903SOL     OW30607   4.512   6.770   2.183
 9903SOL    HW130608   4.588   6.831   2.163
 9903SOL    HW230609   4.546   6.687   2.226
 9904SOL     OW30610   6.877   3.901   6.881
 9904SOL    HW130611   6.791   3.936   6.920
 9904SOL    HW230612   6.874   3.801   6.880
 9905SOL     OW30613   1.670   6.417   0.549
 9905SOL    HW130614   1.599   6.346   0.555
 9905SOL    HW230615   1.754   6.384   0.591
 9906SOL     OW30616   1.869   3.624   0.321
 9906SOL    HW130617   1.916   3.599   0.236
 9906SOL    HW230618   1.811   3.704   0.304
 9907SOL     OW30619   2.566   7.001   3.449
 9907SOL    HW130620   2.509   7.006   3.531
 9907SOL    HW230621   2.509   6.981   3.370
 9908SOL     OW30622   0.440   3.751   5.543
 9908SOL    HW130623   0.524   3.793   5.577
 9908SOL    HW230624   0.431   3.659   5.581
 9909SOL     OW30625   3.807   0.289   3.270
 9909SOL    HW130626   3.853   0.366   3.313
 9909SOL    HW230627   3.783   0.221   3.339
 9910SOL     OW30628   0.982   5.282   1.735
 9910SOL    HW130629   0.958   5.273   1.832
 9910SOL    HW230630   0.900   5.268   1.679
 9911SOL     OW30631   4.655   5.282   2.821
 9911SOL    HW130632   4.602   5.288   2.737
 9911SOL    HW230633   4.698   5.371   2.839
 9912SOL     OW30634   4.257   1.089   1.541
 9912SOL    HW130635   4.242   1.109   1.444
 9912SOL    HW230636   4.279   1.174   1.590
 9913SOL     OW30637   6.601   3.115   2.329
 9913SOL    HW130638   6.673   3.107   2.397
 9913SOL    HW230639   6.530   3.177   2.362
 9914SOL     OW30640   0.833   0.407   5.837
 9914SOL    HW130641   0.822   0.442   5.930
 9914SOL    HW230642   0.745   0.371   5.804
 9915SOL     OW30643   4.742   2.892   4.158
 9915SOL    HW130644   4.721   2.837   4.077
 9915SOL    HW230645   4.828   2.941   4.144
 9916SOL     OW30646   2.725   2.265   3.430
 9916SOL    HW130647   2.667   2.345   3.435
 9916SOL    HW230648   2.706   2.214   3.346
 9917SOL     OW30649   3.086   3.247   4.276
 9917SOL    HW130650   3.038   3.165   4.247
 9917SOL    HW230651   3.138   3.228   4.359
 9918SOL     OW30652   0.796   2.012   0.738
 9918SOL    HW130653   0.874   1.989   0.796
 9918SOL    HW230654   0.731   1.936   0.738
 9919SOL     OW30655   2.139   5.293   1.498
 9919SOL    HW130656   2.238   5.286   1.509
 9919SOL    HW230657   2.114   5.387   1.474
 9920SOL     OW30658   3.588   1.046   3.125
 9920SOL    HW130659   3.506   1.002   3.162
 9920SOL    HW230660   3.590   1.035   3.026
 9921SOL     OW30661   5.467   6.243   4.291
 9921SOL    HW130662   5.429   6.150   4.286
 9921SOL    HW230663   5.509   6.257   4.381
 9922SOL     OW30664   4.877   4.392   1.014
 9922SOL    HW130665   4.967   4.349   1.005
 9922SOL    HW230666   4.842   4.376   1.107
 9923SOL     OW30667   6.988   3.402   0.635
 9923SOL    HW130668   0.052   3.412   0.579
 9923SOL    HW230669   6.998   3.456   0.718
 9924SOL     OW30670   5.341   2.228   2.851
 9924SOL    HW130671   5.383   2.308   2.809
 9924SOL    HW230672   5.248   2.216   2.817
 9925SOL     OW30673   2.129   4.189   5.101
 9925SOL    HW130674   2.171   4.275   5.130
 9925SOL    HW230675   2.198   4.116   5.101
 9926SOL     OW30676   2.955   2.544   1.358
 9926SOL    HW130677   2.858   2.541   1.382
 9926SOL    HW230678   3.009   2.506   1.433
 9927SOL     OW30679   0.705   2.480   1.307
 9927SOL    HW130680   0.684   2.395   1.259
 9927SOL    HW230681   0.782   2.465   1.369
 9928SOL     OW30682   6.361   4.102   2.249
 9928SOL    HW130683   6.348   4.002   2.252
 9928SOL    HW230684   6.417   4.125   2.169
 9929SOL     OW30685   2.980   4.320   5.675
 9929SOL    HW130686   2.925   4.241   5.700
 9929SOL    HW230687   2.957   4.349   5.582
 9930SOL     OW30688   0.332   0.022   5.883
 9930SOL    HW130689   0.272   6.962   5.870
 9930SOL    HW230690   0.369   0.022   5.976
 9931SOL     OW30691   0.136   5.437   5.065
 9931SOL    HW130692   0.108   5.341   5.069
 9931SOL    HW230693   0.101   5.486   5.144
 9932SOL     OW30694   1.410   2.128   0.097
 9932SOL    HW130695   1.310   2.119   0.098
 9932SOL    HW230696   1.449   2.054   0.042
 9933SOL     OW30697   1.726   1.045   3.971
 9933SOL    HW130698   1.735   0.947   3.990
 9933SOL    HW230699   1.730   1.060   3.872
 9934SOL     OW30700   6.275   1.874   0.211
 9934SOL    HW130701   6.192   1.867   0.155
 9934SOL    HW230702   6.263   1.822   0.295
 9935SOL     OW30703   2.182   1.280   0.710
 9935SOL    HW130704   2.165   1.376   0.688
 9935SOL    HW230705   2.220   1.233   0.631
 9936SOL     OW30706   5.973   4.968   6.407
 9936SOL    HW130707   6.065   5.001   6.390
 9936SOL    HW230708   5.942   4.913   6.330
 9937SOL     OW30709   1.177   0.809   2.865
 9937SOL    HW130710   1.148   0.793   2.771
 9937SOL    HW230711   1.218   0.726   2.902
 9938SOL     OW30712   5.599   0.310   3.567
 9938SOL    HW130713   5.655   0.337   3.645
 9938SOL    HW230714   5.648   0.331   3.482
 9939SOL     OW30715   2.078   3.150   1.205
 9939SOL    HW130716   2.144   3.220   1.182
 9939SOL    HW230717   2.058   3.094   1.124
 9940SOL     OW30718   0.863   0.664   3.289
 9940SOL    HW130719   0.942   0.632   3.235
 9940SOL    HW230720   0.779   0.634   3.245
 9941SOL     OW30721   3.054   5.547   5.676
 9941SOL    HW130722   3.052   5.527   5.578
 9941SOL    HW230723   3.026   5.642   5.691
 9942SOL     OW30724   4.793   5.376   2.463
 9942SOL    HW130725   4.759   5.469   2.449
 9942SOL    HW230726   4.716   5.315   2.482
 9943SOL     OW30727   0.448   4.366   6.212
 9943SOL    HW130728   0.544   4.387   6.232
 9943SOL    HW230729   0.443   4.304   6.133
 9944SOL     OW30730   6.732   5.541   6.243
 9944SOL    HW130731   6.640   5.547   6.206
 9944SOL    HW230732   6.734   5.473   6.317
 9945SOL     OW30733   5.623   3.926   6.583
 9945SOL    HW130734   5.545   3.866   6.602
 9945SOL    HW230735   5.625   3.948   6.486
 9946SOL     OW30736   6.406   6.952   3.251
 9946SOL    HW130737   6.490   6.913   3.290
 9946SOL    HW230738   6.386   0.020   3.296
 9947SOL     OW30739   1.810   1.560   3.623
 9947SOL    HW130740   1.743   1.629   3.648
 9947SOL    HW230741   1.846   1.580   3.532
 9948SOL     OW30742   6.782   5.425   5.056
 9948SOL    HW130743   6.749   5.332   5.037
 9948SOL    HW230744   6.760   5.485   4.980
 9949SOL     OW30745   0.024   4.865   4.567
 9949SOL    HW130746   6.974   4.893   4.500
 9949SOL    HW230747   0.052   4.771   4.548
 9950SOL     OW30748   6.487   5.291   5.769
 9950SOL    HW130749   6.540   5.346   5.835
 9950SOL    HW230750   6.537   5.286   5.683
 9951SOL     OW30751   1.466   1.840   2.842
 9951SOL    HW130752   1.476   1.867   2.747
 9951SOL    HW230753   1.539   1.776   2.867
 9952SOL     OW30754   1.480   4.001   1.195
 9952SOL    HW130755   1.388   3.966   1.214
 9952SOL    HW230756   1.499   3.991   1.097
 9953SOL     OW30757   5.302   2.331   3.429
 9953SOL    HW130758   5.359   2.401   3.385
 9953SOL    HW230759   5.352   2.293   3.507
 9954SOL     OW30760   1.670   0.703   4.831
 9954SOL    HW130761   1.666   0.609   4.866
 9954SOL    HW230762   1.609   0.761   4.886
 9955SOL     OW30763   4.130   3.876   6.665
 9955SOL    HW130764   4.182   3.960   6.648
 9955SOL    HW230765   4.069   3.890   6.743
 9956SOL     OW30766   0.675   4.147   2.644
 9956SOL    HW130767   0.615   4.135   2.564
 9956SOL    HW230768   0.723   4.061   2.662
 9957SOL     OW30769   5.409   6.983   1.907
 9957SOL    HW130770   5.321   6.973   1.860
 9957SOL    HW230771   5.484   6.961   1.844
 9958SOL     OW30772   2.835   5.838   5.654
 9958SOL    HW130773   2.835   5.933   5.686
 9958SOL    HW230774   2.927   5.812   5.625
 9959SOL     OW30775   4.125   3.168   2.149
 9959SOL    HW130776   4.217   3.130   2.147
 9959SOL    HW230777   4.113   3.223   2.232
 9960SOL     OW30778   0.612   6.397   1.183
 9960SOL    HW130779   0.687   6.336   1.208
 9960SOL    HW230780   0.638   6.452   1.104
 9961SOL     OW30781   2.236   4.423   2.658
 9961SOL    HW130782   2.151   4.472   2.681
 9961SOL    HW230783   2.269   4.374   2.738
 9962SOL     OW30784   4.033   0.798   2.076
 9962SOL    HW130785   4.070   0.705   2.082
 9962SOL    HW230786   3.975   0.806   1.995
 9963SOL     OW30787   2.531   3.392   6.538
 9963SOL    HW130788   2.561   3.486   6.552
 9963SOL    HW230789   2.488   3.383   6.449
 9964SOL     OW30790   3.652   4.905   5.566
 9964SOL    HW130791   3.650   4.840   5.641
 9964SOL    HW230792   3.686   4.993   5.599
 9965SOL     OW30793   3.242   5.785   4.752
 9965SOL    HW130794   3.159   5.801   4.698
 9965SOL    HW230795   3.220   5.725   4.829
 9966SOL     OW30796   2.472   5.335   2.125
 9966SOL    HW130797   2.484   5.294   2.216
 9966SOL    HW230798   2.535   5.290   2.061
 9967SOL     OW30799   6.114   5.049   2.527
 9967SOL    HW130800   6.086   5.144   2.515
 9967SOL    HW230801   6.213   5.043   2.518
 9968SOL     OW30802   3.720   5.469   6.585
 9968SOL    HW130803   3.807   5.428   6.558
 9968SOL    HW230804   3.665   5.488   6.504
 9969SOL     OW30805   1.610   2.930   4.362
 9969SOL    HW130806   1.696   2.909   4.314
 9969SOL    HW230807   1.623   3.012   4.417
 9970SOL     OW30808   6.520   5.124   1.239
 9970SOL    HW130809   6.429   5.106   1.277
 9970SOL    HW230810   6.577   5.167   1.309
 9971SOL     OW30811   2.564   3.312   1.043
 9971SOL    HW130812   2.598   3.219   1.034
 9971SOL    HW230813   2.617   3.360   1.113
 9972SOL     OW30814   2.875   4.320   0.517
 9972SOL    HW130815   2.824   4.403   0.495
 9972SOL    HW230816   2.819   4.259   0.571
 9973SOL     OW30817   4.173   2.192   4.319
 9973SOL    HW130818   4.165   2.212   4.417
 9973SOL    HW230819   4.086   2.155   4.286
 9974SOL     OW30820   0.263   3.313   2.655
 9974SOL    HW130821   0.207   3.230   2.652
 9974SOL    HW230822   0.214   3.388   2.610
 9975SOL     OW30823   0.082   5.357   6.268
 9975SOL    HW130824   0.074   5.336   6.365
 9975SOL    HW230825   0.111   5.275   6.218
 9976SOL     OW30826   0.948   5.224   5.624
 9976SOL    HW130827   0.953   5.138   5.574
 9976SOL    HW230828   0.971   5.209   5.720
 9977SOL     OW30829   5.918   4.700   5.861
 9977SOL    HW130830   6.004   4.707   5.910
 9977SOL    HW230831   5.847   4.666   5.923
 9978SOL     OW30832   6.128   1.434   5.533
 9978SOL    HW130833   6.041   1.427   5.582
 9978SOL    HW230834   6.188   1.499   5.579
 9979SOL     OW30835   6.929   4.056   6.653
 9979SOL    HW130836   7.000   4.007   6.602
 9979SOL    HW230837   6.895   3.997   6.727
 9980SOL     OW30838   1.842   0.335   0.422
 9980SOL    HW130839   1.806   0.252   0.465
 9980SOL    HW230840   1.788   0.414   0.452
 9981SOL     OW30841   2.572   2.044   0.290
 9981SOL    HW130842   2.514   1.972   0.327
 9981SOL    HW230843   2.550   2.131   0.334
 9982SOL     OW30844   1.456   1.063   4.227
 9982SOL    HW130845   1.488   1.066   4.322
 9982SOL    HW230846   1.506   1.132   4.173
 9983SOL     OW30847   0.675   1.210   1.986
 9983SOL    HW130848   0.625   1.244   2.066
 9983SOL    HW230849   0.609   1.182   1.916
 9984SOL     OW30850   0.641   6.616   0.122
 9984SOL    HW130851   0.729   6.574   0.146
 9984SOL    HW230852   0.571   6.585   0.187
 9985SOL     OW30853   3.132   6.133   1.055
 9985SOL    HW130854   3.124   6.219   1.106
 9985SOL    HW230855   3.129   6.056   1.118
 9986SOL     OW30856   5.629   4.958   0.868
 9986SOL    HW130857   5.568   5.029   0.833
 9986SOL    HW230858   5.676   4.914   0.791
 9987SOL     OW30859   6.105   2.303   2.699
 9987SOL    HW130860   6.050   2.304   2.782
 9987SOL    HW230861   6.173   2.230   2.705
 9988SOL     OW30862   6.518   5.298   4.486
 9988SOL    HW130863   6.454   5.277   4.412
 9988SOL    HW230864   6.552   5.392   4.475
 9989SOL     OW30865   6.337   4.307   2.734
 9989SOL    HW130866   6.424   4.348   2.762
 9989SOL    HW230867   6.322   4.223   2.786
 9990SOL     OW30868   2.255   6.775   3.771
 9990SOL    HW130869   2.271   6.700   3.707
 9990SOL    HW230870   2.171   6.759   3.822
 9991SOL     OW30871   2.203   3.102   4.115
 9991SOL    HW130872   2.234   3.009   4.097
 9991SOL    HW230873   2.208   3.156   4.030
 9992SOL     OW30874   3.989   3.335   0.735
 9992SOL    HW130875   3.994   3.271   0.658
 9992SOL    HW230876   4.056   3.408   0.721
 9993SOL     OW30877   3.992   6.764   3.381
 9993SOL    HW130878   4.044   6.733   3.301
 9993SOL    HW230879   4.041   6.740   3.464
 9994SOL     OW30880   6.638   4.200   2.523
 9994SOL    HW130881   6.559   4.139   2.510
 9994SOL    HW230882   6.624   4.254   2.606
 9995SOL     OW30883   3.298   0.608   3.614
 9995SOL    HW130884   3.264   0.680   3.553
 9995SOL    HW230885   3.327   0.529   3.559
 9996SOL     OW30886   2.759   3.248   1.682
 9996SOL    HW130887   2.660   3.238   1.694
 9996SOL    HW230888   2.795   3.310   1.751
 9997SOL     OW30889   4.971   0.924   1.855
 9997SOL    HW130890   4.963   0.913   1.756
 9997SOL    HW230891   5.056   0.973   1.875
 9998SOL     OW30892   5.754   3.412   2.464
 9998SOL    HW130893   5.656   3.396   2.467
 9998SOL    HW230894   5.773   3.496   2.413
 9999SOL     OW30895   0.302   5.841   4.864
 9999SOL    HW130896   0.261   5.893   4.939
 9999SOL    HW230897   0.262   5.870   4.777
10000SOL     OW30898   5.276   2.009   0.234
10000SOL    HW130899   5.226   1.983   0.152
10000SOL    HW230900   5.211   2.032   0.307
10001SOL     OW30901   3.973   1.086   1.577
10001SOL    HW130902   3.897   1.096   1.513
10001SOL    HW230903   4.060   1.089   1.526
10002SOL     OW30904   1.849   1.261   1.828
10002SOL    HW130905   1.755   1.278   1.858
10002SOL    HW230906   1.891   1.191   1.885
10003SOL     OW30907   2.954   2.111   2.187
10003SOL    HW130908   3.053   2.119   2.174
10003SOL    HW230909   2.908   2.184   2.138
10004SOL     OW30910   5.409   2.885   5.243
10004SOL    HW130911   5.422   2.829   5.161
10004SOL    HW230912   5.341   2.842   5.303
10005SOL     OW30913   3.374   5.641   2.232
10005SOL    HW130914   3.456   5.631   2.288
10005SOL    HW230915   3.312   5.706   2.275
10006SOL     OW30916   5.976   0.009   5.608
10006SOL    HW130917   5.891   7.005   5.655
10006SOL    HW230918   6.051   6.975   5.647
10007SOL     OW30919   0.368   2.997   3.813
10007SOL    HW130920   0.439   2.996   3.743
10007SOL    HW230921   0.322   2.908   3.815
10008SOL     OW30922   4.733   1.018   3.512
10008SOL    HW130923   4.666   1.081   3.473
10008SOL    HW230924   4.769   0.960   3.439
10009SOL     OW30925   1.453   4.281   1.555
10009SOL    HW130926   1.380   4.213   1.557
10009SOL    HW230927   1.463   4.322   1.645
10010SOL     OW30928   2.579   6.266   0.121
10010SOL    HW130929   2.484   6.285   0.146
10010SOL    HW230930   2.596   6.167   0.125
10011SOL     OW30931   0.646   4.037   6.240
10011SOL    HW130932   0.586   4.097   6.186
10011SOL    HW230933   0.656   3.949   6.193
10012SOL     OW30934   5.562   0.168   2.617
10012SOL    HW130935   5.631   0.241   2.624
10012SOL    HW230936   5.559   0.135   2.522
10013SOL     OW30937   1.701   1.797   3.709
10013SOL    HW130938   1.783   1.854   3.703
10013SOL    HW230939   1.648   1.823   3.790
10014SOL     OW30940   0.779   1.321   1.340
10014SOL    HW130941   0.688   1.352   1.312
10014SOL    HW230942   0.835   1.304   1.259
10015SOL     OW30943   4.058   5.553   7.004
10015SOL    HW130944   4.031   5.493   0.060
10015SOL    HW230945   3.979   5.568   6.944
10016SOL     OW30946   1.202   0.502   4.737
10016SOL    HW130947   1.126   0.549   4.781
10016SOL    HW230948   1.244   0.438   4.801
10017SOL     OW30949   1.794   1.715   3.075
10017SOL    HW130950   1.815   1.620   3.097
10017SOL    HW230951   1.724   1.750   3.136
10018SOL     OW30952   6.564   4.672   5.972
10018SOL    HW130953   6.493   4.612   6.008
10018SOL    HW230954   6.537   4.767   5.985
10019SOL     OW30955   0.707   2.140   3.349
10019SOL    HW130956   0.776   2.176   3.287
10019SOL    HW230957   0.631   2.103   3.295
10020SOL     OW30958   0.608   0.738   1.208
10020SOL    HW130959   0.652   0.821   1.241
10020SOL    HW230960   0.644   0.716   1.117
10021SOL     OW30961   1.147   2.320   2.466
10021SOL    HW130962   1.175   2.246   2.528
10021SOL    HW230963   1.101   2.282   2.386
10022SOL     OW30964   3.612   6.693   0.683
10022SOL    HW130965   3.624   6.640   0.598
10022SOL    HW230966   3.618   6.631   0.761
10023SOL     OW30967   2.188   4.744   4.950
10023SOL    HW130968   2.089   4.731   4.951
10023SOL    HW230969   2.209   4.838   4.924
10024SOL     OW30970   1.973   5.820   1.606
10024SOL    HW130971   2.025   5.774   1.677
10024SOL    HW230972   1.916   5.754   1.557
10025SOL     OW30973   2.065   3.074   2.059
10025SOL    HW130974   1.968   3.073   2.035
10025SOL    HW230975   2.119   3.049   1.979
10026SOL     OW30976   5.142   0.237   3.474
10026SOL    HW130977   5.198   0.282   3.404
10026SOL    HW230978   5.046   0.259   3.459
10027SOL     OW30979   0.494   2.920   5.276
10027SOL    HW130980   0.413   2.922   5.334
10027SOL    HW230981   0.556   2.994   5.303
10028SOL     OW30982   1.680   1.687   2.234
10028SOL    HW130983   1.740   1.753   2.188
10028SOL    HW230984   1.619   1.737   2.297
10029SOL     OW30985   1.905   1.958   3.699
10029SOL    HW130986   1.908   2.035   3.762
10029SOL    HW230987   1.982   1.965   3.634
10030SOL     OW30988   3.148   0.365   4.498
10030SOL    HW130989   3.214   0.361   4.423
10030SOL    HW230990   3.069   0.308   4.476
10031SOL     OW30991   5.505   4.627   4.323
10031SOL    HW130992   5.433   4.619   4.254
10031SOL    HW230993   5.473   4.590   4.410
10032SOL     OW30994   4.270   0.455   5.240
10032SOL    HW130995   4.297   0.360   5.254
10032SOL    HW230996   4.193   0.459   5.177
10033SOL     OW30997   4.400   2.451   3.686
10033SOL    HW130998   4.479   2.499   3.648
10033SOL    HW230999   4.389   2.475   3.782
10034SOL     OW31000   3.596   0.409   4.070
10034SOL    HW131001   3.650   0.325   4.071
10034SOL    HW231002   3.515   0.398   4.129
10035SOL     OW31003   6.464   4.923   1.657
10035SOL    HW131004   6.545   4.895   1.605
10035SOL    HW231005   6.492   4.951   1.749
10036SOL     OW31006   6.431   0.241   0.702
10036SOL    HW131007   6.454   0.338   0.707
10036SOL    HW231008   6.419   0.215   0.606
10037SOL     OW31009   5.783   1.328   0.512
10037SOL    HW131010   5.833   1.275   0.443
10037SOL    HW231011   5.689   1.344   0.479
10038SOL     OW31012   4.204   0.422   6.337
10038SOL    HW131013   4.130   0.488   6.332
10038SOL    HW231014   4.216   0.392   6.432
10039SOL     OW31015   3.958   6.612   5.212
10039SOL    HW131016   3.893   6.551   5.166
10039SOL    HW231017   4.048   6.569   5.213
10040SOL     OW31018   4.113   6.100   6.136
10040SOL    HW131019   4.029   6.058   6.172
10040SOL    HW231020   4.101   6.199   6.131
10041SOL     OW31021   3.986   6.149   6.634
10041SOL    HW131022   3.968   6.069   6.576
10041SOL    HW231023   3.961   6.127   6.728
10042SOL     OW31024   1.609   2.150   5.023
10042SOL    HW131025   1.529   2.151   4.964
10042SOL    HW231026   1.672   2.078   4.993
10043SOL     OW31027   0.627   2.490   4.672
10043SOL    HW131028   0.610   2.544   4.590
10043SOL    HW231029   0.564   2.520   4.744
10044SOL     OW31030   3.119   1.448   4.686
10044SOL    HW131031   3.185   1.433   4.612
10044SOL    HW231032   3.157   1.512   4.752
10045SOL     OW31033   5.351   6.717   3.619
10045SOL    HW131034   5.261   6.753   3.594
10045SOL    HW231035   5.379   6.647   3.553
10046SOL     OW31036   1.788   3.743   1.322
10046SOL    HW131037   1.874   3.795   1.317
10046SOL    HW231038   1.741   3.766   1.407
10047SOL     OW31039   6.527   2.942   5.068
10047SOL    HW131040   6.576   3.029   5.083
10047SOL    HW231041   6.434   2.950   5.104
10048SOL     OW31042   6.030   1.491   2.540
10048SOL    HW131043   6.037   1.542   2.626
10048SOL    HW231044   6.022   1.394   2.559
10049SOL     OW31045   0.583   0.350   6.614
10049SOL    HW131046   0.546   0.310   6.530
10049SOL    HW231047   0.515   0.410   6.656
10050SOL     OW31048   6.072   2.272   4.734
10050SOL    HW131049   6.058   2.295   4.830
10050SOL    HW231050   6.081   2.173   4.724
10051SOL     OW31051   6.441   2.129   5.069
10051SOL    HW131052   6.408   2.223   5.066
10051SOL    HW231053   6.373   2.070   5.112
10052SOL     OW31054   2.779   2.227   2.875
10052SOL    HW131055   2.864   2.237   2.823
10052SOL    HW231056   2.796   2.252   2.971
10053SOL     OW31057   3.334   5.940   1.975
10053SOL    HW131058   3.241   5.929   2.010
10053SOL    HW231059   3.379   6.016   2.022
10054SOL     OW31060   5.161   4.932   6.417
10054SOL    HW131061   5.146   5.022   6.457
10054SOL    HW231062   5.075   4.881   6.414
10055SOL     OW31063   6.556   1.879   5.054
10055SOL    HW131064   6.537   1.977   5.054
10055SOL    HW231065   6.490   1.833   4.995
10056SOL     OW31066   5.644   4.215   2.545
10056SOL    HW131067   5.606   4.139   2.492
10056SOL    HW231068   5.698   4.274   2.486
10057SOL     OW31069   4.009   1.914   4.467
10057SOL    HW131070   3.958   1.841   4.512
10057SOL    HW231071   3.944   1.983   4.435
10058SOL     OW31072   0.514   3.832   4.428
10058SOL    HW131073   0.548   3.747   4.468
10058SOL    HW231074   0.420   3.819   4.397
10059SOL     OW31075   5.606   0.612   1.040
10059SOL    HW131076   5.651   0.558   0.969
10059SOL    HW231077   5.673   0.638   1.109
10060SOL     OW31078   1.642   1.577   1.577
10060SOL    HW131079   1.675   1.620   1.661
10060SOL    HW231080   1.689   1.617   1.498
10061SOL     OW31081   4.710   1.457   4.285
10061SOL    HW131082   4.741   1.507   4.204
10061SOL    HW231083   4.747   1.499   4.367
10062SOL     OW31084   6.706   0.299   4.015
10062SOL    HW131085   6.680   0.352   4.095
10062SOL    HW231086   6.798   0.262   4.027
10063SOL     OW31087   2.436   0.804   3.729
10063SOL    HW131088   2.338   0.819   3.715
10063SOL    HW231089   2.466   0.724   3.677
10064SOL     OW31090   4.712   6.928   0.064
10064SOL    HW131091   4.791   6.935   0.126
10064SOL    HW231092   4.725   6.849   0.003
10065SOL     OW31093   2.002   0.010   2.162
10065SOL    HW131094   2.013   0.109   2.174
10065SOL    HW231095   2.082   6.983   2.200
10066SOL     OW31096   0.916   2.472   3.720
10066SOL    HW131097   0.878   2.563   3.703
10066SOL    HW231098   0.845   2.414   3.761
10067SOL     OW31099   6.683   4.220   4.695
10067SOL    HW131100   6.653   4.158   4.768
10067SOL    HW231101   6.614   4.292   4.684
10068SOL     OW31102   0.161   3.593   3.000
10068SOL    HW131103   0.247   3.644   3.000
10068SOL    HW231104   0.180   3.495   2.991
10069SOL     OW31105   2.509   5.167   2.980
10069SOL    HW131106   2.458   5.225   3.043
10069SOL    HW231107   2.534   5.219   2.899
10070SOL     OW31108   6.526   6.830   5.026
10070SOL    HW131109   6.582   6.827   4.943
10070SOL    HW231110   6.444   6.775   5.013
10071SOL     OW31111   6.146   5.834   4.199
10071SOL    HW131112   6.135   5.802   4.293
10071SOL    HW231113   6.105   5.767   4.136
10072SOL     OW31114   0.274   6.432   3.681
10072SOL    HW131115   0.261   6.356   3.745
10072SOL    HW231116   0.186   6.457   3.641
10073SOL     OW31117   5.687   4.305   5.426
10073SOL    HW131118   5.644   4.386   5.466
10073SOL    HW231119   5.699   4.235   5.497
10074SOL     OW31120   1.620   0.600   5.343
10074SOL    HW131121   1.625   0.688   5.389
10074SOL    HW231122   1.662   0.608   5.252
10075SOL     OW31123   2.017   2.884   2.895
10075SOL    HW131124   1.918   2.889   2.879
10075SOL    HW231125   2.065   2.891   2.807
10076SOL     OW31126   0.531   0.189   3.637
10076SOL    HW131127   0.562   0.283   3.622
10076SOL    HW231128   0.524   0.172   3.735
10077SOL     OW31129   4.012   3.026   6.213
10077SOL    HW131130   4.017   2.931   6.183
10077SOL    HW231131   3.917   3.057   6.213
10078SOL     OW31132   0.625   5.431   4.128
10078SOL    HW131133   0.590   5.511   4.178
10078SOL    HW231134   0.548   5.382   4.087
10079SOL     OW31135   6.505   3.903   2.923
10079SOL    HW131136   6.420   3.955   2.932
10079SOL    HW231137   6.513   3.839   2.999
10080SOL     OW31138   4.522   1.226   5.526
10080SOL    HW131139   4.571   1.231   5.612
10080SOL    HW231140   4.587   1.211   5.451
10081SOL     OW31141   0.045   0.166   0.690
10081SOL    HW131142   0.072   0.224   0.614
10081SOL    HW231143   0.115   0.096   0.705
10082SOL     OW31144   0.190   5.250   1.477
10082SOL    HW131145   0.101   5.295   1.483
10082SOL    HW231146   0.257   5.300   1.532
10083SOL     OW31147   4.431   1.001   3.382
10083SOL    HW131148   4.348   0.963   3.342
10083SOL    HW231149   4.407   1.070   3.451
10084SOL     OW31150   1.927   0.939   5.401
10084SOL    HW131151   1.958   1.034   5.406
10084SOL    HW231152   2.003   0.878   5.422
10085SOL     OW31153   2.494   5.795   1.257
10085SOL    HW131154   2.542   5.833   1.336
10085SOL    HW231155   2.555   5.792   1.178
10086SOL     OW31156   4.439   5.774   2.431
10086SOL    HW131157   4.406   5.729   2.348
10086SOL    HW231158   4.413   5.720   2.511
10087SOL     OW31159   6.898   6.813   3.818
10087SOL    HW131160   6.821   6.757   3.787
10087SOL    HW231161   6.905   6.895   3.762
10088SOL     OW31162   6.515   0.253   1.487
10088SOL    HW131163   6.477   0.345   1.488
10088SOL    HW231164   6.602   0.252   1.536
10089SOL     OW31165   2.822   1.869   2.226
10089SOL    HW131166   2.900   1.821   2.268
10089SOL    HW231167   2.850   1.962   2.203
10090SOL     OW31168   1.495   4.695   1.464
10090SOL    HW131169   1.417   4.637   1.439
10090SOL    HW231170   1.482   4.730   1.556
10091SOL     OW31171   0.441   4.288   6.485
10091SOL    HW131172   0.444   4.250   6.392
10091SOL    HW231173   0.410   4.383   6.481
10092SOL     OW31174   2.153   2.538   5.653
10092SOL    HW131175   2.066   2.560   5.610
10092SOL    HW231176   2.209   2.621   5.660
10093SOL     OW31177   6.520   2.780   4.847
10093SOL    HW131178   6.555   2.854   4.906
10093SOL    HW231179   6.444   2.815   4.792
10094SOL     OW31180   2.462   5.611   2.082
10094SOL    HW131181   2.465   5.609   1.982
10094SOL    HW231182   2.483   5.520   2.117
10095SOL     OW31183   6.054   1.738   5.271
10095SOL    HW131184   6.073   1.651   5.317
10095SOL    HW231185   5.991   1.722   5.194
10096SOL     OW31186   4.520   5.026   2.988
10096SOL    HW131187   4.438   4.970   2.974
10096SOL    HW231188   4.571   5.033   2.903
10097SOL     OW31189   0.659   1.356   0.438
10097SOL    HW131190   0.727   1.285   0.452
10097SOL    HW231191   0.657   1.384   0.342
10098SOL     OW31192   2.876   0.416   4.840
10098SOL    HW131193   2.789   0.463   4.823
10098SOL    HW231194   2.948   0.457   4.785
10099SOL     OW31195   0.237   5.450   1.176
10099SOL    HW131196   0.258   5.437   1.079
10099SOL    HW231197   0.248   5.362   1.223
10100SOL     OW31198   4.758   0.144   4.822
10100SOL    HW131199   4.681   0.095   4.781
10100SOL    HW231200   4.764   0.235   4.782
10101SOL     OW31201   6.435   3.755   1.706
10101SOL    HW131202   6.518   3.699   1.708
10101SOL    HW231203   6.459   3.851   1.697
10102SOL     OW31204   0.583   1.591   2.430
10102SOL    HW131205   0.521   1.606   2.353
10102SOL    HW231206   0.576   1.668   2.494
10103SOL     OW31207   2.425   0.729   5.982
10103SOL    HW131208   2.374   0.647   6.006
10103SOL    HW231209   2.515   0.704   5.947
10104SOL     OW31210   1.988   2.068   3.954
10104SOL    HW131211   1.952   2.149   3.908
10104SOL    HW231212   2.082   2.085   3.984
10105SOL     OW31213   1.489   0.960   0.203
10105SOL    HW131214   1.484   0.891   0.276
10105SOL    HW231215   1.563   1.024   0.224
10106SOL     OW31216   3.830   6.435   0.520
10106SOL    HW131217   3.873   6.388   0.443
10106SOL    HW231218   3.867   6.399   0.606
10107SOL     OW31219   6.317   1.548   5.700
10107SOL    HW131220   6.415   1.558   5.718
10107SOL    HW231221   6.266   1.557   5.785
10108SOL     OW31222   6.377   0.384   0.015
10108SOL    HW131223   6.442   0.310   7.017
10108SOL    HW231224   6.413   0.469   6.996
10109SOL     OW31225   5.563   0.141   0.535
10109SOL    HW131226   5.634   0.208   0.555
10109SOL    HW231227   5.526   0.158   0.444
10110SOL     OW31228   3.677   5.187   4.806
10110SOL    HW131229   3.640   5.116   4.866
10110SOL    HW231230   3.768   5.161   4.775
10111SOL     OW31231   5.847   3.316   3.517
10111SOL    HW131232   5.840   3.415   3.508
10111SOL    HW231233   5.877   3.276   3.430
10112SOL     OW31234   5.523   3.462   3.626
10112SOL    HW131235   5.540   3.558   3.647
10112SOL    HW231236   5.574   3.404   3.690
10113SOL     OW31237   4.177   0.317   0.188
10113SOL    HW131238   4.206   0.222   0.202
10113SOL    HW231239   4.195   0.344   0.094
10114SOL     OW31240   4.634   1.668   0.994
10114SOL    HW131241   4.574   1.591   1.020
10114SOL    HW231242   4.716   1.666   1.051
10115SOL     OW31243   3.927   0.941   4.893
10115SOL    HW131244   4.017   0.899   4.905
10115SOL    HW231245   3.856   0.871   4.895
10116SOL     OW31246   0.464   6.508   0.289
10116SOL    HW131247   0.502   6.459   0.367
10116SOL    HW231248   0.417   6.443   0.229
10117SOL     OW31249   6.641   5.781   5.962
10117SOL    HW131250   6.587   5.711   5.914
10117SOL    HW231251   6.680   5.845   5.896
10118SOL     OW31252   2.300   4.676   2.497
10118SOL    HW131253   2.233   4.637   2.560
10118SOL    HW231254   2.259   4.753   2.449
10119SOL     OW31255   6.999   5.801   4.519
10119SOL    HW131256   0.025   5.841   4.599
10119SOL    HW231257   6.910   5.843   4.506
10120SOL     OW31258   2.115   3.355   4.749
10120SOL    HW131259   2.189   3.413   4.715
10120SOL    HW231260   2.119   3.350   4.849
10121SOL     OW31261   6.083   3.215   6.742
10121SOL    HW131262   6.132   3.137   6.781
10121SOL    HW231263   6.073   3.286   6.812
10122SOL     OW31264   6.163   3.175   2.220
10122SOL    HW131265   6.175   3.231   2.138
10122SOL    HW231266   6.068   3.180   2.251
10123SOL     OW31267   5.088   6.190   0.058
10123SOL    HW131268   5.007   6.196   0.001
10123SOL    HW231269   5.062   6.154   0.148
10124SOL     OW31270   1.365   4.059   0.491
10124SOL    HW131271   1.314   4.075   0.406
10124SOL    HW231272   1.315   4.097   0.568
10125SOL     OW31273   1.796   0.815   2.068
10125SOL    HW131274   1.829   0.730   2.026
10125SOL    HW231275   1.777   0.799   2.165
10126SOL     OW31276   6.732   6.909   6.664
10126SOL    HW131277   6.673   6.828   6.668
10126SOL    HW231278   6.730   6.948   6.572
10127SOL     OW31279   2.764   4.730   6.276
10127SOL    HW131280   2.776   4.730   6.376
10127SOL    HW231281   2.820   4.658   6.236
10128SOL     OW31282   2.898   1.111   0.571
10128SOL    HW131283   2.870   1.135   0.664
10128SOL    HW231284   2.840   1.160   0.506
10129SOL     OW31285   6.249   1.791   2.347
10129SOL    HW131286   6.282   1.791   2.442
10129SOL    HW231287   6.160   1.746   2.343
10130SOL     OW31288   1.431   3.230   1.495
10130SOL    HW131289   1.338   3.235   1.460
10130SOL    HW231290   1.429   3.199   1.590
10131SOL     OW31291   1.263   6.831   4.888
10131SOL    HW131292   1.298   6.738   4.902
10131SOL    HW231293   1.166   6.834   4.913
10132SOL     OW31294   3.745   0.624   4.116
10132SOL    HW131295   3.693   0.540   4.108
10132SOL    HW231296   3.758   0.646   4.213
10133SOL     OW31297   3.592   6.540   0.456
10133SOL    HW131298   3.514   6.477   0.459
10133SOL    HW231299   3.677   6.488   0.470
10134SOL     OW31300   0.089   6.612   2.810
10134SOL    HW131301   0.099   6.513   2.802
10134SOL    HW231302   7.012   6.638   2.793
10135SOL     OW31303   5.023   3.077   3.463
10135SOL    HW131304   5.118   3.084   3.494
10135SOL    HW231305   5.017   3.011   3.389
10136SOL     OW31306   5.202   1.153   2.349
10136SOL    HW131307   5.239   1.114   2.265
10136SOL    HW231308   5.238   1.104   2.428
10137SOL     OW31309   6.857   3.164   4.545
10137SOL    HW131310   6.822   3.254   4.518
10137SOL    HW231311   6.868   3.163   4.645
10138SOL     OW31312   5.276   3.703   6.874
10138SOL    HW131313   5.220   3.622   6.889
10138SOL    HW231314   5.217   3.784   6.875
10139SOL     OW31315   2.900   3.588   3.560
10139SOL    HW131316   2.882   3.594   3.658
10139SOL    HW231317   2.965   3.515   3.541
10140SOL     OW31318   6.084   5.519   6.882
10140SOL    HW131319   6.017   5.466   6.832
10140SOL    HW231320   6.131   5.461   6.949
10141SOL     OW31321   3.882   0.955   5.788
10141SOL    HW131322   3.950   0.915   5.849
10141SOL    HW231323   3.928   1.018   5.725
10142SOL     OW31324   6.784   6.956   5.613
10142SOL    HW131325   6.712   7.003   5.562
10142SOL    HW231326   6.760   6.954   5.710
10143SOL     OW31327   5.308   1.030   7.005
10143SOL    HW131328   5.297   0.943   0.034
10143SOL    HW231329   5.344   1.013   6.913
10144SOL     OW31330   3.205   1.067   5.795
10144SOL    HW131331   3.116   1.102   5.765
10144SOL    HW231332   3.264   1.144   5.819
10145SOL     OW31333   2.939   5.023   4.047
10145SOL    HW131334   2.841   5.014   4.026
10145SOL    HW231335   2.950   5.080   4.128
10146SOL     OW31336   4.469   4.521   4.714
10146SOL    HW131337   4.405   4.598   4.709
10146SOL    HW231338   4.430   4.449   4.773
10147SOL     OW31339   5.388   4.236   5.401
10147SOL    HW131340   5.350   4.151   5.363
10147SOL    HW231341   5.488   4.230   5.400
10148SOL     OW31342   5.196   5.031   6.163
10148SOL    HW131343   5.198   4.954   6.227
10148SOL    HW231344   5.102   5.063   6.151
10149SOL     OW31345   5.913   3.492   1.376
10149SOL    HW131346   5.949   3.403   1.348
10149SOL    HW231347   5.845   3.523   1.309
10150SOL     OW31348   3.653   3.065   0.863
10150SOL    HW131349   3.661   2.990   0.929
10150SOL    HW231350   3.701   3.145   0.897
10151SOL     OW31351   0.335   5.650   0.003
10151SOL    HW131352   0.328   5.606   6.932
10151SOL    HW231353   0.327   5.749   7.011
10152SOL     OW31354   6.736   5.942   4.508
10152SOL    HW131355   6.700   5.917   4.418
10152SOL    HW231356   6.722   6.040   4.524
10153SOL     OW31357   4.377   5.697   3.331
10153SOL    HW131358   4.473   5.718   3.353
10153SOL    HW231359   4.317   5.743   3.396
10154SOL     OW31360   4.057   6.259   5.117
10154SOL    HW131361   3.969   6.213   5.134
10154SOL    HW231362   4.100   6.218   5.037
10155SOL     OW31363   3.739   2.095   6.144
10155SOL    HW131364   3.727   2.102   6.243
10155SOL    HW231365   3.659   2.049   6.104
10156SOL     OW31366   5.912   0.916   2.059
10156SOL    HW131367   5.955   0.901   1.970
10156SOL    HW231368   5.873   1.007   2.062
10157SOL     OW31369   0.326   1.597   0.622
10157SOL    HW131370   0.422   1.610   0.598
10157SOL    HW231371   0.268   1.627   0.546
10158SOL     OW31372   6.374   5.900   0.938
10158SOL    HW131373   6.336   5.874   0.850
10158SOL    HW231374   6.457   5.954   0.923
10159SOL     OW31375   2.251   3.105   0.529
10159SOL    HW131376   2.193   3.135   0.453
10159SOL    HW231377   2.240   3.167   0.606
10160SOL     OW31378   1.697   3.280   2.237
10160SOL    HW131379   1.728   3.368   2.203
10160SOL    HW231380   1.700   3.212   2.164
10161SOL     OW31381   4.234   3.444   0.959
10161SOL    HW131382   4.248   3.362   0.904
10161SOL    HW231383   4.166   3.502   0.916
10162SOL     OW31384   3.873   4.680   1.132
10162SOL    HW131385   3.958   4.733   1.127
10162SOL    HW231386   3.826   4.701   1.218
10163SOL     OW31387   6.184   4.133   0.027
10163SOL    HW131388   6.217   4.073   0.100
10163SOL    HW231389   6.234   4.220   0.031
10164SOL     OW31390   6.132   3.201   3.907
10164SOL    HW131391   6.094   3.205   3.999
10164SOL    HW231392   6.229   3.225   3.910
10165SOL     OW31393   6.616   1.263   3.651
10165SOL    HW131394   6.631   1.355   3.614
10165SOL    HW231395   6.661   1.196   3.592
10166SOL     OW31396   3.383   1.657   1.980
10166SOL    HW131397   3.475   1.696   1.982
10166SOL    HW231398   3.326   1.701   2.050
10167SOL     OW31399   1.408   4.595   6.682
10167SOL    HW131400   1.456   4.678   6.650
10167SOL    HW231401   1.465   4.515   6.662
10168SOL     OW31402   5.614   2.865   6.518
10168SOL    HW131403   5.608   2.900   6.425
10168SOL    HW231404   5.656   2.775   6.518
10169SOL     OW31405   6.893   4.239   3.574
10169SOL    HW131406   6.987   4.207   3.568
10169SOL    HW231407   6.890   4.326   3.623
10170SOL     OW31408   6.213   5.469   5.544
10170SOL    HW131409   6.194   5.409   5.622
10170SOL    HW231410   6.271   5.421   5.478
10171SOL     OW31411   6.936   2.307   4.737
10171SOL    HW131412   6.964   2.214   4.714
10171SOL    HW231413   6.937   2.319   4.836
10172SOL     OW31414   0.867   6.255   5.409
10172SOL    HW131415   0.825   6.178   5.361
10172SOL    HW231416   0.826   6.265   5.500
10173SOL     OW31417   2.065   2.640   0.506
10173SOL    HW131418   2.083   2.728   0.548
10173SOL    HW231419   1.975   2.606   0.534
10174SOL     OW31420   5.269   4.776   3.359
10174SOL    HW131421   5.188   4.809   3.310
10174SOL    HW231422   5.317   4.710   3.301
10175SOL     OW31423   5.573   1.794   2.958
10175SOL    HW131424   5.640   1.790   2.885
10175SOL    HW231425   5.499   1.857   2.932
10176SOL     OW31426   0.189   3.120   5.631
10176SOL    HW131427   0.104   3.100   5.679
10176SOL    HW231428   0.200   3.219   5.624
10177SOL     OW31429   2.255   1.285   1.459
10177SOL    HW131430   2.326   1.352   1.478
10177SOL    HW231431   2.207   1.308   1.375
10178SOL     OW31432   0.120   1.117   6.598
10178SOL    HW131433   0.102   1.060   6.678
10178SOL    HW231434   0.186   1.071   6.539
10179SOL     OW31435   0.619   2.895   6.706
10179SOL    HW131436   0.535   2.895   6.761
10179SOL    HW231437   0.597   2.922   6.612
10180SOL     OW31438   4.078   1.216   5.957
10180SOL    HW131439   4.094   1.185   5.863
10180SOL    HW231440   4.098   1.142   6.020
10181SOL     OW31441   6.426   3.400   1.671
10181SOL    HW131442   6.326   3.401   1.675
10181SOL    HW231443   6.456   3.384   1.577
10182SOL     OW31444   4.688   0.711   1.685
10182SOL    HW131445   4.722   0.802   1.662
10182SOL    HW231446   4.609   0.689   1.628
10183SOL     OW31447   6.285   2.762   6.456
10183SOL    HW131448   6.277   2.785   6.553
10183SOL    HW231449   6.270   2.844   6.401
10184SOL     OW31450   4.071   1.253   6.515
10184SOL    HW131451   4.130   1.333   6.529
10184SOL    HW231452   3.976   1.283   6.505
10185SOL     OW31453   6.105   6.046   2.820
10185SOL    HW131454   6.042   6.024   2.894
10185SOL    HW231455   6.063   6.115   2.761
10186SOL     OW31456   5.138   3.836   3.941
10186SOL    HW131457   5.146   3.828   3.841
10186SOL    HW231458   5.227   3.859   3.980
10187SOL     OW31459   1.110   3.646   0.039
10187SOL    HW131460   1.031   3.591   0.066
10187SOL    HW231461   1.168   3.592   6.997
10188SOL     OW31462   4.149   4.751   0.417
10188SOL    HW131463   4.105   4.775   0.330
10188SOL    HW231464   4.145   4.651   0.429
10189SOL     OW31465   0.628   1.204   6.686
10189SOL    HW131466   0.726   1.223   6.680
10189SOL    HW231467   0.612   1.107   6.669
10190SOL     OW31468   4.846   2.884   1.326
10190SOL    HW131469   4.775   2.946   1.360
10190SOL    HW231470   4.812   2.790   1.333
10191SOL     OW31471   3.916   5.846   6.570
10191SOL    HW131472   3.817   5.842   6.580
10191SOL    HW231473   3.959   5.768   6.616
10192SOL     OW31474   4.308   1.362   5.623
10192SOL    HW131475   4.296   1.455   5.586
10192SOL    HW231476   4.378   1.314   5.571
10193SOL     OW31477   3.795   2.982   1.954
10193SOL    HW131478   3.825   2.994   2.049
10193SOL    HW231479   3.719   2.916   1.951
10194SOL     OW31480   4.897   6.162   5.470
10194SOL    HW131481   4.896   6.212   5.384
10194SOL    HW231482   4.839   6.081   5.462
10195SOL     OW31483   6.600   5.971   0.307
10195SOL    HW131484   6.519   6.029   0.312
10195SOL    HW231485   6.646   5.968   0.396
10196SOL     OW31486   4.129   2.075   3.920
10196SOL    HW131487   4.122   1.986   3.876
10196SOL    HW231488   4.221   2.086   3.958
10197SOL     OW31489   5.365   1.917   4.630
10197SOL    HW131490   5.300   1.967   4.687
10197SOL    HW231491   5.416   1.852   4.686
10198SOL     OW31492   2.726   6.911   2.582
10198SOL    HW131493   2.816   6.930   2.623
10198SOL    HW231494   2.739   6.867   2.493
10199SOL     OW31495   1.208   3.027   0.703
10199SOL    HW131496   1.274   3.090   0.664
10199SOL    HW231497   1.237   3.000   0.795
10200SOL     OW31498   4.979   2.976   5.927
10200SOL    HW131499   4.922   3.007   6.003
10200SOL    HW231500   5.003   2.880   5.941
10201SOL     OW31501   1.213   5.294   0.279
10201SOL    HW131502   1.156   5.212   0.282
10201SOL    HW231503   1.307   5.271   0.304
10202SOL     OW31504   3.075   4.952   0.211
10202SOL    HW131505   2.989   4.985   0.172
10202SOL    HW231506   3.089   4.856   0.184
10203SOL     OW31507   0.036   2.668   2.757
10203SOL    HW131508   0.056   2.710   2.845
10203SOL    HW231509   0.121   2.654   2.706
10204SOL     OW31510   3.980   5.394   6.478
10204SOL    HW131511   4.062   5.353   6.438
10204SOL    HW231512   3.909   5.402   6.407
10205SOL     OW31513   2.250   0.609   1.825
10205SOL    HW131514   2.200   0.616   1.739
10205SOL    HW231515   2.318   0.682   1.830
10206SOL     OW31516   0.030   0.186   6.648
10206SOL    HW131517   6.995   0.132   6.713
10206SOL    HW231518   0.059   0.128   6.572
10207SOL     OW31519   0.584   2.425   0.147
10207SOL    HW131520   0.610   2.504   0.091
10207SOL    HW231521   0.494   2.393   0.119
10208SOL     OW31522   6.022   5.182   4.256
10208SOL    HW131523   5.992   5.158   4.349
10208SOL    HW231524   5.969   5.261   4.224
10209SOL     OW31525   0.210   6.801   6.416
10209SOL    HW131526   0.270   6.833   6.489
10209SOL    HW231527   0.264   6.768   6.339
10210SOL     OW31528   4.634   6.605   1.231
10210SOL    HW131529   4.537   6.609   1.253
10210SOL    HW231530   4.687   6.653   1.301
10211SOL     OW31531   4.707   6.178   4.596
10211SOL    HW131532   4.710   6.275   4.618
10211SOL    HW231533   4.722   6.125   4.680
10212SOL     OW31534   0.632   6.973   5.564
10212SOL    HW131535   0.717   7.011   5.526
10212SOL    HW231536   0.559   6.979   5.496
10213SOL     OW31537   5.648   2.786   1.845
10213SOL    HW131538   5.721   2.805   1.780
10213SOL    HW231539   5.615   2.693   1.831
10214SOL     OW31540   0.062   1.743   1.591
10214SOL    HW131541   7.014   1.685   1.544
10214SOL    HW231542   0.042   1.743   1.689
10215SOL     OW31543   3.774   3.310   3.530
10215SOL    HW131544   3.698   3.255   3.564
10215SOL    HW231545   3.751   3.407   3.540
10216SOL     OW31546   6.945   1.161   1.428
10216SOL    HW131547   6.857   1.112   1.428
10216SOL    HW231548   6.956   1.210   1.342
10217SOL     OW31549   2.136   1.989   3.554
10217SOL    HW131550   2.152   1.892   3.569
10217SOL    HW231551   2.187   2.042   3.622
10218SOL     OW31552   0.859   0.817   1.469
10218SOL    HW131553   0.957   0.815   1.491
10218SOL    HW231554   0.830   0.911   1.454
10219SOL     OW31555   0.334   2.409   2.662
10219SOL    HW131556   0.243   2.368   2.654
10219SOL    HW231557   0.403   2.343   2.633
10220SOL     OW31558   4.578   1.779   1.408
10220SOL    HW131559   4.594   1.857   1.469
10220SOL    HW231560   4.548   1.813   1.319
10221SOL     OW31561   1.901   4.181   4.918
10221SOL    HW131562   1.961   4.168   4.839
10221SOL    HW231563   1.953   4.165   5.002
10222SOL     OW31564   3.088   4.240   5.200
10222SOL    HW131565   3.043   4.325   5.173
10222SOL    HW231566   3.020   4.177   5.238
10223SOL     OW31567   2.778   5.016   0.917
10223SOL    HW131568   2.723   5.015   0.834
10223SOL    HW231569   2.858   5.075   0.904
10224SOL     OW31570   6.383   2.425   5.830
10224SOL    HW131571   6.422   2.480   5.903
10224SOL    HW231572   6.457   2.376   5.782
10225SOL     OW31573   1.887   6.042   5.582
10225SOL    HW131574   1.933   6.130   5.582
10225SOL    HW231575   1.913   5.991   5.500
10226SOL     OW31576   2.006   0.263   6.009
10226SOL    HW131577   1.915   0.230   6.035
10226SOL    HW231578   1.997   0.336   5.941
10227SOL     OW31579   5.146   4.919   0.146
10227SOL    HW131580   5.232   4.874   0.125
10227SOL    HW231581   5.104   4.952   0.062
10228SOL     OW31582   0.944   5.944   2.120
10228SOL    HW131583   0.851   5.909   2.132
10228SOL    HW231584   0.986   5.903   2.039
10229SOL     OW31585   2.168   2.553   4.814
10229SOL    HW131586   2.248   2.603   4.848
10229SOL    HW231587   2.167   2.554   4.714
10230SOL     OW31588   6.187   6.553   3.229
10230SOL    HW131589   6.268   6.562   3.171
10230SOL    HW231590   6.173   6.638   3.280
10231SOL     OW31591   6.286   4.783   5.090
10231SOL    HW131592   6.223   4.858   5.072
10231SOL    HW231593   6.240   4.713   5.146
10232SOL     OW31594   3.484   1.615   3.882
10232SOL    HW131595   3.451   1.707   3.901
10232SOL    HW231596   3.560   1.619   3.817
10233SOL     OW31597   3.754   3.840   4.997
10233SOL    HW131598   3.685   3.822   4.927
10233SOL    HW231599   3.708   3.857   5.085
10234SOL     OW31600   5.258   0.831   0.483
10234SOL    HW131601   5.332   0.809   0.547
10234SOL    HW231602   5.200   0.902   0.523
10235SOL     OW31603   3.188   2.106   1.273
10235SOL    HW131604   3.284   2.078   1.271
10235SOL    HW231605   3.152   2.095   1.365
10236SOL     OW31606   1.516   1.316   1.479
10236SOL    HW131607   1.585   1.388   1.485
10236SOL    HW231608   1.428   1.350   1.513
10237SOL     OW31609   6.919   4.957   6.255
10237SOL    HW131610   6.882   4.894   6.186
10237SOL    HW231611   6.847   5.020   6.285
10238SOL     OW31612   4.006   3.926   2.297
10238SOL    HW131613   3.930   3.970   2.346
10238SOL    HW231614   4.035   3.844   2.346
10239SOL     OW31615   2.209   3.889   5.613
10239SOL    HW131616   2.298   3.847   5.634
10239SOL    HW231617   2.193   3.886   5.514
10240SOL     OW31618   2.098   4.068   2.494
10240SOL    HW131619   2.108   3.983   2.442
10240SOL    HW231620   2.152   4.062   2.578
10241SOL     OW31621   0.014   6.037   3.489
10241SOL    HW131622   0.034   5.944   3.459
10241SOL    HW231623   0.045   6.050   3.583
10242SOL     OW31624   0.570   1.151   1.570
10242SOL    HW131625   0.516   1.164   1.487
10242SOL    HW231626   0.664   1.128   1.545
10243SOL     OW31627   2.521   4.649   2.984
10243SOL    HW131628   2.544   4.655   2.887
10243SOL    HW231629   2.444   4.709   3.004
10244SOL     OW31630   1.582   4.318   1.038
10244SOL    HW131631   1.563   4.414   1.059
10244SOL    HW231632   1.599   4.307   0.940
10245SOL     OW31633   3.809   4.275   1.066
10245SOL    HW131634   3.797   4.346   0.997
10245SOL    HW231635   3.896   4.228   1.052
10246SOL     OW31636   3.013   3.358   3.494
10246SOL    HW131637   3.030   3.282   3.557
10246SOL    HW231638   2.961   3.326   3.415
10247SOL     OW31639   0.316   4.537   6.455
10247SOL    HW131640   0.300   4.558   6.358
10247SOL    HW231641   0.236   4.566   6.508
10248SOL     OW31642   1.645   6.859   2.649
10248SOL    HW131643   1.579   6.857   2.724
10248SOL    HW231644   1.616   6.926   2.581
10249SOL     OW31645   2.322   6.419   6.614
10249SOL    HW131646   2.409   6.370   6.604
10249SOL    HW231647   2.331   6.511   6.577
10250SOL     OW31648   6.726   2.470   2.001
10250SOL    HW131649   6.823   2.473   1.980
10250SOL    HW231650   6.703   2.381   2.041
10251SOL     OW31651   2.273   1.303   4.763
10251SOL    HW131652   2.239   1.397   4.767
10251SOL    HW231653   2.373   1.303   4.770
10252SOL     OW31654   3.925   4.957   5.773
10252SOL    HW131655   4.006   4.991   5.822
10252SOL    HW231656   3.953   4.885   5.709
10253SOL     OW31657   2.605   0.003   0.662
10253SOL    HW131658   2.509   0.028   0.652
10253SOL    HW231659   2.642   0.044   0.745
10254SOL     OW31660   4.866   1.148   5.501
10254SOL    HW131661   4.953   1.198   5.500
10254SOL    HW231662   4.813   1.171   5.420
10255SOL     OW31663   2.459   6.043   1.057
10255SOL    HW131664   2.450   5.951   1.095
10255SOL    HW231665   2.457   6.110   1.131
10256SOL     OW31666   5.149   1.599   1.379
10256SOL    HW131667   5.100   1.537   1.318
10256SOL    HW231668   5.103   1.602   1.468
10257SOL     OW31669   1.969   4.634   4.543
10257SOL    HW131670   2.065   4.625   4.515
10257SOL    HW231671   1.951   4.728   4.570
10258SOL     OW31672   3.290   1.004   3.672
10258SOL    HW131673   3.252   1.095   3.655
10258SOL    HW231674   3.329   1.001   3.764
10259SOL     OW31675   0.971   5.006   3.164
10259SOL    HW131676   1.063   5.032   3.135
10259SOL    HW231677   0.925   5.086   3.203
10260SOL     OW31678   1.668   1.074   3.671
10260SOL    HW131679   1.672   0.975   3.659
10260SOL    HW231680   1.723   1.119   3.600
10261SOL     OW31681   6.650   5.090   2.493
10261SOL    HW131682   6.728   5.035   2.521
10261SOL    HW231683   6.676   5.147   2.415
10262SOL     OW31684   2.507   0.022   5.251
10262SOL    HW131685   2.575   0.091   5.277
10262SOL    HW231686   2.531   7.003   5.161
10263SOL     OW31687   5.203   6.988   6.654
10263SOL    HW131688   5.271   6.968   6.724
10263SOL    HW231689   5.128   0.023   6.693
10264SOL     OW31690   5.935   0.091   6.657
10264SOL    HW131691   5.927   0.168   6.721
10264SOL    HW231692   6.024   0.095   6.612
10265SOL     OW31693   2.244   3.026   1.852
10265SOL    HW131694   2.234   3.126   1.854
10265SOL    HW231695   2.289   2.999   1.768
10266SOL     OW31696   3.915   3.392   3.856
10266SOL    HW131697   3.937   3.485   3.828
10266SOL    HW231698   3.820   3.371   3.831
10267SOL     OW31699   5.687   2.600   6.613
10267SOL    HW131700   5.618   2.574   6.681
10267SOL    HW231701   5.650   2.585   6.521
10268SOL     OW31702   6.202   5.767   2.449
10268SOL    HW131703   6.169   5.709   2.375
10268SOL    HW231704   6.284   5.816   2.419
10269SOL     OW31705   0.264   3.532   0.051
10269SOL    HW131706   0.198   3.490   7.007
10269SOL    HW231707   0.215   3.592   0.114
10270SOL     OW31708   3.953   4.838   2.858
10270SOL    HW131709   3.966   4.791   2.771
10270SOL    HW231710   4.037   4.885   2.883
10271SOL     OW31711   3.487   2.855   6.066
10271SOL    HW131712   3.446   2.946   6.079
10271SOL    HW231713   3.504   2.841   5.969
10272SOL     OW31714   1.609   1.495   4.901
10272SOL    HW131715   1.547   1.543   4.839
10272SOL    HW231716   1.632   1.555   4.978
10273SOL     OW31717   2.970   5.643   2.839
10273SOL    HW131718   2.992   5.554   2.879
10273SOL    HW231719   3.054   5.687   2.808
10274SOL     OW31720   0.967   6.040   5.175
10274SOL    HW131721   1.020   6.124   5.183
10274SOL    HW231722   0.904   6.048   5.098
10275SOL     OW31723   0.314   6.537   1.832
10275SOL    HW131724   0.342   6.562   1.924
10275SOL    HW231725   0.294   6.621   1.780
10276SOL     OW31726   5.141   5.022   5.691
10276SOL    HW131727   5.203   5.047   5.617
10276SOL    HW231728   5.176   4.941   5.738
10277SOL     OW31729   1.425   5.523   4.149
10277SOL    HW131730   1.365   5.530   4.070
10277SOL    HW231731   1.472   5.610   4.164
10278SOL     OW31732   0.387   2.113   4.509
10278SOL    HW131733   0.395   2.082   4.415
10278SOL    HW231734   0.346   2.041   4.565
10279SOL     OW31735   2.197   4.987   4.097
10279SOL    HW131736   2.200   4.894   4.132
10279SOL    HW231737   2.290   5.016   4.070
10280SOL     OW31738   0.119   3.295   0.933
10280SOL    HW131739   0.091   3.278   1.027
10280SOL    HW231740   0.131   3.207   0.886
10281SOL     OW31741   5.736   1.431   2.484
10281SOL    HW131742   5.676   1.415   2.405
10281SOL    HW231743   5.818   1.480   2.454
10282SOL     OW31744   4.877   3.288   4.181
10282SOL    HW131745   4.874   3.278   4.281
10282SOL    HW231746   4.924   3.209   4.142
10283SOL     OW31747   1.104   3.445   0.541
10283SOL    HW131748   1.014   3.413   0.570
10283SOL    HW231749   1.113   3.433   0.442
10284SOL     OW31750   5.237   2.804   4.855
10284SOL    HW131751   5.324   2.779   4.899
10284SOL    HW231752   5.172   2.730   4.867
10285SOL     OW31753   6.191   6.919   2.631
10285SOL    HW131754   6.259   6.849   2.607
10285SOL    HW231755   6.235   7.008   2.635
10286SOL     OW31756   3.331   1.624   3.153
10286SOL    HW131757   3.356   1.717   3.181
10286SOL    HW231758   3.388   1.596   3.076
10287SOL     OW31759   2.043   0.117   1.109
10287SOL    HW131760   1.956   0.167   1.111
10287SOL    HW231761   2.099   0.152   1.033
10288SOL     OW31762   4.906   5.882   2.894
10288SOL    HW131763   5.003   5.908   2.893
10288SOL    HW231764   4.850   5.963   2.884
10289SOL     OW31765   1.969   6.790   0.343
10289SOL    HW131766   1.869   6.787   0.335
10289SOL    HW231767   2.003   6.874   0.300
10290SOL     OW31768   3.238   3.960   2.802
10290SOL    HW131769   3.289   4.044   2.820
10290SOL    HW231770   3.219   3.952   2.705
10291SOL     OW31771   4.460   1.321   2.769
10291SOL    HW131772   4.376   1.269   2.784
10291SOL    HW231773   4.459   1.362   2.678
10292SOL     OW31774   1.715   1.053   5.109
10292SOL    HW131775   1.692   1.138   5.061
10292SOL    HW231776   1.747   1.075   5.201
10293SOL     OW31777   2.021   4.576   2.690
10293SOL    HW131778   1.954   4.508   2.661
10293SOL    HW231779   1.975   4.658   2.722
10294SOL     OW31780   5.756   3.241   3.072
10294SOL    HW131781   5.759   3.249   3.172
10294SOL    HW231782   5.849   3.246   3.036
10295SOL     OW31783   6.877   4.386   5.489
10295SOL    HW131784   6.802   4.329   5.454
10295SOL    HW231785   6.907   4.449   5.418
10296SOL     OW31786   5.185   1.249   0.029
10296SOL    HW131787   5.216   1.156   0.007
10296SOL    HW231788   5.256   1.314   0.004
10297SOL     OW31789   1.730   0.078   6.308
10297SOL    HW131790   1.758   0.152   6.368
10297SOL    HW231791   1.746   0.104   6.213
10298SOL     OW31792   2.636   4.627   1.723
10298SOL    HW131793   2.688   4.655   1.803
10298SOL    HW231794   2.580   4.704   1.690
10299SOL     OW31795   4.843   4.831   2.939
10299SOL    HW131796   4.922   4.780   2.906
10299SOL    HW231797   4.850   4.927   2.910
10300SOL     OW31798   1.576   3.892   2.841
10300SOL    HW131799   1.666   3.891   2.796
10300SOL    HW231800   1.511   3.842   2.784
10301SOL     OW31801   4.862   2.559   4.340
10301SOL    HW131802   4.776   2.508   4.342
10301SOL    HW231803   4.870   2.615   4.422
10302SOL     OW31804   2.216   0.155   4.066
10302SOL    HW131805   2.182   0.121   4.154
10302SOL    HW231806   2.142   0.201   4.017
10303SOL     OW31807   1.909   6.313   2.995
10303SOL    HW131808   1.869   6.365   2.919
10303SOL    HW231809   1.868   6.341   3.081
10304SOL     OW31810   5.877   6.858   1.707
10304SOL    HW131811   5.830   6.906   1.781
10304SOL    HW231812   5.961   6.907   1.683
10305SOL     OW31813   0.932   4.443   6.765
10305SOL    HW131814   0.981   4.379   6.823
10305SOL    HW231815   0.929   4.533   6.809
10306SOL     OW31816   4.576   6.991   6.289
10306SOL    HW131817   4.644   6.998   6.216
10306SOL    HW231818   4.519   0.055   6.289
10307SOL     OW31819   2.236   2.318   5.502
10307SOL    HW131820   2.205   2.394   5.559
10307SOL    HW231821   2.274   2.353   5.417
10308SOL     OW31822   2.130   4.359   3.550
10308SOL    HW131823   2.047   4.359   3.494
10308SOL    HW231824   2.153   4.453   3.575
10309SOL     OW31825   0.051   1.401   5.280
10309SOL    HW131826   6.990   1.343   5.295
10309SOL    HW231827   0.127   1.344   5.248
10310SOL     OW31828   3.261   3.789   1.003
10310SOL    HW131829   3.166   3.817   1.018
10310SOL    HW231830   3.319   3.830   1.073
10311SOL     OW31831   6.829   6.198   0.273
10311SOL    HW131832   6.769   6.119   0.284
10311SOL    HW231833   6.784   6.267   0.216
10312SOL     OW31834   3.636   6.593   2.509
10312SOL    HW131835   3.597   6.634   2.591
10312SOL    HW231836   3.622   6.494   2.512
10313SOL     OW31837   5.017   6.406   1.279
10313SOL    HW131838   5.046   6.402   1.375
10313SOL    HW231839   5.042   6.494   1.240
10314SOL     OW31840   6.569   0.854   2.039
10314SOL    HW131841   6.547   0.947   2.011
10314SOL    HW231842   6.614   0.855   2.128
10315SOL     OW31843   4.931   6.021   4.988
10315SOL    HW131844   5.020   6.047   5.024
10315SOL    HW231845   4.869   5.998   5.064
10316SOL     OW31846   6.222   1.610   4.272
10316SOL    HW131847   6.287   1.646   4.205
10316SOL    HW231848   6.158   1.682   4.298
10317SOL     OW31849   4.163   5.773   4.813
10317SOL    HW131850   4.156   5.838   4.738
10317SOL    HW231851   4.160   5.822   4.900
10318SOL     OW31852   4.872   5.708   6.783
10318SOL    HW131853   4.790   5.689   6.837
10318SOL    HW231854   4.883   5.638   6.714
10319SOL     OW31855   1.162   2.954   4.953
10319SOL    HW131856   1.103   3.011   4.895
10319SOL    HW231857   1.157   2.987   5.048
10320SOL     OW31858   0.280   0.606   2.974
10320SOL    HW131859   0.333   0.682   2.938
10320SOL    HW231860   0.184   0.616   2.947
10321SOL     OW31861   4.103   1.791   2.077
10321SOL    HW131862   4.086   1.888   2.093
10321SOL    HW231863   4.190   1.780   2.028
10322SOL     OW31864   6.589   5.508   5.445
10322SOL    HW131865   6.583   5.574   5.371
10322SOL    HW231866   6.540   5.425   5.420
10323SOL     OW31867   5.831   2.997   5.698
10323SOL    HW131868   5.862   2.914   5.652
10323SOL    HW231869   5.734   3.012   5.678
10324SOL     OW31870   3.398   3.484   2.439
10324SOL    HW131871   3.443   3.395   2.445
10324SOL    HW231872   3.425   3.541   2.516
10325SOL     OW31873   0.235   4.248   2.175
10325SOL    HW131874   0.167   4.230   2.246
10325SOL    HW231875   0.325   4.219   2.206
10326SOL     OW31876   3.907   4.111   0.407
10326SOL    HW131877   3.941   4.080   0.496
10326SOL    HW231878   3.944   4.052   0.335
10327SOL     OW31879   2.505   1.799   1.578
10327SOL    HW131880   2.493   1.840   1.668
10327SOL    HW231881   2.498   1.699   1.585
10328SOL     OW31882   5.647   3.001   1.115
10328SOL    HW131883   5.611   2.980   1.023
10328SOL    HW231884   5.679   3.095   1.117
10329SOL     OW31885   3.359   0.228   3.988
10329SOL    HW131886   3.350   0.291   3.911
10329SOL    HW231887   3.447   0.180   3.981
10330SOL     OW31888   4.571   0.222   2.538
10330SOL    HW131889   4.614   0.244   2.450
10330SOL    HW231890   4.621   0.146   2.581
10331SOL     OW31891   0.243   1.183   5.233
10331SOL    HW131892   0.239   1.095   5.185
10331SOL    HW231893   0.239   1.166   5.332
10332SOL     OW31894   6.150   1.035   0.865
10332SOL    HW131895   6.130   0.998   0.774
10332SOL    HW231896   6.064   1.055   0.912
10333SOL     OW31897   6.276   4.122   4.693
10333SOL    HW131898   6.229   4.162   4.614
10333SOL    HW231899   6.350   4.183   4.722
10334SOL     OW31900   3.970   6.278   3.609
10334SOL    HW131901   3.990   6.347   3.679
10334SOL    HW231902   4.037   6.286   3.535
10335SOL     OW31903   2.889   4.422   6.678
10335SOL    HW131904   2.798   4.420   6.719
10335SOL    HW231905   2.881   4.406   6.580
10336SOL     OW31906   6.833   6.530   2.926
10336SOL    HW131907   6.785   6.587   2.992
10336SOL    HW231908   6.797   6.548   2.834
10337SOL     OW31909   0.114   6.854   5.796
10337SOL    HW131910   0.040   6.843   5.862
10337SOL    HW231911   0.077   6.879   5.707
10338SOL     OW31912   2.206   6.376   2.461
10338SOL    HW131913   2.189   6.434   2.541
10338SOL    HW231914   2.222   6.282   2.490
10339SOL     OW31915   3.464   4.852   6.981
10339SOL    HW131916   3.463   4.806   0.050
10339SOL    HW231917   3.490   4.786   6.909
10340SOL     OW31918   2.336   5.076   1.166
10340SOL    HW131919   2.289   5.059   1.252
10340SOL    HW231920   2.321   5.171   1.137
10341SOL     OW31921   2.170   3.531   1.560
10341SOL    HW131922   2.170   3.580   1.648
10341SOL    HW231923   2.161   3.433   1.578
10342SOL     OW31924   0.997   6.872   5.477
10342SOL    HW131925   0.972   6.957   5.522
10342SOL    HW231926   0.955   6.795   5.524
10343SOL     OW31927   3.538   5.618   0.082
10343SOL    HW131928   3.605   5.572   0.141
10343SOL    HW231929   3.457   5.642   0.135
10344SOL     OW31930   4.625   4.133   1.729
10344SOL    HW131931   4.556   4.185   1.780
10344SOL    HW231932   4.681   4.080   1.793
10345SOL     OW31933   1.664   1.256   6.994
10345SOL    HW131934   1.603   1.265   6.916
10345SOL    HW231935   1.662   1.340   0.029
10346SOL     OW31936   6.518   6.941   1.557
10346SOL    HW131937   6.590   7.010   1.553
10346SOL    HW231938   6.452   6.957   1.484
10347SOL     OW31939   4.748   2.093   2.617
10347SOL    HW131940   4.773   2.175   2.565
10347SOL    HW231941   4.827   2.063   2.671
10348SOL     OW31942   6.448   1.451   0.599
10348SOL    HW131943   6.501   1.516   0.653
10348SOL    HW231944   6.467   1.358   0.630
10349SOL     OW31945   0.159   1.127   1.137
10349SOL    HW131946   0.231   1.092   1.077
10349SOL    HW231947   0.181   1.221   1.164
10350SOL     OW31948   1.974   0.040   5.107
10350SOL    HW131949   1.941   6.991   5.040
10350SOL    HW231950   2.066   0.016   5.136
10351SOL     OW31951   4.340   5.268   6.174
10351SOL    HW131952   4.242   5.284   6.186
10351SOL    HW231953   4.391   5.339   6.221
10352SOL     OW31954   4.512   2.283   6.304
10352SOL    HW131955   4.461   2.211   6.350
10352SOL    HW231956   4.460   2.369   6.306
10353SOL     OW31957   0.368   2.874   5.759
10353SOL    HW131958   0.370   2.785   5.804
10353SOL    HW231959   0.304   2.873   5.682
10354SOL     OW31960   5.956   2.475   1.986
10354SOL    HW131961   5.951   2.508   1.893
10354SOL    HW231962   5.865   2.478   2.028
10355SOL     OW31963   1.489   0.041   2.514
10355SOL    HW131964   1.420   0.100   2.555
10355SOL    HW231965   1.482   0.047   2.414
10356SOL     OW31966   0.052   4.513   6.052
10356SOL    HW131967   6.990   4.489   6.105
10356SOL    HW231968   0.030   4.586   5.988
10357SOL     OW31969   3.057   3.329   6.402
10357SOL    HW131970   2.982   3.387   6.434
10357SOL    HW231971   3.141   3.382   6.397
10358SOL     OW31972   6.418   3.226   3.465
10358SOL    HW131973   6.321   3.206   3.472
10358SOL    HW231974   6.470   3.141   3.461
10359SOL     OW31975   6.899   1.565   1.458
10359SOL    HW131976   6.940   1.621   1.386
10359SOL    HW231977   6.811   1.529   1.426
10360SOL     OW31978   4.163   5.944   2.181
10360SOL    HW131979   4.202   5.941   2.273
10360SOL    HW231980   4.153   5.851   2.146
10361SOL     OW31981   2.519   0.739   2.848
10361SOL    HW131982   2.572   0.665   2.806
10361SOL    HW231983   2.571   0.824   2.846
10362SOL     OW31984   0.682   5.238   3.863
10362SOL    HW131985   0.624   5.316   3.888
10362SOL    HW231986   0.676   5.167   3.932
10363SOL     OW31987   4.435   2.277   0.786
10363SOL    HW131988   4.406   2.245   0.876
10363SOL    HW231989   4.498   2.354   0.796
10364SOL     OW31990   4.065   3.667   2.393
10364SOL    HW131991   3.970   3.637   2.398
10364SOL    HW231992   4.102   3.678   2.485
10365SOL     OW31993   4.988   4.352   5.393
10365SOL    HW131994   4.924   4.427   5.373
10365SOL    HW231995   4.951   4.267   5.356
10366SOL     OW31996   4.723   0.174   4.102
10366SOL    HW131997   4.773   0.088   4.109
10366SOL    HW231998   4.787   0.248   4.080
10367SOL     OW31999   6.826   1.509   1.747
10367SOL    HW132000   6.749   1.509   1.810
10367SOL    HW232001   6.801   1.560   1.664
10368SOL     OW32002   2.216   0.634   2.150
10368SOL    HW132003   2.153   0.559   2.130
10368SOL    HW232004   2.228   0.689   2.068
10369SOL     OW32005   4.386   1.333   5.271
10369SOL    HW132006   4.430   1.282   5.197
10369SOL    HW232007   4.341   1.269   5.333
10370SOL     OW32008   5.908   1.658   5.061
10370SOL    HW132009   5.855   1.576   5.080
10370SOL    HW232010   5.851   1.724   5.011
10371SOL     OW32011   1.907   5.656   4.059
10371SOL    HW132012   1.994   5.606   4.070
10371SOL    HW232013   1.904   5.699   3.969
10372SOL     OW32014   1.487   1.202   0.798
10372SOL    HW132015   1.401   1.152   0.785
10372SOL    HW232016   1.520   1.235   0.709
10373SOL     OW32017   1.654   6.790   4.812
10373SOL    HW132018   1.583   6.834   4.757
10373SOL    HW232019   1.715   6.738   4.751
10374SOL     OW32020   3.889   1.152   2.957
10374SOL    HW132021   3.951   1.221   2.994
10374SOL    HW232022   3.882   1.076   3.021
10375SOL     OW32023   2.635   1.574   6.298
10375SOL    HW132024   2.670   1.556   6.389
10375SOL    HW232025   2.585   1.661   6.298
10376SOL     OW32026   1.446   5.789   3.796
10376SOL    HW132027   1.369   5.738   3.756
10376SOL    HW232028   1.470   5.866   3.737
10377SOL     OW32029   6.938   1.237   3.805
10377SOL    HW132030   7.013   1.229   3.739
10377SOL    HW232031   6.891   1.149   3.812
10378SOL     OW32032   6.299   0.399   5.769
10378SOL    HW132033   6.245   0.327   5.725
10378SOL    HW232034   6.379   0.358   5.814
10379SOL     OW32035   3.072   6.475   4.260
10379SOL    HW132036   2.974   6.484   4.239
10379SOL    HW232037   3.105   6.386   4.229
10380SOL     OW32038   0.723   2.044   4.552
10380SOL    HW132039   0.689   2.115   4.614
10380SOL    HW232040   0.822   2.037   4.561
10381SOL     OW32041   4.497   4.065   0.493
10381SOL    HW132042   4.419   4.077   0.554
10381SOL    HW232043   4.467   4.068   0.398
10382SOL     OW32044   2.033   4.860   0.899
10382SOL    HW132045   1.968   4.848   0.824
10382SOL    HW232046   2.063   4.770   0.931
10383SOL     OW32047   6.601   3.780   0.707
10383SOL    HW132048   6.522   3.746   0.758
10383SOL    HW232049   6.679   3.791   0.769
10384SOL     OW32050   0.230   6.995   0.729
10384SOL    HW132051   0.321   6.997   0.770
10384SOL    HW232052   0.184   6.909   0.752
10385SOL     OW32053   3.374   6.760   5.848
10385SOL    HW132054   3.459   6.772   5.797
10385SOL    HW232055   3.394   6.735   5.942
10386SOL     OW32056   6.342   1.954   5.683
10386SOL    HW132057   6.299   1.887   5.744
10386SOL    HW232058   6.326   2.046   5.718
10387SOL     OW32059   4.588   1.733   2.814
10387SOL    HW132060   4.594   1.695   2.907
10387SOL    HW232061   4.623   1.666   2.749
10388SOL     OW32062   2.141   6.037   2.054
10388SOL    HW132063   2.062   6.033   2.115
10388SOL    HW232064   2.199   6.115   2.080
10389SOL     OW32065   0.192   6.709   1.226
10389SOL    HW132066   0.195   6.667   1.317
10389SOL    HW232067   0.167   6.640   1.158
10390SOL     OW32068   1.924   2.645   1.799
10390SOL    HW132069   1.914   2.559   1.849
10390SOL    HW232070   2.021   2.666   1.786
10391SOL     OW32071   1.076   5.646   4.164
10391SOL    HW132072   1.003   5.582   4.138
10391SOL    HW232073   1.114   5.619   4.252
10392SOL     OW32074   0.049   4.334   0.222
10392SOL    HW132075   0.021   4.293   0.136
10392SOL    HW232076   0.028   4.432   0.221
10393SOL     OW32077   1.911   2.393   2.256
10393SOL    HW132078   1.909   2.293   2.261
10393SOL    HW232079   1.982   2.422   2.192
10394SOL     OW32080   2.319   5.905   4.611
10394SOL    HW132081   2.404   5.910   4.559
10394SOL    HW232082   2.329   5.840   4.686
10395SOL     OW32083   0.022   1.017   3.401
10395SOL    HW132084   0.054   0.952   3.332
10395SOL    HW232085   0.096   1.080   3.424
10396SOL     OW32086   2.635   0.345   4.030
10396SOL    HW132087   2.558   0.393   3.988
10396SOL    HW232088   2.715   0.405   4.029
10397SOL     OW32089   3.025   1.824   4.098
10397SOL    HW132090   3.017   1.908   4.045
10397SOL    HW232091   3.120   1.813   4.128
10398SOL     OW32092   5.804   2.181   0.666
10398SOL    HW132093   5.709   2.155   0.652
10398SOL    HW232094   5.819   2.274   0.634
10399SOL     OW32095   4.251   1.963   4.614
10399SOL    HW132096   4.233   1.910   4.697
10399SOL    HW232097   4.176   1.951   4.549
10400SOL     OW32098   3.828   5.850   1.105
10400SOL    HW132099   3.838   5.766   1.051
10400SOL    HW232100   3.871   5.926   1.056
10401SOL     OW32101   0.327   0.173   2.476
10401SOL    HW132102   0.339   0.231   2.556
10401SOL    HW232103   0.351   0.079   2.499
10402SOL     OW32104   0.057   2.443   5.757
10402SOL    HW132105   7.002   2.453   5.823
10402SOL    HW232106   0.020   2.444   5.664
10403SOL     OW32107   5.277   1.010   2.565
10403SOL    HW132108   5.346   1.059   2.618
10403SOL    HW232109   5.192   1.004   2.618
10404SOL     OW32110   0.304   6.673   3.879
10404SOL    HW132111   0.323   6.590   3.826
10404SOL    HW232112   0.350   6.751   3.836
10405SOL     OW32113   1.143   5.654   4.930
10405SOL    HW132114   1.172   5.720   4.999
10405SOL    HW232115   1.059   5.609   4.960
10406SOL     OW32116   2.102   3.333   5.025
10406SOL    HW132117   2.141   3.263   5.085
10406SOL    HW232118   2.086   3.417   5.078
10407SOL     OW32119   2.390   0.624   6.515
10407SOL    HW132120   2.460   0.664   6.456
10407SOL    HW232121   2.407   0.651   6.610
10408SOL     OW32122   3.514   6.157   2.074
10408SOL    HW132123   3.593   6.126   2.126
10408SOL    HW232124   3.538   6.237   2.020
10409SOL     OW32125   0.235   4.108   0.817
10409SOL    HW132126   0.155   4.157   0.784
10409SOL    HW232127   0.308   4.173   0.838
10410SOL     OW32128   5.499   1.940   1.258
10410SOL    HW132129   5.447   1.983   1.184
10410SOL    HW232130   5.438   1.878   1.309
10411SOL     OW32131   4.006   5.400   4.480
10411SOL    HW132132   4.027   5.478   4.539
10411SOL    HW232133   4.080   5.332   4.486
10412SOL     OW32134   0.269   1.022   0.683
10412SOL    HW132135   0.263   1.121   0.668
10412SOL    HW232136   0.196   0.976   0.633
10413SOL     OW32137   6.953   2.244   1.199
10413SOL    HW132138   6.904   2.158   1.216
10413SOL    HW232139   0.021   2.243   1.248
10414SOL     OW32140   4.322   6.195   5.880
10414SOL    HW132141   4.289   6.145   5.800
10414SOL    HW232142   4.367   6.131   5.943
10415SOL     OW32143   2.309   4.327   4.138
10415SOL    HW132144   2.262   4.280   4.063
10415SOL    HW232145   2.387   4.271   4.169
10416SOL     OW32146   6.298   0.311   4.931
10416SOL    HW132147   6.333   0.362   5.010
10416SOL    HW232148   6.259   0.224   4.963
10417SOL     OW32149   4.566   4.479   4.241
10417SOL    HW132150   4.475   4.507   4.274
10417SOL    HW232151   4.563   4.468   4.142
10418SOL     OW32152   6.206   3.895   5.728
10418SOL    HW132153   6.209   3.992   5.750
10418SOL    HW232154   6.119   3.872   5.685
10419SOL     OW32155   3.226   0.389   5.265
10419SOL    HW132156   3.131   0.401   5.236
10419SOL    HW232157   3.278   0.345   5.192
10420SOL     OW32158   6.479   3.551   3.820
10420SOL    HW132159   6.382   3.536   3.841
10420SOL    HW232160   6.517   3.468   3.779
10421SOL     OW32161   1.307   3.344   4.813
10421SOL    HW132162   1.366   3.288   4.754
10421SOL    HW232163   1.360   3.377   4.891
10422SOL     OW32164   6.843   3.251   5.627
10422SOL    HW132165   6.748   3.279   5.638
10422SOL    HW232166   6.902   3.331   5.629
10423SOL     OW32167   4.596   4.822   5.042
10423SOL    HW132168   4.640   4.800   4.956
10423SOL    HW232169   4.642   4.901   5.084
10424SOL     OW32170   4.211   2.636   0.269
10424SOL    HW132171   4.201   2.655   0.367
10424SOL    HW232172   4.149   2.561   0.243
10425SOL     OW32173   0.958   5.892   2.459
10425SOL    HW132174   0.883   5.892   2.394
10425SOL    HW232175   1.043   5.866   2.413
10426SOL     OW32176   5.542   3.711   5.641
10426SOL    HW132177   5.499   3.733   5.554
10426SOL    HW232178   5.497   3.762   5.714
10427SOL     OW32179   4.997   6.967   6.905
10427SOL    HW132180   5.090   6.958   6.942
10427SOL    HW232181   4.964   6.878   6.876
10428SOL     OW32182   2.591   1.819   4.540
10428SOL    HW132183   2.595   1.878   4.620
10428SOL    HW232184   2.584   1.876   4.458
10429SOL     OW32185   0.732   4.098   3.050
10429SOL    HW132186   0.670   4.028   3.087
10429SOL    HW232187   0.802   4.055   2.994
10430SOL     OW32188   3.987   6.375   4.664
10430SOL    HW132189   3.910   6.328   4.707
10430SOL    HW232190   4.037   6.426   4.734
10431SOL     OW32191   3.174   1.125   3.979
10431SOL    HW132192   3.250   1.060   3.980
10431SOL    HW232193   3.208   1.216   4.004
10432SOL     OW32194   0.346   1.847   5.536
10432SOL    HW132195   0.346   1.866   5.438
10432SOL    HW232196   0.418   1.780   5.557
10433SOL     OW32197   0.081   6.127   2.630
10433SOL    HW132198   0.136   6.083   2.559
10433SOL    HW232199   0.047   6.059   2.694
10434SOL     OW32200   4.268   6.471   4.809
10434SOL    HW132201   4.252   6.509   4.717
10434SOL    HW232202   4.222   6.528   4.877
10435SOL     OW32203   2.067   1.832   6.454
10435SOL    HW132204   1.996   1.886   6.408
10435SOL    HW232205   2.157   1.858   6.419
10436SOL     OW32206   6.321   3.895   4.186
10436SOL    HW132207   6.236   3.844   4.201
10436SOL    HW232208   6.354   3.877   4.094
10437SOL     OW32209   6.043   4.918   5.083
10437SOL    HW132210   6.060   5.009   5.118
10437SOL    HW232211   5.966   4.921   5.019
10438SOL     OW32212   0.564   6.126   5.719
10438SOL    HW132213   0.499   6.091   5.651
10438SOL    HW232214   0.516   6.186   5.783
10439SOL     OW32215   5.621   1.053   4.928
10439SOL    HW132216   5.623   1.055   4.828
10439SOL    HW232217   5.651   1.141   4.964
10440SOL     OW32218   7.014   6.754   6.716
10440SOL    HW132219   0.008   6.747   6.617
10440SOL    HW232220   0.006   6.849   6.744
10441SOL     OW32221   2.800   1.194   1.170
10441SOL    HW132222   2.726   1.216   1.234
10441SOL    HW232223   2.886   1.184   1.220
10442SOL     OW32224   3.953   6.890   5.153
10442SOL    HW132225   4.036   6.919   5.106
10442SOL    HW232226   3.950   6.790   5.157
10443SOL     OW32227   6.077   2.591   2.971
10443SOL    HW132228   6.018   2.628   2.898
10443SOL    HW232229   6.115   2.666   3.024
10444SOL     OW32230   3.588   5.547   2.389
10444SOL    HW132231   3.654   5.555   2.314
10444SOL    HW232232   3.571   5.451   2.409
10445SOL     OW32233   0.651   3.828   2.631
10445SOL    HW132234   0.564   3.780   2.635
10445SOL    HW232235   0.712   3.793   2.702
10446SOL     OW32236   2.070   3.779   6.438
10446SOL    HW132237   1.979   3.798   6.400
10446SOL    HW232238   2.060   3.743   6.530
10447SOL     OW32239   6.909   0.736   2.427
10447SOL    HW132240   6.988   0.707   2.372
10447SOL    HW232241   6.933   0.820   2.476
10448SOL     OW32242   3.290   0.490   2.380
10448SOL    HW132243   3.251   0.564   2.434
10448SOL    HW232244   3.309   0.411   2.439
10449SOL     OW32245   2.677   5.681   6.701
10449SOL    HW132246   2.660   5.669   6.604
10449SOL    HW232247   2.671   5.778   6.724
10450SOL     OW32248   6.927   1.621   6.670
10450SOL    HW132249   6.831   1.627   6.643
10450SOL    HW232250   6.944   1.531   6.711
10451SOL     OW32251   3.124   6.968   3.224
10451SOL    HW132252   3.075   0.022   3.271
10451SOL    HW232253   3.121   6.885   3.279
10452SOL     OW32254   6.651   3.088   2.967
10452SOL    HW132255   6.682   3.159   3.030
10452SOL    HW232256   6.584   3.127   2.903
10453SOL     OW32257   4.759   6.545   1.651
10453SOL    HW132258   4.762   6.568   1.554
10453SOL    HW232259   4.674   6.496   1.671
10454SOL     OW32260   5.085   1.524   0.567
10454SOL    HW132261   5.113   1.611   0.527
10454SOL    HW232262   5.163   1.482   0.612
10455SOL     OW32263   0.294   5.956   3.648
10455SOL    HW132264   0.203   5.950   3.690
10455SOL    HW232265   0.361   5.987   3.715
10456SOL     OW32266   0.514   5.892   0.927
10456SOL    HW132267   0.498   5.979   0.975
10456SOL    HW232268   0.612   5.876   0.919
10457SOL     OW32269   4.104   2.926   0.667
10457SOL    HW132270   4.192   2.928   0.715
10457SOL    HW232271   4.107   2.857   0.595
10458SOL     OW32272   6.267   0.144   6.909
10458SOL    HW132273   6.253   0.222   6.848
10458SOL    HW232274   6.351   0.096   6.883
10459SOL     OW32275   4.268   5.526   1.668
10459SOL    HW132276   4.255   5.518   1.569
10459SOL    HW232277   4.186   5.564   1.709
10460SOL     OW32278   1.197   4.114   2.023
10460SOL    HW132279   1.228   4.058   1.946
10460SOL    HW232280   1.208   4.062   2.108
10461SOL     OW32281   5.899   4.751   5.212
10461SOL    HW132282   5.903   4.669   5.156
10461SOL    HW232283   5.954   4.823   5.169
10462SOL     OW32284   5.940   2.270   2.911
10462SOL    HW132285   5.937   2.265   3.011
10462SOL    HW232286   5.861   2.322   2.879
10463SOL     OW32287   4.235   2.056   5.888
10463SOL    HW132288   4.152   2.051   5.943
10463SOL    HW232289   4.315   2.048   5.947
10464SOL     OW32290   5.931   6.366   1.829
10464SOL    HW132291   5.960   6.350   1.923
10464SOL    HW232292   5.937   6.464   1.809
10465SOL     OW32293   4.794   5.729   1.528
10465SOL    HW132294   4.805   5.775   1.616
10465SOL    HW232295   4.717   5.770   1.479
10466SOL     OW32296   4.948   4.991   5.393
10466SOL    HW132297   5.025   4.952   5.342
10466SOL    HW232298   4.980   5.071   5.445
10467SOL     OW32299   1.540   2.540   0.751
10467SOL    HW132300   1.456   2.524   0.698
10467SOL    HW232301   1.528   2.622   0.808
10468SOL     OW32302   3.974   4.815   3.727
10468SOL    HW132303   3.931   4.823   3.637
10468SOL    HW232304   4.056   4.758   3.720
10469SOL     OW32305   4.455   4.115   5.985
10469SOL    HW132306   4.486   4.209   5.979
10469SOL    HW232307   4.489   4.064   5.906
10470SOL     OW32308   2.260   1.144   3.320
10470SOL    HW132309   2.287   1.131   3.416
10470SOL    HW232310   2.329   1.200   3.274
10471SOL     OW32311   2.333   0.034   0.530
10471SOL    HW132312   2.391   0.015   0.450
10471SOL    HW232313   2.269   6.978   0.544
10472SOL     OW32314   3.285   5.799   0.455
10472SOL    HW132315   3.308   5.792   0.552
10472SOL    HW232316   3.192   5.832   0.445
10473SOL     OW32317   6.404   6.507   5.853
10473SOL    HW132318   6.347   6.586   5.833
10473SOL    HW232319   6.500   6.535   5.858
10474SOL     OW32320   4.189   0.939   3.988
10474SOL    HW132321   4.099   0.970   3.957
10474SOL    HW232322   4.201   0.842   3.967
10475SOL     OW32323   3.335   6.818   1.651
10475SOL    HW132324   3.369   6.741   1.597
10475SOL    HW232325   3.240   6.800   1.678
10476SOL     OW32326   5.637   6.605   5.871
10476SOL    HW132327   5.582   6.541   5.924
10476SOL    HW232328   5.630   6.696   5.911
10477SOL     OW32329   6.782   0.967   5.053
10477SOL    HW132330   6.855   0.999   4.992
10477SOL    HW232331   6.694   0.972   5.005
10478SOL     OW32332   6.645   6.793   6.947
10478SOL    HW132333   6.713   6.732   6.905
10478SOL    HW232334   6.685   6.884   6.958
10479SOL     OW32335   6.890   1.781   1.925
10479SOL    HW132336   6.935   1.707   1.975
10479SOL    HW232337   6.791   1.764   1.921
10480SOL     OW32338   0.853   0.998   2.078
10480SOL    HW132339   0.808   1.083   2.054
10480SOL    HW232340   0.897   1.007   2.167
10481SOL     OW32341   2.150   6.320   3.814
10481SOL    HW132342   2.094   6.379   3.873
10481SOL    HW232343   2.090   6.262   3.759
10482SOL     OW32344   6.104   5.327   4.646
10482SOL    HW132345   6.124   5.235   4.680
10482SOL    HW232346   6.165   5.393   4.690
10483SOL     OW32347   5.356   5.333   0.589
10483SOL    HW132348   5.398   5.335   0.499
10483SOL    HW232349   5.263   5.296   0.582
10484SOL     OW32350   5.285   1.329   1.949
10484SOL    HW132351   5.381   1.314   1.923
10484SOL    HW232352   5.282   1.365   2.042
10485SOL     OW32353   3.337   4.186   0.216
10485SOL    HW132354   3.265   4.190   0.286
10485SOL    HW232355   3.309   4.240   0.136
10486SOL     OW32356   0.336   0.490   0.528
10486SOL    HW132357   0.313   0.575   0.575
10486SOL    HW232358   0.411   0.444   0.577
10487SOL     OW32359   4.929   0.480   1.932
10487SOL    HW132360   4.841   0.510   1.968
10487SOL    HW232361   4.925   0.476   1.832
10488SOL     OW32362   3.507   1.650   5.381
10488SOL    HW132363   3.518   1.739   5.338
10488SOL    HW232364   3.531   1.656   5.478
10489SOL     OW32365   0.765   6.807   5.197
10489SOL    HW132366   0.695   6.782   5.264
10489SOL    HW232367   0.756   6.904   5.174
10490SOL     OW32368   5.806   1.799   0.880
10490SOL    HW132369   5.774   1.781   0.787
10490SOL    HW232370   5.878   1.869   0.877
10491SOL     OW32371   2.016   2.941   0.354
10491SOL    HW132372   1.928   2.897   0.369
10491SOL    HW232373   2.076   2.879   0.304
10492SOL     OW32374   5.943   3.977   5.649
10492SOL    HW132375   5.920   4.074   5.661
10492SOL    HW232376   5.866   3.930   5.607
10493SOL     OW32377   3.524   0.821   1.923
10493SOL    HW132378   3.517   0.910   1.969
10493SOL    HW232379   3.591   0.764   1.970
10494SOL     OW32380   5.621   4.058   5.908
10494SOL    HW132381   5.616   3.960   5.930
10494SOL    HW232382   5.591   4.111   5.988
10495SOL     OW32383   2.393   6.990   6.986
10495SOL    HW132384   2.403   6.989   6.886
10495SOL    HW232385   2.483   6.978   0.009
10496SOL     OW32386   0.083   4.589   6.580
10496SOL    HW132387   0.034   4.516   6.627
10496SOL    HW232388   0.096   4.666   6.642
10497SOL     OW32389   2.259   6.860   2.157
10497SOL    HW132390   2.342   6.839   2.208
10497SOL    HW232391   2.281   6.876   2.061
10498SOL     OW32392   3.007   5.475   1.182
10498SOL    HW132393   3.027   5.525   1.266
10498SOL    HW232394   3.078   5.492   1.114
10499SOL     OW32395   3.363   6.836   2.595
10499SOL    HW132396   3.392   6.742   2.576
10499SOL    HW232397   3.346   6.847   2.693
10500SOL     OW32398   0.089   1.501   6.188
10500SOL    HW132399   0.126   1.588   6.221
10500SOL    HW232400   0.067   1.509   6.091
10501SOL     OW32401   2.333   5.878   3.079
10501SOL    HW132402   2.315   5.805   3.145
10501SOL    HW232403   2.363   5.838   2.993
10502SOL     OW32404   2.665   0.148   0.883
10502SOL    HW132405   2.657   0.114   0.976
10502SOL    HW232406   2.602   0.225   0.870
10503SOL     OW32407   4.340   2.912   0.811
10503SOL    HW132408   4.308   2.853   0.885
10503SOL    HW232409   4.438   2.898   0.797
10504SOL     OW32410   1.528   1.543   6.630
10504SOL    HW132411   1.499   1.480   6.702
10504SOL    HW232412   1.623   1.524   6.606
10505SOL     OW32413   5.323   6.244   0.404
10505SOL    HW132414   5.326   6.174   0.475
10505SOL    HW232415   5.232   6.284   0.401
10506SOL     OW32416   0.172   4.914   0.210
10506SOL    HW132417   0.215   4.854   0.278
10506SOL    HW232418   0.135   4.995   0.256
10507SOL     OW32419   2.184   0.287   0.001
10507SOL    HW132420   2.172   0.354   0.074
10507SOL    HW232421   2.115   0.303   6.949
10508SOL     OW32422   6.406   6.782   4.656
10508SOL    HW132423   6.485   6.768   4.716
10508SOL    HW232424   6.432   6.762   4.561
10509SOL     OW32425   0.837   5.796   4.355
10509SOL    HW132426   0.857   5.893   4.347
10509SOL    HW232427   0.896   5.744   4.293
10510SOL     OW32428   4.776   5.965   6.253
10510SOL    HW132429   4.746   5.948   6.159
10510SOL    HW232430   4.788   5.878   6.300
10511SOL     OW32431   4.455   1.641   1.726
10511SOL    HW132432   4.530   1.583   1.758
10511SOL    HW232433   4.428   1.613   1.634
10512SOL     OW32434   3.994   0.392   5.637
10512SOL    HW132435   3.912   0.343   5.607
10512SOL    HW232436   3.967   0.479   5.680
10513SOL     OW32437   6.287   2.664   4.573
10513SOL    HW132438   6.278   2.733   4.501
10513SOL    HW232439   6.333   2.583   4.536
10514SOL     OW32440   6.723   3.808   0.402
10514SOL    HW132441   6.654   3.771   0.463
10514SOL    HW232442   6.764   3.890   0.443
10515SOL     OW32443   0.655   3.562   2.987
10515SOL    HW132444   0.679   3.564   3.084
10515SOL    HW232445   0.621   3.471   2.962
10516SOL     OW32446   3.908   1.063   0.711
10516SOL    HW132447   3.930   1.065   0.613
10516SOL    HW232448   3.816   1.026   0.723
10517SOL     OW32449   0.626   2.580   2.245
10517SOL    HW132450   0.606   2.484   2.264
10517SOL    HW232451   0.670   2.622   2.325
10518SOL     OW32452   0.721   5.493   6.454
10518SOL    HW132453   0.692   5.492   6.358
10518SOL    HW232454   0.785   5.569   6.469
10519SOL     OW32455   2.264   3.364   6.694
10519SOL    HW132456   2.328   3.441   6.699
10519SOL    HW232457   2.171   3.398   6.685
10520SOL     OW32458   0.891   2.829   6.703
10520SOL    HW132459   0.791   2.835   6.701
10520SOL    HW232460   0.924   2.793   6.616
10521SOL     OW32461   6.079   6.326   2.070
10521SOL    HW132462   6.099   6.291   2.161
10521SOL    HW232463   6.143   6.400   2.048
10522SOL     OW32464   6.954   0.508   5.969
10522SOL    HW132465   6.954   0.591   5.912
10522SOL    HW232466   6.999   0.528   6.056
10523SOL     OW32467   0.090   4.964   4.079
10523SOL    HW132468   0.048   5.051   4.055
10523SOL    HW232469   0.104   4.910   3.995
10524SOL     OW32470   1.868   0.588   4.598
10524SOL    HW132471   1.946   0.600   4.536
10524SOL    HW232472   1.889   0.632   4.685
10525SOL     OW32473   3.671   6.527   6.481
10525SOL    HW132474   3.731   6.511   6.402
10525SOL    HW232475   3.687   6.456   6.549
10526SOL     OW32476   1.171   6.620   3.627
10526SOL    HW132477   1.213   6.638   3.538
10526SOL    HW232478   1.092   6.561   3.615
10527SOL     OW32479   6.759   1.391   4.962
10527SOL    HW132480   6.737   1.489   4.962
10527SOL    HW232481   6.842   1.376   4.908
10528SOL     OW32482   1.998   3.602   6.131
10528SOL    HW132483   1.910   3.650   6.134
10528SOL    HW232484   2.072   3.669   6.136
10529SOL     OW32485   2.310   5.884   3.900
10529SOL    HW132486   2.287   5.869   3.996
10529SOL    HW232487   2.280   5.805   3.847
10530SOL     OW32488   2.340   0.258   6.313
10530SOL    HW132489   2.365   0.281   6.219
10530SOL    HW232490   2.382   0.170   6.338
10531SOL     OW32491   1.336   2.785   3.829
10531SOL    HW132492   1.330   2.802   3.730
10531SOL    HW232493   1.421   2.825   3.864
10532SOL     OW32494   1.413   4.848   5.911
10532SOL    HW132495   1.415   4.859   5.812
10532SOL    HW232496   1.427   4.752   5.935
10533SOL     OW32497   2.536   1.301   4.858
10533SOL    HW132498   2.533   1.389   4.904
10533SOL    HW232499   2.631   1.274   4.842
10534SOL     OW32500   6.212   5.856   1.411
10534SOL    HW132501   6.289   5.792   1.414
10534SOL    HW232502   6.243   5.947   1.438
10535SOL     OW32503   0.907   2.230   1.047
10535SOL    HW132504   0.822   2.274   1.077
10535SOL    HW232505   0.946   2.179   1.124
10536SOL     OW32506   3.890   0.545   2.998
10536SOL    HW132507   3.797   0.508   2.999
10536SOL    HW232508   3.889   0.636   2.957
10537SOL     OW32509   3.979   5.125   4.244
10537SOL    HW132510   4.005   5.217   4.274
10537SOL    HW232511   3.884   5.107   4.269
10538SOL     OW32512   4.843   1.914   0.374
10538SOL    HW132513   4.833   1.825   0.419
10538SOL    HW232514   4.838   1.902   0.275
10539SOL     OW32515   0.421   3.919   0.458
10539SOL    HW132516   0.520   3.910   0.442
10539SOL    HW232517   0.393   4.013   0.441
10540SOL     OW32518   1.357   2.782   4.875
10540SOL    HW132519   1.293   2.847   4.916
10540SOL    HW232520   1.328   2.688   4.895
10541SOL     OW32521   3.793   4.077   2.398
10541SOL    HW132522   3.716   4.029   2.439
10541SOL    HW232523   3.775   4.175   2.398
10542SOL     OW32524   6.688   0.425   5.477
10542SOL    HW132525   6.698   0.519   5.446
10542SOL    HW232526   6.738   0.411   5.562
10543SOL     OW32527   0.630   0.913   5.175
10543SOL    HW132528   0.710   0.916   5.236
10543SOL    HW232529   0.615   1.004   5.136
10544SOL     OW32530   2.167   6.526   2.056
10544SOL    HW132531   2.137   6.452   1.996
10544SOL    HW232532   2.126   6.612   2.027
10545SOL     OW32533   6.021   1.161   2.536
10545SOL    HW132534   6.063   1.108   2.609
10545SOL    HW232535   6.065   1.139   2.449
10546SOL     OW32536   2.018   0.838   0.064
10546SOL    HW132537   1.948   0.908   0.046
10546SOL    HW232538   1.979   0.747   0.049
10547SOL     OW32539   6.014   2.741   2.275
10547SOL    HW132540   5.954   2.746   2.195
10547SOL    HW232541   6.066   2.656   2.272
10548SOL     OW32542   5.392   4.534   4.562
10548SOL    HW132543   5.366   4.443   4.531
10548SOL    HW232544   5.331   4.564   4.635
10549SOL     OW32545   6.975   6.777   1.965
10549SOL    HW132546   6.878   6.803   1.969
10549SOL    HW232547   0.004   6.837   1.902
10550SOL     OW32548   4.151   6.040   4.245
10550SOL    HW132549   4.206   5.957   4.250
10550SOL    HW232550   4.156   6.089   4.331
10551SOL     OW32551   1.386   2.607   6.316
10551SOL    HW132552   1.439   2.524   6.302
10551SOL    HW232553   1.355   2.611   6.411
10552SOL     OW32554   3.368   1.491   6.581
10552SOL    HW132555   3.343   1.556   6.509
10552SOL    HW232556   3.314   1.408   6.570
10553SOL     OW32557   0.765   5.130   1.465
10553SOL    HW132558   0.763   5.230   1.460
10553SOL    HW232559   0.679   5.092   1.432
10554SOL     OW32560   5.428   5.113   0.084
10554SOL    HW132561   5.475   5.137   0.169
10554SOL    HW232562   5.417   5.014   0.080
10555SOL     OW32563   1.916   3.535   0.568
10555SOL    HW132564   1.930   3.436   0.560
10555SOL    HW232565   1.941   3.580   0.483
10556SOL     OW32566   2.443   2.045   5.364
10556SOL    HW132567   2.490   2.050   5.275
10556SOL    HW232568   2.510   2.023   5.435
10557SOL     OW32569   2.411   2.618   2.956
10557SOL    HW132570   2.369   2.680   2.891
10557SOL    HW232571   2.433   2.667   3.040
10558SOL     OW32572   3.981   0.997   3.825
10558SOL    HW132573   3.943   0.910   3.854
10558SOL    HW232574   3.908   1.065   3.815
10559SOL     OW32575   5.144   0.314   1.111
10559SOL    HW132576   5.235   0.354   1.122
10559SOL    HW232577   5.099   0.356   1.032
10560SOL     OW32578   3.853   6.071   3.377
10560SOL    HW132579   3.791   6.148   3.395
10560SOL    HW232580   3.889   6.037   3.464
10561SOL     OW32581   3.322   4.320   0.543
10561SOL    HW132582   3.411   4.361   0.525
10561SOL    HW232583   3.272   4.375   0.610
10562SOL     OW32584   4.683   5.754   0.412
10562SOL    HW132585   4.589   5.789   0.413
10562SOL    HW232586   4.726   5.776   0.324
10563SOL     OW32587   0.823   1.382   3.529
10563SOL    HW132588   0.781   1.305   3.577
10563SOL    HW232589   0.801   1.467   3.577
10564SOL     OW32590   5.576   6.358   1.730
10564SOL    HW132591   5.621   6.390   1.647
10564SOL    HW232592   5.639   6.297   1.779
10565SOL     OW32593   0.033   0.617   6.177
10565SOL    HW132594   0.123   0.657   6.160
10565SOL    HW232595   0.038   0.555   6.255
10566SOL     OW32596   3.878   2.561   0.073
10566SOL    HW132597   3.888   2.661   0.073
10566SOL    HW232598   3.902   2.525   0.163
10567SOL     OW32599   3.179   2.029   4.324
10567SOL    HW132600   3.086   2.056   4.299
10567SOL    HW232601   3.206   1.949   4.272
10568SOL     OW32602   6.180   2.231   1.494
10568SOL    HW132603   6.243   2.251   1.419
10568SOL    HW232604   6.119   2.310   1.507
10569SOL     OW32605   5.483   2.089   2.048
10569SOL    HW132606   5.572   2.043   2.051
10569SOL    HW232607   5.432   2.068   2.132
10570SOL     OW32608   1.802   4.823   3.268
10570SOL    HW132609   1.726   4.875   3.228
10570SOL    HW232610   1.776   4.726   3.274
10571SOL     OW32611   6.899   5.138   5.446
10571SOL    HW132612   6.940   5.060   5.398
10571SOL    HW232613   6.851   5.196   5.381
10572SOL     OW32614   7.006   3.718   3.735
10572SOL    HW132615   6.966   3.652   3.799
10572SOL    HW232616   6.942   3.794   3.721
10573SOL     OW32617   4.333   0.022   5.369
10573SOL    HW132618   4.421   6.994   5.369
10573SOL    HW232619   4.272   6.998   5.436
10574SOL     OW32620   1.414   1.197   3.766
10574SOL    HW132621   1.386   1.138   3.842
10574SOL    HW232622   1.509   1.178   3.742
10575SOL     OW32623   6.353   1.359   3.160
10575SOL    HW132624   6.294   1.320   3.231
10575SOL    HW232625   6.314   1.446   3.129
10576SOL     OW32626   0.196   5.990   5.057
10576SOL    HW132627   0.187   5.953   5.150
10576SOL    HW232628   0.254   6.072   5.061
10577SOL     OW32629   1.883   2.950   0.779
10577SOL    HW132630   1.806   2.972   0.718
10577SOL    HW232631   1.963   2.926   0.723
10578SOL     OW32632   5.456   1.070   2.769
10578SOL    HW132633   5.496   1.149   2.816
10578SOL    HW232634   5.528   1.013   2.730
10579SOL     OW32635   4.296   2.171   1.033
10579SOL    HW132636   4.278   2.256   1.082
10579SOL    HW232637   4.236   2.099   1.067
10580SOL     OW32638   6.893   0.539   0.260
10580SOL    HW132639   6.990   0.560   0.242
10580SOL    HW232640   6.841   0.548   0.175
10581SOL     OW32641   6.998   0.048   3.269
10581SOL    HW132642   6.929   7.014   3.220
10581SOL    HW232643   6.968   0.143   3.277
10582SOL     OW32644   5.183   5.012   6.854
10582SOL    HW132645   5.214   4.948   6.784
10582SOL    HW232646   5.244   5.092   6.855
10583SOL     OW32647   4.232   1.532   5.180
10583SOL    HW132648   4.291   1.455   5.203
10583SOL    HW232649   4.184   1.563   5.263
10584SOL     OW32650   6.807   6.464   1.162
10584SOL    HW132651   6.875   6.536   1.147
10584SOL    HW232652   6.828   6.416   1.247
10585SOL     OW32653   2.238   2.893   6.162
10585SOL    HW132654   2.171   2.868   6.232
10585SOL    HW232655   2.312   2.946   6.204
10586SOL     OW32656   0.040   4.543   4.833
10586SOL    HW132657   0.034   4.642   4.823
10586SOL    HW232658   0.022   4.500   4.744
10587SOL     OW32659   6.013   3.642   6.962
10587SOL    HW132660   6.072   3.695   0.003
10587SOL    HW232661   5.937   3.699   6.930
10588SOL     OW32662   0.180   3.828   3.274
10588SOL    HW132663   0.127   3.868   3.200
10588SOL    HW232664   0.134   3.745   3.308
10589SOL     OW32665   6.176   1.027   4.325
10589SOL    HW132666   6.136   1.039   4.235
10589SOL    HW232667   6.110   0.983   4.386
10590SOL     OW32668   1.303   0.084   1.756
10590SOL    HW132669   1.271   0.059   1.847
10590SOL    HW232670   1.278   0.179   1.737
10591SOL     OW32671   1.047   1.527   6.561
10591SOL    HW132672   1.009   1.618   6.543
10591SOL    HW232673   1.086   1.525   6.653
10592SOL     OW32674   5.736   3.385   1.595
10592SOL    HW132675   5.772   3.381   1.688
10592SOL    HW232676   5.797   3.440   1.538
10593SOL     OW32677   2.521   5.049   0.362
10593SOL    HW132678   2.493   5.059   0.266
10593SOL    HW232679   2.525   5.139   0.405
10594SOL     OW32680   4.982   7.013   2.338
10594SOL    HW132681   5.080   0.009   2.324
10594SOL    HW232682   4.958   6.921   2.306
10595SOL     OW32683   3.615   6.836   5.388
10595SOL    HW132684   3.657   6.745   5.383
10595SOL    HW232685   3.681   6.904   5.354
10596SOL     OW32686   4.380   0.684   0.070
10596SOL    HW132687   4.343   0.593   0.051
10596SOL    HW232688   4.305   0.751   0.069
10597SOL     OW32689   3.943   1.296   5.014
10597SOL    HW132690   4.003   1.217   5.026
10597SOL    HW232691   3.868   1.272   4.952
10598SOL     OW32692   2.974   2.437   0.223
10598SOL    HW132693   2.971   2.487   0.137
10598SOL    HW232694   3.023   2.350   0.209
10599SOL     OW32695   4.800   2.652   6.531
10599SOL    HW132696   4.879   2.687   6.581
10599SOL    HW232697   4.717   2.671   6.584
10600SOL     OW32698   2.276   2.371   0.544
10600SOL    HW132699   2.244   2.466   0.550
10600SOL    HW232700   2.294   2.336   0.636
10601SOL     OW32701   1.708   4.502   6.111
10601SOL    HW132702   1.792   4.449   6.104
10601SOL    HW232703   1.717   4.570   6.185
10602SOL     OW32704   4.116   1.578   3.236
10602SOL    HW132705   4.208   1.556   3.204
10602SOL    HW232706   4.050   1.519   3.190
10603SOL     OW32707   2.931   5.647   3.885
10603SOL    HW132708   2.937   5.557   3.928
10603SOL    HW232709   2.989   5.712   3.935
10604SOL     OW32710   5.958   4.417   5.493
10604SOL    HW132711   5.997   4.509   5.500
10604SOL    HW232712   5.882   4.419   5.429
10605SOL     OW32713   2.280   5.326   1.078
10605SOL    HW132714   2.197   5.382   1.075
10605SOL    HW232715   2.360   5.386   1.081
10606SOL     OW32716   0.069   0.430   2.131
10606SOL    HW132717   0.136   0.503   2.125
10606SOL    HW232718   0.103   0.357   2.190
10607SOL     OW32719   4.120   4.739   6.038
10607SOL    HW132720   4.108   4.825   5.988
10607SOL    HW232721   4.181   4.753   6.115
10608SOL     OW32722   5.143   2.109   5.366
10608SOL    HW132723   5.228   2.151   5.397
10608SOL    HW232724   5.162   2.045   5.291
10609SOL     OW32725   2.979   6.605   1.252
10609SOL    HW132726   2.979   6.662   1.334
10609SOL    HW232727   2.885   6.593   1.220
10610SOL     OW32728   1.337   2.854   5.678
10610SOL    HW132729   1.343   2.884   5.583
10610SOL    HW232730   1.300   2.927   5.734
10611SOL     OW32731   4.175   3.796   5.759
10611SOL    HW132732   4.236   3.752   5.694
10611SOL    HW232733   4.082   3.797   5.722
10612SOL     OW32734   2.835   0.852   5.408
10612SOL    HW132735   2.874   0.839   5.317
10612SOL    HW232736   2.784   0.770   5.435
10613SOL     OW32737   6.239   6.946   5.531
10613SOL    HW132738   6.234   0.009   5.473
10613SOL    HW232739   6.300   6.879   5.489
10614SOL     OW32740   6.220   2.063   4.315
10614SOL    HW132741   6.184   2.150   4.347
10614SOL    HW232742   6.274   2.020   4.387
10615SOL     OW32743   3.282   6.286   5.806
10615SOL    HW132744   3.337   6.326   5.879
10615SOL    HW232745   3.199   6.246   5.845
10616SOL     OW32746   2.491   6.483   0.712
10616SOL    HW132747   2.590   6.494   0.708
10616SOL    HW232748   2.464   6.397   0.670
10617SOL     OW32749   2.521   2.334   1.182
10617SOL    HW132750   2.550   2.289   1.267
10617SOL    HW232751   2.560   2.426   1.179
10618SOL     OW32752   0.042   3.848   6.448
10618SOL    HW132753   6.999   3.872   6.374
10618SOL    HW232754   7.017   3.782   6.508
10619SOL     OW32755   0.225   4.049   2.386
10619SOL    HW132756   0.296   4.002   2.333
10619SOL    HW232757   0.159   3.982   2.420
10620SOL     OW32758   1.500   5.337   5.354
10620SOL    HW132759   1.492   5.304   5.260
10620SOL    HW232760   1.468   5.432   5.358
10621SOL     OW32761   1.412   6.257   1.627
10621SOL    HW132762   1.512   6.254   1.630
10621SOL    HW232763   1.382   6.340   1.580
10622SOL     OW32764   4.924   0.797   1.114
10622SOL    HW132765   4.893   0.713   1.070
10622SOL    HW232766   4.901   0.795   1.211
10623SOL     OW32767   0.159   4.361   4.470
10623SOL    HW132768   0.167   4.453   4.432
10623SOL    HW232769   0.073   4.354   4.521
10624SOL     OW32770   0.524   1.777   4.976
10624SOL    HW132771   0.597   1.822   5.027
10624SOL    HW232772   0.541   1.787   4.878
10625SOL     OW32773   0.568   4.252   7.005
10625SOL    HW132774   0.478   4.242   0.030
10625SOL    HW232775   0.556   4.283   6.911
10626SOL     OW32776   2.562   3.147   0.756
10626SOL    HW132777   2.467   3.121   0.775
10626SOL    HW232778   2.622   3.069   0.775
10627SOL     OW32779   5.827   6.470   0.553
10627SOL    HW132780   5.882   6.495   0.474
10627SOL    HW232781   5.733   6.501   0.539
10628SOL     OW32782   4.590   5.423   0.025
10628SOL    HW132783   4.662   5.492   0.013
10628SOL    HW232784   4.501   5.470   0.033
10629SOL     OW32785   2.832   4.884   5.028
10629SOL    HW132786   2.815   4.787   5.013
10629SOL    HW232787   2.779   4.915   5.107
10630SOL     OW32788   6.638   1.558   4.024
10630SOL    HW132789   6.577   1.489   3.986
10630SOL    HW232790   6.657   1.537   4.119
10631SOL     OW32791   2.553   5.520   4.719
10631SOL    HW132792   2.489   5.460   4.672
10631SOL    HW232793   2.502   5.587   4.773
10632SOL     OW32794   5.976   1.953   3.945
10632SOL    HW132795   6.071   1.971   3.968
10632SOL    HW232796   5.972   1.890   3.867
10633SOL     OW32797   2.853   3.575   1.649
10633SOL    HW132798   2.865   3.533   1.739
10633SOL    HW232799   2.756   3.579   1.627
10634SOL     OW32800   2.884   5.273   1.020
10634SOL    HW132801   2.921   5.347   1.076
10634SOL    HW232802   2.784   5.270   1.029
10635SOL     OW32803   3.476   1.539   1.252
10635SOL    HW132804   3.537   1.612   1.222
10635SOL    HW232805   3.443   1.488   1.173
10636SOL     OW32806   0.848   1.109   1.497
10636SOL    HW132807   0.816   1.188   1.445
10636SOL    HW232808   0.940   1.127   1.532
10637SOL     OW32809   2.657   4.590   5.674
10637SOL    HW132810   2.747   4.627   5.651
10637SOL    HW232811   2.662   4.544   5.763
10638SOL     OW32812   6.960   5.376   2.975
10638SOL    HW132813   6.877   5.336   3.015
10638SOL    HW232814   6.942   5.402   2.880
10639SOL     OW32815   1.029   3.477   2.662
10639SOL    HW132816   0.941   3.525   2.659
10639SOL    HW232817   1.038   3.419   2.581
10640SOL     OW32818   3.427   0.314   5.675
10640SOL    HW132819   3.388   0.256   5.603
10640SOL    HW232820   3.486   0.259   5.733
10641SOL     OW32821   3.714   2.114   0.223
10641SOL    HW132822   3.747   2.064   0.143
10641SOL    HW232823   3.698   2.209   0.198
10642SOL     OW32824   6.610   3.028   1.789
10642SOL    HW132825   6.678   3.087   1.745
10642SOL    HW232826   6.563   3.078   1.861
10643SOL     OW32827   2.326   5.193   5.414
10643SOL    HW132828   2.390   5.147   5.476
10643SOL    HW232829   2.326   5.291   5.434
10644SOL     OW32830   5.457   2.506   3.272
10644SOL    HW132831   5.552   2.484   3.297
10644SOL    HW232832   5.450   2.603   3.248
10645SOL     OW32833   1.035   1.493   5.172
10645SOL    HW132834   0.949   1.544   5.178
10645SOL    HW232835   1.016   1.396   5.162
10646SOL     OW32836   0.182   1.242   6.269
10646SOL    HW132837   0.098   1.207   6.312
10646SOL    HW232838   0.174   1.341   6.258
10647SOL     OW32839   3.309   5.308   6.751
10647SOL    HW132840   3.332   5.215   6.721
10647SOL    HW232841   3.338   5.374   6.682
10648SOL     OW32842   5.211   4.090   5.981
10648SOL    HW132843   5.308   4.111   5.969
10648SOL    HW232844   5.158   4.174   5.980
10649SOL     OW32845   0.529   4.096   3.411
10649SOL    HW132846   0.548   4.136   3.501
10649SOL    HW232847   0.494   4.167   3.350
10650SOL     OW32848   1.201   6.105   3.278
10650SOL    HW132849   1.109   6.143   3.270
10650SOL    HW232850   1.204   6.040   3.354
10651SOL     OW32851   4.820   6.914   6.082
10651SOL    HW132852   4.770   6.862   6.012
10651SOL    HW232853   4.914   6.880   6.088
10652SOL     OW32854   3.775   6.897   6.232
10652SOL    HW132855   3.818   6.983   6.205
10652SOL    HW232856   3.838   6.845   6.289
10653SOL     OW32857   5.504   3.520   4.308
10653SOL    HW132858   5.418   3.572   4.301
10653SOL    HW232859   5.581   3.581   4.287
10654SOL     OW32860   4.115   1.393   0.869
10654SOL    HW132861   4.038   1.341   0.905
10654SOL    HW232862   4.085   1.487   0.850
10655SOL     OW32863   2.737   5.482   1.454
10655SOL    HW132864   2.795   5.473   1.373
10655SOL    HW232865   2.776   5.551   1.515
10656SOL     OW32866   6.727   2.403   1.523
10656SOL    HW132867   6.689   2.442   1.607
10656SOL    HW232868   6.761   2.477   1.465
10657SOL     OW32869   6.732   0.687   6.354
10657SOL    HW132870   6.634   0.697   6.336
10657SOL    HW232871   6.775   0.641   6.276
10658SOL     OW32872   6.206   3.754   4.877
10658SOL    HW132873   6.253   3.703   4.948
10658SOL    HW232874   6.117   3.784   4.911
10659SOL     OW32875   0.226   6.140   0.966
10659SOL    HW132876   0.173   6.138   1.051
10659SOL    HW232877   0.165   6.157   0.889
10660SOL     OW32878   5.486   4.050   6.789
10660SOL    HW132879   5.530   3.996   6.718
10660SOL    HW232880   5.500   4.007   6.878
10661SOL     OW32881   0.128   6.339   2.818
10661SOL    HW132882   0.219   6.358   2.853
10661SOL    HW232883   0.131   6.263   2.753
10662SOL     OW32884   5.706   0.597   2.294
10662SOL    HW132885   5.731   0.520   2.352
10662SOL    HW232886   5.646   0.659   2.344
10663SOL     OW32887   0.578   0.646   1.858
10663SOL    HW132888   0.630   0.670   1.776
10663SOL    HW232889   0.606   0.704   1.934
10664SOL     OW32890   1.598   4.950   4.807
10664SOL    HW132891   1.571   5.041   4.775
10664SOL    HW232892   1.529   4.884   4.780
10665SOL     OW32893   0.478   0.990   0.920
10665SOL    HW132894   0.393   1.022   0.878
10665SOL    HW232895   0.483   0.890   0.915
10666SOL     OW32896   3.125   4.205   0.385
10666SOL    HW132897   3.196   4.240   0.445
10666SOL    HW232898   3.053   4.161   0.440
10667SOL     OW32899   4.090   3.151   5.282
10667SOL    HW132900   4.165   3.112   5.335
10667SOL    HW232901   4.028   3.079   5.253
10668SOL     OW32902   1.482   1.938   5.307
10668SOL    HW132903   1.567   1.884   5.309
10668SOL    HW232904   1.502   2.029   5.271
10669SOL     OW32905   6.087   6.648   1.016
10669SOL    HW132906   6.050   6.710   1.085
10669SOL    HW232907   6.131   6.570   1.061
10670SOL     OW32908   4.861   3.843   5.148
10670SOL    HW132909   4.891   3.852   5.053
10670SOL    HW232910   4.824   3.751   5.162
10671SOL     OW32911   2.549   1.974   2.709
10671SOL    HW132912   2.563   1.990   2.807
10671SOL    HW232913   2.454   1.950   2.692
10672SOL     OW32914   6.649   2.459   0.669
10672SOL    HW132915   6.731   2.515   0.663
10672SOL    HW232916   6.676   2.363   0.678
10673SOL     OW32917   1.274   1.392   0.035
10673SOL    HW132918   1.202   1.350   0.089
10673SOL    HW232919   1.335   1.444   0.096
10674SOL     OW32920   3.097   4.299   1.008
10674SOL    HW132921   3.071   4.395   0.997
10674SOL    HW232922   3.090   4.253   0.920
10675SOL     OW32923   1.848   0.674   5.688
10675SOL    HW132924   1.759   0.631   5.707
10675SOL    HW232925   1.899   0.617   5.623
10676SOL     OW32926   6.196   6.481   6.045
10676SOL    HW132927   6.280   6.520   6.007
10676SOL    HW232928   6.172   6.399   5.994
10677SOL     OW32929   0.840   0.450   1.711
10677SOL    HW132930   0.906   0.507   1.662
10677SOL    HW232931   0.883   0.409   1.791
10678SOL     OW32932   3.602   5.430   2.004
10678SOL    HW132933   3.693   5.428   2.045
10678SOL    HW232934   3.563   5.522   2.013
10679SOL     OW32935   5.268   4.680   5.658
10679SOL    HW132936   5.324   4.722   5.586
10679SOL    HW232937   5.277   4.581   5.653
10680SOL     OW32938   2.523   1.767   3.987
10680SOL    HW132939   2.468   1.689   4.015
10680SOL    HW232940   2.614   1.735   3.958
10681SOL     OW32941   0.293   3.929   0.148
10681SOL    HW132942   0.392   3.938   0.139
10681SOL    HW232943   0.252   3.919   0.057
10682SOL     OW32944   2.180   2.413   3.351
10682SOL    HW132945   2.221   2.375   3.268
10682SOL    HW232946   2.233   2.382   3.431
10683SOL     OW32947   3.733   1.883   3.711
10683SOL    HW132948   3.808   1.915   3.653
10683SOL    HW232949   3.693   1.960   3.760
10684SOL     OW32950   4.823   3.535   0.870
10684SOL    HW132951   4.777   3.617   0.904
10684SOL    HW232952   4.863   3.554   0.780
10685SOL     OW32953   6.256   4.373   2.242
10685SOL    HW132954   6.321   4.431   2.193
10685SOL    HW232955   6.295   4.282   2.254
10686SOL     OW32956   3.429   5.079   6.663
10686SOL    HW132957   3.462   5.103   6.572
10686SOL    HW232958   3.498   5.104   6.731
10687SOL     OW32959   0.152   5.260   2.018
10687SOL    HW132960   0.089   5.212   1.958
10687SOL    HW232961   0.196   5.335   1.968
10688SOL     OW32962   6.859   4.721   2.954
10688SOL    HW132963   6.820   4.722   3.046
10688SOL    HW232964   6.875   4.815   2.924
10689SOL     OW32965   0.565   0.095   3.901
10689SOL    HW132966   0.658   0.058   3.905
10689SOL    HW232967   0.555   0.169   3.967
10690SOL     OW32968   6.186   5.206   4.045
10690SOL    HW132969   6.173   5.298   4.009
10690SOL    HW232970   6.166   5.205   4.143
10691SOL     OW32971   0.215   1.301   2.483
10691SOL    HW132972   0.166   1.269   2.563
10691SOL    HW232973   0.150   1.324   2.410
10692SOL     OW32974   3.711   4.882   3.264
10692SOL    HW132975   3.623   4.923   3.288
10692SOL    HW232976   3.729   4.895   3.166
10693SOL     OW32977   1.799   0.389   1.806
10693SOL    HW132978   1.753   0.401   1.893
10693SOL    HW232979   1.886   0.342   1.820
10694SOL     OW32980   3.826   6.090   1.677
10694SOL    HW132981   3.745   6.109   1.622
10694SOL    HW232982   3.863   6.176   1.713
10695SOL     OW32983   5.728   2.389   2.443
10695SOL    HW132984   5.752   2.405   2.539
10695SOL    HW232985   5.710   2.477   2.399
10696SOL     OW32986   6.734   4.831   2.348
10696SOL    HW132987   6.800   4.815   2.422
10696SOL    HW232988   6.642   4.837   2.386
10697SOL     OW32989   0.149   6.230   4.100
10697SOL    HW132990   0.164   6.179   4.184
10697SOL    HW232991   0.079   6.300   4.114
10698SOL     OW32992   3.917   6.612   3.887
10698SOL    HW132993   3.833   6.595   3.836
10698SOL    HW232994   3.965   6.526   3.903
10699SOL     OW32995   4.547   1.922   2.635
10699SOL    HW132996   4.624   1.984   2.616
10699SOL    HW232997   4.571   1.862   2.711
10700SOL     OW32998   1.261   0.058   0.367
10700SOL    HW132999   1.271   0.149   0.406
10700SOL    HW233000   1.334   0.042   0.300
10701SOL     OW33001   3.609   6.078   0.124
10701SOL    HW133002   3.576   6.016   0.195
10701SOL    HW233003   3.614   6.171   0.160
10702SOL     OW33004   6.611   2.624   2.932
10702SOL    HW133005   6.678   2.550   2.940
10702SOL    HW233006   6.560   2.632   3.018
10703SOL     OW33007   4.019   3.085   4.086
10703SOL    HW133008   4.103   3.139   4.077
10703SOL    HW233009   4.003   3.064   4.182
10704SOL     OW33010   5.615   5.700   1.656
10704SOL    HW133011   5.655   5.788   1.633
10704SOL    HW233012   5.533   5.713   1.713
10705SOL     OW33013   0.048   3.914   1.224
10705SOL    HW133014   0.059   3.980   1.299
10705SOL    HW233015   6.988   3.855   1.244
10706SOL     OW33016   4.706   6.502   2.019
10706SOL    HW133017   4.745   6.444   1.947
10706SOL    HW233018   4.611   6.476   2.035
10707SOL     OW33019   0.539   0.509   4.820
10707SOL    HW133020   0.482   0.544   4.895
10707SOL    HW233021   0.549   0.410   4.829
10708SOL     OW33022   4.680   0.703   2.412
10708SOL    HW133023   4.677   0.791   2.460
10708SOL    HW233024   4.774   0.671   2.406
10709SOL     OW33025   6.665   1.176   5.162
10709SOL    HW133026   6.683   1.228   5.079
10709SOL    HW233027   6.728   1.098   5.166
10710SOL     OW33028   0.953   6.501   4.870
10710SOL    HW133029   0.956   6.593   4.832
10710SOL    HW233030   1.037   6.452   4.844
10711SOL     OW33031   2.318   0.184   3.792
10711SOL    HW133032   2.280   0.155   3.880
10711SOL    HW233033   2.330   0.103   3.733
10712SOL     OW33034   3.696   0.492   2.726
10712SOL    HW133035   3.683   0.422   2.656
10712SOL    HW233036   3.622   0.487   2.793
10713SOL     OW33037   1.609   4.478   2.196
10713SOL    HW133038   1.569   4.563   2.231
10713SOL    HW233039   1.547   4.437   2.129
10714SOL     OW33040   6.647   2.553   5.152
10714SOL    HW133041   6.632   2.525   5.057
10714SOL    HW233042   6.670   2.650   5.155
10715SOL     OW33043   4.306   0.899   2.699
10715SOL    HW133044   4.390   0.900   2.645
10715SOL    HW233045   4.295   0.810   2.743
10716SOL     OW33046   0.154   2.858   3.333
10716SOL    HW133047   0.089   2.828   3.264
10716SOL    HW233048   0.231   2.904   3.289
10717SOL     OW33049   0.905   2.493   0.961
10717SOL    HW133050   0.906   2.396   0.983
10717SOL    HW233051   0.976   2.540   1.014
10718SOL     OW33052   6.384   4.974   0.230
10718SOL    HW133053   6.344   4.975   0.138
10718SOL    HW233054   6.478   5.008   0.226
10719SOL     OW33055   4.397   5.781   1.624
10719SOL    HW133056   4.387   5.682   1.626
10719SOL    HW233057   4.319   5.822   1.576
10720SOL     OW33058   0.036   4.311   6.351
10720SOL    HW133059   7.011   4.401   6.352
10720SOL    HW233060   0.060   4.284   6.444
10721SOL     OW33061   6.536   2.241   4.398
10721SOL    HW133062   6.552   2.340   4.402
10721SOL    HW233063   6.444   2.221   4.431
10722SOL     OW33064   6.913   3.163   0.730
10722SOL    HW133065   6.939   3.253   0.695
10722SOL    HW233066   6.956   3.092   0.674
10723SOL     OW33067   5.827   3.813   6.715
10723SOL    HW133068   5.768   3.862   6.651
10723SOL    HW233069   5.896   3.875   6.751
10724SOL     OW33070   3.261   0.320   5.930
10724SOL    HW133071   3.337   0.385   5.938
10724SOL    HW233072   3.275   0.263   5.848
10725SOL     OW33073   0.061   4.705   4.173
10725SOL    HW133074   6.982   4.722   4.170
10725SOL    HW233075   0.110   4.792   4.168
10726SOL     OW33076   5.869   6.804   5.228
10726SOL    HW133077   5.811   6.725   5.244
10726SOL    HW233078   5.843   6.878   5.289
10727SOL     OW33079   1.801   5.033   5.207
10727SOL    HW133080   1.870   4.994   5.146
10727SOL    HW233081   1.757   4.959   5.259
10728SOL     OW33082   6.279   6.369   2.398
10728SOL    HW133083   6.270   6.403   2.492
10728SOL    HW233084   6.209   6.300   2.381
10729SOL     OW33085   6.306   1.724   2.879
10729SOL    HW133086   6.365   1.787   2.829
10729SOL    HW233087   6.331   1.630   2.857
10730SOL     OW33088   2.690   6.344   1.472
10730SOL    HW133089   2.692   6.276   1.546
10730SOL    HW233090   2.775   6.340   1.420
10731SOL     OW33091   2.528   5.501   6.967
10731SOL    HW133092   2.527   5.499   6.867
10731SOL    HW233093   2.610   5.453   7.000
10732SOL     OW33094   6.387   0.403   2.575
10732SOL    HW133095   6.431   0.440   2.493
10732SOL    HW233096   6.355   0.477   2.633
10733SOL     OW33097   5.710   2.397   0.264
10733SOL    HW133098   5.658   2.356   0.188
10733SOL    HW233099   5.808   2.389   0.245
10734SOL     OW33100   1.189   0.925   6.969
10734SOL    HW133101   1.155   0.898   6.879
10734SOL    HW233102   1.113   0.958   0.006
10735SOL     OW33103   1.319   4.817   2.131
10735SOL    HW133104   1.373   4.845   2.051
10735SOL    HW233105   1.379   4.803   2.209
10736SOL     OW33106   0.784   0.926   3.380
10736SOL    HW133107   0.844   1.004   3.398
10736SOL    HW233108   0.833   0.859   3.324
10737SOL     OW33109   0.591   2.731   0.798
10737SOL    HW133110   0.548   2.671   0.866
10737SOL    HW233111   0.681   2.694   0.774
10738SOL     OW33112   2.506   0.055   2.676
10738SOL    HW133113   2.600   0.037   2.650
10738SOL    HW233114   2.477   7.008   2.745
10739SOL     OW33115   6.932   1.347   2.927
10739SOL    HW133116   6.898   1.282   2.995
10739SOL    HW233117   0.008   1.371   2.948
10740SOL     OW33118   1.412   5.764   5.659
10740SOL    HW133119   1.382   5.819   5.737
10740SOL    HW233120   1.507   5.737   5.671
10741SOL     OW33121   1.077   1.536   3.282
10741SOL    HW133122   1.116   1.583   3.203
10741SOL    HW233123   1.078   1.598   3.361
10742SOL     OW33124   6.075   6.793   2.115
10742SOL    HW133125   6.052   6.890   2.119
10742SOL    HW233126   6.171   6.780   2.140
10743SOL     OW33127   2.562   2.438   3.710
10743SOL    HW133128   2.622   2.502   3.758
10743SOL    HW233129   2.572   2.453   3.611
10744SOL     OW33130   3.222   1.585   2.356
10744SOL    HW133131   3.216   1.489   2.331
10744SOL    HW233132   3.311   1.604   2.396
10745SOL     OW33133   1.758   4.433   0.016
10745SOL    HW133134   1.848   4.389   0.018
10745SOL    HW233135   1.729   4.445   6.940
10746SOL     OW33136   1.819   5.648   1.403
10746SOL    HW133137   1.807   5.672   1.307
10746SOL    HW233138   1.743   5.684   1.456
10747SOL     OW33139   5.281   1.394   3.068
10747SOL    HW133140   5.363   1.451   3.076
10747SOL    HW233141   5.252   1.366   3.160
10748SOL     OW33142   5.852   5.935   0.910
10748SOL    HW133143   5.805   5.864   0.859
10748SOL    HW233144   5.890   5.896   0.994
10749SOL     OW33145   0.240   5.084   2.962
10749SOL    HW133146   0.190   5.103   2.878
10749SOL    HW233147   0.260   4.987   2.969
10750SOL     OW33148   4.674   4.433   4.561
10750SOL    HW133149   4.751   4.428   4.625
10750SOL    HW233150   4.590   4.450   4.613
10751SOL     OW33151   1.045   3.328   5.057
10751SOL    HW133152   1.089   3.247   5.097
10751SOL    HW233153   0.979   3.365   5.123
10752SOL     OW33154   6.365   4.087   6.501
10752SOL    HW133155   6.281   4.067   6.551
10752SOL    HW233156   6.354   4.172   6.450
10753SOL     OW33157   6.389   7.016   3.746
10753SOL    HW133158   6.425   0.038   3.830
10753SOL    HW233159   6.383   0.067   3.675
10754SOL     OW33160   1.680   2.454   2.378
10754SOL    HW133161   1.623   2.381   2.415
10754SOL    HW233162   1.755   2.415   2.325
10755SOL     OW33163   0.015   1.799   0.718
10755SOL    HW133164   6.994   1.712   0.688
10755SOL    HW233165   0.051   1.788   0.810
10756SOL     OW33166   6.199   3.179   0.794
10756SOL    HW133167   6.272   3.248   0.796
10756SOL    HW233168   6.176   3.153   0.887
10757SOL     OW33169   0.172   3.459   0.449
10757SOL    HW133170   0.219   3.417   0.371
10757SOL    HW233171   0.106   3.527   0.417
10758SOL     OW33172   0.609   5.804   5.514
10758SOL    HW133173   0.539   5.856   5.564
10758SOL    HW233174   0.594   5.706   5.529
10759SOL     OW33175   2.026   2.957   6.883
10759SOL    HW133176   1.965   2.928   6.957
10759SOL    HW233177   2.048   2.878   6.826
10760SOL     OW33178   0.338   6.371   1.215
10760SOL    HW133179   0.431   6.408   1.216
10760SOL    HW233180   0.287   6.407   1.293
10761SOL     OW33181   0.872   2.687   6.428
10761SOL    HW133182   0.840   2.628   6.355
10761SOL    HW233183   0.869   2.638   6.515
10762SOL     OW33184   4.713   0.701   5.052
10762SOL    HW133185   4.739   0.778   5.110
10762SOL    HW233186   4.639   0.649   5.096
10763SOL     OW33187   4.090   0.240   1.193
10763SOL    HW133188   4.020   0.257   1.125
10763SOL    HW233189   4.121   0.145   1.187
10764SOL     OW33190   5.045   1.744   6.321
10764SOL    HW133191   4.990   1.747   6.405
10764SOL    HW233192   4.991   1.778   6.244
10765SOL     OW33193   5.813   1.635   1.675
10765SOL    HW133194   5.789   1.640   1.578
10765SOL    HW233195   5.756   1.699   1.727
10766SOL     OW33196   2.794   3.430   0.522
10766SOL    HW133197   2.801   3.527   0.503
10766SOL    HW233198   2.849   3.407   0.603
10767SOL     OW33199   1.362   0.141   0.706
10767SOL    HW133200   1.291   0.071   0.714
10767SOL    HW233201   1.340   0.203   0.631
10768SOL     OW33202   5.474   5.802   0.277
10768SOL    HW133203   5.401   5.735   0.284
10768SOL    HW233204   5.455   5.864   0.201
10769SOL     OW33205   3.096   5.084   5.572
10769SOL    HW133206   3.020   5.044   5.520
10769SOL    HW233207   3.136   5.159   5.520
10770SOL     OW33208   5.422   0.212   5.059
10770SOL    HW133209   5.340   0.258   5.093
10770SOL    HW233210   5.502   0.244   5.110
10771SOL     OW33211   4.551   0.240   5.396
10771SOL    HW133212   4.476   0.175   5.388
10771SOL    HW233213   4.558   0.271   5.491
10772SOL     OW33214   6.916   0.318   3.295
10772SOL    HW133215   6.903   0.333   3.393
10772SOL    HW233216   6.827   0.305   3.251
10773SOL     OW33217   6.388   4.957   6.979
10773SOL    HW133218   6.469   5.003   6.941
10773SOL    HW233219   6.306   4.995   6.937
10774SOL     OW33220   1.124   2.540   1.104
10774SOL    HW133221   1.182   2.612   1.143
10774SOL    HW233222   1.178   2.485   1.040
10775SOL     OW33223   2.283   4.444   0.668
10775SOL    HW133224   2.271   4.532   0.621
10775SOL    HW233225   2.245   4.371   0.611
10776SOL     OW33226   0.630   6.534   1.465
10776SOL    HW133227   0.564   6.608   1.451
10776SOL    HW233228   0.672   6.510   1.378
10777SOL     OW33229   4.060   0.133   3.191
10777SOL    HW133230   4.028   0.039   3.206
10777SOL    HW233231   4.001   0.178   3.124
10778SOL     OW33232   6.518   6.704   4.413
10778SOL    HW133233   6.442   6.649   4.381
10778SOL    HW233234   6.546   6.768   4.341
10779SOL     OW33235   0.127   4.853   2.599
10779SOL    HW133236   0.116   4.852   2.500
10779SOL    HW233237   0.197   4.786   2.626
10780SOL     OW33238   0.351   5.710   3.496
10780SOL    HW133239   0.451   5.706   3.497
10780SOL    HW233240   0.321   5.804   3.516
10781SOL     OW33241   4.691   1.779   4.356
10781SOL    HW133242   4.635   1.794   4.437
10781SOL    HW233243   4.752   1.702   4.371
10782SOL     OW33244   6.532   2.501   3.416
10782SOL    HW133245   6.618   2.481   3.463
10782SOL    HW233246   6.485   2.576   3.462
10783SOL     OW33247   1.773   3.167   2.719
10783SOL    HW133248   1.675   3.184   2.710
10783SOL    HW233249   1.815   3.164   2.629
10784SOL     OW33250   2.360   6.858   0.913
10784SOL    HW133251   2.366   6.957   0.924
10784SOL    HW233252   2.266   6.828   0.927
10785SOL     OW33253   1.911   4.919   1.450
10785SOL    HW133254   1.998   4.922   1.498
10785SOL    HW233255   1.924   4.876   1.360
10786SOL     OW33256   5.394   2.836   1.930
10786SOL    HW133257   5.471   2.838   1.867
10786SOL    HW233258   5.331   2.762   1.905
10787SOL     OW33259   3.705   1.353   4.800
10787SOL    HW133260   3.751   1.315   4.720
10787SOL    HW233261   3.646   1.429   4.772
10788SOL     OW33262   2.478   4.128   0.223
10788SOL    HW133263   2.560   4.106   0.170
10788SOL    HW233264   2.477   4.226   0.243
10789SOL     OW33265   5.515   1.096   0.732
10789SOL    HW133266   5.533   1.158   0.808
10789SOL    HW233267   5.521   1.001   0.764
10790SOL     OW33268   0.744   0.644   5.356
10790SOL    HW133269   0.671   0.591   5.399
10790SOL    HW233270   0.729   0.649   5.258
10791SOL     OW33271   1.447   1.833   1.838
10791SOL    HW133272   1.473   1.774   1.914
10791SOL    HW233273   1.523   1.841   1.774
10792SOL     OW33274   3.439   3.109   1.621
10792SOL    HW133275   3.516   3.114   1.685
10792SOL    HW233276   3.471   3.077   1.532
10793SOL     OW33277   5.577   2.332   3.905
10793SOL    HW133278   5.623   2.414   3.872
10793SOL    HW233279   5.630   2.291   3.978
10794SOL     OW33280   3.668   4.024   1.720
10794SOL    HW133281   3.602   4.085   1.764
10794SOL    HW233282   3.760   4.047   1.750
10795SOL     OW33283   6.539   4.224   3.017
10795SOL    HW133284   6.570   4.286   2.944
10795SOL    HW233285   6.452   4.183   2.991
10796SOL     OW33286   3.580   6.898   6.434
10796SOL    HW133287   3.633   6.848   6.503
10796SOL    HW233288   3.632   6.901   6.349
10797SOL     OW33289   3.878   2.495   0.588
10797SOL    HW133290   3.814   2.440   0.534
10797SOL    HW233291   3.874   2.467   0.684
10798SOL     OW33292   2.151   0.214   0.422
10798SOL    HW133293   2.106   0.227   0.511
10798SOL    HW233294   2.225   0.148   0.432
10799SOL     OW33295   3.691   1.974   2.131
10799SOL    HW133296   3.662   1.999   2.223
10799SOL    HW233297   3.690   2.055   2.072
10800SOL     OW33298   1.928   5.727   0.305
10800SOL    HW133299   1.898   5.797   0.370
10800SOL    HW233300   1.857   5.657   0.297
10801SOL     OW33301   1.187   0.695   3.877
10801SOL    HW133302   1.115   0.763   3.866
10801SOL    HW233303   1.246   0.696   3.796
10802SOL     OW33304   2.397   2.697   4.847
10802SOL    HW133305   2.424   2.792   4.864
10802SOL    HW233306   2.397   2.679   4.749
10803SOL     OW33307   5.111   4.553   4.723
10803SOL    HW133308   5.044   4.479   4.710
10803SOL    HW233309   5.076   4.618   4.791
10804SOL     OW33310   6.950   4.767   0.904
10804SOL    HW133311   6.940   4.669   0.922
10804SOL    HW233312   6.973   4.782   0.808
10805SOL     OW33313   3.319   0.614   6.687
10805SOL    HW133314   3.352   0.621   6.781
10805SOL    HW233315   3.265   0.530   6.677
10806SOL     OW33316   5.776   3.936   0.071
10806SOL    HW133317   5.809   3.849   0.108
10806SOL    HW233318   5.682   3.926   0.039
10807SOL     OW33319   3.645   0.016   3.236
10807SOL    HW133320   3.712   0.042   3.166
10807SOL    HW233321   3.684   0.031   3.326
10808SOL     OW33322   6.565   3.904   0.190
10808SOL    HW133323   6.619   3.939   0.113
10808SOL    HW233324   6.626   3.858   0.254
10809SOL     OW33325   2.872   0.551   4.084
10809SOL    HW133326   2.961   0.517   4.055
10809SOL    HW233327   2.874   0.651   4.089
10810SOL     OW33328   1.009   1.742   6.200
10810SOL    HW133329   0.923   1.735   6.150
10810SOL    HW233330   0.990   1.746   6.298
10811SOL     OW33331   3.878   5.199   5.239
10811SOL    HW133332   3.840   5.116   5.278
10811SOL    HW233333   3.873   5.274   5.306
10812SOL     OW33334   0.425   3.821   1.917
10812SOL    HW133335   0.366   3.763   1.973
10812SOL    HW233336   0.405   3.806   1.820
10813SOL     OW33337   2.762   6.557   0.676
10813SOL    HW133338   2.798   6.485   0.734
10813SOL    HW233339   2.798   6.546   0.583
10814SOL     OW33340   1.073   0.731   5.324
10814SOL    HW133341   1.142   0.701   5.390
10814SOL    HW233342   1.032   0.817   5.356
10815SOL     OW33343   4.949   4.986   3.435
10815SOL    HW133344   4.978   4.915   3.372
10815SOL    HW233345   4.862   5.025   3.404
10816SOL     OW33346   1.934   1.552   2.478
10816SOL    HW133347   1.998   1.584   2.408
10816SOL    HW233348   1.920   1.624   2.546
10817SOL     OW33349   5.723   6.608   2.846
10817SOL    HW133350   5.791   6.679   2.830
10817SOL    HW233351   5.651   6.644   2.906
10818SOL     OW33352   5.762   2.319   5.399
10818SOL    HW133353   5.832   2.266   5.351
10818SOL    HW233354   5.771   2.416   5.375
10819SOL     OW33355   0.648   3.991   6.748
10819SOL    HW133356   0.568   3.962   6.697
10819SOL    HW233357   0.686   4.074   6.706
10820SOL     OW33358   6.894   6.856   4.277
10820SOL    HW133359   6.922   6.760   4.282
10820SOL    HW233360   6.975   6.914   4.267
10821SOL     OW33361   6.040   6.569   2.829
10821SOL    HW133362   6.076   6.645   2.884
10821SOL    HW233363   5.999   6.606   2.745
10822SOL     OW33364   1.606   2.628   2.684
10822SOL    HW133365   1.533   2.688   2.652
10822SOL    HW233366   1.683   2.632   2.620
10823SOL     OW33367   1.832   5.268   1.475
10823SOL    HW133368   1.778   5.184   1.487
10823SOL    HW233369   1.929   5.246   1.478
10824SOL     OW33370   5.096   6.830   3.537
10824SOL    HW133371   5.044   6.802   3.618
10824SOL    HW233372   5.032   6.847   3.462
10825SOL     OW33373   2.749   0.505   0.964
10825SOL    HW133374   2.819   0.523   1.034
10825SOL    HW233375   2.786   0.441   0.897
10826SOL     OW33376   6.767   3.436   3.020
10826SOL    HW133377   6.679   3.484   3.017
10826SOL    HW233378   6.768   3.373   3.097
10827SOL     OW33379   6.010   3.637   3.743
10827SOL    HW133380   6.007   3.541   3.773
10827SOL    HW233381   5.924   3.682   3.767
10828SOL     OW33382   1.401   5.873   2.159
10828SOL    HW133383   1.309   5.877   2.200
10828SOL    HW233384   1.468   5.902   2.227
10829SOL     OW33385   3.029   3.562   0.987
10829SOL    HW133386   3.089   3.510   1.048
10829SOL    HW233387   3.009   3.651   1.027
10830SOL     OW33388   5.226   2.101   3.299
10830SOL    HW133389   5.293   2.032   3.330
10830SOL    HW233390   5.247   2.188   3.343
10831SOL     OW33391   4.936   6.795   1.752
10831SOL    HW133392   5.018   6.760   1.708
10831SOL    HW233393   4.857   6.777   1.693
10832SOL     OW33394   0.050   2.495   1.090
10832SOL    HW133395   0.047   2.410   1.143
10832SOL    HW233396   0.112   2.484   1.013
10833SOL     OW33397   1.231   0.536   3.572
10833SOL    HW133398   1.161   0.608   3.567
10833SOL    HW233399   1.311   0.564   3.518
10834SOL     OW33400   1.314   1.571   6.077
10834SOL    HW133401   1.287   1.667   6.085
10834SOL    HW233402   1.382   1.550   6.148
10835SOL     OW33403   5.321   1.522   0.783
10835SOL    HW133404   5.332   1.607   0.732
10835SOL    HW233405   5.382   1.523   0.863
10836SOL     OW33406   0.196   1.522   5.671
10836SOL    HW133407   0.143   1.448   5.712
10836SOL    HW233408   0.137   1.574   5.609
10837SOL     OW33409   0.247   4.508   0.077
10837SOL    HW133410   0.319   4.472   0.018
10837SOL    HW233411   0.233   4.605   0.055
10838SOL     OW33412   5.686   0.154   4.353
10838SOL    HW133413   5.690   0.123   4.448
10838SOL    HW233414   5.773   0.134   4.308
10839SOL     OW33415   2.880   2.557   0.613
10839SOL    HW133416   2.809   2.589   0.550
10839SOL    HW233417   2.955   2.623   0.616
10840SOL     OW33418   3.635   5.889   1.291
10840SOL    HW133419   3.686   5.896   1.205
10840SOL    HW233420   3.621   5.793   1.313
10841SOL     OW33421   3.036   5.843   5.982
10841SOL    HW133422   2.974   5.780   5.935
10841SOL    HW233423   3.091   5.792   6.049
10842SOL     OW33424   6.094   3.732   1.032
10842SOL    HW133425   6.034   3.809   1.053
10842SOL    HW233426   6.183   3.766   1.004
10843SOL     OW33427   0.451   1.474   1.935
10843SOL    HW133428   0.410   1.506   1.850
10843SOL    HW233429   0.551   1.470   1.925
10844SOL     OW33430   0.611   6.505   4.400
10844SOL    HW133431   0.613   6.587   4.343
10844SOL    HW233432   0.645   6.527   4.491
10845SOL     OW33433   1.968   0.856   1.426
10845SOL    HW133434   1.937   0.795   1.499
10845SOL    HW233435   1.899   0.925   1.408
10846SOL     OW33436   4.554   2.545   0.860
10846SOL    HW133437   4.637   2.537   0.916
10846SOL    HW233438   4.480   2.581   0.916
10847SOL     OW33439   2.353   1.820   6.737
10847SOL    HW133440   2.389   1.892   6.797
10847SOL    HW233441   2.253   1.830   6.731
10848SOL     OW33442   2.931   2.415   6.500
10848SOL    HW133443   2.884   2.378   6.580
10848SOL    HW233444   2.928   2.347   6.426
10849SOL     OW33445   3.921   4.869   3.999
10849SOL    HW133446   3.930   4.857   3.900
10849SOL    HW233447   3.915   4.966   4.021
10850SOL     OW33448   4.233   6.768   6.817
10850SOL    HW133449   4.154   6.814   6.776
10850SOL    HW233450   4.317   6.801   6.774
10851SOL     OW33451   2.581   2.452   6.595
10851SOL    HW133452   2.605   2.442   6.691
10851SOL    HW233453   2.604   2.368   6.546
10852SOL     OW33454   0.657   0.180   6.052
10852SOL    HW133455   0.584   0.150   5.990
10852SOL    HW233456   0.632   0.268   6.092
10853SOL     OW33457   3.706   1.833   4.792
10853SOL    HW133458   3.708   1.928   4.824
10853SOL    HW233459   3.679   1.773   4.867
10854SOL     OW33460   6.346   0.252   6.430
10854SOL    HW133461   6.332   0.309   6.349
10854SOL    HW233462   6.376   0.310   6.506
10855SOL     OW33463   2.854   6.325   2.721
10855SOL    HW133464   2.784   6.394   2.703
10855SOL    HW233465   2.943   6.358   2.690
10856SOL     OW33466   5.940   0.843   1.360
10856SOL    HW133467   5.959   0.929   1.407
10856SOL    HW233468   5.962   0.852   1.263
10857SOL     OW33469   5.288   3.078   3.549
10857SOL    HW133470   5.353   3.010   3.515
10857SOL    HW233471   5.286   3.074   3.649
10858SOL     OW33472   1.507   2.741   6.724
10858SOL    HW133473   1.539   2.677   6.653
10858SOL    HW233474   1.483   2.828   6.682
10859SOL     OW33475   1.894   4.061   3.639
10859SOL    HW133476   1.808   4.018   3.611
10859SOL    HW233477   1.884   4.160   3.636
10860SOL     OW33478   6.804   1.436   6.222
10860SOL    HW133479   6.902   1.455   6.211
10860SOL    HW233480   6.765   1.411   6.134
10861SOL     OW33481   3.654   2.619   1.748
10861SOL    HW133482   3.595   2.658   1.818
10861SOL    HW233483   3.687   2.529   1.779
10862SOL     OW33484   2.706   1.555   6.573
10862SOL    HW133485   2.758   1.523   6.652
10862SOL    HW233486   2.686   1.652   6.583
10863SOL     OW33487   3.194   1.219   2.588
10863SOL    HW133488   3.222   1.123   2.585
10863SOL    HW233489   3.215   1.262   2.500
10864SOL     OW33490   2.416   4.391   1.413
10864SOL    HW133491   2.368   4.312   1.453
10864SOL    HW233492   2.477   4.360   1.341
10865SOL     OW33493   5.971   2.439   3.176
10865SOL    HW133494   6.036   2.454   3.251
10865SOL    HW233495   6.005   2.483   3.093
10866SOL     OW33496   5.729   3.320   1.122
10866SOL    HW133497   5.825   3.346   1.127
10866SOL    HW233498   5.684   3.371   1.048
10867SOL     OW33499   2.742   2.861   0.588
10867SOL    HW133500   2.665   2.834   0.530
10867SOL    HW233501   2.828   2.847   0.539
10868SOL     OW33502   1.570   2.090   2.920
10868SOL    HW133503   1.538   2.004   2.879
10868SOL    HW233504   1.592   2.155   2.847
10869NA      NA33505   0.608   2.377   6.431
10870NA      NA33506   4.460   4.658   5.161
10871NA      NA33507   2.405   4.560   2.264
10872NA      NA33508   5.212   4.767   3.585
10873NA      NA33509   4.212   2.293   5.229
10874NA      NA33510   3.425   4.268   1.393
10875NA      NA33511   1.213   4.598   0.301
10876NA      NA33512   4.052   4.201   1.554
10877NA      NA33513   4.708   4.525   0.909
10878NA      NA33514   3.611   0.978   5.286
10879NA      NA33515   5.605   5.563   1.441
10880NA      NA33516   1.009   0.558   5.711
10881NA      NA33517   5.024   4.931   2.053
10882NA      NA33518   3.441   3.095   0.996
   7.01903   7.01903   7.01903
