Generated by trjconv : CNT in water t= 460.00000
33518
    1C        C    1   2.842   2.766   4.748
    1C        C    2   2.896   2.719   4.869
    1C        C    3   2.841   2.772   4.986
    1C        C    4   2.853   2.778   4.261
    1C        C    5   2.905   2.731   4.383
    1C        C    6   2.847   2.772   4.505
    1C        C    7   3.016   2.642   4.626
    1C        C    8   2.897   2.719   4.626
    1C        C    9   3.075   2.602   4.748
    1C        C   10   3.004   2.628   4.868
    1C        C   11   3.180   2.488   4.974
    1C        C   12   3.057   2.555   4.975
    1C        C   13   2.854   2.778   3.774
    1C        C   14   2.902   2.726   3.896
    1C        C   15   2.851   2.778   4.016
    1C        C   16   3.021   2.650   4.140
    1C        C   17   2.907   2.733   4.138
    1C        C   18   3.082   2.612   4.262
    1C        C   19   3.019   2.648   4.384
    1C        C   20   3.210   2.553   4.503
    1C        C   21   3.079   2.607   4.505
    1C        C   22   3.277   2.531   4.626
    1C        C   23   3.206   2.547   4.746
    1C        C   24   3.413   2.484   4.867
    1C        C   25   3.271   2.502   4.864
    1C        C   26   3.490   2.486   4.984
    1C        C   27   2.854   2.775   3.283
    1C        C   28   2.913   2.734   3.405
    1C        C   29   2.862   2.783   3.528
    1C        C   30   3.023   2.650   3.650
    1C        C   31   2.907   2.731   3.651
    1C        C   32   3.082   2.614   3.774
    1C        C   33   3.020   2.648   3.896
    1C        C   34   3.207   2.546   4.016
    1C        C   35   3.081   2.611   4.018
    1C        C   36   3.277   2.531   4.138
    1C        C   37   3.211   2.556   4.260
    1C        C   38   3.419   2.510   4.382
    1C        C   39   3.280   2.537   4.382
    1C        C   40   3.489   2.499   4.504
    1C        C   41   3.416   2.504   4.625
    1C        C   42   3.629   2.485   4.744
    1C        C   43   3.486   2.485   4.746
    1C        C   44   3.704   2.487   4.863
    1C        C   45   3.629   2.481   4.981
    1C        C   46   2.842   2.759   2.793
    1C        C   47   2.900   2.718   2.916
    1C        C   48   2.850   2.767   3.038
    1C        C   49   3.023   2.646   3.164
    1C        C   50   2.906   2.726   3.161
    1C        C   51   3.085   2.607   3.285
    1C        C   52   3.023   2.646   3.405
    1C        C   53   3.207   2.545   3.527
    1C        C   54   3.081   2.608   3.529
    1C        C   55   3.274   2.527   3.650
    1C        C   56   3.210   2.554   3.773
    1C        C   57   3.415   2.504   3.891
    1C        C   58   3.276   2.526   3.894
    1C        C   59   3.486   2.504   4.014
    1C        C   60   3.416   2.508   4.136
    1C        C   61   3.628   2.497   4.259
    1C        C   62   3.486   2.498   4.259
    1C        C   63   3.700   2.503   4.380
    1C        C   64   3.630   2.491   4.503
    1C        C   65   3.835   2.546   4.621
    1C        C   66   3.702   2.499   4.624
    1C        C   67   3.903   2.566   4.743
    1C        C   68   3.838   2.531   4.863
    1C        C   69   4.051   2.584   4.973
    1C        C   70   3.921   2.534   4.977
    1C        C   71   2.823   2.732   2.310
    1C        C   72   2.883   2.692   2.431
    1C        C   73   2.830   2.742   2.553
    1C        C   74   3.009   2.624   2.674
    1C        C   75   2.891   2.701   2.674
    1C        C   76   3.075   2.595   2.795
    1C        C   77   3.015   2.635   2.916
    1C        C   78   3.206   2.549   3.040
    1C        C   79   3.076   2.604   3.040
    1C        C   80   3.276   2.522   3.160
    1C        C   81   3.212   2.545   3.283
    1C        C   82   3.416   2.496   3.403
    1C        C   83   3.277   2.521   3.406
    1C        C   84   3.483   2.492   3.527
    1C        C   85   3.413   2.501   3.650
    1C        C   86   3.628   2.501   3.770
    1C        C   87   3.487   2.493   3.770
    1C        C   88   3.697   2.515   3.892
    1C        C   89   3.627   2.510   4.015
    1C        C   90   3.833   2.555   4.135
    1C        C   91   3.698   2.513   4.137
    1C        C   92   3.900   2.575   4.258
    1C        C   93   3.836   2.543   4.380
    1C        C   94   4.027   2.643   4.501
    1C        C   95   3.903   2.574   4.500
    1C        C   96   4.092   2.675   4.622
    1C        C   97   4.031   2.628   4.741
    1C        C   98   4.195   2.766   4.865
    1C        C   99   4.099   2.659   4.862
    1C        C  100   4.216   2.844   4.979
    1C        C  101   2.823   2.727   2.070
    1C        C  102   2.990   2.591   2.189
    1C        C  103   2.874   2.675   2.190
    1C        C  104   3.062   2.571   2.310
    1C        C  105   3.004   2.620   2.429
    1C        C  106   3.200   2.534   2.552
    1C        C  107   3.070   2.590   2.551
    1C        C  108   3.271   2.520   2.673
    1C        C  109   3.202   2.533   2.795
    1C        C  110   3.410   2.496   2.915
    1C        C  111   3.271   2.520   2.918
    1C        C  112   3.484   2.489   3.035
    1C        C  113   3.415   2.498   3.158
    1C        C  114   3.627   2.495   3.280
    1C        C  115   3.486   2.487   3.280
    1C        C  116   3.693   2.511   3.404
    1C        C  117   3.624   2.499   3.527
    1C        C  118   3.833   2.548   3.646
    1C        C  119   3.698   2.507   3.647
    1C        C  120   3.899   2.574   3.769
    1C        C  121   3.833   2.552   3.892
    1C        C  122   4.025   2.645   4.013
    1C        C  123   3.899   2.582   4.014
    1C        C  124   4.087   2.678   4.136
    1C        C  125   4.025   2.641   4.258
    1C        C  126   4.196   2.771   4.377
    1C        C  127   4.082   2.686   4.379
    1C        C  128   4.245   2.821   4.499
    1C        C  129   4.195   2.772   4.621
    1C        C  130   4.330   2.935   4.741
    1C        C  131   4.246   2.820   4.743
    1C        C  132   4.352   3.007   4.860
    1C        C  133   4.289   2.962   4.977
    1C        C  134   3.174   2.463   2.083
    1C        C  135   3.041   2.507   2.085
    1C        C  136   3.260   2.479   2.193
    1C        C  137   3.195   2.520   2.311
    1C        C  138   3.404   2.474   2.428
    1C        C  139   3.266   2.502   2.432
    1C        C  140   3.478   2.480   2.549
    1C        C  141   3.410   2.492   2.672
    1C        C  142   3.623   2.493   2.791
    1C        C  143   3.482   2.489   2.793
    1C        C  144   3.694   2.500   2.913
    1C        C  145   3.625   2.494   3.036
    1C        C  146   3.832   2.541   3.157
    1C        C  147   3.696   2.501   3.158
    1C        C  148   3.898   2.571   3.279
    1C        C  149   3.829   2.548   3.400
    1C        C  150   4.025   2.629   3.523
    1C        C  151   3.898   2.567   3.522
    1C        C  152   4.085   2.671   3.644
    1C        C  153   4.024   2.639   3.767
    1C        C  154   4.190   2.772   3.890
    1C        C  155   4.083   2.680   3.889
    1C        C  156   4.241   2.824   4.011
    1C        C  157   4.194   2.769   4.133
    1C        C  158   4.342   2.923   4.253
    1C        C  159   4.249   2.817   4.254
    1C        C  160   4.374   2.987   4.375
    1C        C  161   4.332   2.933   4.498
    1C        C  162   4.443   3.115   4.616
    1C        C  163   4.371   2.993   4.620
    1C        C  164   4.475   3.183   4.736
    1C        C  165   4.433   3.123   4.857
    1C        C  166   4.515   3.322   4.974
    1C        C  167   4.474   3.189   4.973
    1C        C  168   3.476   2.433   2.075
    1C        C  169   3.399   2.454   2.189
    1C        C  170   3.618   2.464   2.309
    1C        C  171   3.476   2.459   2.307
    1C        C  172   3.693   2.483   2.428
    1C        C  173   3.619   2.479   2.548
    1C        C  174   3.829   2.536   2.667
    1C        C  175   3.692   2.499   2.668
    1C        C  176   3.893   2.564   2.789
    1C        C  177   3.831   2.536   2.913
    1C        C  178   4.023   2.629   3.033
    1C        C  179   3.896   2.567   3.034
    1C        C  180   4.086   2.665   3.154
    1C        C  181   4.025   2.631   3.278
    1C        C  182   4.198   2.753   3.400
    1C        C  183   4.084   2.669   3.401
    1C        C  184   4.247   2.805   3.522
    1C        C  185   4.197   2.758   3.645
    1C        C  186   4.342   2.916   3.764
    1C        C  187   4.245   2.812   3.766
    1C        C  188   4.380   2.977   3.885
    1C        C  189   4.340   2.924   4.010
    1C        C  190   4.454   3.102   4.128
    1C        C  191   4.390   2.975   4.131
    1C        C  192   4.472   3.172   4.249
    1C        C  193   4.439   3.113   4.373
    1C        C  194   4.514   3.314   4.492
    1C        C  195   4.472   3.179   4.494
    1C        C  196   4.528   3.388   4.611
    1C        C  197   4.517   3.319   4.734
    1C        C  198   4.557   3.533   4.850
    1C        C  199   4.532   3.392   4.854
    1C        C  200   4.589   3.618   4.960
    1C        C  201   3.615   2.417   2.077
    1C        C  202   3.826   2.514   2.184
    1C        C  203   3.691   2.466   2.188
    1C        C  204   3.900   2.541   2.303
    1C        C  205   3.830   2.518   2.423
    1C        C  206   4.020   2.619   2.544
    1C        C  207   3.895   2.552   2.543
    1C        C  208   4.079   2.662   2.665
    1C        C  209   4.019   2.628   2.788
    1C        C  210   4.190   2.756   2.908
    1C        C  211   4.082   2.665   2.909
    1C        C  212   4.245   2.804   3.029
    1C        C  213   4.196   2.753   3.152
    1C        C  214   4.331   2.912   3.272
    1C        C  215   4.244   2.800   3.276
    1C        C  216   4.370   2.972   3.394
    1C        C  217   4.330   2.919   3.519
    1C        C  218   4.442   3.101   3.638
    1C        C  219   4.373   2.978   3.640
    1C        C  220   4.473   3.165   3.760
    1C        C  221   4.448   3.101   3.883
    1C        C  222   4.503   3.306   4.002
    1C        C  223   4.476   3.167   4.005
    1C        C  224   4.520   3.377   4.123
    1C        C  225   4.511   3.308   4.246
    1C        C  226   4.531   3.520   4.365
    1C        C  227   4.523   3.379   4.367
    1C        C  228   4.530   3.598   4.483
    1C        C  229   4.534   3.529   4.606
    1C        C  230   4.507   3.741   4.726
    1C        C  231   4.531   3.601   4.727
    1C        C  232   4.498   3.816   4.845
    1C        C  233   4.555   3.754   4.957
    1C        C  234   4.020   2.607   2.061
    1C        C  235   3.896   2.544   2.067
    1C        C  236   4.083   2.650   2.178
    1C        C  237   4.023   2.612   2.301
    1C        C  238   4.197   2.737   2.422
    1C        C  239   4.084   2.650   2.422
    1C        C  240   4.251   2.787   2.542
    1C        C  241   4.191   2.747   2.664
    1C        C  242   4.339   2.904   2.783
    1C        C  243   4.242   2.801   2.784
    1C        C  244   4.380   2.964   2.905
    1C        C  245   4.338   2.910   3.028
    1C        C  246   4.442   3.093   3.148
    1C        C  247   4.375   2.969   3.151
    1C        C  248   4.468   3.158   3.271
    1C        C  249   4.433   3.099   3.394
    1C        C  250   4.501   3.301   3.513
    1C        C  251   4.465   3.165   3.514
    1C        C  252   4.516   3.371   3.635
    1C        C  253   4.509   3.301   3.758
    1C        C  254   4.526   3.515   3.877
    1C        C  255   4.516   3.374   3.879
    1C        C  256   4.519   3.586   3.999
    1C        C  257   4.525   3.518   4.123
    1C        C  258   4.494   3.729   4.243
    1C        C  259   4.527   3.592   4.243
    1C        C  260   4.475   3.802   4.362
    1C        C  261   4.495   3.735   4.485
    1C        C  262   4.424   3.938   4.605
    1C        C  263   4.475   3.806   4.605
    1C        C  264   4.399   4.008   4.725
    1C        C  265   4.431   3.941   4.845
    1C        C  266   4.316   4.125   4.958
    1C        C  267   4.390   4.007   4.961
    1C        C  268   4.259   2.779   2.063
    1C        C  269   4.198   2.731   2.180
    1C        C  270   4.347   2.889   2.299
    1C        C  271   4.253   2.783   2.300
    1C        C  272   4.383   2.954   2.419
    1C        C  273   4.340   2.897   2.541
    1C        C  274   4.448   3.084   2.660
    1C        C  275   4.383   2.958   2.661
    1C        C  276   4.477   3.150   2.781
    1C        C  277   4.455   3.083   2.904
    1C        C  278   4.517   3.288   3.024
    1C        C  279   4.478   3.153   3.025
    1C        C  280   4.524   3.361   3.145
    1C        C  281   4.508   3.294   3.269
    1C        C  282   4.523   3.509   3.388
    1C        C  283   4.516   3.368   3.389
    1C        C  284   4.521   3.582   3.509
    1C        C  285   4.521   3.512   3.632
    1C        C  286   4.495   3.722   3.755
    1C        C  287   4.521   3.584   3.754
    1C        C  288   4.472   3.791   3.876
    1C        C  289   4.492   3.725   4.000
    1C        C  290   4.421   3.928   4.117
    1C        C  291   4.474   3.797   4.120
    1C        C  292   4.395   3.997   4.237
    1C        C  293   4.431   3.936   4.360
    1C        C  294   4.329   4.123   4.477
    1C        C  295   4.401   4.002   4.481
    1C        C  296   4.288   4.186   4.597
    1C        C  297   4.333   4.134   4.720
    1C        C  298   4.204   4.312   4.837
    1C        C  299   4.285   4.194   4.840
    1C        C  300   4.173   4.397   4.948
    1C        C  301   4.351   2.883   2.062
    1C        C  302   4.476   3.065   2.176
    1C        C  303   4.399   2.944   2.179
    1C        C  304   4.484   3.141   2.296
    1C        C  305   4.452   3.077   2.418
    1C        C  306   4.511   3.285   2.534
    1C        C  307   4.480   3.147   2.537
    1C        C  308   4.516   3.356   2.655
    1C        C  309   4.503   3.289   2.779
    1C        C  310   4.527   3.498   2.901
    1C        C  311   4.525   3.357   2.900
    1C        C  312   4.521   3.573   3.021
    1C        C  313   4.525   3.502   3.143
    1C        C  314   4.487   3.714   3.266
    1C        C  315   4.516   3.576   3.264
    1C        C  316   4.473   3.786   3.386
    1C        C  317   4.493   3.720   3.510
    1C        C  318   4.424   3.920   3.629
    1C        C  319   4.479   3.790   3.632
    1C        C  320   4.390   3.986   3.749
    1C        C  321   4.416   3.921   3.872
    1C        C  322   4.309   4.105   3.991
    1C        C  323   4.384   3.985   3.993
    1C        C  324   4.271   4.166   4.112
    1C        C  325   4.318   4.116   4.235
    1C        C  326   4.190   4.286   4.354
    1C        C  327   4.282   4.179   4.356
    1C        C  328   4.137   4.337   4.475
    1C        C  329   4.191   4.289   4.596
    1C        C  330   4.027   4.432   4.713
    1C        C  331   4.143   4.348   4.714
    1C        C  332   3.975   4.492   4.830
    1C        C  333   4.059   4.479   4.942
    1C        C  334   4.556   3.265   2.060
    1C        C  335   4.538   3.127   2.063
    1C        C  336   4.541   3.350   2.171
    1C        C  337   4.514   3.280   2.291
    1C        C  338   4.528   3.495   2.411
    1C        C  339   4.525   3.353   2.411
    1C        C  340   4.528   3.567   2.532
    1C        C  341   4.523   3.498   2.655
    1C        C  342   4.492   3.706   2.775
    1C        C  343   4.516   3.567   2.778
    1C        C  344   4.476   3.777   2.896
    1C        C  345   4.494   3.711   3.019
    1C        C  346   4.417   3.909   3.140
    1C        C  347   4.470   3.778   3.141
    1C        C  348   4.389   3.978   3.260
    1C        C  349   4.425   3.919   3.384
    1C        C  350   4.316   4.101   3.503
    1C        C  351   4.392   3.981   3.506
    1C        C  352   4.272   4.159   3.623
    1C        C  353   4.313   4.105   3.747
    1C        C  354   4.171   4.264   3.869
    1C        C  355   4.272   4.165   3.868
    1C        C  356   4.117   4.313   3.990
    1C        C  357   4.175   4.270   4.111
    1C        C  358   4.011   4.403   4.232
    1C        C  359   4.128   4.324   4.233
    1C        C  360   3.953   4.450   4.352
    1C        C  361   4.021   4.418   4.472
    1C        C  362   3.831   4.516   4.594
    1C        C  363   3.961   4.462   4.592
    1C        C  364   3.766   4.546   4.715
    1C        C  365   3.844   4.543   4.833
    1C        C  366   3.634   4.593   4.950
    1C        C  367   3.768   4.557   4.950
    1C        C  368   4.509   3.565   2.051
    1C        C  369   4.528   3.490   2.169
    1C        C  370   4.503   3.705   2.288
    1C        C  371   4.524   3.565   2.288
    1C        C  372   4.484   3.775   2.410
    1C        C  373   4.506   3.706   2.531
    1C        C  374   4.427   3.905   2.651
    1C        C  375   4.485   3.776   2.652
    1C        C  376   4.388   3.968   2.771
    1C        C  377   4.422   3.908   2.894
    1C        C  378   4.317   4.092   3.012
    1C        C  379   4.389   3.971   3.016
    1C        C  380   4.272   4.150   3.132
    1C        C  381   4.311   4.096   3.257
    1C        C  382   4.171   4.254   3.379
    1C        C  383   4.268   4.151   3.380
    1C        C  384   4.119   4.305   3.500
    1C        C  385   4.172   4.259   3.623
    1C        C  386   4.007   4.391   3.742
    1C        C  387   4.123   4.311   3.745
    1C        C  388   3.945   4.432   3.863
    1C        C  389   4.005   4.399   3.986
    1C        C  390   3.819   4.494   4.110
    1C        C  391   3.948   4.437   4.110
    1C        C  392   3.751   4.515   4.232
    1C        C  393   3.822   4.501   4.354
    1C        C  394   3.618   4.559   4.476
    1C        C  395   3.758   4.536   4.475
    1C        C  396   3.548   4.569   4.598
    1C        C  397   3.625   4.562   4.716
    1C        C  398   3.413   4.556   4.840
    1C        C  399   3.553   4.574   4.837
    1C        C  400   3.342   4.515   4.954
    1C        C  401   4.504   3.704   2.048
    1C        C  402   4.449   3.912   2.168
    1C        C  403   4.485   3.775   2.167
    1C        C  404   4.417   3.979   2.287
    1C        C  405   4.438   3.908   2.407
    1C        C  406   4.320   4.087   2.526
    1C        C  407   4.397   3.968   2.528
    1C        C  408   4.273   4.144   2.647
    1C        C  409   4.314   4.089   2.770
    1C        C  410   4.171   4.247   2.889
    1C        C  411   4.273   4.150   2.891
    1C        C  412   4.120   4.297   3.011
    1C        C  413   4.170   4.248   3.134
    1C        C  414   4.005   4.383   3.253
    1C        C  415   4.118   4.297   3.256
    1C        C  416   3.942   4.420   3.374
    1C        C  417   4.001   4.383   3.497
    1C        C  418   3.817   4.485   3.619
    1C        C  419   3.945   4.425   3.620
    1C        C  420   3.749   4.506   3.741
    1C        C  421   3.815   4.486   3.864
    1C        C  422   3.611   4.536   3.988
    1C        C  423   3.750   4.511   3.987
    1C        C  424   3.541   4.544   4.110
    1C        C  425   3.613   4.545   4.232
    1C        C  426   3.405   4.550   4.357
    1C        C  427   3.546   4.561   4.355
    1C        C  428   3.335   4.551   4.479
    1C        C  429   3.407   4.561   4.601
    1C        C  430   3.196   4.525   4.723
    1C        C  431   3.335   4.553   4.722
    1C        C  432   3.127   4.499   4.845
    1C        C  433   3.206   4.489   4.960
    1C        C  434   4.385   4.120   2.055
    1C        C  435   4.449   3.996   2.055
    1C        C  436   4.299   4.158   2.163
    1C        C  437   4.332   4.093   2.286
    1C        C  438   4.178   4.245   2.400
    1C        C  439   4.278   4.146   2.405
    1C        C  440   4.121   4.289   2.522
    1C        C  441   4.173   4.243   2.645
    1C        C  442   4.000   4.371   2.766
    1C        C  443   4.117   4.291   2.766
    1C        C  444   3.940   4.411   2.887
    1C        C  445   4.006   4.379   3.008
    1C        C  446   3.814   4.472   3.131
    1C        C  447   3.943   4.414   3.130
    1C        C  448   3.747   4.495   3.253
    1C        C  449   3.812   4.475   3.376
    1C        C  450   3.609   4.537   3.499
    1C        C  451   3.747   4.506   3.498
    1C        C  452   3.539   4.549   3.621
    1C        C  453   3.612   4.540   3.742
    1C        C  454   3.402   4.551   3.867
    1C        C  455   3.543   4.553   3.865
    1C        C  456   3.331   4.536   3.988
    1C        C  457   3.400   4.541   4.111
    1C        C  458   3.195   4.507   4.238
    1C        C  459   3.333   4.536   4.236
    1C        C  460   3.130   4.487   4.362
    1C        C  461   3.199   4.512   4.482
    1C        C  462   3.001   4.432   4.602
    1C        C  463   3.129   4.492   4.603
    1C        C  464   2.935   4.403   4.723
    1C        C  465   2.994   4.445   4.845
    1C        C  466   2.800   4.339   4.959
    1C        C  467   2.908   4.428   4.959
    1C        C  468   4.127   4.289   2.041
    1C        C  469   4.186   4.245   2.160
    1C        C  470   4.006   4.372   2.276
    1C        C  471   4.125   4.294   2.279
    1C        C  472   3.942   4.403   2.398
    1C        C  473   4.004   4.368   2.520
    1C        C  474   3.815   4.467   2.642
    1C        C  475   3.941   4.403   2.642
    1C        C  476   3.746   4.493   2.762
    1C        C  477   3.812   4.471   2.885
    1C        C  478   3.608   4.519   3.013
    1C        C  479   3.747   4.493   3.008
    1C        C  480   3.536   4.535   3.134
    1C        C  481   3.609   4.527   3.255
    1C        C  482   3.397   4.539   3.377
    1C        C  483   3.538   4.539   3.377
    1C        C  484   3.327   4.535   3.500
    1C        C  485   3.398   4.547   3.622
    1C        C  486   3.193   4.508   3.746
    1C        C  487   3.329   4.543   3.746
    1C        C  488   3.128   4.482   3.869
    1C        C  489   3.194   4.504   3.992
    1C        C  490   3.007   4.409   4.115
    1C        C  491   3.129   4.481   4.115
    1C        C  492   2.947   4.380   4.239
    1C        C  493   3.005   4.421   4.361
    1C        C  494   2.833   4.295   4.483
    1C        C  495   2.942   4.386   4.482
    1C        C  496   2.777   4.253   4.605
    1C        C  497   2.824   4.313   4.724
    1C        C  498   2.669   4.165   4.845
    1C        C  499   2.757   4.275   4.842
    1C        C  500   2.594   4.119   4.954
    1C        C  501   4.001   4.347   2.041
    1C        C  502   3.816   4.467   2.153
    1C        C  503   3.942   4.404   2.154
    1C        C  504   3.747   4.486   2.275
    1C        C  505   3.816   4.466   2.396
    1C        C  506   3.609   4.509   2.521
    1C        C  507   3.749   4.488   2.519
    1C        C  508   3.536   4.519   2.642
    1C        C  509   3.606   4.513   2.765
    1C        C  510   3.400   4.528   2.885
    1C        C  511   3.541   4.526   2.889
    1C        C  512   3.327   4.525   3.007
    1C        C  513   3.395   4.535   3.130
    1C        C  514   3.191   4.494   3.256
    1C        C  515   3.328   4.529   3.254
    1C        C  516   3.125   4.470   3.379
    1C        C  517   3.190   4.501   3.500
    1C        C  518   3.004   4.409   3.625
    1C        C  519   3.126   4.480   3.624
    1C        C  520   2.947   4.369   3.748
    1C        C  521   3.007   4.409   3.869
    1C        C  522   2.841   4.279   3.995
    1C        C  523   2.952   4.368   3.992
    1C        C  524   2.789   4.237   4.120
    1C        C  525   2.838   4.290   4.241
    1C        C  526   2.697   4.130   4.364
    1C        C  527   2.783   4.242   4.362
    1C        C  528   2.660   4.073   4.488
    1C        C  529   2.693   4.139   4.607
    1C        C  530   2.586   3.958   4.732
    1C        C  531   2.644   4.087   4.729
    1C        C  532   2.543   3.901   4.855
    1C        C  533   2.524   3.998   4.959
    1C        C  534   3.618   4.554   2.038
    1C        C  535   3.750   4.507   2.036
    1C        C  536   3.539   4.537   2.156
    1C        C  537   3.607   4.512   2.279
    1C        C  538   3.395   4.532   2.399
    1C        C  539   3.536   4.520   2.401
    1C        C  540   3.325   4.518   2.521
    1C        C  541   3.395   4.518   2.644
    1C        C  542   3.186   4.488   2.767
    1C        C  543   3.324   4.518   2.766
    1C        C  544   3.124   4.465   2.891
    1C        C  545   3.189   4.494   3.013
    1C        C  546   3.001   4.398   3.135
    1C        C  547   3.122   4.471   3.135
    1C        C  548   2.942   4.363   3.258
    1C        C  549   3.000   4.404   3.380
    1C        C  550   2.836   4.274   3.504
    1C        C  551   2.945   4.364   3.504
    1C        C  552   2.784   4.232   3.628
    1C        C  553   2.837   4.280   3.750
    1C        C  554   2.702   4.119   3.877
    1C        C  555   2.793   4.228   3.873
    1C        C  556   2.657   4.066   3.999
    1C        C  557   2.699   4.128   4.118
    1C        C  558   2.597   3.944   4.246
    1C        C  559   2.661   4.070   4.242
    1C        C  560   2.567   3.880   4.368
    1C        C  561   2.592   3.949   4.489
    1C        C  562   2.528   3.749   4.613
    1C        C  563   2.564   3.885   4.613
    1C        C  564   2.514   3.681   4.736
    1C        C  565   2.518   3.760   4.854
    1C        C  566   2.526   3.549   4.975
    1C        C  567   2.515   3.687   4.974
    1C        C  568   3.330   4.473   2.046
    1C        C  569   3.398   4.523   2.159
    1C        C  570   3.185   4.480   2.280
    1C        C  571   3.322   4.519   2.279
    1C        C  572   3.119   4.458   2.402
    1C        C  573   3.187   4.487   2.523
    1C        C  574   2.995   4.397   2.646
    1C        C  575   3.119   4.464   2.645
    1C        C  576   2.938   4.359   2.769
    1C        C  577   3.002   4.394   2.890
    1C        C  578   2.836   4.263   3.015
    1C        C  579   2.943   4.355   3.013
    1C        C  580   2.786   4.216   3.138
    1C        C  581   2.838   4.267   3.259
    1C        C  582   2.704   4.106   3.385
    1C        C  583   2.790   4.218   3.383
    1C        C  584   2.665   4.055   3.510
    1C        C  585   2.699   4.119   3.631
    1C        C  586   2.595   3.936   3.754
    1C        C  587   2.660   4.062   3.755
    1C        C  588   2.569   3.874   3.878
    1C        C  589   2.595   3.939   4.001
    1C        C  590   2.538   3.737   4.126
    1C        C  591   2.575   3.874   4.125
    1C        C  592   2.521   3.672   4.251
    1C        C  593   2.526   3.745   4.372
    1C        C  594   2.508   3.533   4.496
    1C        C  595   2.517   3.674   4.494
    1C        C  596   2.511   3.464   4.619
    1C        C  597   2.512   3.539   4.739
    1C        C  598   2.536   3.328   4.862
    1C        C  599   2.528   3.469   4.860
    1C        C  600   2.532   3.250   4.978
    1C        C  601   3.198   4.435   2.045
    1C        C  602   2.984   4.393   2.159
    1C        C  603   3.118   4.444   2.160
    1C        C  604   2.929   4.358   2.285
    1C        C  605   2.993   4.394   2.405
    1C        C  606   2.825   4.265   2.528
    1C        C  607   2.930   4.359   2.526
    1C        C  608   2.780   4.212   2.651
    1C        C  609   2.831   4.266   2.771
    1C        C  610   2.688   4.111   2.894
    1C        C  611   2.780   4.218   2.893
    1C        C  612   2.651   4.051   3.016
    1C        C  613   2.696   4.107   3.138
    1C        C  614   2.593   3.926   3.267
    1C        C  615   2.661   4.050   3.263
    1C        C  616   2.562   3.865   3.391
    1C        C  617   2.593   3.933   3.511
    1C        C  618   2.526   3.733   3.637
    1C        C  619   2.565   3.869   3.634
    1C        C  620   2.515   3.666   3.761
    1C        C  621   2.535   3.737   3.882
    1C        C  622   2.504   3.528   4.009
    1C        C  623   2.520   3.668   4.004
    1C        C  624   2.512   3.457   4.131
    1C        C  625   2.510   3.532   4.252
    1C        C  626   2.531   3.322   4.378
    1C        C  627   2.509   3.462   4.375
    1C        C  628   2.549   3.254   4.500
    1C        C  629   2.530   3.324   4.621
    1C        C  630   2.595   3.119   4.742
    1C        C  631   2.554   3.255   4.742
    1C        C  632   2.614   3.047   4.863
    1C        C  633   2.564   3.113   4.980
    1C        C  634   2.786   4.299   2.055
    1C        C  635   2.892   4.391   2.049
    1C        C  636   2.754   4.224   2.169
    1C        C  637   2.816   4.271   2.286
    1C        C  638   2.677   4.109   2.411
    1C        C  639   2.768   4.217   2.408
    1C        C  640   2.641   4.046   2.532
    1C        C  641   2.687   4.105   2.652
    1C        C  642   2.589   3.918   2.775
    1C        C  643   2.648   4.046   2.775
    1C        C  644   2.569   3.855   2.900
    1C        C  645   2.593   3.922   3.022
    1C        C  646   2.528   3.722   3.148
    1C        C  647   2.568   3.857   3.145
    1C        C  648   2.510   3.657   3.272
    1C        C  649   2.524   3.729   3.393
    1C        C  650   2.505   3.520   3.519
    1C        C  651   2.514   3.661   3.516
    1C        C  652   2.510   3.453   3.644
    1C        C  653   2.505   3.525   3.765
    1C        C  654   2.528   3.316   3.888
    1C        C  655   2.504   3.456   3.888
    1C        C  656   2.547   3.250   4.011
    1C        C  657   2.532   3.318   4.134
    1C        C  658   2.607   3.121   4.260
    1C        C  659   2.554   3.252   4.258
    1C        C  660   2.637   3.058   4.383
    1C        C  661   2.605   3.124   4.504
    1C        C  662   2.708   2.934   4.625
    1C        C  663   2.630   3.052   4.623
    1C        C  664   2.750   2.874   4.746
    1C        C  665   2.697   2.931   4.866
    1C        C  666   2.738   2.865   4.983
    1C        C  667   2.690   4.019   2.054
    1C        C  668   2.693   4.097   2.170
    1C        C  669   2.585   3.913   2.291
    1C        C  670   2.645   4.041   2.291
    1C        C  671   2.561   3.846   2.414
    1C        C  672   2.589   3.915   2.534
    1C        C  673   2.514   3.717   2.658
    1C        C  674   2.556   3.851   2.655
    1C        C  675   2.508   3.648   2.782
    1C        C  676   2.530   3.720   2.902
    1C        C  677   2.496   3.513   3.030
    1C        C  678   2.513   3.653   3.025
    1C        C  679   2.500   3.445   3.154
    1C        C  680   2.498   3.517   3.275
    1C        C  681   2.522   3.308   3.401
    1C        C  682   2.500   3.447   3.398
    1C        C  683   2.545   3.240   3.523
    1C        C  684   2.530   3.313   3.644
    1C        C  685   2.603   3.116   3.771
    1C        C  686   2.549   3.247   3.767
    1C        C  687   2.635   3.055   3.894
    1C        C  688   2.599   3.118   4.015
    1C        C  689   2.717   2.942   4.140
    1C        C  690   2.635   3.056   4.137
    1C        C  691   2.762   2.886   4.262
    1C        C  692   2.713   2.939   4.384
    1C        C  693   2.751   2.876   4.504
    1C        C  694   2.634   3.891   2.060
    1C        C  695   2.523   3.703   2.176
    1C        C  696   2.577   3.833   2.175
    1C        C  697   2.497   3.637   2.298
    1C        C  698   2.517   3.712   2.416
    1C        C  699   2.482   3.503   2.543
    1C        C  700   2.497   3.644   2.538
    1C        C  701   2.497   3.435   2.666
    1C        C  702   2.504   3.507   2.787
    1C        C  703   2.526   3.299   2.911
    1C        C  704   2.499   3.438   2.910
    1C        C  705   2.540   3.234   3.035
    1C        C  706   2.527   3.306   3.157
    1C        C  707   2.596   3.108   3.280
    1C        C  708   2.544   3.239   3.280
    1C        C  709   2.634   3.049   3.402
    1C        C  710   2.604   3.112   3.525
    1C        C  711   2.714   2.936   3.649
    1C        C  712   2.633   3.052   3.649
    1C        C  713   2.759   2.883   3.772
    1C        C  714   2.715   2.938   3.895
    1C        C  715   2.755   2.882   4.018
    1C        C  716   2.438   3.499   2.065
    1C        C  717   2.493   3.628   2.062
    1C        C  718   2.458   3.421   2.183
    1C        C  719   2.474   3.497   2.303
    1C        C  720   2.512   3.288   2.426
    1C        C  721   2.484   3.426   2.425
    1C        C  722   2.538   3.222   2.549
    1C        C  723   2.521   3.296   2.668
    1C        C  724   2.591   3.096   2.791
    1C        C  725   2.538   3.227   2.790
    1C        C  726   2.621   3.034   2.915
    1C        C  727   2.595   3.104   3.035
    1C        C  728   2.707   2.926   3.159
    1C        C  729   2.630   3.044   3.158
    1C        C  730   2.759   2.879   3.282
    1C        C  731   2.718   2.935   3.405
    1C        C  732   2.760   2.880   3.528
    1C        C  733   2.490   3.198   2.073
    1C        C  734   2.482   3.280   2.186
    1C        C  735   2.580   3.085   2.303
    1C        C  736   2.523   3.215   2.305
    1C        C  737   2.613   3.021   2.425
    1C        C  738   2.590   3.091   2.545
    1C        C  739   2.700   2.914   2.669
    1C        C  740   2.623   3.032   2.669
    1C        C  741   2.747   2.864   2.793
    1C        C  742   2.706   2.921   2.915
    1C        C  743   2.753   2.870   3.038
    1C        C  744   2.546   3.070   2.074
    1C        C  745   2.689   2.897   2.185
    1C        C  746   2.612   3.015   2.184
    1C        C  747   2.730   2.840   2.307
    1C        C  748   2.691   2.903   2.428
    1C        C  749   2.737   2.848   2.550
    1C        C  750   2.739   2.838   2.068
    1C        C  751   3.672   2.323   1.978
    1C        O  752   3.666   2.199   1.999
    1C        O  753   3.656   2.352   1.842
    1C        C  754   4.654   3.055   2.004
    1C        O  755   4.641   2.955   1.929
    1C        O  756   4.774   3.044   2.076
    1C        C  757   4.433   4.212   1.949
    1C        O  758   4.530   4.289   1.973
    1C        O  759   4.364   4.235   1.830
    1C        C  760   3.592   4.669   1.949
    1C        O  761   3.656   4.776   1.965
    1C        O  762   3.577   4.655   1.810
    1C        C  763   2.873   4.518   1.974
    1C        O  764   2.917   4.547   1.860
    1C        O  765   2.757   4.594   1.995
    1C        C  766   2.321   3.495   1.974
    1C        O  767   2.328   3.475   1.850
    1C        O  768   2.189   3.478   2.019
    1C        C  769   4.691   3.576   5.059
    1C        O  770   4.658   3.513   5.163
    1C        O  771   4.822   3.627   5.052
    1C        C  772   4.276   4.443   5.044
    1C        O  773   4.280   4.420   5.167
    1C        O  774   4.359   4.553   5.021
    1C        C  775   4.148   2.514   5.062
    1C        O  776   4.217   2.415   5.028
    1C        O  777   4.144   2.543   5.199
    1C        C  778   2.897   4.534   5.061
    1C        O  779   2.814   4.627   5.042
    1C        O  780   2.903   4.507   5.198
    1C        C  781   2.475   3.040   5.073
    1C        O  782   2.350   3.037   5.056
    1C        O  783   2.505   3.018   5.207
    1C        C  784   2.401   3.989   5.042
    1C        O  785   2.288   3.970   4.988
    1C        O  786   2.418   3.943   5.173
    1C        C  787   2.948   2.415   2.017
    1C        O  788   2.910   2.429   1.897
    1C        O  789   2.920   2.288   2.067
    1C        C  790   3.190   2.373   5.067
    1C        O  791   3.143   2.267   5.019
    1C        O  792   3.185   2.371   5.207
    1C        H  793   4.291   3.021   5.066
    1C        H  794   4.187   2.803   5.073
    1C        H  795   4.521   3.129   5.049
    1C        H  796   4.503   3.373   5.067
    1C        H  797   4.608   3.820   5.023
    1C        H  798   4.444   3.995   5.052
    1C        H  799   4.280   4.165   5.051
    1C        H  800   4.077   4.576   4.985
    1C        H  801   3.798   4.498   5.034
    1C        H  802   3.593   4.627   5.043
    1C        H  803   3.385   4.514   5.052
    1C        H  804   3.171   4.423   5.037
    1C        H  805   3.912   2.449   5.041
    1C        H  806   3.674   2.505   5.075
    1C        H  807   2.987   2.525   5.051
    1C        H  808   3.442   2.515   5.075
    1C        H  809   2.869   2.736   5.083
    1C        H  810   2.669   2.866   5.065
    1C        H  811   2.528   3.298   5.074
    1C        H  812   2.540   3.505   5.072
    1C        H  813   2.463   3.731   5.057
    1C        H  814   2.573   4.182   5.038
    1C        H  815   2.773   4.302   5.056
    1C        H  816   2.704   2.865   1.970
    1C        H  817   2.855   2.681   1.979
    1C        H  818   3.210   2.414   1.995
    1C        H  819   3.428   2.434   1.979
    1C        H  820   3.847   2.524   1.974
    1C        H  821   4.087   2.560   1.993
    1C        H  822   4.289   2.700   1.998
    1C        H  823   4.363   2.938   1.972
    1C        H  824   4.599   3.305   1.970
    1C        H  825   4.481   3.514   1.962
    1C        H  826   4.559   3.754   1.972
    1C        H  827   3.811   4.546   1.957
    1C        H  828   3.946   4.350   1.948
    1C        H  829   4.170   4.268   1.945
    1C        H  830   4.489   3.964   1.962
    1C        H  831   2.674   3.822   1.989
    1C        H  832   2.754   4.041   1.971
    1C        H  833   2.722   4.289   1.970
    1C        H  834   3.383   4.466   1.953
    1C        H  835   3.158   4.382   1.961
    1C        H  836   2.489   3.002   2.014
    1C        H  837   2.433   3.216   1.984
    1C        H  838   2.537   3.661   1.970
    2V3OU   H29  839   2.800   3.544   5.135
    2V3OU   C27  840   2.781   3.502   5.237
    2V3OU   H27  841   2.724   3.575   5.300
    2V3OU   H28  842   2.726   3.408   5.214
    2V3OU   O11  843   2.909   3.479   5.296
    2V3OU   C15  844   2.920   3.399   5.408
    2V3OU   C13  845   3.048   3.377   5.464
    2V3OU   C14  846   3.071   3.269   5.549
    2V3OU   C16  847   2.969   3.180   5.581
    2V3OU    H6  848   2.990   3.096   5.649
    2V3OU   C12  849   3.210   3.229   5.584
    2V3OU    O2  850   3.234   3.122   5.643
    2V3OU   C10  851   3.325   3.311   5.543
    2V3OU    C8  852   3.458   3.273   5.558
    2V3OU   O10  853   3.486   3.152   5.615
    2V3OU   H26  854   3.398   3.112   5.627
    2V3OU    C6  855   3.565   3.352   5.507
    2V3OU    C5  856   3.539   3.470   5.439
    2V3OU    C4  857   3.701   3.291   5.505
    2V3OU    H4  858   3.727   3.224   5.593
    2V3OU    H5  859   3.711   3.226   5.414
    2V3OU    C2  860   3.811   3.397   5.501
    2V3OU    O6  861   3.806   3.474   5.622
    2V3OU   H21  862   3.775   3.560   5.588
    2V3OU    C3  863   3.786   3.496   5.387
    2V3OU    H2  864   3.867   3.573   5.382
    2V3OU    H3  865   3.784   3.436   5.293
    2V3OU   C25  866   3.945   3.325   5.489
    2V3OU    O7  867   4.000   3.290   5.385
    2V3OU   C26  868   4.025   3.288   5.613
    2V3OU   H22  869   4.077   3.376   5.660
    2V3OU   H23  870   4.110   3.221   5.586
    2V3OU    O8  871   3.955   3.210   5.708
    2V3OU   H24  872   3.920   3.263   5.781
    2V3OU    C1  873   3.651   3.564   5.404
    2V3OU    H1  874   3.626   3.622   5.310
    2V3OU    O3  875   3.656   3.654   5.515
    2V3OU   C19  876   3.618   3.792   5.512
    2V3OU    H9  877   3.516   3.797   5.465
    2V3OU    O4  878   3.716   3.851   5.430
    2V3OU   C20  879   3.849   3.877   5.476
    2V3OU   H10  880   3.894   3.773   5.483
    2V3OU   C24  881   3.610   3.859   5.649
    2V3OU   H16  882   3.542   3.798   5.714
    2V3OU   H17  883   3.563   3.960   5.639
    2V3OU   C23  884   3.750   3.878   5.708
    2V3OU   H15  885   3.795   3.774   5.725
    2V3OU    N1  886   3.733   3.962   5.824
    2V3OU   H19  887   3.804   3.937   5.889
    2V3OU   H20  888   3.648   3.932   5.869
    2V3OU   C21  889   3.848   3.950   5.610
    2V3OU   H11  890   3.948   3.936   5.660
    2V3OU    O5  891   3.823   4.090   5.614
    2V3OU   H18  892   3.792   4.108   5.705
    2V3OU   C22  893   3.915   3.947   5.358
    2V3OU   H12  894   3.864   4.045   5.341
    2V3OU   H13  895   3.904   3.887   5.264
    2V3OU   H14  896   4.025   3.957   5.377
    2V3OU   C11  897   3.158   3.474   5.460
    2V3OU    O1  898   3.132   3.591   5.425
    2V3OU    C9  899   3.298   3.429   5.469
    2V3OU    C7  900   3.402   3.506   5.417
    2V3OU    O9  901   3.382   3.613   5.332
    2V3OU   H25  902   3.288   3.635   5.345
    2V3OU   C17  903   2.818   3.312   5.451
    2V3OU    H7  904   2.715   3.342   5.428
    2V3OU   C18  905   2.840   3.202   5.533
    2V3OU    H8  906   2.751   3.150   5.570
    3SOL     OW  907   4.133   3.605   3.995
    3SOL    HW1  908   4.120   3.508   4.015
    3SOL    HW2  909   4.134   3.657   4.081
    4SOL     OW  910   0.071   0.085   0.497
    4SOL    HW1  911   0.112   0.018   0.434
    4SOL    HW2  912   0.128   0.092   0.579
    5SOL     OW  913   5.202   2.172   0.674
    5SOL    HW1  914   5.194   2.073   0.686
    5SOL    HW2  915   5.172   2.218   0.758
    6SOL     OW  916   5.353   0.974   2.218
    6SOL    HW1  917   5.327   0.885   2.180
    6SOL    HW2  918   5.302   0.990   2.303
    7SOL     OW  919   1.192   4.331   4.281
    7SOL    HW1  920   1.115   4.341   4.345
    7SOL    HW2  921   1.247   4.252   4.308
    8SOL     OW  922   1.485   3.609   4.970
    8SOL    HW1  923   1.573   3.615   4.922
    8SOL    HW2  924   1.463   3.699   5.009
    9SOL     OW  925   0.195   0.695   6.453
    9SOL    HW1  926   0.112   0.699   6.508
    9SOL    HW2  927   0.181   0.743   6.367
   10SOL     OW  928   5.182   4.668   2.364
   10SOL    HW1  929   5.239   4.592   2.331
   10SOL    HW2  930   5.115   4.692   2.294
   11SOL     OW  931   2.556   2.315   0.305
   11SOL    HW1  932   2.592   2.294   0.396
   11SOL    HW2  933   2.468   2.270   0.292
   12SOL     OW  934   3.557   4.905   2.829
   12SOL    HW1  935   3.486   4.914   2.899
   12SOL    HW2  936   3.516   4.866   2.746
   13SOL     OW  937   5.614   6.274   1.335
   13SOL    HW1  938   5.592   6.348   1.272
   13SOL    HW2  939   5.535   6.213   1.344
   14SOL     OW  940   4.654   5.541   5.109
   14SOL    HW1  941   4.584   5.486   5.156
   14SOL    HW2  942   4.676   5.499   5.022
   15SOL     OW  943   0.177   6.727   6.130
   15SOL    HW1  944   0.219   6.663   6.065
   15SOL    HW2  945   0.201   6.700   6.223
   16SOL     OW  946   1.567   4.465   4.983
   16SOL    HW1  947   1.585   4.531   4.909
   16SOL    HW2  948   1.579   4.511   5.071
   17SOL     OW  949   6.607   1.838   5.251
   17SOL    HW1  950   6.548   1.803   5.324
   17SOL    HW2  951   6.676   1.769   5.228
   18SOL     OW  952   2.167   1.053   5.898
   18SOL    HW1  953   2.207   1.081   5.985
   18SOL    HW2  954   2.076   1.093   5.889
   19SOL     OW  955   2.665   0.161   3.244
   19SOL    HW1  956   2.677   0.087   3.310
   19SOL    HW2  957   2.754   0.200   3.221
   20SOL     OW  958   6.618   1.708   5.649
   20SOL    HW1  959   6.554   1.738   5.578
   20SOL    HW2  960   6.606   1.610   5.665
   21SOL     OW  961   2.855   4.731   3.267
   21SOL    HW1  962   2.863   4.817   3.317
   21SOL    HW2  963   2.791   4.670   3.315
   22SOL     OW  964   1.563   0.793   6.593
   22SOL    HW1  965   1.476   0.797   6.642
   22SOL    HW2  966   1.554   0.841   6.505
   23SOL     OW  967   6.016   4.710   1.248
   23SOL    HW1  968   5.928   4.749   1.218
   23SOL    HW2  969   6.026   4.721   1.346
   24SOL     OW  970   4.549   0.795   0.668
   24SOL    HW1  971   4.608   0.876   0.674
   24SOL    HW2  972   4.493   0.801   0.585
   25SOL     OW  973   1.562   0.844   4.482
   25SOL    HW1  974   1.487   0.843   4.548
   25SOL    HW2  975   1.524   0.838   4.389
   26SOL     OW  976   0.977   3.008   7.001
   26SOL    HW1  977   0.982   2.935   6.933
   26SOL    HW2  978   0.918   2.980   0.052
   27SOL     OW  979   5.944   1.122   1.326
   27SOL    HW1  980   5.917   1.035   1.368
   27SOL    HW2  981   5.926   1.118   1.228
   28SOL     OW  982   2.526   0.962   5.393
   28SOL    HW1  983   2.503   1.016   5.474
   28SOL    HW2  984   2.578   1.017   5.329
   29SOL     OW  985   0.637   0.389   1.147
   29SOL    HW1  986   0.553   0.437   1.169
   29SOL    HW2  987   0.617   0.293   1.126
   30SOL     OW  988   4.605   0.506   4.700
   30SOL    HW1  989   4.666   0.515   4.778
   30SOL    HW2  990   4.659   0.496   4.616
   31SOL     OW  991   1.199   3.179   5.334
   31SOL    HW1  992   1.253   3.260   5.313
   31SOL    HW2  993   1.211   3.156   5.431
   32SOL     OW  994   3.202   0.480   1.294
   32SOL    HW1  995   3.198   0.386   1.261
   32SOL    HW2  996   3.279   0.527   1.250
   33SOL     OW  997   1.370   5.290   6.252
   33SOL    HW1  998   1.340   5.383   6.230
   33SOL    HW2  999   1.450   5.294   6.312
   34SOL     OW 1000   2.035   5.116   5.461
   34SOL    HW1 1001   2.124   5.160   5.478
   34SOL    HW2 1002   2.050   5.032   5.408
   35SOL     OW 1003   2.652   3.278   0.012
   35SOL    HW1 1004   2.742   3.284   6.994
   35SOL    HW2 1005   2.660   3.290   0.111
   36SOL     OW 1006   4.370   0.900   4.089
   36SOL    HW1 1007   4.273   0.889   4.112
   36SOL    HW2 1008   4.417   0.813   4.103
   37SOL     OW 1009   2.961   0.442   4.188
   37SOL    HW1 1010   2.966   0.352   4.233
   37SOL    HW2 1011   2.983   0.513   4.255
   38SOL     OW 1012   0.369   4.311   2.644
   38SOL    HW1 1013   0.307   4.381   2.608
   38SOL    HW2 1014   0.436   4.285   2.573
   39SOL     OW 1015   6.943   5.222   6.883
   39SOL    HW1 1016   7.019   5.275   6.921
   39SOL    HW2 1017   6.975   5.132   6.854
   40SOL     OW 1018   4.061   1.280   0.157
   40SOL    HW1 1019   3.974   1.266   0.204
   40SOL    HW2 1020   4.067   1.375   0.125
   41SOL     OW 1021   5.276   4.013   1.665
   41SOL    HW1 1022   5.342   4.043   1.596
   41SOL    HW2 1023   5.204   4.082   1.675
   42SOL     OW 1024   2.764   5.317   6.052
   42SOL    HW1 1025   2.685   5.307   5.991
   42SOL    HW2 1026   2.748   5.267   6.137
   43SOL     OW 1027   3.928   6.984   5.105
   43SOL    HW1 1028   4.020   6.953   5.081
   43SOL    HW2 1029   3.890   0.012   5.028
   44SOL     OW 1030   7.024   1.102   5.569
   44SOL    HW1 1031   6.999   1.168   5.640
   44SOL    HW2 1032   6.957   1.027   5.569
   45SOL     OW 1033   2.607   5.175   6.627
   45SOL    HW1 1034   2.562   5.242   6.568
   45SOL    HW2 1035   2.539   5.109   6.660
   46SOL     OW 1036   0.429   3.334   4.294
   46SOL    HW1 1037   0.368   3.401   4.252
   46SOL    HW2 1038   0.524   3.356   4.269
   47SOL     OW 1039   5.820   2.927   0.892
   47SOL    HW1 1040   5.841   2.900   0.798
   47SOL    HW2 1041   5.835   3.026   0.903
   48SOL     OW 1042   6.064   3.518   1.128
   48SOL    HW1 1043   6.031   3.498   1.036
   48SOL    HW2 1044   6.162   3.500   1.133
   49SOL     OW 1045   3.761   4.148   0.108
   49SOL    HW1 1046   3.796   4.155   0.202
   49SOL    HW2 1047   3.837   4.134   0.045
   50SOL     OW 1048   6.121   2.840   6.789
   50SOL    HW1 1049   6.183   2.771   6.752
   50SOL    HW2 1050   6.151   2.865   6.881
   51SOL     OW 1051   2.164   5.764   3.146
   51SOL    HW1 1052   2.208   5.851   3.167
   51SOL    HW2 1053   2.231   5.701   3.107
   52SOL     OW 1054   6.258   2.471   1.408
   52SOL    HW1 1055   6.262   2.537   1.333
   52SOL    HW2 1056   6.219   2.516   1.489
   53SOL     OW 1057   4.223   0.330   1.999
   53SOL    HW1 1058   4.256   0.237   2.014
   53SOL    HW2 1059   4.300   0.394   2.002
   54SOL     OW 1060   5.570   0.141   6.478
   54SOL    HW1 1061   5.653   0.197   6.478
   54SOL    HW2 1062   5.493   0.196   6.446
   55SOL     OW 1063   0.948   3.197   6.559
   55SOL    HW1 1064   0.979   3.202   6.654
   55SOL    HW2 1065   0.994   3.120   6.513
   56SOL     OW 1066   0.686   2.764   6.881
   56SOL    HW1 1067   0.710   2.861   6.886
   56SOL    HW2 1068   0.587   2.753   6.892
   57SOL     OW 1069   4.585   6.446   7.001
   57SOL    HW1 1070   4.592   6.546   7.000
   57SOL    HW2 1071   4.536   6.418   0.060
   58SOL     OW 1072   0.443   0.515   0.044
   58SOL    HW1 1073   0.539   0.524   0.070
   58SOL    HW2 1074   0.413   0.599   7.024
   59SOL     OW 1075   5.019   3.199   5.482
   59SOL    HW1 1076   4.967   3.114   5.476
   59SOL    HW2 1077   5.070   3.201   5.568
   60SOL     OW 1078   5.392   1.265   2.842
   60SOL    HW1 1079   5.425   1.171   2.854
   60SOL    HW2 1080   5.444   1.308   2.768
   61SOL     OW 1081   7.010   6.009   4.368
   61SOL    HW1 1082   7.002   6.104   4.401
   61SOL    HW2 1083   6.927   5.984   4.318
   62SOL     OW 1084   5.936   2.905   2.249
   62SOL    HW1 1085   5.959   2.979   2.186
   62SOL    HW2 1086   5.990   2.824   2.227
   63SOL     OW 1087   4.374   6.610   5.512
   63SOL    HW1 1088   4.360   6.608   5.611
   63SOL    HW2 1089   4.289   6.636   5.467
   64SOL     OW 1090   1.075   4.244   5.498
   64SOL    HW1 1091   1.089   4.156   5.543
   64SOL    HW2 1092   1.091   4.318   5.563
   65SOL     OW 1093   0.338   6.563   4.893
   65SOL    HW1 1094   0.272   6.517   4.951
   65SOL    HW2 1095   0.425   6.513   4.895
   66SOL     OW 1096   4.015   0.861   2.190
   66SOL    HW1 1097   3.928   0.898   2.157
   66SOL    HW2 1098   4.081   0.936   2.199
   67SOL     OW 1099   6.976   3.007   1.883
   67SOL    HW1 1100   6.960   3.070   1.808
   67SOL    HW2 1101   6.995   3.058   1.967
   68SOL     OW 1102   7.003   2.016   5.654
   68SOL    HW1 1103   0.064   2.067   5.671
   68SOL    HW2 1104   7.020   1.918   5.667
   69SOL     OW 1105   0.871   5.912   6.675
   69SOL    HW1 1106   0.910   5.922   6.583
   69SOL    HW2 1107   0.943   5.886   6.739
   70SOL     OW 1108   5.230   3.544   4.544
   70SOL    HW1 1109   5.214   3.583   4.454
   70SOL    HW2 1110   5.150   3.558   4.602
   71SOL     OW 1111   4.909   2.015   4.858
   71SOL    HW1 1112   4.955   2.097   4.892
   71SOL    HW2 1113   4.911   2.014   4.758
   72SOL     OW 1114   0.075   0.397   3.476
   72SOL    HW1 1115   0.019   0.343   3.413
   72SOL    HW2 1116   0.172   0.383   3.455
   73SOL     OW 1117   3.125   1.046   0.553
   73SOL    HW1 1118   3.101   0.976   0.486
   73SOL    HW2 1119   3.045   1.067   0.609
   74SOL     OW 1120   2.804   1.923   0.871
   74SOL    HW1 1121   2.721   1.869   0.885
   74SOL    HW2 1122   2.848   1.939   0.959
   75SOL     OW 1123   3.445   3.577   0.947
   75SOL    HW1 1124   3.385   3.635   1.003
   75SOL    HW2 1125   3.388   3.519   0.888
   76SOL     OW 1126   3.670   4.869   5.302
   76SOL    HW1 1127   3.584   4.830   5.268
   76SOL    HW2 1128   3.652   4.920   5.386
   77SOL     OW 1129   0.189   5.173   4.349
   77SOL    HW1 1130   0.196   5.168   4.449
   77SOL    HW2 1131   0.106   5.126   4.319
   78SOL     OW 1132   4.804   1.520   1.136
   78SOL    HW1 1133   4.856   1.598   1.169
   78SOL    HW2 1134   4.738   1.550   1.067
   79SOL     OW 1135   0.946   4.565   3.278
   79SOL    HW1 1136   0.904   4.648   3.241
   79SOL    HW2 1137   1.028   4.543   3.225
   80SOL     OW 1138   3.916   0.902   5.162
   80SOL    HW1 1139   3.930   0.996   5.191
   80SOL    HW2 1140   3.882   0.900   5.068
   81SOL     OW 1141   4.430   5.920   1.634
   81SOL    HW1 1142   4.511   5.909   1.691
   81SOL    HW2 1143   4.452   5.897   1.539
   82SOL     OW 1144   2.838   6.367   2.138
   82SOL    HW1 1145   2.880   6.295   2.193
   82SOL    HW2 1146   2.756   6.332   2.093
   83SOL     OW 1147   5.370   1.060   4.560
   83SOL    HW1 1148   5.446   1.038   4.498
   83SOL    HW2 1149   5.327   1.145   4.531
   84SOL     OW 1150   5.056   2.647   2.243
   84SOL    HW1 1151   5.064   2.586   2.164
   84SOL    HW2 1152   5.063   2.742   2.212
   85SOL     OW 1153   2.314   6.904   4.355
   85SOL    HW1 1154   2.254   6.842   4.405
   85SOL    HW2 1155   2.406   6.866   4.350
   86SOL     OW 1156   6.069   0.215   0.305
   86SOL    HW1 1157   6.127   0.176   0.376
   86SOL    HW2 1158   5.991   0.261   0.347
   87SOL     OW 1159   2.388   4.169   6.292
   87SOL    HW1 1160   2.459   4.136   6.229
   87SOL    HW2 1161   2.400   4.268   6.306
   88SOL     OW 1162   3.395   3.973   0.891
   88SOL    HW1 1163   3.444   3.929   0.816
   88SOL    HW2 1164   3.307   4.006   0.858
   89SOL     OW 1165   3.162   3.967   3.981
   89SOL    HW1 1166   3.207   4.021   3.910
   89SOL    HW2 1167   3.189   4.002   4.071
   90SOL     OW 1168   4.955   3.611   2.109
   90SOL    HW1 1169   4.984   3.593   2.015
   90SOL    HW2 1170   4.897   3.692   2.112
   91SOL     OW 1171   4.468   5.693   5.452
   91SOL    HW1 1172   4.403   5.617   5.448
   91SOL    HW2 1173   4.493   5.721   5.360
   92SOL     OW 1174   5.220   3.427   6.338
   92SOL    HW1 1175   5.144   3.492   6.331
   92SOL    HW2 1176   5.221   3.387   6.429
   93SOL     OW 1177   3.081   3.081   2.046
   93SOL    HW1 1178   3.081   3.178   2.020
   93SOL    HW2 1179   3.039   3.072   2.137
   94SOL     OW 1180   3.179   1.684   4.735
   94SOL    HW1 1181   3.262   1.647   4.776
   94SOL    HW2 1182   3.147   1.762   4.790
   95SOL     OW 1183   0.717   0.363   4.128
   95SOL    HW1 1184   0.801   0.409   4.156
   95SOL    HW2 1185   0.638   0.418   4.153
   96SOL     OW 1186   6.253   4.837   7.014
   96SOL    HW1 1187   6.224   4.929   6.985
   96SOL    HW2 1188   6.331   4.808   6.958
   97SOL     OW 1189   2.143   4.734   5.772
   97SOL    HW1 1190   2.219   4.736   5.707
   97SOL    HW2 1191   2.176   4.760   5.863
   98SOL     OW 1192   1.887   1.922   3.206
   98SOL    HW1 1193   1.939   1.956   3.127
   98SOL    HW2 1194   1.795   1.961   3.205
   99SOL     OW 1195   3.770   3.723   5.108
   99SOL    HW1 1196   3.703   3.795   5.125
   99SOL    HW2 1197   3.857   3.764   5.080
  100SOL     OW 1198   6.800   1.390   4.875
  100SOL    HW1 1199   6.815   1.388   4.776
  100SOL    HW2 1200   6.822   1.301   4.914
  101SOL     OW 1201   6.381   3.546   2.418
  101SOL    HW1 1202   6.422   3.550   2.509
  101SOL    HW2 1203   6.323   3.627   2.404
  102SOL     OW 1204   4.615   6.834   0.462
  102SOL    HW1 1205   4.553   6.910   0.480
  102SOL    HW2 1206   4.660   6.847   0.374
  103SOL     OW 1207   3.353   1.269   2.007
  103SOL    HW1 1208   3.361   1.177   1.970
  103SOL    HW2 1209   3.442   1.300   2.041
  104SOL     OW 1210   6.364   4.723   2.196
  104SOL    HW1 1211   6.351   4.698   2.292
  104SOL    HW2 1212   6.415   4.651   2.149
  105SOL     OW 1213   6.382   0.977   5.488
  105SOL    HW1 1214   6.331   0.903   5.442
  105SOL    HW2 1215   6.341   1.065   5.464
  106SOL     OW 1216   5.104   4.653   1.458
  106SOL    HW1 1217   5.099   4.598   1.541
  106SOL    HW2 1218   5.091   4.594   1.378
  107SOL     OW 1219   5.694   0.206   1.228
  107SOL    HW1 1220   5.690   0.281   1.161
  107SOL    HW2 1221   5.664   0.240   1.317
  108SOL     OW 1222   2.713   1.395   4.291
  108SOL    HW1 1223   2.679   1.442   4.372
  108SOL    HW2 1224   2.760   1.311   4.319
  109SOL     OW 1225   1.835   0.903   4.229
  109SOL    HW1 1226   1.785   0.832   4.180
  109SOL    HW2 1227   1.770   0.966   4.272
  110SOL     OW 1228   3.598   4.414   5.827
  110SOL    HW1 1229   3.556   4.356   5.756
  110SOL    HW2 1230   3.647   4.356   5.892
  111SOL     OW 1231   6.249   2.182   1.340
  111SOL    HW1 1232   6.160   2.181   1.386
  111SOL    HW2 1233   6.293   2.271   1.352
  112SOL     OW 1234   5.118   6.431   6.667
  112SOL    HW1 1235   5.129   6.332   6.682
  112SOL    HW2 1236   5.090   6.447   6.572
  113SOL     OW 1237   0.519   6.014   2.105
  113SOL    HW1 1238   0.518   6.081   2.031
  113SOL    HW2 1239   0.586   6.040   2.174
  114SOL     OW 1240   6.816   2.797   2.510
  114SOL    HW1 1241   6.794   2.718   2.566
  114SOL    HW2 1242   6.762   2.795   2.426
  115SOL     OW 1243   5.501   0.673   3.481
  115SOL    HW1 1244   5.420   0.630   3.521
  115SOL    HW2 1245   5.485   0.771   3.470
  116SOL     OW 1246   0.448   5.357   0.387
  116SOL    HW1 1247   0.475   5.383   0.294
  116SOL    HW2 1248   0.348   5.361   0.395
  117SOL     OW 1249   2.311   2.182   0.313
  117SOL    HW1 1250   2.319   2.146   0.220
  117SOL    HW2 1251   2.214   2.185   0.339
  118SOL     OW 1252   0.232   1.812   3.118
  118SOL    HW1 1253   0.269   1.796   3.209
  118SOL    HW2 1254   0.299   1.862   3.063
  119SOL     OW 1255   6.036   6.696   6.159
  119SOL    HW1 1256   6.068   6.725   6.069
  119SOL    HW2 1257   6.097   6.624   6.194
  120SOL     OW 1258   5.315   2.455   5.072
  120SOL    HW1 1259   5.308   2.355   5.066
  120SOL    HW2 1260   5.246   2.496   5.012
  121SOL     OW 1261   1.148   4.929   6.880
  121SOL    HW1 1262   1.235   4.881   6.887
  121SOL    HW2 1263   1.079   4.880   6.933
  122SOL     OW 1264   0.019   4.302   6.383
  122SOL    HW1 1265   0.013   4.361   6.303
  122SOL    HW2 1266   6.959   4.311   6.437
  123SOL     OW 1267   0.880   2.096   2.011
  123SOL    HW1 1268   0.924   2.124   2.096
  123SOL    HW2 1269   0.879   2.173   1.947
  124SOL     OW 1270   1.875   3.009   7.000
  124SOL    HW1 1271   1.807   3.038   0.044
  124SOL    HW2 1272   1.960   3.059   7.015
  125SOL     OW 1273   4.420   3.187   0.575
  125SOL    HW1 1274   4.503   3.237   0.600
  125SOL    HW2 1275   4.410   3.185   0.476
  126SOL     OW 1276   4.129   3.669   4.578
  126SOL    HW1 1277   4.161   3.696   4.487
  126SOL    HW2 1278   4.092   3.576   4.575
  127SOL     OW 1279   0.463   5.560   5.931
  127SOL    HW1 1280   0.534   5.490   5.926
  127SOL    HW2 1281   0.387   5.535   5.871
  128SOL     OW 1282   4.448   3.019   6.995
  128SOL    HW1 1283   4.443   2.976   6.905
  128SOL    HW2 1284   4.526   2.982   0.022
  129SOL     OW 1285   1.411   5.363   1.734
  129SOL    HW1 1286   1.369   5.433   1.790
  129SOL    HW2 1287   1.510   5.362   1.749
  130SOL     OW 1288   6.916   3.087   4.269
  130SOL    HW1 1289   6.961   3.070   4.357
  130SOL    HW2 1290   6.870   3.176   4.272
  131SOL     OW 1291   0.475   2.386   3.388
  131SOL    HW1 1292   0.422   2.469   3.374
  131SOL    HW2 1293   0.502   2.379   3.484
  132SOL     OW 1294   3.831   2.915   2.253
  132SOL    HW1 1295   3.924   2.947   2.271
  132SOL    HW2 1296   3.786   2.978   2.190
  133SOL     OW 1297   5.422   6.230   6.075
  133SOL    HW1 1298   5.494   6.300   6.082
  133SOL    HW2 1299   5.463   6.143   6.046
  134SOL     OW 1300   5.593   1.742   1.422
  134SOL    HW1 1301   5.691   1.724   1.428
  134SOL    HW2 1302   5.543   1.657   1.437
  135SOL     OW 1303   4.798   2.984   3.808
  135SOL    HW1 1304   4.827   3.062   3.864
  135SOL    HW2 1305   4.799   3.009   3.712
  136SOL     OW 1306   3.113   0.234   6.507
  136SOL    HW1 1307   3.104   0.135   6.515
  136SOL    HW2 1308   3.195   0.257   6.456
  137SOL     OW 1309   2.975   3.601   6.203
  137SOL    HW1 1310   2.910   3.610   6.279
  137SOL    HW2 1311   3.068   3.594   6.240
  138SOL     OW 1312   1.045   4.877   6.290
  138SOL    HW1 1313   1.092   4.791   6.269
  138SOL    HW2 1314   1.054   4.939   6.212
  139SOL     OW 1315   1.801   6.389   1.414
  139SOL    HW1 1316   1.886   6.403   1.363
  139SOL    HW2 1317   1.744   6.324   1.364
  140SOL     OW 1318   3.333   0.594   1.052
  140SOL    HW1 1319   3.257   0.648   1.014
  140SOL    HW2 1320   3.418   0.618   1.005
  141SOL     OW 1321   6.900   2.833   0.550
  141SOL    HW1 1322   6.951   2.834   0.463
  141SOL    HW2 1323   6.929   2.910   0.607
  142SOL     OW 1324   1.443   4.382   1.795
  142SOL    HW1 1325   1.512   4.350   1.730
  142SOL    HW2 1326   1.368   4.425   1.744
  143SOL     OW 1327   4.708   6.039   2.016
  143SOL    HW1 1328   4.801   6.034   2.052
  143SOL    HW2 1329   4.657   5.958   2.045
  144SOL     OW 1330   3.337   4.912   3.956
  144SOL    HW1 1331   3.426   4.898   3.913
  144SOL    HW2 1332   3.343   4.891   4.054
  145SOL     OW 1333   6.687   4.778   3.147
  145SOL    HW1 1334   6.759   4.807   3.210
  145SOL    HW2 1335   6.635   4.704   3.188
  146SOL     OW 1336   5.589   1.037   6.265
  146SOL    HW1 1337   5.522   1.107   6.242
  146SOL    HW2 1338   5.655   1.029   6.190
  147SOL     OW 1339   4.979   1.198   4.980
  147SOL    HW1 1340   4.997   1.192   5.078
  147SOL    HW2 1341   5.041   1.137   4.931
  148SOL     OW 1342   1.209   5.736   0.787
  148SOL    HW1 1343   1.232   5.735   0.884
  148SOL    HW2 1344   1.218   5.644   0.750
  149SOL     OW 1345   1.845   2.194   4.897
  149SOL    HW1 1346   1.891   2.137   4.829
  149SOL    HW2 1347   1.912   2.232   4.960
  150SOL     OW 1348   4.425   1.265   4.895
  150SOL    HW1 1349   4.423   1.174   4.937
  150SOL    HW2 1350   4.368   1.327   4.949
  151SOL     OW 1351   3.952   2.965   1.481
  151SOL    HW1 1352   3.898   3.002   1.406
  151SOL    HW2 1353   3.910   2.881   1.514
  152SOL     OW 1354   0.199   2.614   0.915
  152SOL    HW1 1355   0.157   2.536   0.962
  152SOL    HW2 1356   0.150   2.632   0.830
  153SOL     OW 1357   2.533   1.242   3.356
  153SOL    HW1 1358   2.483   1.322   3.391
  153SOL    HW2 1359   2.598   1.211   3.425
  154SOL     OW 1360   6.452   1.560   2.649
  154SOL    HW1 1361   6.452   1.612   2.734
  154SOL    HW2 1362   6.358   1.542   2.620
  155SOL     OW 1363   0.653   6.998   2.003
  155SOL    HW1 1364   0.582   0.018   1.948
  155SOL    HW2 1365   0.737   0.029   1.998
  156SOL     OW 1366   5.203   2.425   0.493
  156SOL    HW1 1367   5.181   2.493   0.563
  156SOL    HW2 1368   5.191   2.333   0.531
  157SOL     OW 1369   3.698   5.464   0.412
  157SOL    HW1 1370   3.688   5.465   0.312
  157SOL    HW2 1371   3.744   5.380   0.440
  158SOL     OW 1372   0.089   2.707   3.584
  158SOL    HW1 1373   0.129   2.671   3.500
  158SOL    HW2 1374   7.016   2.725   3.569
  159SOL     OW 1375   6.238   5.005   0.320
  159SOL    HW1 1376   6.173   4.937   0.288
  159SOL    HW2 1377   6.264   5.065   0.244
  160SOL     OW 1378   6.567   0.019   2.221
  160SOL    HW1 1379   6.600   0.022   2.315
  160SOL    HW2 1380   6.542   6.949   2.197
  161SOL     OW 1381   0.677   6.223   0.811
  161SOL    HW1 1382   0.673   6.147   0.875
  161SOL    HW2 1383   0.718   6.193   0.725
  162SOL     OW 1384   4.550   6.822   0.006
  162SOL    HW1 1385   4.537   6.901   0.066
  162SOL    HW2 1386   4.525   6.848   6.936
  163SOL     OW 1387   0.191   4.280   2.879
  163SOL    HW1 1388   0.248   4.239   2.807
  163SOL    HW2 1389   0.230   4.257   2.968
  164SOL     OW 1390   2.714   1.874   3.991
  164SOL    HW1 1391   2.772   1.926   4.054
  164SOL    HW2 1392   2.759   1.787   3.969
  165SOL     OW 1393   0.403   5.944   3.406
  165SOL    HW1 1394   0.341   5.905   3.338
  165SOL    HW2 1395   0.392   5.896   3.493
  166SOL     OW 1396   6.320   4.008   3.260
  166SOL    HW1 1397   6.360   3.966   3.340
  166SOL    HW2 1398   6.267   4.089   3.287
  167SOL     OW 1399   2.766   1.806   6.657
  167SOL    HW1 1400   2.731   1.846   6.742
  167SOL    HW2 1401   2.786   1.880   6.592
  168SOL     OW 1402   4.639   4.055   1.428
  168SOL    HW1 1403   4.609   4.068   1.522
  168SOL    HW2 1404   4.626   3.960   1.401
  169SOL     OW 1405   4.670   1.798   1.233
  169SOL    HW1 1406   4.607   1.802   1.310
  169SOL    HW2 1407   4.709   1.889   1.218
  170SOL     OW 1408   0.037   5.947   2.278
  170SOL    HW1 1409   0.067   6.004   2.201
  170SOL    HW2 1410   6.968   5.972   2.303
  171SOL     OW 1411   3.823   3.836   0.649
  171SOL    HW1 1412   3.725   3.845   0.666
  171SOL    HW2 1413   3.837   3.799   0.557
  172SOL     OW 1414   0.240   2.304   6.629
  172SOL    HW1 1415   0.286   2.374   6.683
  172SOL    HW2 1416   0.306   2.235   6.600
  173SOL     OW 1417   6.859   1.672   4.220
  173SOL    HW1 1418   6.839   1.688   4.124
  173SOL    HW2 1419   6.779   1.695   4.276
  174SOL     OW 1420   5.593   5.489   5.065
  174SOL    HW1 1421   5.647   5.523   5.142
  174SOL    HW2 1422   5.495   5.503   5.083
  175SOL     OW 1423   0.330   6.917   1.442
  175SOL    HW1 1424   0.336   6.841   1.507
  175SOL    HW2 1425   0.236   6.925   1.409
  176SOL     OW 1426   6.042   4.195   1.270
  176SOL    HW1 1427   6.026   4.124   1.338
  176SOL    HW2 1428   5.960   4.208   1.215
  177SOL     OW 1429   5.850   3.022   4.353
  177SOL    HW1 1430   5.842   2.979   4.263
  177SOL    HW2 1431   5.776   2.989   4.412
  178SOL     OW 1432   1.890   6.233   5.922
  178SOL    HW1 1433   1.829   6.291   5.976
  178SOL    HW2 1434   1.837   6.183   5.854
  179SOL     OW 1435   3.464   4.715   1.088
  179SOL    HW1 1436   3.440   4.623   1.119
  179SOL    HW2 1437   3.452   4.722   0.989
  180SOL     OW 1438   3.989   1.294   0.582
  180SOL    HW1 1439   3.975   1.195   0.578
  180SOL    HW2 1440   3.960   1.328   0.671
  181SOL     OW 1441   3.459   2.189   5.572
  181SOL    HW1 1442   3.487   2.093   5.582
  181SOL    HW2 1443   3.396   2.197   5.495
  182SOL     OW 1444   4.325   2.694   6.667
  182SOL    HW1 1445   4.382   2.676   6.747
  182SOL    HW2 1446   4.373   2.756   6.606
  183SOL     OW 1447   3.541   1.644   3.406
  183SOL    HW1 1448   3.489   1.664   3.322
  183SOL    HW2 1449   3.486   1.670   3.486
  184SOL     OW 1450   5.174   5.828   3.525
  184SOL    HW1 1451   5.082   5.841   3.561
  184SOL    HW2 1452   5.194   5.900   3.458
  185SOL     OW 1453   6.957   0.470   4.024
  185SOL    HW1 1454   6.906   0.512   4.099
  185SOL    HW2 1455   0.027   0.452   4.053
  186SOL     OW 1456   4.656   6.611   4.144
  186SOL    HW1 1457   4.598   6.532   4.128
  186SOL    HW2 1458   4.723   6.619   4.070
  187SOL     OW 1459   4.172   6.227   1.620
  187SOL    HW1 1460   4.254   6.237   1.564
  187SOL    HW2 1461   4.098   6.282   1.581
  188SOL     OW 1462   1.322   3.344   3.331
  188SOL    HW1 1463   1.276   3.416   3.382
  188SOL    HW2 1464   1.343   3.268   3.393
  189SOL     OW 1465   5.974   4.962   5.860
  189SOL    HW1 1466   5.904   4.968   5.789
  189SOL    HW2 1467   6.059   4.926   5.821
  190SOL     OW 1468   6.105   0.639   6.793
  190SOL    HW1 1469   6.195   0.681   6.790
  190SOL    HW2 1470   6.084   0.613   6.888
  191SOL     OW 1471   7.018   1.156   5.253
  191SOL    HW1 1472   0.056   1.227   5.285
  191SOL    HW2 1473   6.974   1.112   5.331
  192SOL     OW 1474   0.624   5.218   0.565
  192SOL    HW1 1475   0.701   5.162   0.535
  192SOL    HW2 1476   0.575   5.255   0.486
  193SOL     OW 1477   2.883   6.165   6.863
  193SOL    HW1 1478   2.886   6.118   6.774
  193SOL    HW2 1479   2.788   6.172   6.893
  194SOL     OW 1480   4.140   6.613   2.498
  194SOL    HW1 1481   4.171   6.532   2.549
  194SOL    HW2 1482   4.152   6.596   2.400
  195SOL     OW 1483   3.902   0.851   0.809
  195SOL    HW1 1484   3.893   0.950   0.799
  195SOL    HW2 1485   3.862   0.822   0.896
  196SOL     OW 1486   3.111   2.281   0.364
  196SOL    HW1 1487   3.037   2.308   0.302
  196SOL    HW2 1488   3.081   2.202   0.418
  197SOL     OW 1489   2.524   6.295   0.334
  197SOL    HW1 1490   2.438   6.284   0.385
  197SOL    HW2 1491   2.544   6.392   0.324
  198SOL     OW 1492   4.129   0.793   6.732
  198SOL    HW1 1493   4.128   0.780   6.633
  198SOL    HW2 1494   4.215   0.836   6.759
  199SOL     OW 1495   0.485   0.498   2.920
  199SOL    HW1 1496   0.485   0.400   2.938
  199SOL    HW2 1497   0.535   0.516   2.836
  200SOL     OW 1498   0.300   4.047   3.492
  200SOL    HW1 1499   0.332   3.982   3.424
  200SOL    HW2 1500   0.249   4.120   3.447
  201SOL     OW 1501   4.330   1.630   6.516
  201SOL    HW1 1502   4.288   1.715   6.486
  201SOL    HW2 1503   4.323   1.622   6.616
  202SOL     OW 1504   3.523   0.350   2.628
  202SOL    HW1 1505   3.601   0.359   2.691
  202SOL    HW2 1506   3.462   0.277   2.660
  203SOL     OW 1507   5.553   2.783   6.773
  203SOL    HW1 1508   5.583   2.789   6.678
  203SOL    HW2 1509   5.504   2.697   6.788
  204SOL     OW 1510   2.411   6.105   1.014
  204SOL    HW1 1511   2.433   6.084   1.109
  204SOL    HW2 1512   2.460   6.188   0.986
  205SOL     OW 1513   6.172   0.634   0.048
  205SOL    HW1 1514   6.260   0.668   0.080
  205SOL    HW2 1515   6.123   0.592   0.125
  206SOL     OW 1516   0.975   4.388   1.304
  206SOL    HW1 1517   0.975   4.487   1.312
  206SOL    HW2 1518   0.918   4.348   1.376
  207SOL     OW 1519   4.960   0.683   5.244
  207SOL    HW1 1520   5.000   0.655   5.157
  207SOL    HW2 1521   4.986   0.619   5.316
  208SOL     OW 1522   3.810   4.750   6.121
  208SOL    HW1 1523   3.798   4.661   6.075
  208SOL    HW2 1524   3.722   4.795   6.129
  209SOL     OW 1525   6.743   5.750   5.716
  209SOL    HW1 1526   6.735   5.825   5.782
  209SOL    HW2 1527   6.708   5.666   5.757
  210SOL     OW 1528   4.182   2.234   1.840
  210SOL    HW1 1529   4.151   2.311   1.784
  210SOL    HW2 1530   4.105   2.198   1.893
  211SOL     OW 1531   1.489   2.128   1.781
  211SOL    HW1 1532   1.510   2.184   1.700
  211SOL    HW2 1533   1.390   2.125   1.795
  212SOL     OW 1534   0.744   5.469   3.883
  212SOL    HW1 1535   0.664   5.432   3.835
  212SOL    HW2 1536   0.816   5.488   3.817
  213SOL     OW 1537   4.827   2.717   7.018
  213SOL    HW1 1538   4.821   2.623   6.986
  213SOL    HW2 1539   4.880   2.719   0.080
  214SOL     OW 1540   1.596   0.332   2.649
  214SOL    HW1 1541   1.647   0.417   2.666
  214SOL    HW2 1542   1.659   0.261   2.619
  215SOL     OW 1543   3.062   3.189   2.711
  215SOL    HW1 1544   2.971   3.195   2.670
  215SOL    HW2 1545   3.128   3.157   2.642
  216SOL     OW 1546   0.689   6.418   5.985
  216SOL    HW1 1547   0.628   6.478   5.934
  216SOL    HW2 1548   0.767   6.471   6.020
  217SOL     OW 1549   0.559   2.762   3.420
  217SOL    HW1 1550   0.623   2.707   3.473
  217SOL    HW2 1551   0.609   2.820   3.356
  218SOL     OW 1552   1.091   3.987   5.610
  218SOL    HW1 1553   1.189   3.982   5.628
  218SOL    HW2 1554   1.069   3.930   5.531
  219SOL     OW 1555   4.684   4.856   0.133
  219SOL    HW1 1556   4.673   4.921   0.059
  219SOL    HW2 1557   4.683   4.904   0.221
  220SOL     OW 1558   3.224   5.389   0.498
  220SOL    HW1 1559   3.131   5.359   0.521
  220SOL    HW2 1560   3.229   5.489   0.502
  221SOL     OW 1561   6.203   2.081   4.057
  221SOL    HW1 1562   6.277   2.106   4.120
  221SOL    HW2 1563   6.151   2.163   4.033
  222SOL     OW 1564   1.531   6.617   4.799
  222SOL    HW1 1565   1.528   6.627   4.700
  222SOL    HW2 1566   1.439   6.624   4.836
  223SOL     OW 1567   6.448   3.736   1.553
  223SOL    HW1 1568   6.479   3.654   1.507
  223SOL    HW2 1569   6.437   3.717   1.651
  224SOL     OW 1570   2.900   2.291   1.672
  224SOL    HW1 1571   2.909   2.336   1.761
  224SOL    HW2 1572   2.905   2.359   1.599
  225SOL     OW 1573   6.509   0.298   7.012
  225SOL    HW1 1574   6.491   0.396   7.017
  225SOL    HW2 1575   6.498   0.266   6.918
  226SOL     OW 1576   6.452   5.410   0.990
  226SOL    HW1 1577   6.410   5.427   1.079
  226SOL    HW2 1578   6.547   5.443   0.991
  227SOL     OW 1579   1.476   3.020   4.125
  227SOL    HW1 1580   1.519   3.108   4.146
  227SOL    HW2 1581   1.533   2.946   4.162
  228SOL     OW 1582   3.819   0.235   3.472
  228SOL    HW1 1583   3.871   0.177   3.409
  228SOL    HW2 1584   3.833   0.202   3.566
  229SOL     OW 1585   5.748   5.228   2.498
  229SOL    HW1 1586   5.829   5.187   2.539
  229SOL    HW2 1587   5.702   5.160   2.441
  230SOL     OW 1588   1.654   4.269   6.018
  230SOL    HW1 1589   1.700   4.265   6.107
  230SOL    HW2 1590   1.559   4.239   6.028
  231SOL     OW 1591   0.847   1.833   6.944
  231SOL    HW1 1592   0.918   1.901   6.926
  231SOL    HW2 1593   0.776   1.873   7.003
  232SOL     OW 1594   2.028   5.186   6.587
  232SOL    HW1 1595   1.959   5.234   6.641
  232SOL    HW2 1596   2.075   5.251   6.528
  233SOL     OW 1597   2.548   0.979   5.964
  233SOL    HW1 1598   2.507   0.907   5.908
  233SOL    HW2 1599   2.565   1.059   5.907
  234SOL     OW 1600   2.765   5.775   6.853
  234SOL    HW1 1601   2.747   5.801   6.758
  234SOL    HW2 1602   2.850   5.819   6.884
  235SOL     OW 1603   3.275   3.238   4.883
  235SOL    HW1 1604   3.263   3.139   4.895
  235SOL    HW2 1605   3.187   3.284   4.893
  236SOL     OW 1606   0.229   2.475   5.568
  236SOL    HW1 1607   0.303   2.408   5.559
  236SOL    HW2 1608   0.181   2.460   5.655
  237SOL     OW 1609   0.585   6.971   1.720
  237SOL    HW1 1610   0.613   6.913   1.643
  237SOL    HW2 1611   0.619   0.040   1.706
  238SOL     OW 1612   5.510   2.417   2.398
  238SOL    HW1 1613   5.514   2.322   2.366
  238SOL    HW2 1614   5.546   2.478   2.326
  239SOL     OW 1615   0.387   5.766   0.248
  239SOL    HW1 1616   0.383   5.818   0.162
  239SOL    HW2 1617   0.379   5.829   0.325
  240SOL     OW 1618   6.663   3.861   5.594
  240SOL    HW1 1619   6.744   3.836   5.540
  240SOL    HW2 1620   6.580   3.838   5.542
  241SOL     OW 1621   0.698   0.859   2.775
  241SOL    HW1 1622   0.621   0.896   2.828
  241SOL    HW2 1623   0.782   0.904   2.804
  242SOL     OW 1624   1.868   3.060   3.887
  242SOL    HW1 1625   1.949   3.116   3.904
  242SOL    HW2 1626   1.841   3.070   3.791
  243SOL     OW 1627   4.740   0.497   4.943
  243SOL    HW1 1628   4.703   0.496   5.036
  243SOL    HW2 1629   4.810   0.426   4.935
  244SOL     OW 1630   6.598   1.443   5.679
  244SOL    HW1 1631   6.653   1.393   5.611
  244SOL    HW2 1632   6.504   1.449   5.647
  245SOL     OW 1633   6.224   1.509   3.616
  245SOL    HW1 1634   6.308   1.490   3.665
  245SOL    HW2 1635   6.185   1.423   3.581
  246SOL     OW 1636   4.928   3.440   3.059
  246SOL    HW1 1637   4.904   3.427   2.963
  246SOL    HW2 1638   4.896   3.530   3.089
  247SOL     OW 1639   3.126   1.582   3.385
  247SOL    HW1 1640   3.119   1.656   3.319
  247SOL    HW2 1641   3.038   1.570   3.431
  248SOL     OW 1642   5.888   1.252   2.852
  248SOL    HW1 1643   5.884   1.270   2.754
  248SOL    HW2 1644   5.929   1.331   2.899
  249SOL     OW 1645   3.340   0.156   3.699
  249SOL    HW1 1646   3.314   0.106   3.616
  249SOL    HW2 1647   3.405   0.229   3.674
  250SOL     OW 1648   4.640   3.290   5.942
  250SOL    HW1 1649   4.643   3.217   5.874
  250SOL    HW2 1650   4.549   3.294   5.982
  251SOL     OW 1651   2.504   2.362   0.777
  251SOL    HW1 1652   2.569   2.357   0.702
  251SOL    HW2 1653   2.421   2.310   0.754
  252SOL     OW 1654   0.412   1.124   6.193
  252SOL    HW1 1655   0.483   1.139   6.262
  252SOL    HW2 1656   0.323   1.151   6.230
  253SOL     OW 1657   2.615   3.784   5.992
  253SOL    HW1 1658   2.597   3.690   6.022
  253SOL    HW2 1659   2.713   3.802   5.995
  254SOL     OW 1660   5.788   3.563   5.244
  254SOL    HW1 1661   5.774   3.584   5.341
  254SOL    HW2 1662   5.886   3.563   5.224
  255SOL     OW 1663   3.570   2.073   3.531
  255SOL    HW1 1664   3.560   2.053   3.434
  255SOL    HW2 1665   3.663   2.051   3.560
  256SOL     OW 1666   6.752   5.829   6.855
  256SOL    HW1 1667   6.657   5.859   6.867
  256SOL    HW2 1668   6.773   5.758   6.921
  257SOL     OW 1669   2.863   5.433   5.776
  257SOL    HW1 1670   2.829   5.515   5.821
  257SOL    HW2 1671   2.948   5.403   5.819
  258SOL     OW 1672   5.350   4.047   4.129
  258SOL    HW1 1673   5.365   4.146   4.136
  258SOL    HW2 1674   5.367   4.004   4.218
  259SOL     OW 1675   1.065   2.372   3.352
  259SOL    HW1 1676   1.153   2.405   3.318
  259SOL    HW2 1677   1.002   2.362   3.276
  260SOL     OW 1678   6.315   0.103   6.498
  260SOL    HW1 1679   6.372   0.027   6.467
  260SOL    HW2 1680   6.302   0.167   6.422
  261SOL     OW 1681   1.171   2.127   2.786
  261SOL    HW1 1682   1.181   2.030   2.765
  261SOL    HW2 1683   1.125   2.137   2.874
  262SOL     OW 1684   1.036   5.182   1.903
  262SOL    HW1 1685   1.037   5.260   1.840
  262SOL    HW2 1686   1.010   5.214   1.994
  263SOL     OW 1687   1.211   2.087   4.461
  263SOL    HW1 1688   1.139   2.074   4.393
  263SOL    HW2 1689   1.213   2.009   4.524
  264SOL     OW 1690   3.141   4.952   6.013
  264SOL    HW1 1691   3.213   4.984   5.951
  264SOL    HW2 1692   3.173   4.869   6.060
  265SOL     OW 1693   5.371   4.859   5.072
  265SOL    HW1 1694   5.304   4.791   5.043
  265SOL    HW2 1695   5.435   4.876   4.998
  266SOL     OW 1696   3.981   2.464   0.479
  266SOL    HW1 1697   4.078   2.468   0.456
  266SOL    HW2 1698   3.971   2.461   0.579
  267SOL     OW 1699   1.292   1.494   5.721
  267SOL    HW1 1700   1.242   1.562   5.667
  267SOL    HW2 1701   1.236   1.464   5.798
  268SOL     OW 1702   3.789   5.459   4.323
  268SOL    HW1 1703   3.796   5.424   4.417
  268SOL    HW2 1704   3.733   5.542   4.323
  269SOL     OW 1705   1.098   0.965   6.201
  269SOL    HW1 1706   1.010   0.978   6.156
  269SOL    HW2 1707   1.133   1.053   6.234
  270SOL     OW 1708   5.143   1.123   3.794
  270SOL    HW1 1709   5.130   1.124   3.893
  270SOL    HW2 1710   5.212   1.054   3.770
  271SOL     OW 1711   1.476   1.092   6.965
  271SOL    HW1 1712   1.460   0.993   6.965
  271SOL    HW2 1713   1.389   1.139   6.951
  272SOL     OW 1714   4.131   6.057   2.771
  272SOL    HW1 1715   4.137   6.016   2.680
  272SOL    HW2 1716   4.042   6.036   2.811
  273SOL     OW 1717   2.699   6.959   5.193
  273SOL    HW1 1718   2.773   7.005   5.242
  273SOL    HW2 1719   2.624   6.940   5.257
  274SOL     OW 1720   5.955   1.922   1.373
  274SOL    HW1 1721   5.863   1.954   1.353
  274SOL    HW2 1722   5.951   1.850   1.442
  275SOL     OW 1723   5.784   5.853   5.093
  275SOL    HW1 1724   5.777   5.769   5.039
  275SOL    HW2 1725   5.751   5.931   5.039
  276SOL     OW 1726   6.428   6.407   3.778
  276SOL    HW1 1727   6.471   6.414   3.688
  276SOL    HW2 1728   6.333   6.377   3.767
  277SOL     OW 1729   4.896   1.181   5.579
  277SOL    HW1 1730   4.920   1.197   5.483
  277SOL    HW2 1731   4.854   1.263   5.617
  278SOL     OW 1732   6.300   3.000   3.253
  278SOL    HW1 1733   6.228   2.971   3.190
  278SOL    HW2 1734   6.341   3.085   3.220
  279SOL     OW 1735   0.048   3.350   4.766
  279SOL    HW1 1736   0.036   3.449   4.758
  279SOL    HW2 1737   0.046   3.324   4.862
  280SOL     OW 1738   3.171   1.185   2.916
  280SOL    HW1 1739   3.253   1.183   2.859
  280SOL    HW2 1740   3.187   1.245   2.995
  281SOL     OW 1741   5.656   5.918   3.572
  281SOL    HW1 1742   5.701   5.975   3.503
  281SOL    HW2 1743   5.658   5.823   3.543
  282SOL     OW 1744   2.665   1.684   0.589
  282SOL    HW1 1745   2.740   1.707   0.526
  282SOL    HW2 1746   2.692   1.607   0.646
  283SOL     OW 1747   6.810   2.117   4.929
  283SOL    HW1 1748   6.731   2.056   4.931
  283SOL    HW2 1749   6.779   2.212   4.929
  284SOL     OW 1750   4.949   6.020   3.638
  284SOL    HW1 1751   4.976   6.103   3.686
  284SOL    HW2 1752   4.933   6.041   3.542
  285SOL     OW 1753   4.309   0.291   6.168
  285SOL    HW1 1754   4.285   0.381   6.205
  285SOL    HW2 1755   4.226   0.246   6.134
  286SOL     OW 1756   1.949   5.149   5.173
  286SOL    HW1 1757   1.935   5.194   5.262
  286SOL    HW2 1758   2.047   5.151   5.151
  287SOL     OW 1759   2.786   0.193   6.165
  287SOL    HW1 1760   2.800   0.128   6.240
  287SOL    HW2 1761   2.864   0.190   6.104
  288SOL     OW 1762   3.844   0.485   1.336
  288SOL    HW1 1763   3.765   0.429   1.363
  288SOL    HW2 1764   3.928   0.435   1.356
  289SOL     OW 1765   6.383   6.017   3.285
  289SOL    HW1 1766   6.344   5.928   3.311
  289SOL    HW2 1767   6.326   6.090   3.323
  290SOL     OW 1768   3.072   0.605   6.039
  290SOL    HW1 1769   3.042   0.638   6.129
  290SOL    HW2 1770   3.119   0.517   6.049
  291SOL     OW 1771   3.003   6.861   5.243
  291SOL    HW1 1772   3.075   6.876   5.175
  291SOL    HW2 1773   2.936   6.797   5.206
  292SOL     OW 1774   4.486   0.075   4.288
  292SOL    HW1 1775   4.486   0.174   4.303
  292SOL    HW2 1776   4.563   0.051   4.228
  293SOL     OW 1777   6.015   7.014   2.278
  293SOL    HW1 1778   5.942   6.986   2.340
  293SOL    HW2 1779   6.007   0.089   2.260
  294SOL     OW 1780   6.481   0.822   6.004
  294SOL    HW1 1781   6.415   0.826   6.078
  294SOL    HW2 1782   6.448   0.878   5.928
  295SOL     OW 1783   1.216   1.527   4.538
  295SOL    HW1 1784   1.213   1.626   4.521
  295SOL    HW2 1785   1.124   1.490   4.535
  296SOL     OW 1786   6.866   2.182   1.034
  296SOL    HW1 1787   6.848   2.147   1.126
  296SOL    HW2 1788   6.867   2.107   0.968
  297SOL     OW 1789   5.179   3.217   3.729
  297SOL    HW1 1790   5.136   3.151   3.668
  297SOL    HW2 1791   5.156   3.195   3.824
  298SOL     OW 1792   3.947   0.534   5.935
  298SOL    HW1 1793   3.926   0.524   5.838
  298SOL    HW2 1794   3.871   0.580   5.981
  299SOL     OW 1795   0.923   0.803   6.757
  299SOL    HW1 1796   0.931   0.898   6.787
  299SOL    HW2 1797   0.988   0.746   6.808
  300SOL     OW 1798   4.777   0.136   3.582
  300SOL    HW1 1799   4.853   0.189   3.545
  300SOL    HW2 1800   4.691   0.176   3.552
  301SOL     OW 1801   6.580   5.803   1.334
  301SOL    HW1 1802   6.576   5.723   1.393
  301SOL    HW2 1803   6.584   5.775   1.238
  302SOL     OW 1804   0.437   5.531   1.583
  302SOL    HW1 1805   0.377   5.562   1.509
  302SOL    HW2 1806   0.499   5.461   1.548
  303SOL     OW 1807   5.748   6.100   3.357
  303SOL    HW1 1808   5.687   6.106   3.279
  303SOL    HW2 1809   5.819   6.170   3.349
  304SOL     OW 1810   2.381   5.592   4.759
  304SOL    HW1 1811   2.324   5.620   4.837
  304SOL    HW2 1812   2.394   5.493   4.762
  305SOL     OW 1813   0.940   3.055   2.378
  305SOL    HW1 1814   0.949   3.004   2.464
  305SOL    HW2 1815   0.905   2.995   2.307
  306SOL     OW 1816   0.298   6.605   3.044
  306SOL    HW1 1817   0.278   6.573   2.951
  306SOL    HW2 1818   0.310   6.704   3.043
  307SOL     OW 1819   3.918   3.061   3.463
  307SOL    HW1 1820   3.865   3.053   3.547
  307SOL    HW2 1821   4.015   3.058   3.484
  308SOL     OW 1822   5.210   2.373   3.466
  308SOL    HW1 1823   5.268   2.354   3.545
  308SOL    HW2 1824   5.185   2.287   3.422
  309SOL     OW 1825   1.526   6.952   6.704
  309SOL    HW1 1826   1.441   6.914   6.666
  309SOL    HW2 1827   1.504   7.012   6.780
  310SOL     OW 1828   5.047   0.568   4.974
  310SOL    HW1 1829   5.037   0.473   4.946
  310SOL    HW2 1830   5.124   0.609   4.925
  311SOL     OW 1831   2.277   5.614   2.530
  311SOL    HW1 1832   2.276   5.569   2.441
  311SOL    HW2 1833   2.182   5.634   2.557
  312SOL     OW 1834   4.408   1.403   3.268
  312SOL    HW1 1835   4.463   1.330   3.228
  312SOL    HW2 1836   4.429   1.412   3.365
  313SOL     OW 1837   3.769   3.930   2.462
  313SOL    HW1 1838   3.834   3.856   2.447
  313SOL    HW2 1839   3.772   3.994   2.386
  314SOL     OW 1840   2.212   5.532   6.062
  314SOL    HW1 1841   2.218   5.554   5.965
  314SOL    HW2 1842   2.133   5.473   6.078
  315SOL     OW 1843   6.126   1.300   3.490
  315SOL    HW1 1844   6.169   1.249   3.415
  315SOL    HW2 1845   6.038   1.258   3.512
  316SOL     OW 1846   3.904   1.259   6.168
  316SOL    HW1 1847   3.834   1.330   6.163
  316SOL    HW2 1848   3.896   1.199   6.089
  317SOL     OW 1849   1.261   1.863   1.697
  317SOL    HW1 1850   1.300   1.772   1.683
  317SOL    HW2 1851   1.328   1.920   1.745
  318SOL     OW 1852   1.207   0.413   4.675
  318SOL    HW1 1853   1.111   0.421   4.699
  318SOL    HW2 1854   1.263   0.424   4.757
  319SOL     OW 1855   1.450   1.766   2.434
  319SOL    HW1 1856   1.473   1.840   2.372
  319SOL    HW2 1857   1.513   1.766   2.512
  320SOL     OW 1858   6.128   1.943   6.007
  320SOL    HW1 1859   6.209   1.967   5.953
  320SOL    HW2 1860   6.157   1.893   6.089
  321SOL     OW 1861   4.473   3.140   0.969
  321SOL    HW1 1862   4.451   3.154   0.873
  321SOL    HW2 1863   4.390   3.121   1.020
  322SOL     OW 1864   3.293   3.150   6.306
  322SOL    HW1 1865   3.360   3.206   6.355
  322SOL    HW2 1866   3.337   3.110   6.225
  323SOL     OW 1867   0.697   3.818   2.045
  323SOL    HW1 1868   0.752   3.741   2.078
  323SOL    HW2 1869   0.616   3.783   1.998
  324SOL     OW 1870   0.343   0.301   3.341
  324SOL    HW1 1871   0.401   0.367   3.294
  324SOL    HW2 1872   0.338   0.217   3.287
  325SOL     OW 1873   7.023   4.084   2.083
  325SOL    HW1 1874   0.031   4.030   2.161
  325SOL    HW2 1875   7.010   4.024   2.004
  326SOL     OW 1876   0.889   6.685   6.667
  326SOL    HW1 1877   0.940   6.741   6.602
  326SOL    HW2 1878   0.851   6.743   6.738
  327SOL     OW 1879   4.959   5.725   4.340
  327SOL    HW1 1880   4.972   5.670   4.423
  327SOL    HW2 1881   4.861   5.737   4.323
  328SOL     OW 1882   2.156   3.921   2.581
  328SOL    HW1 1883   2.161   3.884   2.489
  328SOL    HW2 1884   2.060   3.919   2.612
  329SOL     OW 1885   3.087   3.375   2.080
  329SOL    HW1 1886   3.114   3.454   2.025
  329SOL    HW2 1887   3.013   3.401   2.142
  330SOL     OW 1888   3.228   5.945   0.446
  330SOL    HW1 1889   3.140   5.944   0.398
  330SOL    HW2 1890   3.302   5.931   0.381
  331SOL     OW 1891   5.821   5.118   6.707
  331SOL    HW1 1892   5.895   5.051   6.712
  331SOL    HW2 1893   5.743   5.086   6.761
  332SOL     OW 1894   5.919   2.213   3.111
  332SOL    HW1 1895   5.995   2.176   3.059
  332SOL    HW2 1896   5.911   2.166   3.198
  333SOL     OW 1897   3.227   1.060   5.616
  333SOL    HW1 1898   3.253   1.026   5.526
  333SOL    HW2 1899   3.129   1.047   5.631
  334SOL     OW 1900   3.987   3.654   3.764
  334SOL    HW1 1901   4.032   3.621   3.681
  334SOL    HW2 1902   4.056   3.664   3.837
  335SOL     OW 1903   3.791   0.517   6.704
  335SOL    HW1 1904   3.818   0.466   6.786
  335SOL    HW2 1905   3.858   0.501   6.631
  336SOL     OW 1906   2.785   1.490   3.673
  336SOL    HW1 1907   2.811   1.564   3.735
  336SOL    HW2 1908   2.727   1.425   3.722
  337SOL     OW 1909   2.059   0.465   6.101
  337SOL    HW1 1910   2.024   0.398   6.036
  337SOL    HW2 1911   1.983   0.516   6.141
  338SOL     OW 1912   4.025   1.477   1.029
  338SOL    HW1 1913   3.991   1.537   1.100
  338SOL    HW2 1914   4.019   1.523   0.940
  339SOL     OW 1915   3.970   5.212   4.843
  339SOL    HW1 1916   3.980   5.248   4.750
  339SOL    HW2 1917   3.901   5.139   4.843
  340SOL     OW 1918   4.824   2.085   3.743
  340SOL    HW1 1919   4.840   1.986   3.736
  340SOL    HW2 1920   4.747   2.110   3.684
  341SOL     OW 1921   6.187   6.472   2.765
  341SOL    HW1 1922   6.269   6.425   2.732
  341SOL    HW2 1923   6.190   6.480   2.865
  342SOL     OW 1924   4.325   2.028   2.447
  342SOL    HW1 1925   4.417   2.065   2.441
  342SOL    HW2 1926   4.258   2.099   2.426
  343SOL     OW 1927   0.130   5.771   2.766
  343SOL    HW1 1928   0.214   5.748   2.815
  343SOL    HW2 1929   0.109   5.868   2.778
  344SOL     OW 1930   2.057   2.239   1.228
  344SOL    HW1 1931   2.080   2.145   1.202
  344SOL    HW2 1932   2.138   2.283   1.267
  345SOL     OW 1933   6.625   3.715   4.174
  345SOL    HW1 1934   6.597   3.789   4.113
  345SOL    HW2 1935   6.639   3.631   4.121
  346SOL     OW 1936   2.061   6.292   3.240
  346SOL    HW1 1937   2.084   6.252   3.151
  346SOL    HW2 1938   1.962   6.310   3.243
  347SOL     OW 1939   2.520   4.997   0.360
  347SOL    HW1 1940   2.591   4.944   0.406
  347SOL    HW2 1941   2.517   4.973   0.263
  348SOL     OW 1942   4.685   5.374   1.416
  348SOL    HW1 1943   4.782   5.367   1.391
  348SOL    HW2 1944   4.673   5.451   1.479
  349SOL     OW 1945   6.560   4.100   1.341
  349SOL    HW1 1946   6.525   4.193   1.337
  349SOL    HW2 1947   6.564   4.070   1.436
  350SOL     OW 1948   3.546   3.010   0.394
  350SOL    HW1 1949   3.522   3.077   0.325
  350SOL    HW2 1950   3.532   3.049   0.485
  351SOL     OW 1951   3.173   4.650   1.507
  351SOL    HW1 1952   3.145   4.576   1.569
  351SOL    HW2 1953   3.245   4.617   1.446
  352SOL     OW 1954   4.115   0.322   3.122
  352SOL    HW1 1955   4.020   0.292   3.115
  352SOL    HW2 1956   4.172   0.247   3.156
  353SOL     OW 1957   2.157   6.567   6.837
  353SOL    HW1 1958   2.103   6.567   6.753
  353SOL    HW2 1959   2.096   6.562   6.916
  354SOL     OW 1960   0.056   2.783   0.324
  354SOL    HW1 1961   0.152   2.765   0.347
  354SOL    HW2 1962   0.043   2.771   0.225
  355SOL     OW 1963   1.763   2.369   2.650
  355SOL    HW1 1964   1.786   2.280   2.612
  355SOL    HW2 1965   1.770   2.439   2.578
  356SOL     OW 1966   1.011   6.860   6.499
  356SOL    HW1 1967   1.073   6.892   6.571
  356SOL    HW2 1968   0.967   6.939   6.456
  357SOL     OW 1969   5.394   6.711   4.955
  357SOL    HW1 1970   5.414   6.757   5.041
  357SOL    HW2 1971   5.476   6.712   4.897
  358SOL     OW 1972   4.290   5.736   0.217
  358SOL    HW1 1973   4.283   5.836   0.210
  358SOL    HW2 1974   4.384   5.708   0.197
  359SOL     OW 1975   2.524   2.489   2.760
  359SOL    HW1 1976   2.533   2.456   2.666
  359SOL    HW2 1977   2.540   2.414   2.824
  360SOL     OW 1978   1.109   4.777   4.717
  360SOL    HW1 1979   1.089   4.864   4.671
  360SOL    HW2 1980   1.082   4.701   4.657
  361SOL     OW 1981   6.274   0.271   3.347
  361SOL    HW1 1982   6.304   0.209   3.419
  361SOL    HW2 1983   6.285   0.226   3.258
  362SOL     OW 1984   4.302   4.876   0.821
  362SOL    HW1 1985   4.340   4.788   0.791
  362SOL    HW2 1986   4.273   4.868   0.916
  363SOL     OW 1987   5.283   5.084   2.253
  363SOL    HW1 1988   5.319   5.175   2.232
  363SOL    HW2 1989   5.324   5.017   2.191
  364SOL     OW 1990   0.695   6.135   6.540
  364SOL    HW1 1991   0.745   6.072   6.600
  364SOL    HW2 1992   0.602   6.146   6.574
  365SOL     OW 1993   4.980   1.743   3.299
  365SOL    HW1 1994   4.962   1.650   3.267
  365SOL    HW2 1995   4.917   1.807   3.255
  366SOL     OW 1996   5.767   1.931   0.256
  366SOL    HW1 1997   5.845   1.950   0.196
  366SOL    HW2 1998   5.684   1.927   0.202
  367SOL     OW 1999   5.021   1.860   5.639
  367SOL    HW1 2000   5.035   1.845   5.541
  367SOL    HW2 2001   4.959   1.938   5.652
  368SOL     OW 2002   6.761   2.464   6.153
  368SOL    HW1 2003   6.848   2.443   6.108
  368SOL    HW2 2004   6.771   2.450   6.252
  369SOL     OW 2005   6.147   3.104   2.388
  369SOL    HW1 2006   6.056   3.082   2.422
  369SOL    HW2 2007   6.216   3.077   2.455
  370SOL     OW 2008   2.102   3.483   3.719
  370SOL    HW1 2009   2.101   3.575   3.680
  370SOL    HW2 2010   2.010   3.461   3.754
  371SOL     OW 2011   1.549   4.612   6.552
  371SOL    HW1 2012   1.598   4.660   6.479
  371SOL    HW2 2013   1.569   4.656   6.640
  372SOL     OW 2014   3.845   6.724   6.571
  372SOL    HW1 2015   3.809   6.652   6.511
  372SOL    HW2 2016   3.793   6.725   6.657
  373SOL     OW 2017   6.263   5.857   4.124
  373SOL    HW1 2018   6.204   5.847   4.205
  373SOL    HW2 2019   6.313   5.943   4.130
  374SOL     OW 2020   2.744   1.883   2.636
  374SOL    HW1 2021   2.650   1.868   2.607
  374SOL    HW2 2022   2.797   1.922   2.561
  375SOL     OW 2023   1.600   5.058   5.053
  375SOL    HW1 2024   1.586   5.057   5.152
  375SOL    HW2 2025   1.666   4.988   5.027
  376SOL     OW 2026   2.828   1.120   4.291
  376SOL    HW1 2027   2.758   1.057   4.258
  376SOL    HW2 2028   2.844   1.106   4.388
  377SOL     OW 2029   0.985   2.174   6.665
  377SOL    HW1 2030   1.001   2.206   6.572
  377SOL    HW2 2031   0.910   2.226   6.705
  378SOL     OW 2032   3.434   0.859   1.476
  378SOL    HW1 2033   3.530   0.872   1.453
  378SOL    HW2 2034   3.378   0.923   1.423
  379SOL     OW 2035   6.468   1.947   6.147
  379SOL    HW1 2036   6.502   1.866   6.195
  379SOL    HW2 2037   6.401   1.919   6.078
  380SOL     OW 2038   3.956   1.688   1.202
  380SOL    HW1 2039   3.946   1.727   1.111
  380SOL    HW2 2040   3.912   1.747   1.269
  381SOL     OW 2041   1.721   3.827   3.429
  381SOL    HW1 2042   1.758   3.857   3.517
  381SOL    HW2 2043   1.666   3.901   3.389
  382SOL     OW 2044   5.556   0.450   6.967
  382SOL    HW1 2045   5.470   0.410   6.936
  382SOL    HW2 2046   5.537   0.515   0.017
  383SOL     OW 2047   3.996   2.974   0.724
  383SOL    HW1 2048   3.946   2.953   0.641
  383SOL    HW2 2049   3.934   2.968   0.803
  384SOL     OW 2050   6.069   4.264   4.778
  384SOL    HW1 2051   6.110   4.233   4.863
  384SOL    HW2 2052   5.971   4.247   4.780
  385SOL     OW 2053   4.546   4.528   0.373
  385SOL    HW1 2054   4.603   4.450   0.347
  385SOL    HW2 2055   4.603   4.600   0.411
  386SOL     OW 2056   3.070   6.929   3.857
  386SOL    HW1 2057   3.028   6.838   3.865
  386SOL    HW2 2058   3.152   6.934   3.913
  387SOL     OW 2059   1.969   5.867   3.850
  387SOL    HW1 2060   1.897   5.833   3.789
  387SOL    HW2 2061   2.056   5.823   3.826
  388SOL     OW 2062   2.545   2.707   5.921
  388SOL    HW1 2063   2.536   2.750   5.830
  388SOL    HW2 2064   2.632   2.659   5.927
  389SOL     OW 2065   2.874   3.501   3.232
  389SOL    HW1 2066   2.889   3.508   3.133
  389SOL    HW2 2067   2.889   3.407   3.262
  390SOL     OW 2068   1.986   1.084   4.434
  390SOL    HW1 2069   1.986   1.145   4.354
  390SOL    HW2 2070   1.892   1.054   4.452
  391SOL     OW 2071   0.813   3.318   0.204
  391SOL    HW1 2072   0.886   3.386   0.203
  391SOL    HW2 2073   0.765   3.322   0.291
  392SOL     OW 2074   2.463   4.932   2.434
  392SOL    HW1 2075   2.403   4.899   2.507
  392SOL    HW2 2076   2.415   4.927   2.346
  393SOL     OW 2077   5.625   4.413   5.074
  393SOL    HW1 2078   5.679   4.359   5.138
  393SOL    HW2 2079   5.606   4.503   5.113
  394SOL     OW 2080   1.456   0.177   1.039
  394SOL    HW1 2081   1.503   0.262   1.062
  394SOL    HW2 2082   1.514   0.100   1.063
  395SOL     OW 2083   5.233   4.109   1.322
  395SOL    HW1 2084   5.178   4.042   1.273
  395SOL    HW2 2085   5.310   4.063   1.367
  396SOL     OW 2086   3.198   4.093   3.731
  396SOL    HW1 2087   3.139   4.080   3.651
  396SOL    HW2 2088   3.270   4.158   3.709
  397SOL     OW 2089   4.616   1.789   5.635
  397SOL    HW1 2090   4.543   1.819   5.696
  397SOL    HW2 2091   4.658   1.868   5.590
  398SOL     OW 2092   0.945   5.154   2.479
  398SOL    HW1 2093   0.931   5.089   2.404
  398SOL    HW2 2094   0.869   5.218   2.482
  399SOL     OW 2095   4.716   5.138   1.234
  399SOL    HW1 2096   4.667   5.201   1.294
  399SOL    HW2 2097   4.674   5.140   1.143
  400SOL     OW 2098   0.402   5.917   5.078
  400SOL    HW1 2099   0.318   5.960   5.043
  400SOL    HW2 2100   0.378   5.840   5.137
  401SOL     OW 2101   4.791   2.208   0.029
  401SOL    HW1 2102   4.865   2.216   0.096
  401SOL    HW2 2103   4.802   2.122   7.003
  402SOL     OW 2104   6.224   5.703   1.138
  402SOL    HW1 2105   6.262   5.616   1.105
  402SOL    HW2 2106   6.170   5.745   1.065
  403SOL     OW 2107   4.403   1.901   5.826
  403SOL    HW1 2108   4.365   1.849   5.902
  403SOL    HW2 2109   4.348   1.984   5.811
  404SOL     OW 2110   0.469   6.988   4.533
  404SOL    HW1 2111   0.483   6.938   4.448
  404SOL    HW2 2112   0.512   0.054   4.527
  405SOL     OW 2113   0.822   2.595   0.786
  405SOL    HW1 2114   0.779   2.651   0.857
  405SOL    HW2 2115   0.867   2.655   0.720
  406SOL     OW 2116   1.753   2.516   4.480
  406SOL    HW1 2117   1.687   2.572   4.530
  406SOL    HW2 2118   1.797   2.572   4.410
  407SOL     OW 2119   2.627   0.695   5.384
  407SOL    HW1 2120   2.657   0.686   5.479
  407SOL    HW2 2121   2.589   0.787   5.370
  408SOL     OW 2122   1.711   0.461   3.878
  408SOL    HW1 2123   1.810   0.447   3.887
  408SOL    HW2 2124   1.692   0.517   3.797
  409SOL     OW 2125   5.607   3.416   3.671
  409SOL    HW1 2126   5.642   3.481   3.739
  409SOL    HW2 2127   5.674   3.406   3.597
  410SOL     OW 2128   2.330   0.883   6.495
  410SOL    HW1 2129   2.336   0.967   6.441
  410SOL    HW2 2130   2.292   0.810   6.438
  411SOL     OW 2131   6.240   4.430   5.109
  411SOL    HW1 2132   6.338   4.419   5.124
  411SOL    HW2 2133   6.198   4.340   5.097
  412SOL     OW 2134   3.738   0.350   2.332
  412SOL    HW1 2135   3.737   0.285   2.407
  412SOL    HW2 2136   3.645   0.362   2.296
  413SOL     OW 2137   3.049   6.241   0.544
  413SOL    HW1 2138   3.073   6.260   0.640
  413SOL    HW2 2139   3.126   6.194   0.500
  414SOL     OW 2140   4.310   4.417   0.260
  414SOL    HW1 2141   4.387   4.461   0.307
  414SOL    HW2 2142   4.237   4.485   0.247
  415SOL     OW 2143   2.123   6.587   1.716
  415SOL    HW1 2144   2.205   6.618   1.669
  415SOL    HW2 2145   2.075   6.519   1.660
  416SOL     OW 2146   4.114   6.580   4.726
  416SOL    HW1 2147   4.062   6.640   4.787
  416SOL    HW2 2148   4.054   6.545   4.654
  417SOL     OW 2149   4.153   6.157   2.351
  417SOL    HW1 2150   4.184   6.116   2.266
  417SOL    HW2 2151   4.063   6.199   2.338
  418SOL     OW 2152   4.822   5.699   0.373
  418SOL    HW1 2153   4.812   5.604   0.403
  418SOL    HW2 2154   4.813   5.760   0.452
  419SOL     OW 2155   6.928   6.632   1.308
  419SOL    HW1 2156   6.939   6.695   1.385
  419SOL    HW2 2157   6.909   6.540   1.343
  420SOL     OW 2158   5.495   3.925   0.461
  420SOL    HW1 2159   5.538   3.934   0.371
  420SOL    HW2 2160   5.477   3.829   0.480
  421SOL     OW 2161   2.420   6.165   6.687
  421SOL    HW1 2162   2.364   6.226   6.743
  421SOL    HW2 2163   2.417   6.073   6.725
  422SOL     OW 2164   6.077   4.309   6.441
  422SOL    HW1 2165   5.998   4.251   6.422
  422SOL    HW2 2166   6.142   4.304   6.365
  423SOL     OW 2167   5.798   2.768   0.076
  423SOL    HW1 2168   5.851   2.811   0.149
  423SOL    HW2 2169   5.710   2.739   0.112
  424SOL     OW 2170   2.793   4.331   0.463
  424SOL    HW1 2171   2.792   4.321   0.562
  424SOL    HW2 2172   2.835   4.250   0.422
  425SOL     OW 2173   4.034   1.013   1.523
  425SOL    HW1 2174   4.002   1.104   1.549
  425SOL    HW2 2175   3.983   0.981   1.443
  426SOL     OW 2176   5.112   2.961   5.832
  426SOL    HW1 2177   5.049   2.898   5.877
  426SOL    HW2 2178   5.199   2.915   5.815
  427SOL     OW 2179   5.532   4.017   1.150
  427SOL    HW1 2180   5.465   3.945   1.130
  427SOL    HW2 2181   5.519   4.092   1.086
  428SOL     OW 2182   3.849   0.490   5.681
  428SOL    HW1 2183   3.867   0.437   5.599
  428SOL    HW2 2184   3.765   0.543   5.670
  429SOL     OW 2185   1.626   4.799   0.001
  429SOL    HW1 2186   1.691   4.769   0.071
  429SOL    HW2 2187   1.567   4.871   0.039
  430SOL     OW 2188   0.960   0.094   5.038
  430SOL    HW1 2189   1.021   0.015   5.046
  430SOL    HW2 2190   0.909   0.088   4.953
  431SOL     OW 2191   3.631   1.623   0.130
  431SOL    HW1 2192   3.575   1.553   0.174
  431SOL    HW2 2193   3.648   1.697   0.195
  432SOL     OW 2194   6.834   1.706   0.590
  432SOL    HW1 2195   6.751   1.714   0.645
  432SOL    HW2 2196   6.887   1.791   0.596
  433SOL     OW 2197   2.783   6.672   5.170
  433SOL    HW1 2198   2.733   6.757   5.156
  433SOL    HW2 2199   2.730   6.611   5.229
  434SOL     OW 2200   5.630   3.317   1.067
  434SOL    HW1 2201   5.584   3.230   1.084
  434SOL    HW2 2202   5.722   3.301   1.033
  435SOL     OW 2203   3.242   3.655   6.239
  435SOL    HW1 2204   3.292   3.639   6.154
  435SOL    HW2 2205   3.299   3.630   6.317
  436SOL     OW 2206   1.658   0.430   1.118
  436SOL    HW1 2207   1.669   0.509   1.058
  436SOL    HW2 2208   1.740   0.418   1.174
  437SOL     OW 2209   0.133   0.212   6.239
  437SOL    HW1 2210   0.147   0.233   6.336
  437SOL    HW2 2211   0.069   0.136   6.229
  438SOL     OW 2212   1.619   3.318   2.024
  438SOL    HW1 2213   1.553   3.248   2.052
  438SOL    HW2 2214   1.712   3.280   2.028
  439SOL     OW 2215   6.085   4.595   2.430
  439SOL    HW1 2216   6.107   4.550   2.343
  439SOL    HW2 2217   6.049   4.686   2.412
  440SOL     OW 2218   0.726   2.349   4.286
  440SOL    HW1 2219   0.743   2.251   4.295
  440SOL    HW2 2220   0.788   2.388   4.218
  441SOL     OW 2221   1.587   1.254   3.218
  441SOL    HW1 2222   1.656   1.292   3.280
  441SOL    HW2 2223   1.632   1.218   3.136
  442SOL     OW 2224   6.650   4.386   6.975
  442SOL    HW1 2225   6.590   4.387   0.031
  442SOL    HW2 2226   6.741   4.355   7.001
  443SOL     OW 2227   1.470   3.838   5.114
  443SOL    HW1 2228   1.410   3.863   5.190
  443SOL    HW2 2229   1.547   3.901   5.110
  444SOL     OW 2230   4.682   2.762   6.242
  444SOL    HW1 2231   4.587   2.752   6.272
  444SOL    HW2 2232   4.703   2.692   6.174
  445SOL     OW 2233   2.126   4.684   3.550
  445SOL    HW1 2234   2.173   4.770   3.570
  445SOL    HW2 2235   2.119   4.630   3.633
  446SOL     OW 2236   3.553   4.902   3.694
  446SOL    HW1 2237   3.608   4.890   3.777
  446SOL    HW2 2238   3.612   4.903   3.614
  447SOL     OW 2239   0.321   4.841   6.998
  447SOL    HW1 2240   0.299   4.922   0.028
  447SOL    HW2 2241   0.244   4.819   6.938
  448SOL     OW 2242   4.086   0.849   5.352
  448SOL    HW1 2243   4.022   0.849   5.275
  448SOL    HW2 2244   4.090   0.757   5.392
  449SOL     OW 2245   6.218   1.200   4.389
  449SOL    HW1 2246   6.302   1.218   4.337
  449SOL    HW2 2247   6.217   1.257   4.472
  450SOL     OW 2248   0.327   5.886   3.689
  450SOL    HW1 2249   0.363   5.942   3.764
  450SOL    HW2 2250   0.363   5.793   3.697
  451SOL     OW 2251   0.760   1.712   2.495
  451SOL    HW1 2252   0.690   1.742   2.559
  451SOL    HW2 2253   0.836   1.671   2.546
  452SOL     OW 2254   0.240   4.356   0.454
  452SOL    HW1 2255   0.164   4.411   0.491
  452SOL    HW2 2256   0.325   4.409   0.462
  453SOL     OW 2257   2.739   1.596   6.458
  453SOL    HW1 2258   2.820   1.538   6.450
  453SOL    HW2 2259   2.745   1.650   6.543
  454SOL     OW 2260   0.452   6.145   6.668
  454SOL    HW1 2261   0.448   6.185   6.759
  454SOL    HW2 2262   0.377   6.080   6.656
  455SOL     OW 2263   6.033   0.606   4.061
  455SOL    HW1 2264   6.041   0.512   4.028
  455SOL    HW2 2265   5.949   0.647   4.025
  456SOL     OW 2266   4.368   5.942   6.427
  456SOL    HW1 2267   4.341   5.930   6.331
  456SOL    HW2 2268   4.301   5.897   6.486
  457SOL     OW 2269   2.206   4.117   3.087
  457SOL    HW1 2270   2.189   4.070   3.173
  457SOL    HW2 2271   2.121   4.159   3.054
  458SOL     OW 2272   5.834   5.989   5.743
  458SOL    HW1 2273   5.868   6.034   5.825
  458SOL    HW2 2274   5.907   5.934   5.703
  459SOL     OW 2275   1.274   0.503   2.947
  459SOL    HW1 2276   1.282   0.602   2.944
  459SOL    HW2 2277   1.249   0.469   2.856
  460SOL     OW 2278   6.857   1.943   2.368
  460SOL    HW1 2279   6.869   1.890   2.285
  460SOL    HW2 2280   6.812   1.887   2.438
  461SOL     OW 2281   4.512   6.722   5.012
  461SOL    HW1 2282   4.441   6.758   5.072
  461SOL    HW2 2283   4.470   6.684   4.930
  462SOL     OW 2284   3.326   2.761   6.046
  462SOL    HW1 2285   3.376   2.675   6.032
  462SOL    HW2 2286   3.281   2.788   5.961
  463SOL     OW 2287   6.186   5.518   3.275
  463SOL    HW1 2288   6.117   5.524   3.347
  463SOL    HW2 2289   6.158   5.572   3.196
  464SOL     OW 2290   1.736   1.122   6.912
  464SOL    HW1 2291   1.636   1.125   6.922
  464SOL    HW2 2292   1.761   1.041   6.859
  465SOL     OW 2293   0.767   1.570   3.870
  465SOL    HW1 2294   0.778   1.582   3.969
  465SOL    HW2 2295   0.758   1.473   3.849
  466SOL     OW 2296   0.381   6.882   3.869
  466SOL    HW1 2297   0.350   6.802   3.920
  466SOL    HW2 2298   0.471   6.862   3.829
  467SOL     OW 2299   0.648   0.085   5.927
  467SOL    HW1 2300   0.728   0.050   5.879
  467SOL    HW2 2301   0.622   0.021   6.000
  468SOL     OW 2302   3.964   5.697   0.708
  468SOL    HW1 2303   3.888   5.707   0.645
  468SOL    HW2 2304   4.020   5.780   0.707
  469SOL     OW 2305   2.258   5.675   0.369
  469SOL    HW1 2306   2.295   5.697   0.459
  469SOL    HW2 2307   2.167   5.635   0.379
  470SOL     OW 2308   4.444   0.388   2.284
  470SOL    HW1 2309   4.409   0.437   2.364
  470SOL    HW2 2310   4.418   0.292   2.289
  471SOL     OW 2311   1.864   2.292   4.604
  471SOL    HW1 2312   1.828   2.289   4.697
  471SOL    HW2 2313   1.873   2.387   4.575
  472SOL     OW 2314   4.887   4.865   6.177
  472SOL    HW1 2315   4.895   4.965   6.183
  472SOL    HW2 2316   4.801   4.841   6.133
  473SOL     OW 2317   0.623   2.891   2.202
  473SOL    HW1 2318   0.720   2.870   2.198
  473SOL    HW2 2319   0.587   2.866   2.293
  474SOL     OW 2320   4.126   5.667   3.777
  474SOL    HW1 2321   4.051   5.631   3.721
  474SOL    HW2 2322   4.189   5.592   3.799
  475SOL     OW 2323   6.888   6.640   6.955
  475SOL    HW1 2324   6.906   6.706   0.003
  475SOL    HW2 2325   6.974   6.611   6.913
  476SOL     OW 2326   6.335   4.362   2.546
  476SOL    HW1 2327   6.321   4.264   2.557
  476SOL    HW2 2328   6.432   4.384   2.551
  477SOL     OW 2329   2.266   4.985   4.406
  477SOL    HW1 2330   2.363   5.008   4.393
  477SOL    HW2 2331   2.223   4.974   4.316
  478SOL     OW 2332   3.621   5.602   3.274
  478SOL    HW1 2333   3.677   5.529   3.314
  478SOL    HW2 2334   3.594   5.667   3.346
  479SOL     OW 2335   2.688   2.268   0.569
  479SOL    HW1 2336   2.719   2.174   0.557
  479SOL    HW2 2337   2.767   2.328   0.585
  480SOL     OW 2338   1.496   0.027   1.852
  480SOL    HW1 2339   1.427   6.986   1.883
  480SOL    HW2 2340   1.455   0.090   1.785
  481SOL     OW 2341   2.482   0.811   1.731
  481SOL    HW1 2342   2.509   0.717   1.712
  481SOL    HW2 2343   2.383   0.816   1.742
  482SOL     OW 2344   5.365   4.455   2.463
  482SOL    HW1 2345   5.410   4.374   2.501
  482SOL    HW2 2346   5.356   4.525   2.534
  483SOL     OW 2347   5.353   1.972   1.731
  483SOL    HW1 2348   5.344   1.979   1.631
  483SOL    HW2 2349   5.383   1.880   1.755
  484SOL     OW 2350   0.636   2.793   4.543
  484SOL    HW1 2351   0.622   2.855   4.621
  484SOL    HW2 2352   0.621   2.843   4.458
  485SOL     OW 2353   3.561   5.025   2.339
  485SOL    HW1 2354   3.496   5.093   2.374
  485SOL    HW2 2355   3.604   5.060   2.256
  486SOL     OW 2356   1.386   1.613   0.907
  486SOL    HW1 2357   1.448   1.661   0.969
  486SOL    HW2 2358   1.384   1.516   0.931
  487SOL     OW 2359   0.599   2.406   0.194
  487SOL    HW1 2360   0.598   2.466   0.275
  487SOL    HW2 2361   0.661   2.330   0.210
  488SOL     OW 2362   1.000   1.665   1.410
  488SOL    HW1 2363   0.951   1.735   1.461
  488SOL    HW2 2364   1.097   1.667   1.435
  489SOL     OW 2365   3.563   5.985   6.887
  489SOL    HW1 2366   3.498   6.057   6.914
  489SOL    HW2 2367   3.516   5.918   6.830
  490SOL     OW 2368   6.073   6.528   4.149
  490SOL    HW1 2369   6.095   6.431   4.133
  490SOL    HW2 2370   6.087   6.550   4.245
  491SOL     OW 2371   0.366   2.721   2.596
  491SOL    HW1 2372   0.382   2.623   2.588
  491SOL    HW2 2373   0.268   2.738   2.605
  492SOL     OW 2374   3.325   1.081   5.871
  492SOL    HW1 2375   3.404   1.142   5.866
  492SOL    HW2 2376   3.281   1.075   5.782
  493SOL     OW 2377   6.621   4.926   5.998
  493SOL    HW1 2378   6.685   4.866   6.047
  493SOL    HW2 2379   6.621   4.901   5.901
  494SOL     OW 2380   0.419   6.059   0.140
  494SOL    HW1 2381   0.502   6.102   0.105
  494SOL    HW2 2382   0.347   6.129   0.149
  495SOL     OW 2383   5.139   4.827   2.869
  495SOL    HW1 2384   5.088   4.907   2.902
  495SOL    HW2 2385   5.131   4.821   2.770
  496SOL     OW 2386   5.604   2.645   3.375
  496SOL    HW1 2387   5.537   2.710   3.412
  496SOL    HW2 2388   5.571   2.610   3.287
  497SOL     OW 2389   3.735   1.056   4.864
  497SOL    HW1 2390   3.671   1.103   4.804
  497SOL    HW2 2391   3.824   1.049   4.820
  498SOL     OW 2392   0.914   3.345   2.495
  498SOL    HW1 2393   0.920   3.262   2.439
  498SOL    HW2 2394   0.844   3.333   2.566
  499SOL     OW 2395   3.087   0.372   4.485
  499SOL    HW1 2396   2.995   0.406   4.468
  499SOL    HW2 2397   3.136   0.437   4.543
  500SOL     OW 2398   0.708   4.070   3.373
  500SOL    HW1 2399   0.788   4.040   3.320
  500SOL    HW2 2400   0.625   4.040   3.326
  501SOL     OW 2401   2.588   2.588   0.338
  501SOL    HW1 2402   2.572   2.497   0.300
  501SOL    HW2 2403   2.500   2.633   0.355
  502SOL     OW 2404   4.843   4.045   5.836
  502SOL    HW1 2405   4.765   4.056   5.775
  502SOL    HW2 2406   4.818   3.986   5.912
  503SOL     OW 2407   6.199   4.211   6.209
  503SOL    HW1 2408   6.220   4.225   6.113
  503SOL    HW2 2409   6.156   4.121   6.221
  504SOL     OW 2410   2.148   6.293   4.009
  504SOL    HW1 2411   2.096   6.238   3.943
  504SOL    HW2 2412   2.136   6.255   4.101
  505SOL     OW 2413   3.831   0.259   5.925
  505SOL    HW1 2414   3.845   0.227   5.831
  505SOL    HW2 2415   3.869   0.351   5.934
  506SOL     OW 2416   1.923   4.653   4.764
  506SOL    HW1 2417   1.910   4.554   4.757
  506SOL    HW2 2418   1.859   4.691   4.831
  507SOL     OW 2419   2.971   0.095   4.740
  507SOL    HW1 2420   2.878   0.081   4.773
  507SOL    HW2 2421   2.969   0.149   4.656
  508SOL     OW 2422   5.893   3.276   2.819
  508SOL    HW1 2423   5.978   3.326   2.800
  508SOL    HW2 2424   5.874   3.280   2.917
  509SOL     OW 2425   4.362   1.138   2.067
  509SOL    HW1 2426   4.461   1.129   2.054
  509SOL    HW2 2427   4.315   1.067   2.015
  510SOL     OW 2428   6.672   4.812   5.758
  510SOL    HW1 2429   6.686   4.714   5.741
  510SOL    HW2 2430   6.631   4.854   5.677
  511SOL     OW 2431   0.226   6.241   0.135
  511SOL    HW1 2432   0.135   6.218   0.170
  511SOL    HW2 2433   0.269   6.308   0.196
  512SOL     OW 2434   0.903   3.013   0.479
  512SOL    HW1 2435   0.990   2.970   0.503
  512SOL    HW2 2436   0.877   3.078   0.551
  513SOL     OW 2437   6.302   5.894   2.969
  513SOL    HW1 2438   6.361   5.854   2.899
  513SOL    HW2 2439   6.346   5.975   3.007
  514SOL     OW 2440   6.993   2.401   4.292
  514SOL    HW1 2441   6.984   2.363   4.384
  514SOL    HW2 2442   6.938   2.348   4.228
  515SOL     OW 2443   2.291   6.936   5.591
  515SOL    HW1 2444   2.233   6.903   5.665
  515SOL    HW2 2445   2.305   0.011   5.601
  516SOL     OW 2446   2.885   4.989   1.507
  516SOL    HW1 2447   2.857   4.932   1.585
  516SOL    HW2 2448   2.960   5.049   1.534
  517SOL     OW 2449   5.448   6.770   1.964
  517SOL    HW1 2450   5.443   6.804   1.871
  517SOL    HW2 2451   5.416   6.841   2.027
  518SOL     OW 2452   2.197   2.362   1.617
  518SOL    HW1 2453   2.106   2.404   1.615
  518SOL    HW2 2454   2.239   2.379   1.706
  519SOL     OW 2455   0.197   0.343   4.605
  519SOL    HW1 2456   0.194   0.355   4.704
  519SOL    HW2 2457   0.214   0.247   4.584
  520SOL     OW 2458   5.687   4.656   6.352
  520SOL    HW1 2459   5.626   4.678   6.277
  520SOL    HW2 2460   5.766   4.717   6.350
  521SOL     OW 2461   6.785   1.694   6.167
  521SOL    HW1 2462   6.829   1.712   6.254
  521SOL    HW2 2463   6.694   1.656   6.182
  522SOL     OW 2464   3.846   2.834   5.504
  522SOL    HW1 2465   3.869   2.740   5.480
  522SOL    HW2 2466   3.909   2.897   5.459
  523SOL     OW 2467   6.820   6.226   3.621
  523SOL    HW1 2468   6.764   6.268   3.550
  523SOL    HW2 2469   6.913   6.211   3.585
  524SOL     OW 2470   2.687   0.910   6.503
  524SOL    HW1 2471   2.633   0.859   6.571
  524SOL    HW2 2472   2.626   0.969   6.450
  525SOL     OW 2473   2.772   3.634   6.406
  525SOL    HW1 2474   2.734   3.605   6.494
  525SOL    HW2 2475   2.698   3.648   6.341
  526SOL     OW 2476   2.652   5.307   4.951
  526SOL    HW1 2477   2.694   5.220   4.924
  526SOL    HW2 2478   2.557   5.310   4.919
  527SOL     OW 2479   6.715   1.386   5.929
  527SOL    HW1 2480   6.812   1.379   5.905
  527SOL    HW2 2481   6.659   1.392   5.846
  528SOL     OW 2482   1.567   1.261   4.630
  528SOL    HW1 2483   1.510   1.305   4.560
  528SOL    HW2 2484   1.631   1.198   4.587
  529SOL     OW 2485   0.773   5.129   4.870
  529SOL    HW1 2486   0.697   5.195   4.864
  529SOL    HW2 2487   0.737   5.040   4.897
  530SOL     OW 2488   2.431   2.951   5.478
  530SOL    HW1 2489   2.402   3.028   5.536
  530SOL    HW2 2490   2.420   2.976   5.382
  531SOL     OW 2491   6.878   0.543   1.071
  531SOL    HW1 2492   6.847   0.605   0.999
  531SOL    HW2 2493   6.947   0.481   1.033
  532SOL     OW 2494   1.147   1.684   5.577
  532SOL    HW1 2495   1.148   1.762   5.515
  532SOL    HW2 2496   1.082   1.701   5.651
  533SOL     OW 2497   4.944   6.421   4.966
  533SOL    HW1 2498   5.036   6.445   4.934
  533SOL    HW2 2499   4.922   6.327   4.940
  534SOL     OW 2500   4.499   5.675   3.283
  534SOL    HW1 2501   4.423   5.638   3.228
  534SOL    HW2 2502   4.472   5.761   3.325
  535SOL     OW 2503   0.399   3.872   3.836
  535SOL    HW1 2504   0.470   3.930   3.794
  535SOL    HW2 2505   0.401   3.782   3.794
  536SOL     OW 2506   0.514   5.543   1.256
  536SOL    HW1 2507   0.549   5.607   1.325
  536SOL    HW2 2508   0.554   5.565   1.167
  537SOL     OW 2509   2.532   6.237   3.368
  537SOL    HW1 2510   2.566   6.326   3.342
  537SOL    HW2 2511   2.548   6.171   3.294
  538SOL     OW 2512   1.305   5.696   3.527
  538SOL    HW1 2513   1.364   5.716   3.448
  538SOL    HW2 2514   1.340   5.617   3.576
  539SOL     OW 2515   0.995   5.448   1.775
  539SOL    HW1 2516   0.994   5.548   1.769
  539SOL    HW2 2517   0.916   5.417   1.829
  540SOL     OW 2518   0.550   1.921   2.537
  540SOL    HW1 2519   0.585   1.908   2.444
  540SOL    HW2 2520   0.603   1.993   2.583
  541SOL     OW 2521   3.009   6.271   4.973
  541SOL    HW1 2522   3.003   6.214   4.891
  541SOL    HW2 2523   2.951   6.352   4.963
  542SOL     OW 2524   5.866   6.056   6.685
  542SOL    HW1 2525   5.799   6.002   6.736
  542SOL    HW2 2526   5.934   5.994   6.644
  543SOL     OW 2527   1.025   4.888   6.601
  543SOL    HW1 2528   1.036   4.972   6.548
  543SOL    HW2 2529   1.061   4.903   6.694
  544SOL     OW 2530   0.817   5.167   0.926
  544SOL    HW1 2531   0.797   5.252   0.878
  544SOL    HW2 2532   0.912   5.140   0.909
  545SOL     OW 2533   4.069   1.311   3.108
  545SOL    HW1 2534   4.108   1.219   3.100
  545SOL    HW2 2535   4.102   1.367   3.032
  546SOL     OW 2536   1.065   3.647   1.358
  546SOL    HW1 2537   1.026   3.557   1.342
  546SOL    HW2 2538   1.015   3.692   1.432
  547SOL     OW 2539   2.909   2.885   0.804
  547SOL    HW1 2540   2.961   2.907   0.886
  547SOL    HW2 2541   2.928   2.953   0.733
  548SOL     OW 2542   3.789   3.028   3.712
  548SOL    HW1 2543   3.861   3.090   3.742
  548SOL    HW2 2544   3.757   2.973   3.790
  549SOL     OW 2545   5.361   3.520   1.559
  549SOL    HW1 2546   5.283   3.505   1.620
  549SOL    HW2 2547   5.366   3.446   1.492
  550SOL     OW 2548   6.709   2.677   2.284
  550SOL    HW1 2549   6.720   2.581   2.256
  550SOL    HW2 2550   6.613   2.703   2.278
  551SOL     OW 2551   6.875   1.769   1.072
  551SOL    HW1 2552   6.780   1.800   1.078
  551SOL    HW2 2553   6.930   1.838   1.025
  552SOL     OW 2554   3.842   5.179   0.437
  552SOL    HW1 2555   3.877   5.141   0.352
  552SOL    HW2 2556   3.917   5.217   0.490
  553SOL     OW 2557   1.867   0.839   1.813
  553SOL    HW1 2558   1.937   0.768   1.814
  553SOL    HW2 2559   1.870   0.890   1.899
  554SOL     OW 2560   5.373   0.074   5.812
  554SOL    HW1 2561   5.446   0.008   5.831
  554SOL    HW2 2562   5.312   0.037   5.742
  555SOL     OW 2563   2.232   4.671   4.495
  555SOL    HW1 2564   2.314   4.723   4.473
  555SOL    HW2 2565   2.245   4.575   4.471
  556SOL     OW 2566   6.264   2.204   3.749
  556SOL    HW1 2567   6.312   2.265   3.685
  556SOL    HW2 2568   6.325   2.181   3.824
  557SOL     OW 2569   7.015   5.684   6.455
  557SOL    HW1 2570   0.083   5.647   6.456
  557SOL    HW2 2571   6.982   5.695   6.549
  558SOL     OW 2572   4.226   3.609   5.365
  558SOL    HW1 2573   4.316   3.579   5.398
  558SOL    HW2 2574   4.237   3.681   5.298
  559SOL     OW 2575   0.199   6.050   6.532
  559SOL    HW1 2576   0.229   5.984   6.462
  559SOL    HW2 2577   0.138   6.117   6.490
  560SOL     OW 2578   4.947   6.709   6.783
  560SOL    HW1 2579   4.893   6.657   6.717
  560SOL    HW2 2580   4.911   6.802   6.791
  561SOL     OW 2581   5.986   6.629   0.375
  561SOL    HW1 2582   6.021   6.643   0.283
  561SOL    HW2 2583   6.035   6.552   0.418
  562SOL     OW 2584   5.333   1.295   6.292
  562SOL    HW1 2585   5.336   1.305   6.193
  562SOL    HW2 2586   5.278   1.214   6.316
  563SOL     OW 2587   2.501   6.123   3.937
  563SOL    HW1 2588   2.571   6.061   3.901
  563SOL    HW2 2589   2.511   6.129   4.037
  564SOL     OW 2590   1.257   1.739   6.761
  564SOL    HW1 2591   1.275   1.832   6.730
  564SOL    HW2 2592   1.280   1.674   6.689
  565SOL     OW 2593   4.545   3.838   5.667
  565SOL    HW1 2594   4.587   3.759   5.711
  565SOL    HW2 2595   4.585   3.922   5.704
  566SOL     OW 2596   4.291   5.220   3.389
  566SOL    HW1 2597   4.369   5.252   3.443
  566SOL    HW2 2598   4.320   5.147   3.328
  567SOL     OW 2599   3.315   2.999   4.433
  567SOL    HW1 2600   3.227   3.008   4.387
  567SOL    HW2 2601   3.384   2.969   4.367
  568SOL     OW 2602   3.173   2.481   0.046
  568SOL    HW1 2603   3.239   2.526   7.010
  568SOL    HW2 2604   3.085   2.528   0.040
  569SOL     OW 2605   1.708   2.717   0.578
  569SOL    HW1 2606   1.708   2.617   0.585
  569SOL    HW2 2607   1.627   2.754   0.622
  570SOL     OW 2608   1.448   6.671   0.700
  570SOL    HW1 2609   1.473   6.758   0.742
  570SOL    HW2 2610   1.515   6.648   0.629
  571SOL     OW 2611   3.646   5.325   2.848
  571SOL    HW1 2612   3.607   5.292   2.762
  571SOL    HW2 2613   3.659   5.248   2.911
  572SOL     OW 2614   1.957   3.957   5.844
  572SOL    HW1 2615   2.016   3.915   5.913
  572SOL    HW2 2616   2.003   4.036   5.804
  573SOL     OW 2617   4.433   1.021   5.033
  573SOL    HW1 2618   4.368   0.946   5.040
  573SOL    HW2 2619   4.525   0.987   5.051
  574SOL     OW 2620   2.294   1.960   4.101
  574SOL    HW1 2621   2.219   2.024   4.111
  574SOL    HW2 2622   2.366   2.000   4.045
  575SOL     OW 2623   6.366   3.134   0.138
  575SOL    HW1 2624   6.437   3.071   0.108
  575SOL    HW2 2625   6.302   3.150   0.064
  576SOL     OW 2626   1.149   2.328   2.608
  576SOL    HW1 2627   1.159   2.240   2.656
  576SOL    HW2 2628   1.225   2.388   2.633
  577SOL     OW 2629   2.496   1.796   3.640
  577SOL    HW1 2630   2.494   1.798   3.540
  577SOL    HW2 2631   2.549   1.874   3.673
  578SOL     OW 2632   0.404   3.281   3.456
  578SOL    HW1 2633   0.420   3.333   3.540
  578SOL    HW2 2634   0.471   3.208   3.448
  579SOL     OW 2635   4.231   1.997   0.781
  579SOL    HW1 2636   4.237   2.058   0.702
  579SOL    HW2 2637   4.153   2.022   0.837
  580SOL     OW 2638   1.268   5.144   6.813
  580SOL    HW1 2639   1.362   5.112   6.809
  580SOL    HW2 2640   1.206   5.066   6.818
  581SOL     OW 2641   4.014   3.679   2.723
  581SOL    HW1 2642   3.952   3.746   2.763
  581SOL    HW2 2643   4.010   3.686   2.623
  582SOL     OW 2644   4.829   4.018   2.718
  582SOL    HW1 2645   4.929   4.027   2.719
  582SOL    HW2 2646   4.796   4.021   2.624
  583SOL     OW 2647   2.067   4.414   0.089
  583SOL    HW1 2648   2.079   4.457   0.179
  583SOL    HW2 2649   1.974   4.430   0.057
  584SOL     OW 2650   0.322   4.402   5.188
  584SOL    HW1 2651   0.390   4.467   5.155
  584SOL    HW2 2652   0.271   4.364   5.111
  585SOL     OW 2653   6.925   2.321   5.984
  585SOL    HW1 2654   6.840   2.360   5.946
  585SOL    HW2 2655   6.918   2.222   5.986
  586SOL     OW 2656   2.884   6.626   0.948
  586SOL    HW1 2657   2.964   6.568   0.932
  586SOL    HW2 2658   2.906   6.693   1.020
  587SOL     OW 2659   0.902   3.278   6.047
  587SOL    HW1 2660   0.840   3.222   6.103
  587SOL    HW2 2661   0.852   3.358   6.013
  588SOL     OW 2662   3.361   6.270   1.756
  588SOL    HW1 2663   3.366   6.336   1.681
  588SOL    HW2 2664   3.452   6.258   1.796
  589SOL     OW 2665   3.818   5.242   2.413
  589SOL    HW1 2666   3.739   5.295   2.443
  589SOL    HW2 2667   3.822   5.156   2.465
  590SOL     OW 2668   0.419   2.319   2.050
  590SOL    HW1 2669   0.443   2.392   1.986
  590SOL    HW2 2670   0.461   2.233   2.021
  591SOL     OW 2671   3.506   0.316   3.424
  591SOL    HW1 2672   3.598   0.279   3.412
  591SOL    HW2 2673   3.506   0.383   3.499
  592SOL     OW 2674   4.888   0.455   0.130
  592SOL    HW1 2675   4.911   0.520   0.203
  592SOL    HW2 2676   4.851   0.371   0.171
  593SOL     OW 2677   4.822   2.381   4.080
  593SOL    HW1 2678   4.735   2.427   4.066
  593SOL    HW2 2679   4.815   2.286   4.051
  594SOL     OW 2680   4.153   4.020   1.346
  594SOL    HW1 2681   4.252   4.025   1.335
  594SOL    HW2 2682   4.114   4.112   1.340
  595SOL     OW 2683   3.736   6.133   4.046
  595SOL    HW1 2684   3.731   6.153   4.144
  595SOL    HW2 2685   3.676   6.195   3.996
  596SOL     OW 2686   0.744   4.699   2.571
  596SOL    HW1 2687   0.743   4.770   2.642
  596SOL    HW2 2688   0.803   4.624   2.600
  597SOL     OW 2689   4.453   0.397   5.952
  597SOL    HW1 2690   4.386   0.351   6.011
  597SOL    HW2 2691   4.408   0.427   5.868
  598SOL     OW 2692   3.552   4.503   0.486
  598SOL    HW1 2693   3.526   4.426   0.544
  598SOL    HW2 2694   3.643   4.487   0.447
  599SOL     OW 2695   6.653   0.313   2.562
  599SOL    HW1 2696   6.671   0.291   2.658
  599SOL    HW2 2697   6.575   0.376   2.556
  600SOL     OW 2698   1.373   0.047   0.107
  600SOL    HW1 2699   1.290   0.074   0.058
  600SOL    HW2 2700   1.349   7.009   0.181
  601SOL     OW 2701   2.966   5.612   3.826
  601SOL    HW1 2702   2.869   5.592   3.843
  601SOL    HW2 2703   2.973   5.698   3.774
  602SOL     OW 2704   1.770   0.445   1.562
  602SOL    HW1 2705   1.703   0.476   1.495
  602SOL    HW2 2706   1.773   0.345   1.562
  603SOL     OW 2707   3.918   2.170   3.255
  603SOL    HW1 2708   3.949   2.189   3.348
  603SOL    HW2 2709   3.994   2.181   3.192
  604SOL     OW 2710   0.996   3.475   6.472
  604SOL    HW1 2711   1.056   3.467   6.393
  604SOL    HW2 2712   0.985   3.386   6.516
  605SOL     OW 2713   6.230   6.768   3.452
  605SOL    HW1 2714   6.315   6.764   3.506
  605SOL    HW2 2715   6.174   6.844   3.484
  606SOL     OW 2716   3.785   0.477   3.352
  606SOL    HW1 2717   3.793   0.390   3.400
  606SOL    HW2 2718   3.868   0.493   3.298
  607SOL     OW 2719   5.126   1.599   4.105
  607SOL    HW1 2720   5.224   1.585   4.116
  607SOL    HW2 2721   5.107   1.639   4.015
  608SOL     OW 2722   4.121   0.714   0.694
  608SOL    HW1 2723   4.148   0.795   0.642
  608SOL    HW2 2724   4.050   0.739   0.760
  609SOL     OW 2725   3.247   2.915   4.120
  609SOL    HW1 2726   3.340   2.934   4.152
  609SOL    HW2 2727   3.181   2.946   4.189
  610SOL     OW 2728   5.569   2.620   4.302
  610SOL    HW1 2729   5.579   2.687   4.375
  610SOL    HW2 2730   5.499   2.553   4.327
  611SOL     OW 2731   0.233   0.142   0.734
  611SOL    HW1 2732   0.228   0.212   0.806
  611SOL    HW2 2733   0.315   0.156   0.680
  612SOL     OW 2734   3.032   5.271   6.017
  612SOL    HW1 2735   2.937   5.296   6.039
  612SOL    HW2 2736   3.072   5.221   6.093
  613SOL     OW 2737   3.621   1.530   6.492
  613SOL    HW1 2738   3.719   1.535   6.476
  613SOL    HW2 2739   3.603   1.526   6.590
  614SOL     OW 2740   5.305   4.637   1.186
  614SOL    HW1 2741   5.309   4.544   1.224
  614SOL    HW2 2742   5.219   4.680   1.214
  615SOL     OW 2743   0.087   6.712   0.860
  615SOL    HW1 2744   0.088   6.678   0.954
  615SOL    HW2 2745   0.077   6.811   0.861
  616SOL     OW 2746   5.694   1.239   4.337
  616SOL    HW1 2747   5.793   1.241   4.323
  616SOL    HW2 2748   5.668   1.154   4.382
  617SOL     OW 2749   0.609   4.675   6.036
  617SOL    HW1 2750   0.629   4.751   5.975
  617SOL    HW2 2751   0.596   4.710   6.129
  618SOL     OW 2752   5.670   3.510   0.406
  618SOL    HW1 2753   5.737   3.583   0.390
  618SOL    HW2 2754   5.717   3.425   0.428
  619SOL     OW 2755   3.091   0.547   0.557
  619SOL    HW1 2756   3.062   0.578   0.647
  619SOL    HW2 2757   3.010   0.522   0.503
  620SOL     OW 2758   5.625   2.005   1.757
  620SOL    HW1 2759   5.532   2.024   1.728
  620SOL    HW2 2760   5.624   1.933   1.826
  621SOL     OW 2761   2.823   1.117   6.247
  621SOL    HW1 2762   2.841   1.121   6.345
  621SOL    HW2 2763   2.728   1.090   6.231
  622SOL     OW 2764   1.279   1.593   4.835
  622SOL    HW1 2765   1.262   1.600   4.736
  622SOL    HW2 2766   1.375   1.572   4.851
  623SOL     OW 2767   5.418   0.005   4.023
  623SOL    HW1 2768   5.490   6.993   3.964
  623SOL    HW2 2769   5.344   0.042   3.966
  624SOL     OW 2770   6.553   0.809   6.445
  624SOL    HW1 2771   6.493   0.885   6.466
  624SOL    HW2 2772   6.621   0.799   6.518
  625SOL     OW 2773   2.838   0.778   0.459
  625SOL    HW1 2774   2.886   0.854   0.416
  625SOL    HW2 2775   2.822   0.799   0.556
  626SOL     OW 2776   0.720   5.094   3.576
  626SOL    HW1 2777   0.770   5.013   3.604
  626SOL    HW2 2778   0.720   5.101   3.476
  627SOL     OW 2779   6.785   0.243   0.130
  627SOL    HW1 2780   6.706   0.185   0.109
  627SOL    HW2 2781   6.869   0.192   0.113
  628SOL     OW 2782   4.983   4.969   5.367
  628SOL    HW1 2783   5.027   5.040   5.422
  628SOL    HW2 2784   4.898   5.005   5.328
  629SOL     OW 2785   0.033   6.943   6.167
  629SOL    HW1 2786   7.005   6.915   6.248
  629SOL    HW2 2787   0.090   6.867   6.136
  630SOL     OW 2788   6.408   1.425   1.024
  630SOL    HW1 2789   6.408   1.520   1.055
  630SOL    HW2 2790   6.501   1.390   1.024
  631SOL     OW 2791   2.049   2.472   4.819
  631SOL    HW1 2792   2.045   2.520   4.731
  631SOL    HW2 2793   2.124   2.407   4.818
  632SOL     OW 2794   3.308   3.214   6.700
  632SOL    HW1 2795   3.355   3.244   6.783
  632SOL    HW2 2796   3.234   3.152   6.724
  633SOL     OW 2797   1.886   5.796   1.595
  633SOL    HW1 2798   1.891   5.752   1.684
  633SOL    HW2 2799   1.946   5.749   1.531
  634SOL     OW 2800   2.965   3.306   4.208
  634SOL    HW1 2801   2.906   3.304   4.289
  634SOL    HW2 2802   2.995   3.400   4.192
  635SOL     OW 2803   6.119   0.895   6.425
  635SOL    HW1 2804   6.046   0.922   6.489
  635SOL    HW2 2805   6.084   0.898   6.332
  636SOL     OW 2806   2.533   0.715   6.639
  636SOL    HW1 2807   2.521   0.714   6.738
  636SOL    HW2 2808   2.446   0.736   6.595
  637SOL     OW 2809   6.453   1.239   1.562
  637SOL    HW1 2810   6.505   1.162   1.525
  637SOL    HW2 2811   6.414   1.292   1.486
  638SOL     OW 2812   6.353   3.468   4.252
  638SOL    HW1 2813   6.346   3.568   4.245
  638SOL    HW2 2814   6.377   3.431   4.162
  639SOL     OW 2815   4.900   5.063   3.434
  639SOL    HW1 2816   4.932   4.976   3.399
  639SOL    HW2 2817   4.812   5.050   3.480
  640SOL     OW 2818   0.661   2.407   2.545
  640SOL    HW1 2819   0.637   2.359   2.460
  640SOL    HW2 2820   0.577   2.426   2.596
  641SOL     OW 2821   2.074   5.071   4.564
  641SOL    HW1 2822   2.155   5.069   4.506
  641SOL    HW2 2823   2.028   4.982   4.560
  642SOL     OW 2824   0.809   3.852   4.925
  642SOL    HW1 2825   0.818   3.880   5.020
  642SOL    HW2 2826   0.885   3.888   4.872
  643SOL     OW 2827   4.790   5.178   6.734
  643SOL    HW1 2828   4.822   5.194   6.827
  643SOL    HW2 2829   4.726   5.101   6.733
  644SOL     OW 2830   6.707   6.989   4.635
  644SOL    HW1 2831   6.643   6.913   4.626
  644SOL    HW2 2832   6.785   6.961   4.691
  645SOL     OW 2833   4.192   4.696   2.132
  645SOL    HW1 2834   4.111   4.727   2.182
  645SOL    HW2 2835   4.184   4.598   2.113
  646SOL     OW 2836   4.097   0.585   5.434
  646SOL    HW1 2837   4.116   0.606   5.529
  646SOL    HW2 2838   4.145   0.501   5.408
  647SOL     OW 2839   4.673   2.367   5.285
  647SOL    HW1 2840   4.712   2.354   5.376
  647SOL    HW2 2841   4.576   2.389   5.293
  648SOL     OW 2842   5.893   2.506   3.128
  648SOL    HW1 2843   5.893   2.519   3.227
  648SOL    HW2 2844   5.867   2.412   3.107
  649SOL     OW 2845   2.255   5.309   0.503
  649SOL    HW1 2846   2.165   5.267   0.518
  649SOL    HW2 2847   2.250   5.373   0.427
  650SOL     OW 2848   6.752   5.409   0.932
  650SOL    HW1 2849   6.750   5.429   1.030
  650SOL    HW2 2850   6.790   5.487   0.883
  651SOL     OW 2851   1.377   6.872   5.001
  651SOL    HW1 2852   1.422   6.904   4.917
  651SOL    HW2 2853   1.437   6.887   5.079
  652SOL     OW 2854   3.670   6.674   1.449
  652SOL    HW1 2855   3.728   6.671   1.530
  652SOL    HW2 2856   3.626   6.764   1.442
  653SOL     OW 2857   0.769   6.107   1.708
  653SOL    HW1 2858   0.830   6.106   1.787
  653SOL    HW2 2859   0.778   6.195   1.661
  654SOL     OW 2860   0.240   6.711   5.257
  654SOL    HW1 2861   0.294   6.658   5.192
  654SOL    HW2 2862   0.298   6.780   5.299
  655SOL     OW 2863   6.906   4.436   2.158
  655SOL    HW1 2864   6.991   4.448   2.209
  655SOL    HW2 2865   6.908   4.493   2.076
  656SOL     OW 2866   3.106   6.664   0.248
  656SOL    HW1 2867   3.038   6.706   0.308
  656SOL    HW2 2868   3.190   6.647   0.300
  657SOL     OW 2869   3.603   3.010   1.821
  657SOL    HW1 2870   3.556   2.924   1.802
  657SOL    HW2 2871   3.536   3.083   1.833
  658SOL     OW 2872   2.267   4.201   3.994
  658SOL    HW1 2873   2.227   4.161   4.077
  658SOL    HW2 2874   2.314   4.286   4.019
  659SOL     OW 2875   2.202   6.490   5.362
  659SOL    HW1 2876   2.227   6.397   5.390
  659SOL    HW2 2877   2.119   6.517   5.411
  660SOL     OW 2878   4.801   4.138   2.164
  660SOL    HW1 2879   4.773   4.123   2.069
  660SOL    HW2 2880   4.818   4.236   2.179
  661SOL     OW 2881   4.211   4.698   4.350
  661SOL    HW1 2882   4.186   4.601   4.357
  661SOL    HW2 2883   4.154   4.742   4.281
  662SOL     OW 2884   4.717   3.424   0.713
  662SOL    HW1 2885   4.806   3.441   0.670
  662SOL    HW2 2886   4.703   3.488   0.789
  663SOL     OW 2887   0.407   4.573   0.436
  663SOL    HW1 2888   0.444   4.646   0.379
  663SOL    HW2 2889   0.481   4.509   0.459
  664SOL     OW 2890   1.673   6.755   6.839
  664SOL    HW1 2891   1.599   6.799   6.788
  664SOL    HW2 2892   1.761   6.787   6.805
  665SOL     OW 2893   4.079   5.955   0.736
  665SOL    HW1 2894   4.026   6.009   0.801
  665SOL    HW2 2895   4.160   5.919   0.781
  666SOL     OW 2896   3.572   2.029   0.139
  666SOL    HW1 2897   3.597   2.124   0.116
  666SOL    HW2 2898   3.649   1.986   0.186
  667SOL     OW 2899   0.711   3.315   2.947
  667SOL    HW1 2900   0.766   3.367   3.012
  667SOL    HW2 2901   0.631   3.277   2.993
  668SOL     OW 2902   4.701   6.709   0.700
  668SOL    HW1 2903   4.687   6.758   0.613
  668SOL    HW2 2904   4.797   6.682   0.708
  669SOL     OW 2905   1.621   6.012   3.056
  669SOL    HW1 2906   1.545   5.952   3.029
  669SOL    HW2 2907   1.702   5.956   3.073
  670SOL     OW 2908   3.088   3.808   3.764
  670SOL    HW1 2909   3.154   3.834   3.835
  670SOL    HW2 2910   3.063   3.889   3.711
  671SOL     OW 2911   2.000   0.030   5.526
  671SOL    HW1 2912   1.974   6.981   5.589
  671SOL    HW2 2913   2.018   7.016   5.436
  672SOL     OW 2914   2.121   3.175   3.847
  672SOL    HW1 2915   2.144   3.271   3.835
  672SOL    HW2 2916   2.179   3.135   3.918
  673SOL     OW 2917   5.219   0.322   0.532
  673SOL    HW1 2918   5.152   0.394   0.551
  673SOL    HW2 2919   5.203   0.245   0.594
  674SOL     OW 2920   0.565   1.360   3.766
  674SOL    HW1 2921   0.501   1.311   3.707
  674SOL    HW2 2922   0.641   1.395   3.712
  675SOL     OW 2923   6.905   2.553   4.657
  675SOL    HW1 2924   6.886   2.628   4.593
  675SOL    HW2 2925   6.972   2.584   4.725
  676SOL     OW 2926   2.133   4.771   4.055
  676SOL    HW1 2927   2.100   4.851   4.105
  676SOL    HW2 2928   2.217   4.738   4.097
  677SOL     OW 2929   6.269   0.284   0.774
  677SOL    HW1 2930   6.289   0.198   0.821
  677SOL    HW2 2931   6.204   0.267   0.699
  678SOL     OW 2932   2.320   1.058   6.166
  678SOL    HW1 2933   2.299   0.961   6.165
  678SOL    HW2 2934   2.413   1.072   6.201
  679SOL     OW 2935   4.703   0.427   2.380
  679SOL    HW1 2936   4.763   0.447   2.457
  679SOL    HW2 2937   4.626   0.372   2.412
  680SOL     OW 2938   4.671   4.389   5.381
  680SOL    HW1 2939   4.575   4.410   5.403
  680SOL    HW2 2940   4.678   4.364   5.284
  681SOL     OW 2941   0.509   6.871   1.251
  681SOL    HW1 2942   0.604   6.888   1.278
  681SOL    HW2 2943   0.449   6.880   1.330
  682SOL     OW 2944   1.330   5.950   0.266
  682SOL    HW1 2945   1.251   5.912   0.314
  682SOL    HW2 2946   1.407   5.957   0.328
  683SOL     OW 2947   4.445   1.218   0.224
  683SOL    HW1 2948   4.371   1.154   0.204
  683SOL    HW2 2949   4.496   1.185   0.304
  684SOL     OW 2950   0.210   5.654   6.150
  684SOL    HW1 2951   0.258   5.625   6.067
  684SOL    HW2 2952   0.235   5.594   6.226
  685SOL     OW 2953   5.642   0.326   5.699
  685SOL    HW1 2954   5.667   0.243   5.650
  685SOL    HW2 2955   5.720   0.359   5.752
  686SOL     OW 2956   5.247   4.229   2.989
  686SOL    HW1 2957   5.234   4.295   2.915
  686SOL    HW2 2958   5.330   4.176   2.972
  687SOL     OW 2959   0.159   3.425   5.737
  687SOL    HW1 2960   0.121   3.511   5.703
  687SOL    HW2 2961   0.254   3.416   5.706
  688SOL     OW 2962   0.248   3.877   6.280
  688SOL    HW1 2963   0.234   3.973   6.304
  688SOL    HW2 2964   0.345   3.855   6.284
  689SOL     OW 2965   6.373   3.744   5.935
  689SOL    HW1 2966   6.458   3.690   5.934
  689SOL    HW2 2967   6.360   3.783   6.025
  690SOL     OW 2968   1.660   2.198   3.467
  690SOL    HW1 2969   1.753   2.222   3.497
  690SOL    HW2 2970   1.594   2.241   3.528
  691SOL     OW 2971   0.818   2.621   6.715
  691SOL    HW1 2972   0.867   2.684   6.655
  691SOL    HW2 2973   0.775   2.673   6.789
  692SOL     OW 2974   2.572   0.137   2.343
  692SOL    HW1 2975   2.476   0.117   2.321
  692SOL    HW2 2976   2.591   0.107   2.437
  693SOL     OW 2977   6.730   2.598   2.672
  693SOL    HW1 2978   6.736   2.515   2.616
  693SOL    HW2 2979   6.725   2.572   2.769
  694SOL     OW 2980   1.693   6.698   1.282
  694SOL    HW1 2981   1.618   6.694   1.217
  694SOL    HW2 2982   1.714   6.606   1.315
  695SOL     OW 2983   5.340   5.906   5.445
  695SOL    HW1 2984   5.427   5.865   5.471
  695SOL    HW2 2985   5.267   5.869   5.503
  696SOL     OW 2986   4.135   5.018   2.360
  696SOL    HW1 2987   4.226   4.998   2.397
  696SOL    HW2 2988   4.092   4.932   2.331
  697SOL     OW 2989   0.959   4.264   4.444
  697SOL    HW1 2990   0.922   4.195   4.381
  697SOL    HW2 2991   0.968   4.225   4.535
  698SOL     OW 2992   4.738   0.309   2.992
  698SOL    HW1 2993   4.764   0.395   2.948
  698SOL    HW2 2994   4.770   0.309   3.087
  699SOL     OW 2995   1.331   3.797   0.954
  699SOL    HW1 2996   1.414   3.829   1.000
  699SOL    HW2 2997   1.292   3.871   0.900
  700SOL     OW 2998   2.655   2.393   4.828
  700SOL    HW1 2999   2.714   2.318   4.799
  700SOL    HW2 3000   2.663   2.469   4.763
  701SOL     OW 3001   0.603   3.862   6.411
  701SOL    HW1 3002   0.703   3.858   6.412
  701SOL    HW2 3003   0.570   3.835   6.321
  702SOL     OW 3004   4.934   6.524   4.005
  702SOL    HW1 3005   5.018   6.576   3.988
  702SOL    HW2 3006   4.942   6.475   4.092
  703SOL     OW 3007   4.123   3.940   6.414
  703SOL    HW1 3008   4.114   4.011   6.344
  703SOL    HW2 3009   4.121   3.983   6.504
  704SOL     OW 3010   1.747   0.242   6.897
  704SOL    HW1 3011   1.792   0.297   6.967
  704SOL    HW2 3012   1.804   0.163   6.875
  705SOL     OW 3013   6.223   1.739   2.249
  705SOL    HW1 3014   6.138   1.689   2.230
  705SOL    HW2 3015   6.204   1.837   2.254
  706SOL     OW 3016   3.785   1.833   3.881
  706SOL    HW1 3017   3.716   1.885   3.830
  706SOL    HW2 3018   3.739   1.777   3.949
  707SOL     OW 3019   5.123   0.454   1.605
  707SOL    HW1 3020   5.064   0.506   1.543
  707SOL    HW2 3021   5.110   0.487   1.699
  708SOL     OW 3022   4.229   0.617   1.418
  708SOL    HW1 3023   4.321   0.619   1.456
  708SOL    HW2 3024   4.226   0.671   1.334
  709SOL     OW 3025   1.280   4.962   0.829
  709SOL    HW1 3026   1.333   4.877   0.835
  709SOL    HW2 3027   1.332   5.036   0.872
  710SOL     OW 3028   3.108   3.965   2.800
  710SOL    HW1 3029   3.046   4.005   2.732
  710SOL    HW2 3030   3.126   3.869   2.776
  711SOL     OW 3031   6.972   1.414   4.221
  711SOL    HW1 3032   6.932   1.505   4.225
  711SOL    HW2 3033   6.988   1.381   4.315
  712SOL     OW 3034   1.364   3.730   1.673
  712SOL    HW1 3035   1.367   3.753   1.576
  712SOL    HW2 3036   1.287   3.778   1.716
  713SOL     OW 3037   4.059   3.728   2.181
  713SOL    HW1 3038   4.081   3.632   2.197
  713SOL    HW2 3039   4.141   3.776   2.149
  714SOL     OW 3040   5.646   4.541   4.806
  714SOL    HW1 3041   5.592   4.599   4.745
  714SOL    HW2 3042   5.592   4.514   4.885
  715SOL     OW 3043   4.353   0.158   6.431
  715SOL    HW1 3044   4.440   0.206   6.442
  715SOL    HW2 3045   4.325   0.161   6.336
  716SOL     OW 3046   0.261   4.826   1.401
  716SOL    HW1 3047   0.184   4.883   1.429
  716SOL    HW2 3048   0.262   4.741   1.454
  717SOL     OW 3049   6.108   2.961   0.007
  717SOL    HW1 3050   6.072   2.893   0.071
  717SOL    HW2 3051   6.051   3.043   0.011
  718SOL     OW 3052   3.383   3.585   5.837
  718SOL    HW1 3053   3.293   3.561   5.800
  718SOL    HW2 3054   3.444   3.505   5.831
  719SOL     OW 3055   6.415   4.322   1.214
  719SOL    HW1 3056   6.324   4.362   1.219
  719SOL    HW2 3057   6.407   4.222   1.208
  720SOL     OW 3058   2.045   1.745   6.353
  720SOL    HW1 3059   2.072   1.840   6.370
  720SOL    HW2 3060   2.117   1.683   6.387
  721SOL     OW 3061   1.538   0.180   5.851
  721SOL    HW1 3062   1.611   0.120   5.885
  721SOL    HW2 3063   1.533   0.262   5.907
  722SOL     OW 3064   4.123   0.213   4.757
  722SOL    HW1 3065   4.034   0.246   4.726
  722SOL    HW2 3066   4.191   0.286   4.746
  723SOL     OW 3067   1.196   2.747   2.237
  723SOL    HW1 3068   1.258   2.814   2.278
  723SOL    HW2 3069   1.249   2.666   2.209
  724SOL     OW 3070   0.243   0.712   4.605
  724SOL    HW1 3071   0.340   0.700   4.629
  724SOL    HW2 3072   0.195   0.754   4.682
  725SOL     OW 3073   2.017   5.075   2.478
  725SOL    HW1 3074   2.011   4.999   2.543
  725SOL    HW2 3075   2.002   5.042   2.385
  726SOL     OW 3076   3.574   0.029   6.512
  726SOL    HW1 3077   3.535   6.975   6.562
  726SOL    HW2 3078   3.654   0.063   6.561
  727SOL     OW 3079   3.280   5.231   4.318
  727SOL    HW1 3080   3.291   5.133   4.301
  727SOL    HW2 3081   3.307   5.283   4.236
  728SOL     OW 3082   6.847   4.370   5.223
  728SOL    HW1 3083   6.804   4.371   5.133
  728SOL    HW2 3084   6.935   4.324   5.218
  729SOL     OW 3085   2.431   0.649   1.363
  729SOL    HW1 3086   2.372   0.722   1.328
  729SOL    HW2 3087   2.394   0.615   1.450
  730SOL     OW 3088   6.239   0.493   3.542
  730SOL    HW1 3089   6.187   0.573   3.512
  730SOL    HW2 3090   6.230   0.421   3.474
  731SOL     OW 3091   5.852   3.659   4.524
  731SOL    HW1 3092   5.780   3.589   4.521
  731SOL    HW2 3093   5.852   3.704   4.613
  732SOL     OW 3094   6.755   3.310   1.349
  732SOL    HW1 3095   6.806   3.386   1.308
  732SOL    HW2 3096   6.775   3.226   1.298
  733SOL     OW 3097   4.773   4.237   3.733
  733SOL    HW1 3098   4.806   4.317   3.784
  733SOL    HW2 3099   4.803   4.153   3.778
  734SOL     OW 3100   6.821   4.386   0.878
  734SOL    HW1 3101   6.770   4.395   0.963
  734SOL    HW2 3102   6.916   4.413   0.893
  735SOL     OW 3103   1.757   3.689   6.340
  735SOL    HW1 3104   1.827   3.750   6.304
  735SOL    HW2 3105   1.666   3.725   6.318
  736SOL     OW 3106   6.779   0.529   3.322
  736SOL    HW1 3107   6.844   0.603   3.309
  736SOL    HW2 3108   6.686   0.566   3.326
  737SOL     OW 3109   5.390   4.009   0.835
  737SOL    HW1 3110   5.363   3.914   0.822
  737SOL    HW2 3111   5.383   4.058   0.748
  738SOL     OW 3112   0.224   4.128   4.012
  738SOL    HW1 3113   0.196   4.056   3.949
  738SOL    HW2 3114   0.159   4.134   4.088
  739SOL     OW 3115   4.153   6.246   5.940
  739SOL    HW1 3116   4.142   6.299   5.855
  739SOL    HW2 3117   4.247   6.254   5.973
  740SOL     OW 3118   6.204   7.014   1.532
  740SOL    HW1 3119   6.171   6.957   1.458
  740SOL    HW2 3120   6.299   0.017   1.514
  741SOL     OW 3121   1.884   6.241   2.847
  741SOL    HW1 3122   1.818   6.224   2.920
  741SOL    HW2 3123   1.913   6.336   2.850
  742SOL     OW 3124   1.416   6.511   3.471
  742SOL    HW1 3125   1.453   6.421   3.452
  742SOL    HW2 3126   1.349   6.505   3.545
  743SOL     OW 3127   1.812   4.088   4.045
  743SOL    HW1 3128   1.773   4.148   3.975
  743SOL    HW2 3129   1.838   4.001   4.004
  744SOL     OW 3130   0.042   5.586   0.111
  744SOL    HW1 3131   0.005   5.495   0.090
  744SOL    HW2 3132   0.101   5.580   0.192
  745SOL     OW 3133   1.827   5.745   2.847
  745SOL    HW1 3134   1.733   5.717   2.867
  745SOL    HW2 3135   1.853   5.821   2.907
  746SOL     OW 3136   1.368   0.088   4.818
  746SOL    HW1 3137   1.289   0.120   4.870
  746SOL    HW2 3138   1.442   0.155   4.827
  747SOL     OW 3139   4.493   4.770   3.467
  747SOL    HW1 3140   4.498   4.734   3.560
  747SOL    HW2 3141   4.398   4.769   3.436
  748SOL     OW 3142   3.964   3.785   1.121
  748SOL    HW1 3143   4.012   3.766   1.207
  748SOL    HW2 3144   3.879   3.832   1.140
  749SOL     OW 3145   0.743   2.371   5.072
  749SOL    HW1 3146   0.810   2.441   5.046
  749SOL    HW2 3147   0.766   2.285   5.027
  750SOL     OW 3148   2.265   3.524   6.935
  750SOL    HW1 3149   2.171   3.532   6.905
  750SOL    HW2 3150   2.269   3.527   0.011
  751SOL     OW 3151   4.802   1.016   0.117
  751SOL    HW1 3152   4.790   1.113   0.139
  751SOL    HW2 3153   4.899   0.993   0.122
  752SOL     OW 3154   4.287   2.288   2.113
  752SOL    HW1 3155   4.332   2.345   2.045
  752SOL    HW2 3156   4.237   2.215   2.067
  753SOL     OW 3157   2.213   3.136   4.626
  753SOL    HW1 3158   2.231   3.084   4.543
  753SOL    HW2 3159   2.122   3.177   4.621
  754SOL     OW 3160   4.230   4.415   6.407
  754SOL    HW1 3161   4.301   4.481   6.428
  754SOL    HW2 3162   4.142   4.448   6.441
  755SOL     OW 3163   0.699   5.890   0.221
  755SOL    HW1 3164   0.600   5.897   0.206
  755SOL    HW2 3165   0.717   5.847   0.310
  756SOL     OW 3166   4.966   0.498   1.812
  756SOL    HW1 3167   4.918   0.423   1.768
  756SOL    HW2 3168   4.900   0.560   1.855
  757SOL     OW 3169   0.324   6.826   3.482
  757SOL    HW1 3170   0.276   6.754   3.432
  757SOL    HW2 3171   0.266   6.908   3.487
  758SOL     OW 3172   3.572   2.060   0.780
  758SOL    HW1 3173   3.663   2.102   0.788
  758SOL    HW2 3174   3.505   2.118   0.826
  759SOL     OW 3175   1.047   1.814   0.145
  759SOL    HW1 3176   1.047   1.891   0.209
  759SOL    HW2 3177   0.970   1.822   0.082
  760SOL     OW 3178   5.515   1.126   0.208
  760SOL    HW1 3179   5.475   1.110   0.298
  760SOL    HW2 3180   5.451   1.096   0.138
  761SOL     OW 3181   6.180   2.575   6.969
  761SOL    HW1 3182   6.226   2.611   6.888
  761SOL    HW2 3183   6.081   2.582   6.957
  762SOL     OW 3184   2.507   5.775   3.308
  762SOL    HW1 3185   2.523   5.829   3.391
  762SOL    HW2 3186   2.444   5.823   3.248
  763SOL     OW 3187   4.347   5.495   6.722
  763SOL    HW1 3188   4.341   5.565   6.794
  763SOL    HW2 3189   4.443   5.477   6.701
  764SOL     OW 3190   3.635   1.824   2.221
  764SOL    HW1 3191   3.555   1.811   2.279
  764SOL    HW2 3192   3.660   1.921   2.221
  765SOL     OW 3193   0.281   6.757   2.710
  765SOL    HW1 3194   0.352   6.688   2.702
  765SOL    HW2 3195   0.276   6.790   2.804
  766SOL     OW 3196   6.981   6.837   0.090
  766SOL    HW1 3197   0.019   6.768   0.128
  766SOL    HW2 3198   7.002   6.926   0.131
  767SOL     OW 3199   6.946   6.381   2.418
  767SOL    HW1 3200   6.918   6.477   2.419
  767SOL    HW2 3201   6.951   6.348   2.324
  768SOL     OW 3202   2.699   0.285   2.881
  768SOL    HW1 3203   2.742   0.342   2.811
  768SOL    HW2 3204   2.750   0.294   2.967
  769SOL     OW 3205   4.408   0.128   5.188
  769SOL    HW1 3206   4.403   0.121   5.288
  769SOL    HW2 3207   4.330   0.181   5.155
  770SOL     OW 3208   3.033   5.186   3.813
  770SOL    HW1 3209   3.133   5.190   3.810
  770SOL    HW2 3210   3.005   5.115   3.877
  771SOL     OW 3211   1.399   5.474   3.651
  771SOL    HW1 3212   1.379   5.448   3.745
  771SOL    HW2 3213   1.455   5.403   3.608
  772SOL     OW 3214   6.518   4.404   6.712
  772SOL    HW1 3215   6.445   4.336   6.726
  772SOL    HW2 3216   6.570   4.415   6.796
  773SOL     OW 3217   6.916   4.308   3.299
  773SOL    HW1 3218   6.943   4.392   3.346
  773SOL    HW2 3219   6.911   4.234   3.365
  774SOL     OW 3220   1.289   1.580   1.659
  774SOL    HW1 3221   1.381   1.604   1.689
  774SOL    HW2 3222   1.245   1.523   1.729
  775SOL     OW 3223   1.448   2.082   4.142
  775SOL    HW1 3224   1.386   2.004   4.140
  775SOL    HW2 3225   1.396   2.167   4.150
  776SOL     OW 3226   1.863   0.632   6.158
  776SOL    HW1 3227   1.876   0.671   6.067
  776SOL    HW2 3228   1.766   0.614   6.174
  777SOL     OW 3229   4.559   1.090   0.436
  777SOL    HW1 3230   4.537   0.996   0.462
  777SOL    HW2 3231   4.554   1.149   0.517
  778SOL     OW 3232   4.060   0.482   3.500
  778SOL    HW1 3233   4.060   0.509   3.404
  778SOL    HW2 3234   3.974   0.509   3.542
  779SOL     OW 3235   0.886   2.395   2.235
  779SOL    HW1 3236   0.800   2.368   2.278
  779SOL    HW2 3237   0.948   2.317   2.232
  780SOL     OW 3238   6.553   2.904   4.415
  780SOL    HW1 3239   6.482   2.886   4.483
  780SOL    HW2 3240   6.565   3.003   4.404
  781SOL     OW 3241   6.754   0.911   5.992
  781SOL    HW1 3242   6.780   0.947   6.082
  781SOL    HW2 3243   6.666   0.864   5.999
  782SOL     OW 3244   0.438   3.120   1.200
  782SOL    HW1 3245   0.467   3.025   1.189
  782SOL    HW2 3246   0.511   3.173   1.244
  783SOL     OW 3247   3.111   5.658   0.513
  783SOL    HW1 3248   3.140   5.751   0.488
  783SOL    HW2 3249   3.087   5.656   0.610
  784SOL     OW 3250   3.871   0.408   5.115
  784SOL    HW1 3251   3.842   0.411   5.211
  784SOL    HW2 3252   3.949   0.469   5.103
  785SOL     OW 3253   6.341   1.335   2.968
  785SOL    HW1 3254   6.335   1.260   2.902
  785SOL    HW2 3255   6.262   1.394   2.958
  786SOL     OW 3256   0.090   6.684   0.289
  786SOL    HW1 3257   0.092   6.584   0.286
  786SOL    HW2 3258   0.184   6.719   0.294
  787SOL     OW 3259   2.516   1.755   6.418
  787SOL    HW1 3260   2.604   1.709   6.407
  787SOL    HW2 3261   2.526   1.830   6.484
  788SOL     OW 3262   2.127   3.671   4.310
  788SOL    HW1 3263   2.099   3.575   4.308
  788SOL    HW2 3264   2.051   3.726   4.345
  789SOL     OW 3265   5.591   3.578   1.710
  789SOL    HW1 3266   5.532   3.656   1.731
  789SOL    HW2 3267   5.551   3.524   1.636
  790SOL     OW 3268   2.923   1.240   3.606
  790SOL    HW1 3269   2.838   1.190   3.588
  790SOL    HW2 3270   2.902   1.329   3.645
  791SOL     OW 3271   3.959   0.956   4.480
  791SOL    HW1 3272   3.860   0.948   4.471
  791SOL    HW2 3273   3.986   1.052   4.468
  792SOL     OW 3274   5.984   0.609   2.270
  792SOL    HW1 3275   6.000   0.577   2.176
  792SOL    HW2 3276   5.896   0.574   2.302
  793SOL     OW 3277   5.210   0.120   0.765
  793SOL    HW1 3278   5.118   0.140   0.799
  793SOL    HW2 3279   5.218   0.023   0.745
  794SOL     OW 3280   2.804   4.626   5.488
  794SOL    HW1 3281   2.835   4.554   5.425
  794SOL    HW2 3282   2.806   4.591   5.582
  795SOL     OW 3283   3.999   5.095   5.711
  795SOL    HW1 3284   4.013   5.175   5.770
  795SOL    HW2 3285   3.935   5.032   5.754
  796SOL     OW 3286   6.949   2.662   5.972
  796SOL    HW1 3287   6.877   2.682   6.039
  796SOL    HW2 3288   7.009   2.742   5.962
  797SOL     OW 3289   6.052   2.596   3.671
  797SOL    HW1 3290   6.007   2.510   3.694
  797SOL    HW2 3291   6.102   2.585   3.585
  798SOL     OW 3292   5.277   0.447   0.015
  798SOL    HW1 3293   5.187   0.407   7.018
  798SOL    HW2 3294   5.312   0.408   0.100
  799SOL     OW 3295   6.769   1.906   3.319
  799SOL    HW1 3296   6.800   1.880   3.411
  799SOL    HW2 3297   6.848   1.935   3.265
  800SOL     OW 3298   5.179   0.998   2.440
  800SOL    HW1 3299   5.083   1.016   2.420
  800SOL    HW2 3300   5.207   1.050   2.521
  801SOL     OW 3301   0.707   2.101   3.400
  801SOL    HW1 3302   0.712   2.084   3.498
  801SOL    HW2 3303   0.633   2.046   3.360
  802SOL     OW 3304   5.534   1.408   0.323
  802SOL    HW1 3305   5.462   1.467   0.286
  802SOL    HW2 3306   5.495   1.320   0.351
  803SOL     OW 3307   6.294   5.445   4.204
  803SOL    HW1 3308   6.220   5.398   4.156
  803SOL    HW2 3309   6.345   5.502   4.139
  804SOL     OW 3310   0.323   6.398   0.341
  804SOL    HW1 3311   0.257   6.419   0.412
  804SOL    HW2 3312   0.414   6.388   0.382
  805SOL     OW 3313   3.491   2.805   5.715
  805SOL    HW1 3314   3.550   2.816   5.795
  805SOL    HW2 3315   3.546   2.796   5.632
  806SOL     OW 3316   5.097   2.126   6.504
  806SOL    HW1 3317   5.063   2.208   6.458
  806SOL    HW2 3318   5.190   2.105   6.474
  807SOL     OW 3319   0.948   0.772   3.322
  807SOL    HW1 3320   0.960   0.839   3.249
  807SOL    HW2 3321   0.866   0.795   3.375
  808SOL     OW 3322   5.481   3.107   5.847
  808SOL    HW1 3323   5.490   3.027   5.787
  808SOL    HW2 3324   5.411   3.168   5.810
  809SOL     OW 3325   1.160   4.528   0.531
  809SOL    HW1 3326   1.150   4.615   0.484
  809SOL    HW2 3327   1.099   4.460   0.491
  810SOL     OW 3328   5.119   3.734   0.677
  810SOL    HW1 3329   5.077   3.654   0.635
  810SOL    HW2 3330   5.116   3.811   0.613
  811SOL     OW 3331   5.086   5.286   3.853
  811SOL    HW1 3332   5.015   5.319   3.790
  811SOL    HW2 3333   5.139   5.214   3.808
  812SOL     OW 3334   0.115   0.199   1.321
  812SOL    HW1 3335   0.150   0.250   1.400
  812SOL    HW2 3336   0.135   0.102   1.332
  813SOL     OW 3337   4.360   5.555   3.059
  813SOL    HW1 3338   4.340   5.622   2.987
  813SOL    HW2 3339   4.336   5.463   3.026
  814SOL     OW 3340   5.517   6.337   2.199
  814SOL    HW1 3341   5.515   6.397   2.119
  814SOL    HW2 3342   5.612   6.316   2.223
  815SOL     OW 3343   6.490   2.634   0.742
  815SOL    HW1 3344   6.512   2.666   0.649
  815SOL    HW2 3345   6.414   2.569   0.738
  816SOL     OW 3346   6.765   6.289   0.701
  816SOL    HW1 3347   6.832   6.362   0.711
  816SOL    HW2 3348   6.765   6.256   0.607
  817SOL     OW 3349   1.812   3.455   2.243
  817SOL    HW1 3350   1.795   3.500   2.155
  817SOL    HW2 3351   1.910   3.444   2.257
  818SOL     OW 3352   6.217   2.169   0.693
  818SOL    HW1 3353   6.153   2.242   0.718
  818SOL    HW2 3354   6.166   2.088   0.665
  819SOL     OW 3355   6.632   2.081   3.592
  819SOL    HW1 3356   6.593   2.129   3.513
  819SOL    HW2 3357   6.696   2.141   3.639
  820SOL     OW 3358   0.589   2.585   4.240
  820SOL    HW1 3359   0.509   2.550   4.289
  820SOL    HW2 3360   0.663   2.518   4.244
  821SOL     OW 3361   1.380   4.024   0.582
  821SOL    HW1 3362   1.396   3.943   0.525
  821SOL    HW2 3363   1.462   4.080   0.584
  822SOL     OW 3364   1.080   4.358   5.014
  822SOL    HW1 3365   1.034   4.431   4.963
  822SOL    HW2 3366   1.087   4.277   4.956
  823SOL     OW 3367   4.702   3.747   6.672
  823SOL    HW1 3368   4.627   3.685   6.648
  823SOL    HW2 3369   4.727   3.732   6.768
  824SOL     OW 3370   4.808   2.363   5.558
  824SOL    HW1 3371   4.891   2.315   5.585
  824SOL    HW2 3372   4.817   2.460   5.581
  825SOL     OW 3373   2.086   3.213   2.410
  825SOL    HW1 3374   2.104   3.122   2.371
  825SOL    HW2 3375   2.083   3.281   2.337
  826SOL     OW 3376   5.843   3.258   6.825
  826SOL    HW1 3377   5.767   3.317   6.854
  826SOL    HW2 3378   5.807   3.179   6.776
  827SOL     OW 3379   3.697   5.577   0.102
  827SOL    HW1 3380   3.742   5.533   0.024
  827SOL    HW2 3381   3.762   5.640   0.146
  828SOL     OW 3382   5.603   0.852   5.192
  828SOL    HW1 3383   5.549   0.915   5.248
  828SOL    HW2 3384   5.674   0.810   5.249
  829SOL     OW 3385   3.088   3.084   4.327
  829SOL    HW1 3386   3.107   3.118   4.420
  829SOL    HW2 3387   3.034   3.152   4.278
  830SOL     OW 3388   4.678   4.020   5.292
  830SOL    HW1 3389   4.610   4.079   5.247
  830SOL    HW2 3390   4.631   3.943   5.336
  831SOL     OW 3391   5.877   0.814   4.974
  831SOL    HW1 3392   5.893   0.902   4.930
  831SOL    HW2 3393   5.782   0.807   5.002
  832SOL     OW 3394   1.895   1.972   0.116
  832SOL    HW1 3395   1.891   2.059   0.164
  832SOL    HW2 3396   1.853   1.901   0.172
  833SOL     OW 3397   6.274   6.635   6.581
  833SOL    HW1 3398   6.373   6.631   6.573
  833SOL    HW2 3399   6.249   6.704   6.649
  834SOL     OW 3400   3.096   3.567   4.147
  834SOL    HW1 3401   3.194   3.580   4.132
  834SOL    HW2 3402   3.050   3.656   4.151
  835SOL     OW 3403   3.064   6.465   4.075
  835SOL    HW1 3404   3.099   6.549   4.116
  835SOL    HW2 3405   3.137   6.396   4.074
  836SOL     OW 3406   3.051   0.074   0.022
  836SOL    HW1 3407   3.081   7.020   0.077
  836SOL    HW2 3408   3.126   0.106   6.988
  837SOL     OW 3409   5.168   0.761   6.125
  837SOL    HW1 3410   5.243   0.803   6.175
  837SOL    HW2 3411   5.126   0.690   6.181
  838SOL     OW 3412   2.072   5.776   4.337
  838SOL    HW1 3413   2.076   5.687   4.383
  838SOL    HW2 3414   2.102   5.848   4.399
  839SOL     OW 3415   2.864   1.616   3.434
  839SOL    HW1 3416   2.848   1.706   3.476
  839SOL    HW2 3417   2.826   1.545   3.493
  840SOL     OW 3418   0.977   1.046   6.903
  840SOL    HW1 3419   0.903   1.113   6.900
  840SOL    HW2 3420   0.963   0.984   6.981
  841SOL     OW 3421   6.722   3.750   0.068
  841SOL    HW1 3422   6.744   3.771   0.164
  841SOL    HW2 3423   6.790   3.685   0.033
  842SOL     OW 3424   4.099   5.120   3.070
  842SOL    HW1 3425   4.079   5.118   2.972
  842SOL    HW2 3426   4.090   5.028   3.107
  843SOL     OW 3427   6.247   2.332   2.183
  843SOL    HW1 3428   6.210   2.368   2.268
  843SOL    HW2 3429   6.186   2.261   2.147
  844SOL     OW 3430   5.210   5.827   0.305
  844SOL    HW1 3431   5.204   5.809   0.403
  844SOL    HW2 3432   5.118   5.832   0.266
  845SOL     OW 3433   6.970   4.534   4.575
  845SOL    HW1 3434   6.913   4.530   4.493
  845SOL    HW2 3435   7.003   4.627   4.588
  846SOL     OW 3436   6.429   1.235   6.996
  846SOL    HW1 3437   6.490   1.314   6.990
  846SOL    HW2 3438   6.477   1.153   6.966
  847SOL     OW 3439   5.604   3.230   1.536
  847SOL    HW1 3440   5.509   3.204   1.517
  847SOL    HW2 3441   5.617   3.237   1.635
  848SOL     OW 3442   6.126   0.245   5.765
  848SOL    HW1 3443   6.076   0.272   5.683
  848SOL    HW2 3444   6.106   0.149   5.786
  849SOL     OW 3445   0.498   5.249   4.905
  849SOL    HW1 3446   0.464   5.167   4.859
  849SOL    HW2 3447   0.517   5.228   5.001
  850SOL     OW 3448   4.236   1.101   3.156
  850SOL    HW1 3449   4.293   1.169   3.109
  850SOL    HW2 3450   4.276   1.079   3.245
  851SOL     OW 3451   0.468   1.013   0.259
  851SOL    HW1 3452   0.510   0.947   0.322
  851SOL    HW2 3453   0.538   1.052   0.200
  852SOL     OW 3454   2.397   2.985   6.393
  852SOL    HW1 3455   2.360   2.893   6.401
  852SOL    HW2 3456   2.340   3.049   6.444
  853SOL     OW 3457   1.399   2.670   1.883
  853SOL    HW1 3458   1.365   2.763   1.871
  853SOL    HW2 3459   1.417   2.630   1.793
  854SOL     OW 3460   5.302   5.708   2.866
  854SOL    HW1 3461   5.365   5.777   2.902
  854SOL    HW2 3462   5.220   5.705   2.923
  855SOL     OW 3463   5.858   0.143   1.964
  855SOL    HW1 3464   5.837   0.098   1.877
  855SOL    HW2 3465   5.799   0.105   2.036
  856SOL     OW 3466   1.951   6.027   5.236
  856SOL    HW1 3467   2.046   6.013   5.210
  856SOL    HW2 3468   1.926   6.123   5.220
  857SOL     OW 3469   5.883   3.238   0.981
  857SOL    HW1 3470   5.914   3.279   0.895
  857SOL    HW2 3471   5.960   3.191   1.024
  858SOL     OW 3472   3.220   5.239   1.815
  858SOL    HW1 3473   3.300   5.297   1.797
  858SOL    HW2 3474   3.250   5.153   1.855
  859SOL     OW 3475   0.163   4.660   6.841
  859SOL    HW1 3476   0.222   4.619   6.911
  859SOL    HW2 3477   0.110   4.588   6.796
  860SOL     OW 3478   2.790   4.510   1.025
  860SOL    HW1 3479   2.771   4.476   1.117
  860SOL    HW2 3480   2.873   4.565   1.026
  861SOL     OW 3481   3.126   5.871   5.603
  861SOL    HW1 3482   3.041   5.909   5.565
  861SOL    HW2 3483   3.173   5.941   5.656
  862SOL     OW 3484   5.261   4.137   4.988
  862SOL    HW1 3485   5.247   4.121   5.085
  862SOL    HW2 3486   5.194   4.085   4.935
  863SOL     OW 3487   0.093   0.886   0.972
  863SOL    HW1 3488   0.026   0.959   0.959
  863SOL    HW2 3489   0.185   0.927   0.976
  864SOL     OW 3490   5.872   3.979   2.719
  864SOL    HW1 3491   5.832   3.976   2.628
  864SOL    HW2 3492   5.966   4.013   2.712
  865SOL     OW 3493   1.979   0.008   3.995
  865SOL    HW1 3494   1.969   0.011   3.895
  865SOL    HW2 3495   1.981   0.102   4.030
  866SOL     OW 3496   3.291   2.137   1.854
  866SOL    HW1 3497   3.193   2.127   1.865
  866SOL    HW2 3498   3.337   2.120   1.942
  867SOL     OW 3499   2.829   2.898   6.769
  867SOL    HW1 3500   2.742   2.863   6.735
  867SOL    HW2 3501   2.819   2.925   6.865
  868SOL     OW 3502   5.702   1.186   3.055
  868SOL    HW1 3503   5.641   1.118   3.014
  868SOL    HW2 3504   5.769   1.215   2.986
  869SOL     OW 3505   6.051   6.058   1.448
  869SOL    HW1 3506   6.021   6.124   1.380
  869SOL    HW2 3507   6.070   5.970   1.403
  870SOL     OW 3508   6.335   1.922   1.334
  870SOL    HW1 3509   6.424   1.926   1.380
  870SOL    HW2 3510   6.298   2.014   1.323
  871SOL     OW 3511   5.774   2.409   1.523
  871SOL    HW1 3512   5.698   2.368   1.472
  871SOL    HW2 3513   5.795   2.499   1.485
  872SOL     OW 3514   6.728   2.472   3.904
  872SOL    HW1 3515   6.752   2.569   3.903
  872SOL    HW2 3516   6.736   2.434   3.812
  873SOL     OW 3517   2.923   7.000   4.109
  873SOL    HW1 3518   3.019   6.993   4.136
  873SOL    HW2 3519   2.916   6.999   4.009
  874SOL     OW 3520   1.294   3.838   5.369
  874SOL    HW1 3521   1.195   3.828   5.371
  874SOL    HW2 3522   1.336   3.769   5.428
  875SOL     OW 3523   5.625   3.895   0.209
  875SOL    HW1 3524   5.697   3.826   0.208
  875SOL    HW2 3525   5.654   3.976   0.157
  876SOL     OW 3526   0.055   3.567   1.934
  876SOL    HW1 3527   0.057   3.590   1.836
  876SOL    HW2 3528   0.149   3.565   1.969
  877SOL     OW 3529   5.026   5.839   6.778
  877SOL    HW1 3530   4.931   5.840   6.809
  877SOL    HW2 3531   5.085   5.870   6.853
  878SOL     OW 3532   2.812   5.032   0.620
  878SOL    HW1 3533   2.868   5.061   0.698
  878SOL    HW2 3534   2.779   5.112   0.571
  879SOL     OW 3535   4.101   2.189   2.787
  879SOL    HW1 3536   4.148   2.249   2.722
  879SOL    HW2 3537   4.007   2.175   2.757
  880SOL     OW 3538   3.633   5.474   0.707
  880SOL    HW1 3539   3.591   5.559   0.738
  880SOL    HW2 3540   3.597   5.449   0.617
  881SOL     OW 3541   3.734   5.040   4.894
  881SOL    HW1 3542   3.650   5.038   4.948
  881SOL    HW2 3543   3.710   5.035   4.796
  882SOL     OW 3544   1.554   0.361   4.099
  882SOL    HW1 3545   1.636   0.372   4.043
  882SOL    HW2 3546   1.501   0.284   4.064
  883SOL     OW 3547   3.325   5.607   6.208
  883SOL    HW1 3548   3.303   5.521   6.254
  883SOL    HW2 3549   3.370   5.587   6.121
  884SOL     OW 3550   5.359   3.296   1.898
  884SOL    HW1 3551   5.378   3.307   1.996
  884SOL    HW2 3552   5.314   3.378   1.863
  885SOL     OW 3553   5.429   6.112   0.773
  885SOL    HW1 3554   5.359   6.170   0.732
  885SOL    HW2 3555   5.414   6.105   0.871
  886SOL     OW 3556   4.452   1.972   6.606
  886SOL    HW1 3557   4.529   1.908   6.603
  886SOL    HW2 3558   4.475   2.055   6.555
  887SOL     OW 3559   4.082   6.643   5.467
  887SOL    HW1 3560   4.010   6.653   5.536
  887SOL    HW2 3561   4.041   6.642   5.376
  888SOL     OW 3562   6.140   5.692   3.034
  888SOL    HW1 3563   6.050   5.723   3.064
  888SOL    HW2 3564   6.199   5.772   3.017
  889SOL     OW 3565   0.763   6.356   5.053
  889SOL    HW1 3566   0.816   6.392   4.976
  889SOL    HW2 3567   0.803   6.269   5.082
  890SOL     OW 3568   2.567   4.750   2.102
  890SOL    HW1 3569   2.627   4.679   2.067
  890SOL    HW2 3570   2.613   4.839   2.098
  891SOL     OW 3571   5.404   3.149   6.902
  891SOL    HW1 3572   5.465   3.108   6.834
  891SOL    HW2 3573   5.456   3.172   6.984
  892SOL     OW 3574   2.716   5.104   1.314
  892SOL    HW1 3575   2.774   5.088   1.393
  892SOL    HW2 3576   2.643   5.168   1.338
  893SOL     OW 3577   1.409   0.399   0.172
  893SOL    HW1 3578   1.332   0.439   0.222
  893SOL    HW2 3579   1.381   0.313   0.131
  894SOL     OW 3580   1.015   5.563   4.377
  894SOL    HW1 3581   0.992   5.658   4.357
  894SOL    HW2 3582   1.040   5.516   4.293
  895SOL     OW 3583   2.326   6.625   4.652
  895SOL    HW1 3584   2.257   6.585   4.713
  895SOL    HW2 3585   2.282   6.688   4.589
  896SOL     OW 3586   5.762   6.957   2.823
  896SOL    HW1 3587   5.695   7.020   2.861
  896SOL    HW2 3588   5.779   6.883   2.888
  897SOL     OW 3589   5.131   1.964   6.773
  897SOL    HW1 3590   5.203   1.897   6.756
  897SOL    HW2 3591   5.124   2.026   6.694
  898SOL     OW 3592   5.522   6.389   3.094
  898SOL    HW1 3593   5.469   6.433   3.021
  898SOL    HW2 3594   5.488   6.418   3.183
  899SOL     OW 3595   0.423   4.294   6.212
  899SOL    HW1 3596   0.370   4.354   6.152
  899SOL    HW2 3597   0.493   4.348   6.260
  900SOL     OW 3598   0.649   5.601   3.566
  900SOL    HW1 3599   0.736   5.648   3.585
  900SOL    HW2 3600   0.641   5.586   3.467
  901SOL     OW 3601   5.938   1.230   4.224
  901SOL    HW1 3602   5.972   1.156   4.283
  901SOL    HW2 3603   6.014   1.289   4.198
  902SOL     OW 3604   0.165   6.459   0.576
  902SOL    HW1 3605   0.091   6.490   0.636
  902SOL    HW2 3606   0.216   6.538   0.542
  903SOL     OW 3607   1.306   5.011   0.546
  903SOL    HW1 3608   1.347   5.101   0.540
  903SOL    HW2 3609   1.317   4.975   0.639
  904SOL     OW 3610   1.886   1.754   3.537
  904SOL    HW1 3611   1.791   1.728   3.522
  904SOL    HW2 3612   1.932   1.682   3.591
  905SOL     OW 3613   5.844   1.822   5.118
  905SOL    HW1 3614   5.804   1.731   5.104
  905SOL    HW2 3615   5.774   1.892   5.107
  906SOL     OW 3616   6.641   3.247   5.909
  906SOL    HW1 3617   6.547   3.215   5.903
  906SOL    HW2 3618   6.647   3.341   5.875
  907SOL     OW 3619   6.280   2.261   2.857
  907SOL    HW1 3620   6.253   2.215   2.941
  907SOL    HW2 3621   6.319   2.350   2.879
  908SOL     OW 3622   1.862   1.062   4.004
  908SOL    HW1 3623   1.792   1.001   3.966
  908SOL    HW2 3624   1.899   1.021   4.088
  909SOL     OW 3625   4.128   1.314   1.995
  909SOL    HW1 3626   4.084   1.360   1.917
  909SOL    HW2 3627   4.224   1.295   1.973
  910SOL     OW 3628   2.010   1.614   0.731
  910SOL    HW1 3629   1.960   1.695   0.699
  910SOL    HW2 3630   2.084   1.593   0.668
  911SOL     OW 3631   7.010   4.858   1.518
  911SOL    HW1 3632   6.955   4.926   1.470
  911SOL    HW2 3633   0.036   4.902   1.593
  912SOL     OW 3634   0.824   6.644   6.064
  912SOL    HW1 3635   0.872   6.668   6.148
  912SOL    HW2 3636   0.889   6.642   5.988
  913SOL     OW 3637   3.108   0.931   2.331
  913SOL    HW1 3638   3.176   1.005   2.339
  913SOL    HW2 3639   3.030   0.952   2.391
  914SOL     OW 3640   3.101   6.236   2.468
  914SOL    HW1 3641   3.061   6.252   2.558
  914SOL    HW2 3642   3.093   6.139   2.445
  915SOL     OW 3643   0.467   2.656   0.803
  915SOL    HW1 3644   0.380   2.668   0.852
  915SOL    HW2 3645   0.483   2.559   0.787
  916SOL     OW 3646   2.065   3.193   2.694
  916SOL    HW1 3647   2.151   3.153   2.724
  916SOL    HW2 3648   2.065   3.202   2.594
  917SOL     OW 3649   3.826   1.818   0.608
  917SOL    HW1 3650   3.737   1.796   0.650
  917SOL    HW2 3651   3.835   1.917   0.600
  918SOL     OW 3652   1.909   0.228   6.014
  918SOL    HW1 3653   1.871   0.241   6.105
  918SOL    HW2 3654   1.846   0.173   5.958
  919SOL     OW 3655   2.644   5.820   2.434
  919SOL    HW1 3656   2.577   5.877   2.386
  919SOL    HW2 3657   2.626   5.724   2.415
  920SOL     OW 3658   2.236   0.725   4.149
  920SOL    HW1 3659   2.270   0.634   4.124
  920SOL    HW2 3660   2.140   0.733   4.123
  921SOL     OW 3661   5.749   5.405   4.819
  921SOL    HW1 3662   5.754   5.485   4.759
  921SOL    HW2 3663   5.711   5.431   4.907
  922SOL     OW 3664   2.727   3.525   6.731
  922SOL    HW1 3665   2.777   3.441   6.752
  922SOL    HW2 3666   2.788   3.588   6.683
  923SOL     OW 3667   3.304   6.993   6.205
  923SOL    HW1 3668   3.206   6.989   6.226
  923SOL    HW2 3669   3.351   6.917   6.251
  924SOL     OW 3670   5.247   2.680   3.556
  924SOL    HW1 3671   5.264   2.621   3.477
  924SOL    HW2 3672   5.287   2.639   3.638
  925SOL     OW 3673   0.337   1.633   3.811
  925SOL    HW1 3674   0.253   1.592   3.845
  925SOL    HW2 3675   0.391   1.562   3.764
  926SOL     OW 3676   5.089   5.856   0.940
  926SOL    HW1 3677   5.076   5.840   1.038
  926SOL    HW2 3678   5.127   5.773   0.898
  927SOL     OW 3679   3.804   5.062   5.164
  927SOL    HW1 3680   3.762   5.047   5.074
  927SOL    HW2 3681   3.753   5.012   5.234
  928SOL     OW 3682   1.918   1.846   1.032
  928SOL    HW1 3683   1.844   1.802   0.982
  928SOL    HW2 3684   1.921   1.811   1.126
  929SOL     OW 3685   0.082   2.504   2.659
  929SOL    HW1 3686   0.061   2.601   2.672
  929SOL    HW2 3687   0.106   2.464   2.748
  930SOL     OW 3688   5.014   6.111   4.352
  930SOL    HW1 3689   4.933   6.064   4.387
  930SOL    HW2 3690   4.999   6.138   4.257
  931SOL     OW 3691   1.691   2.888   2.920
  931SOL    HW1 3692   1.605   2.937   2.932
  931SOL    HW2 3693   1.747   2.935   2.851
  932SOL     OW 3694   4.520   6.890   0.822
  932SOL    HW1 3695   4.534   6.799   0.783
  932SOL    HW2 3696   4.432   6.926   0.792
  933SOL     OW 3697   1.871   5.874   3.125
  933SOL    HW1 3698   1.957   5.913   3.091
  933SOL    HW2 3699   1.853   5.911   3.216
  934SOL     OW 3700   3.169   1.200   5.320
  934SOL    HW1 3701   3.086   1.165   5.277
  934SOL    HW2 3702   3.165   1.299   5.327
  935SOL     OW 3703   3.837   3.323   6.518
  935SOL    HW1 3704   3.863   3.366   6.431
  935SOL    HW2 3705   3.836   3.393   6.590
  936SOL     OW 3706   1.065   1.395   1.242
  936SOL    HW1 3707   0.966   1.407   1.233
  936SOL    HW2 3708   1.105   1.477   1.282
  937SOL     OW 3709   4.803   2.018   4.602
  937SOL    HW1 3710   4.814   2.078   4.523
  937SOL    HW2 3711   4.712   1.977   4.601
  938SOL     OW 3712   0.500   2.463   6.687
  938SOL    HW1 3713   0.548   2.455   6.775
  938SOL    HW2 3714   0.452   2.550   6.684
  939SOL     OW 3715   6.019   1.194   5.552
  939SOL    HW1 3716   6.113   1.219   5.525
  939SOL    HW2 3717   6.016   1.096   5.572
  940SOL     OW 3718   6.645   1.182   3.924
  940SOL    HW1 3719   6.727   1.203   3.978
  940SOL    HW2 3720   6.620   1.086   3.938
  941SOL     OW 3721   5.751   2.229   4.489
  941SOL    HW1 3722   5.802   2.218   4.404
  941SOL    HW2 3723   5.655   2.207   4.473
  942SOL     OW 3724   5.872   6.930   5.465
  942SOL    HW1 3725   5.951   6.868   5.461
  942SOL    HW2 3726   5.799   6.886   5.518
  943SOL     OW 3727   5.462   2.362   1.500
  943SOL    HW1 3728   5.452   2.383   1.403
  943SOL    HW2 3729   5.372   2.361   1.543
  944SOL     OW 3730   5.350   4.529   3.917
  944SOL    HW1 3731   5.421   4.465   3.889
  944SOL    HW2 3732   5.391   4.611   3.955
  945SOL     OW 3733   5.796   4.294   4.821
  945SOL    HW1 3734   5.738   4.228   4.867
  945SOL    HW2 3735   5.765   4.387   4.842
  946SOL     OW 3736   5.883   2.328   5.356
  946SOL    HW1 3737   5.935   2.380   5.423
  946SOL    HW2 3738   5.898   2.366   5.265
  947SOL     OW 3739   2.113   2.410   6.146
  947SOL    HW1 3740   2.089   2.461   6.228
  947SOL    HW2 3741   2.128   2.474   6.070
  948SOL     OW 3742   3.966   2.121   0.547
  948SOL    HW1 3743   3.927   2.154   0.461
  948SOL    HW2 3744   4.065   2.134   0.546
  949SOL     OW 3745   6.278   5.822   6.579
  949SOL    HW1 3746   6.351   5.848   6.516
  949SOL    HW2 3747   6.192   5.866   6.550
  950SOL     OW 3748   4.246   5.153   0.830
  950SOL    HW1 3749   4.256   5.160   0.929
  950SOL    HW2 3750   4.254   5.057   0.803
  951SOL     OW 3751   0.977   1.661   2.664
  951SOL    HW1 3752   1.002   1.658   2.761
  951SOL    HW2 3753   1.039   1.603   2.612
  952SOL     OW 3754   5.574   1.361   2.688
  952SOL    HW1 3755   5.603   1.455   2.671
  952SOL    HW2 3756   5.651   1.299   2.668
  953SOL     OW 3757   4.840   6.557   6.526
  953SOL    HW1 3758   4.764   6.492   6.522
  953SOL    HW2 3759   4.919   6.519   6.478
  954SOL     OW 3760   6.376   6.617   0.446
  954SOL    HW1 3761   6.320   6.653   0.521
  954SOL    HW2 3762   6.466   6.662   0.448
  955SOL     OW 3763   0.467   6.547   2.650
  955SOL    HW1 3764   0.531   6.483   2.692
  955SOL    HW2 3765   0.373   6.520   2.672
  956SOL     OW 3766   1.521   2.725   1.125
  956SOL    HW1 3767   1.609   2.748   1.083
  956SOL    HW2 3768   1.480   2.808   1.164
  957SOL     OW 3769   1.703   5.368   4.575
  957SOL    HW1 3770   1.643   5.376   4.495
  957SOL    HW2 3771   1.651   5.329   4.651
  958SOL     OW 3772   4.741   2.324   1.259
  958SOL    HW1 3773   4.729   2.360   1.351
  958SOL    HW2 3774   4.809   2.378   1.210
  959SOL     OW 3775   2.480   4.424   2.768
  959SOL    HW1 3776   2.418   4.455   2.696
  959SOL    HW2 3777   2.491   4.325   2.763
  960SOL     OW 3778   1.669   5.693   4.608
  960SOL    HW1 3779   1.732   5.647   4.670
  960SOL    HW2 3780   1.575   5.681   4.640
  961SOL     OW 3781   4.207   0.021   1.783
  961SOL    HW1 3782   4.269   6.975   1.819
  961SOL    HW2 3783   4.257   0.078   1.717
  962SOL     OW 3784   2.021   0.268   4.162
  962SOL    HW1 3785   1.975   0.312   4.239
  962SOL    HW2 3786   2.078   0.193   4.195
  963SOL     OW 3787   6.616   0.227   0.669
  963SOL    HW1 3788   6.575   0.177   0.592
  963SOL    HW2 3789   6.574   0.317   0.676
  964SOL     OW 3790   5.919   3.232   1.734
  964SOL    HW1 3791   5.829   3.276   1.734
  964SOL    HW2 3792   5.924   3.164   1.807
  965SOL     OW 3793   0.255   2.155   0.341
  965SOL    HW1 3794   0.260   2.166   0.242
  965SOL    HW2 3795   0.253   2.057   0.364
  966SOL     OW 3796   6.664   2.543   2.957
  966SOL    HW1 3797   6.727   2.543   3.034
  966SOL    HW2 3798   6.572   2.566   2.990
  967SOL     OW 3799   1.685   5.895   1.451
  967SOL    HW1 3800   1.758   5.859   1.508
  967SOL    HW2 3801   1.597   5.863   1.486
  968SOL     OW 3802   5.172   3.170   2.915
  968SOL    HW1 3803   5.222   3.250   2.950
  968SOL    HW2 3804   5.228   3.088   2.926
  969SOL     OW 3805   4.807   5.757   5.847
  969SOL    HW1 3806   4.726   5.709   5.813
  969SOL    HW2 3807   4.779   5.830   5.909
  970SOL     OW 3808   4.381   2.432   5.268
  970SOL    HW1 3809   4.338   2.348   5.301
  970SOL    HW2 3810   4.316   2.482   5.211
  971SOL     OW 3811   6.469   1.592   1.744
  971SOL    HW1 3812   6.436   1.574   1.651
  971SOL    HW2 3813   6.425   1.529   1.808
  972SOL     OW 3814   6.277   4.909   0.992
  972SOL    HW1 3815   6.280   5.009   0.996
  972SOL    HW2 3816   6.335   4.876   0.918
  973SOL     OW 3817   5.924   4.353   5.812
  973SOL    HW1 3818   5.904   4.443   5.851
  973SOL    HW2 3819   5.930   4.361   5.713
  974SOL     OW 3820   2.438   1.128   3.650
  974SOL    HW1 3821   2.409   1.126   3.745
  974SOL    HW2 3822   2.439   1.222   3.617
  975SOL     OW 3823   3.093   6.405   5.649
  975SOL    HW1 3824   2.995   6.421   5.663
  975SOL    HW2 3825   3.129   6.470   5.583
  976SOL     OW 3826   0.151   4.683   3.427
  976SOL    HW1 3827   0.222   4.696   3.496
  976SOL    HW2 3828   0.079   4.625   3.463
  977SOL     OW 3829   2.115   0.738   3.628
  977SOL    HW1 3830   2.088   0.778   3.716
  977SOL    HW2 3831   2.054   0.661   3.606
  978SOL     OW 3832   5.414   3.832   4.312
  978SOL    HW1 3833   5.345   3.759   4.311
  978SOL    HW2 3834   5.504   3.792   4.297
  979SOL     OW 3835   6.275   0.929   2.846
  979SOL    HW1 3836   6.215   0.924   2.926
  979SOL    HW2 3837   6.273   1.022   2.809
  980SOL     OW 3838   5.458   2.141   4.374
  980SOL    HW1 3839   5.421   2.141   4.281
  980SOL    HW2 3840   5.445   2.050   4.414
  981SOL     OW 3841   0.832   1.933   4.733
  981SOL    HW1 3842   0.902   1.886   4.788
  981SOL    HW2 3843   0.749   1.943   4.788
  982SOL     OW 3844   0.963   3.248   1.858
  982SOL    HW1 3845   0.950   3.246   1.957
  982SOL    HW2 3846   0.978   3.342   1.828
  983SOL     OW 3847   6.496   2.237   3.072
  983SOL    HW1 3848   6.506   2.138   3.078
  983SOL    HW2 3849   6.528   2.268   2.982
  984SOL     OW 3850   4.333   1.658   4.385
  984SOL    HW1 3851   4.433   1.662   4.383
  984SOL    HW2 3852   4.304   1.564   4.404
  985SOL     OW 3853   3.379   5.549   0.872
  985SOL    HW1 3854   3.369   5.452   0.852
  985SOL    HW2 3855   3.444   5.562   0.947
  986SOL     OW 3856   4.176   5.041   6.173
  986SOL    HW1 3857   4.207   5.109   6.240
  986SOL    HW2 3858   4.224   4.955   6.188
  987SOL     OW 3859   4.255   6.879   2.485
  987SOL    HW1 3860   4.311   6.866   2.566
  987SOL    HW2 3861   4.220   6.790   2.454
  988SOL     OW 3862   3.776   3.416   1.088
  988SOL    HW1 3863   3.863   3.461   1.112
  988SOL    HW2 3864   3.729   3.470   1.018
  989SOL     OW 3865   0.755   6.717   5.625
  989SOL    HW1 3866   0.714   6.746   5.711
  989SOL    HW2 3867   0.683   6.682   5.564
  990SOL     OW 3868   4.342   0.520   3.795
  990SOL    HW1 3869   4.425   0.464   3.784
  990SOL    HW2 3870   4.263   0.461   3.806
  991SOL     OW 3871   0.465   1.700   5.248
  991SOL    HW1 3872   0.506   1.792   5.250
  991SOL    HW2 3873   0.532   1.635   5.214
  992SOL     OW 3874   0.382   3.428   0.190
  992SOL    HW1 3875   0.360   3.334   0.166
  992SOL    HW2 3876   0.342   3.490   0.123
  993SOL     OW 3877   2.861   4.761   3.003
  993SOL    HW1 3878   2.876   4.741   3.100
  993SOL    HW2 3879   2.812   4.685   2.960
  994SOL     OW 3880   3.258   2.896   3.000
  994SOL    HW1 3881   3.276   2.834   3.076
  994SOL    HW2 3882   3.167   2.936   3.009
  995SOL     OW 3883   1.593   1.667   5.355
  995SOL    HW1 3884   1.572   1.755   5.399
  995SOL    HW2 3885   1.642   1.684   5.269
  996SOL     OW 3886   2.150   3.755   2.828
  996SOL    HW1 3887   2.171   3.814   2.749
  996SOL    HW2 3888   2.156   3.659   2.801
  997SOL     OW 3889   0.442   0.721   1.780
  997SOL    HW1 3890   0.459   0.816   1.806
  997SOL    HW2 3891   0.345   0.700   1.790
  998SOL     OW 3892   4.107   0.169   2.252
  998SOL    HW1 3893   4.176   0.132   2.190
  998SOL    HW2 3894   4.087   0.264   2.228
  999SOL     OW 3895   6.746   5.533   1.169
  999SOL    HW1 3896   6.725   5.622   1.130
  999SOL    HW2 3897   6.769   5.543   1.266
 1000SOL     OW 3898   2.697   2.254   4.064
 1000SOL    HW1 3899   2.624   2.198   4.026
 1000SOL    HW2 3900   2.777   2.196   4.084
 1001SOL     OW 3901   5.084   0.296   5.689
 1001SOL    HW1 3902   5.169   0.325   5.734
 1001SOL    HW2 3903   5.012   0.363   5.709
 1002SOL     OW 3904   6.082   1.063   0.204
 1002SOL    HW1 3905   6.173   1.026   0.186
 1002SOL    HW2 3906   6.044   1.102   0.120
 1003SOL     OW 3907   3.345   6.143   2.559
 1003SOL    HW1 3908   3.350   6.136   2.459
 1003SOL    HW2 3909   3.259   6.185   2.585
 1004SOL     OW 3910   6.470   6.822   0.171
 1004SOL    HW1 3911   6.398   6.872   0.218
 1004SOL    HW2 3912   6.513   6.758   0.234
 1005SOL     OW 3913   0.814   0.228   2.832
 1005SOL    HW1 3914   0.866   0.312   2.851
 1005SOL    HW2 3915   0.717   0.245   2.846
 1006SOL     OW 3916   2.514   5.290   1.331
 1006SOL    HW1 3917   2.470   5.294   1.241
 1006SOL    HW2 3918   2.444   5.298   1.403
 1007SOL     OW 3919   0.084   1.115   3.244
 1007SOL    HW1 3920   0.103   1.021   3.216
 1007SOL    HW2 3921   0.168   1.169   3.237
 1008SOL     OW 3922   1.332   3.436   3.930
 1008SOL    HW1 3923   1.324   3.536   3.922
 1008SOL    HW2 3924   1.347   3.397   3.839
 1009SOL     OW 3925   0.727   6.590   4.609
 1009SOL    HW1 3926   0.801   6.642   4.567
 1009SOL    HW2 3927   0.758   6.553   4.697
 1010SOL     OW 3928   3.985   2.481   0.743
 1010SOL    HW1 3929   3.956   2.443   0.831
 1010SOL    HW2 3930   4.029   2.570   0.758
 1011SOL     OW 3931   2.222   5.714   3.824
 1011SOL    HW1 3932   2.276   5.793   3.796
 1011SOL    HW2 3933   2.218   5.709   3.924
 1012SOL     OW 3934   5.496   5.384   0.015
 1012SOL    HW1 3935   5.400   5.368   7.014
 1012SOL    HW2 3936   5.526   5.472   7.001
 1013SOL     OW 3937   0.964   0.816   0.994
 1013SOL    HW1 3938   0.895   0.885   1.016
 1013SOL    HW2 3939   0.918   0.728   0.980
 1014SOL     OW 3940   5.037   6.295   6.167
 1014SOL    HW1 3941   5.041   6.341   6.078
 1014SOL    HW2 3942   5.096   6.214   6.165
 1015SOL     OW 3943   3.713   5.857   4.506
 1015SOL    HW1 3944   3.760   5.900   4.429
 1015SOL    HW2 3945   3.701   5.924   4.579
 1016SOL     OW 3946   3.692   2.638   1.243
 1016SOL    HW1 3947   3.740   2.580   1.309
 1016SOL    HW2 3948   3.699   2.733   1.271
 1017SOL     OW 3949   4.182   2.769   0.474
 1017SOL    HW1 3950   4.216   2.804   0.561
 1017SOL    HW2 3951   4.251   2.786   0.403
 1018SOL     OW 3952   0.980   2.479   3.788
 1018SOL    HW1 3953   0.973   2.444   3.694
 1018SOL    HW2 3954   0.940   2.570   3.792
 1019SOL     OW 3955   0.256   1.844   6.556
 1019SOL    HW1 3956   0.174   1.857   6.612
 1019SOL    HW2 3957   0.255   1.907   6.479
 1020SOL     OW 3958   2.705   1.432   1.275
 1020SOL    HW1 3959   2.704   1.468   1.369
 1020SOL    HW2 3960   2.720   1.333   1.278
 1021SOL     OW 3961   6.789   1.040   0.691
 1021SOL    HW1 3962   6.717   0.972   0.705
 1021SOL    HW2 3963   6.752   1.118   0.641
 1022SOL     OW 3964   4.138   3.523   6.078
 1022SOL    HW1 3965   4.110   3.555   5.988
 1022SOL    HW2 3966   4.202   3.588   6.118
 1023SOL     OW 3967   5.715   0.667   2.529
 1023SOL    HW1 3968   5.727   0.574   2.562
 1023SOL    HW2 3969   5.804   0.713   2.523
 1024SOL     OW 3970   6.882   1.700   3.949
 1024SOL    HW1 3971   6.785   1.691   3.929
 1024SOL    HW2 3972   6.935   1.653   3.879
 1025SOL     OW 3973   3.275   4.999   0.956
 1025SOL    HW1 3974   3.352   4.996   1.019
 1025SOL    HW2 3975   3.297   4.946   0.874
 1026SOL     OW 3976   2.230   2.100   6.997
 1026SOL    HW1 3977   2.136   2.116   6.966
 1026SOL    HW2 3978   2.253   2.004   6.984
 1027SOL     OW 3979   2.866   5.102   2.289
 1027SOL    HW1 3980   2.965   5.084   2.293
 1027SOL    HW2 3981   2.828   5.094   2.381
 1028SOL     OW 3982   1.577   6.082   0.830
 1028SOL    HW1 3983   1.501   6.019   0.849
 1028SOL    HW2 3984   1.555   6.136   0.749
 1029SOL     OW 3985   2.357   0.256   6.818
 1029SOL    HW1 3986   2.381   0.161   6.797
 1029SOL    HW2 3987   2.402   0.284   6.903
 1030SOL     OW 3988   4.251   3.783   5.152
 1030SOL    HW1 3989   4.271   3.741   5.064
 1030SOL    HW2 3990   4.167   3.838   5.145
 1031SOL     OW 3991   2.394   5.386   1.641
 1031SOL    HW1 3992   2.361   5.293   1.658
 1031SOL    HW2 3993   2.333   5.432   1.577
 1032SOL     OW 3994   1.422   1.357   4.404
 1032SOL    HW1 3995   1.349   1.408   4.449
 1032SOL    HW2 3996   1.399   1.344   4.307
 1033SOL     OW 3997   2.759   5.528   1.965
 1033SOL    HW1 3998   2.808   5.460   1.911
 1033SOL    HW2 3999   2.822   5.573   2.028
 1034SOL     OW 4000   2.276   4.917   3.550
 1034SOL    HW1 4001   2.236   4.976   3.620
 1034SOL    HW2 4002   2.344   4.969   3.498
 1035SOL     OW 4003   3.390   0.920   4.808
 1035SOL    HW1 4004   3.299   0.956   4.827
 1035SOL    HW2 4005   3.446   0.924   4.891
 1036SOL     OW 4006   4.338   2.799   1.058
 1036SOL    HW1 4007   4.334   2.699   1.052
 1036SOL    HW2 4008   4.419   2.832   1.009
 1037SOL     OW 4009   2.570   1.071   0.391
 1037SOL    HW1 4010   2.568   0.985   0.339
 1037SOL    HW2 4011   2.491   1.076   0.451
 1038SOL     OW 4012   1.868   1.043   5.580
 1038SOL    HW1 4013   1.925   1.124   5.596
 1038SOL    HW2 4014   1.773   1.072   5.569
 1039SOL     OW 4015   3.801   2.169   4.153
 1039SOL    HW1 4016   3.830   2.153   4.059
 1039SOL    HW2 4017   3.718   2.225   4.154
 1040SOL     OW 4018   6.100   4.169   2.852
 1040SOL    HW1 4019   6.192   4.156   2.889
 1040SOL    HW2 4020   6.059   4.249   2.895
 1041SOL     OW 4021   0.364   1.078   4.422
 1041SOL    HW1 4022   0.372   1.030   4.335
 1041SOL    HW2 4023   0.411   1.026   4.493
 1042SOL     OW 4024   5.485   5.054   0.745
 1042SOL    HW1 4025   5.461   5.135   0.692
 1042SOL    HW2 4026   5.529   4.987   0.685
 1043SOL     OW 4027   3.117   1.888   6.327
 1043SOL    HW1 4028   3.064   1.933   6.255
 1043SOL    HW2 4029   3.115   1.789   6.312
 1044SOL     OW 4030   3.822   3.487   1.577
 1044SOL    HW1 4031   3.750   3.425   1.608
 1044SOL    HW2 4032   3.908   3.436   1.569
 1045SOL     OW 4033   2.870   1.396   2.975
 1045SOL    HW1 4034   2.837   1.445   3.055
 1045SOL    HW2 4035   2.886   1.300   2.999
 1046SOL     OW 4036   3.884   0.235   0.921
 1046SOL    HW1 4037   3.806   0.258   0.979
 1046SOL    HW2 4038   3.867   0.147   0.877
 1047SOL     OW 4039   0.975   4.763   2.800
 1047SOL    HW1 4040   0.952   4.769   2.897
 1047SOL    HW2 4041   1.005   4.671   2.777
 1048SOL     OW 4042   4.993   4.062   4.919
 1048SOL    HW1 4043   5.016   3.991   4.987
 1048SOL    HW2 4044   4.905   4.102   4.942
 1049SOL     OW 4045   0.214   4.063   4.595
 1049SOL    HW1 4046   0.283   4.126   4.632
 1049SOL    HW2 4047   0.128   4.112   4.583
 1050SOL     OW 4048   3.600   0.231   6.790
 1050SOL    HW1 4049   3.537   0.294   6.743
 1050SOL    HW2 4050   3.666   0.284   6.842
 1051SOL     OW 4051   4.825   4.647   0.063
 1051SOL    HW1 4052   4.893   4.616   0.128
 1051SOL    HW2 4053   4.776   4.726   0.101
 1052SOL     OW 4054   3.667   0.104   5.185
 1052SOL    HW1 4055   3.716   0.128   5.101
 1052SOL    HW2 4056   3.609   0.181   5.213
 1053SOL     OW 4057   4.689   4.640   4.017
 1053SOL    HW1 4058   4.708   4.605   4.109
 1053SOL    HW2 4059   4.593   4.666   4.010
 1054SOL     OW 4060   3.385   5.336   4.830
 1054SOL    HW1 4061   3.378   5.421   4.778
 1054SOL    HW2 4062   3.446   5.349   4.908
 1055SOL     OW 4063   4.441   6.136   5.021
 1055SOL    HW1 4064   4.495   6.220   5.028
 1055SOL    HW2 4065   4.363   6.140   5.083
 1056SOL     OW 4066   1.552   6.282   5.428
 1056SOL    HW1 4067   1.614   6.214   5.468
 1056SOL    HW2 4068   1.594   6.373   5.435
 1057SOL     OW 4069   2.918   3.671   2.576
 1057SOL    HW1 4070   3.005   3.703   2.613
 1057SOL    HW2 4071   2.897   3.581   2.614
 1058SOL     OW 4072   3.298   1.523   1.790
 1058SOL    HW1 4073   3.330   1.576   1.869
 1058SOL    HW2 4074   3.201   1.542   1.775
 1059SOL     OW 4075   4.423   1.463   1.371
 1059SOL    HW1 4076   4.399   1.435   1.464
 1059SOL    HW2 4077   4.345   1.510   1.329
 1060SOL     OW 4078   1.100   2.370   5.846
 1060SOL    HW1 4079   1.169   2.299   5.863
 1060SOL    HW2 4080   1.048   2.346   5.764
 1061SOL     OW 4081   3.843   5.427   1.788
 1061SOL    HW1 4082   3.897   5.351   1.751
 1061SOL    HW2 4083   3.839   5.500   1.720
 1062SOL     OW 4084   5.801   6.220   5.400
 1062SOL    HW1 4085   5.792   6.249   5.496
 1062SOL    HW2 4086   5.794   6.120   5.396
 1063SOL     OW 4087   1.676   3.038   0.207
 1063SOL    HW1 4088   1.601   3.100   0.181
 1063SOL    HW2 4089   1.640   2.946   0.222
 1064SOL     OW 4090   0.259   2.933   1.904
 1064SOL    HW1 4091   0.164   2.924   1.874
 1064SOL    HW2 4092   0.262   2.967   1.998
 1065SOL     OW 4093   6.222   6.639   4.714
 1065SOL    HW1 4094   6.122   6.634   4.711
 1065SOL    HW2 4095   6.259   6.625   4.622
 1066SOL     OW 4096   4.747   0.495   3.566
 1066SOL    HW1 4097   4.685   0.524   3.493
 1066SOL    HW2 4098   4.780   0.575   3.616
 1067SOL     OW 4099   2.099   2.987   2.038
 1067SOL    HW1 4100   2.169   2.916   2.044
 1067SOL    HW2 4101   2.124   3.053   1.967
 1068SOL     OW 4102   0.514   3.993   2.495
 1068SOL    HW1 4103   0.447   3.936   2.542
 1068SOL    HW2 4104   0.587   4.019   2.559
 1069SOL     OW 4105   4.360   4.027   1.127
 1069SOL    HW1 4106   4.276   4.022   1.074
 1069SOL    HW2 4107   4.395   3.934   1.143
 1070SOL     OW 4108   2.210   0.878   0.652
 1070SOL    HW1 4109   2.147   0.886   0.729
 1070SOL    HW2 4110   2.301   0.856   0.685
 1071SOL     OW 4111   3.790   6.619   3.421
 1071SOL    HW1 4112   3.788   6.702   3.365
 1071SOL    HW2 4113   3.875   6.569   3.402
 1072SOL     OW 4114   3.515   6.361   2.636
 1072SOL    HW1 4115   3.529   6.281   2.694
 1072SOL    HW2 4116   3.432   6.349   2.582
 1073SOL     OW 4117   2.550   4.579   2.538
 1073SOL    HW1 4118   2.575   4.534   2.623
 1073SOL    HW2 4119   2.622   4.643   2.511
 1074SOL     OW 4120   0.716   4.854   1.510
 1074SOL    HW1 4121   0.626   4.883   1.479
 1074SOL    HW2 4122   0.780   4.930   1.502
 1075SOL     OW 4123   5.745   4.850   4.184
 1075SOL    HW1 4124   5.778   4.782   4.249
 1075SOL    HW2 4125   5.813   4.863   4.111
 1076SOL     OW 4126   0.514   4.416   3.722
 1076SOL    HW1 4127   0.433   4.400   3.778
 1076SOL    HW2 4128   0.552   4.328   3.692
 1077SOL     OW 4129   4.528   0.397   0.939
 1077SOL    HW1 4130   4.465   0.344   0.882
 1077SOL    HW2 4131   4.476   0.448   1.007
 1078SOL     OW 4132   1.237   2.313   1.533
 1078SOL    HW1 4133   1.183   2.396   1.513
 1078SOL    HW2 4134   1.218   2.244   1.463
 1079SOL     OW 4135   2.796   5.430   3.548
 1079SOL    HW1 4136   2.707   5.472   3.528
 1079SOL    HW2 4137   2.794   5.390   3.639
 1080SOL     OW 4138   1.584   5.050   4.549
 1080SOL    HW1 4139   1.543   5.120   4.491
 1080SOL    HW2 4140   1.514   4.981   4.571
 1081SOL     OW 4141   1.565   0.537   0.671
 1081SOL    HW1 4142   1.548   0.463   0.605
 1081SOL    HW2 4143   1.556   0.625   0.625
 1082SOL     OW 4144   1.351   0.029   6.021
 1082SOL    HW1 4145   1.420   0.026   6.093
 1082SOL    HW2 4146   1.378   0.098   5.953
 1083SOL     OW 4147   3.552   3.411   2.004
 1083SOL    HW1 4148   3.474   3.389   2.063
 1083SOL    HW2 4149   3.520   3.426   1.910
 1084SOL     OW 4150   5.734   3.905   0.991
 1084SOL    HW1 4151   5.812   3.846   1.012
 1084SOL    HW2 4152   5.696   3.941   1.076
 1085SOL     OW 4153   1.651   4.546   3.899
 1085SOL    HW1 4154   1.559   4.508   3.898
 1085SOL    HW2 4155   1.653   4.626   3.959
 1086SOL     OW 4156   4.351   4.744   1.924
 1086SOL    HW1 4157   4.297   4.724   2.006
 1086SOL    HW2 4158   4.382   4.659   1.883
 1087SOL     OW 4159   4.566   2.698   5.495
 1087SOL    HW1 4160   4.572   2.780   5.552
 1087SOL    HW2 4161   4.476   2.654   5.509
 1088SOL     OW 4162   5.168   4.352   4.260
 1088SOL    HW1 4163   5.265   4.375   4.268
 1088SOL    HW2 4164   5.147   4.277   4.323
 1089SOL     OW 4165   0.025   0.165   3.730
 1089SOL    HW1 4166   0.124   0.168   3.747
 1089SOL    HW2 4167   7.006   0.100   3.792
 1090SOL     OW 4168   1.577   1.509   6.694
 1090SOL    HW1 4169   1.540   1.535   6.783
 1090SOL    HW2 4170   1.565   1.586   6.630
 1091SOL     OW 4171   1.599   1.700   4.793
 1091SOL    HW1 4172   1.658   1.731   4.719
 1091SOL    HW2 4173   1.549   1.778   4.831
 1092SOL     OW 4174   2.194   4.008   1.449
 1092SOL    HW1 4175   2.197   3.916   1.489
 1092SOL    HW2 4176   2.278   4.057   1.472
 1093SOL     OW 4177   0.379   1.810   2.698
 1093SOL    HW1 4178   0.427   1.869   2.633
 1093SOL    HW2 4179   0.329   1.866   2.764
 1094SOL     OW 4180   0.089   6.599   1.100
 1094SOL    HW1 4181   0.019   6.591   1.172
 1094SOL    HW2 4182   0.180   6.596   1.142
 1095SOL     OW 4183   5.883   3.439   6.213
 1095SOL    HW1 4184   5.809   3.505   6.223
 1095SOL    HW2 4185   5.969   3.488   6.197
 1096SOL     OW 4186   3.410   4.463   1.698
 1096SOL    HW1 4187   3.316   4.496   1.686
 1096SOL    HW2 4188   3.460   4.526   1.757
 1097SOL     OW 4189   1.064   5.443   5.554
 1097SOL    HW1 4190   0.966   5.440   5.570
 1097SOL    HW2 4191   1.098   5.350   5.538
 1098SOL     OW 4192   4.647   2.025   2.457
 1098SOL    HW1 4193   4.616   2.004   2.364
 1098SOL    HW2 4194   4.691   1.944   2.496
 1099SOL     OW 4195   4.144   1.925   4.062
 1099SOL    HW1 4196   4.118   2.014   4.024
 1099SOL    HW2 4197   4.133   1.854   3.993
 1100SOL     OW 4198   0.489   0.811   6.984
 1100SOL    HW1 4199   0.474   0.872   6.906
 1100SOL    HW2 4200   0.424   0.832   0.033
 1101SOL     OW 4201   5.496   3.071   1.236
 1101SOL    HW1 4202   5.463   2.984   1.198
 1101SOL    HW2 4203   5.583   3.056   1.282
 1102SOL     OW 4204   0.735   4.621   3.694
 1102SOL    HW1 4205   0.665   4.550   3.693
 1102SOL    HW2 4206   0.785   4.620   3.608
 1103SOL     OW 4207   1.164   2.386   2.026
 1103SOL    HW1 4208   1.126   2.431   2.107
 1103SOL    HW2 4209   1.155   2.446   1.947
 1104SOL     OW 4210   3.589   5.061   6.042
 1104SOL    HW1 4211   3.565   4.966   6.020
 1104SOL    HW2 4212   3.637   5.102   5.965
 1105SOL     OW 4213   4.768   4.019   6.635
 1105SOL    HW1 4214   4.757   3.920   6.644
 1105SOL    HW2 4215   4.863   4.040   6.613
 1106SOL     OW 4216   0.303   2.564   5.922
 1106SOL    HW1 4217   0.374   2.506   5.963
 1106SOL    HW2 4218   0.232   2.505   5.882
 1107SOL     OW 4219   0.758   0.221   0.607
 1107SOL    HW1 4220   0.792   0.309   0.641
 1107SOL    HW2 4221   0.803   0.146   0.656
 1108SOL     OW 4222   1.343   1.301   5.220
 1108SOL    HW1 4223   1.286   1.275   5.299
 1108SOL    HW2 4224   1.315   1.249   5.140
 1109SOL     OW 4225   4.166   0.289   3.856
 1109SOL    HW1 4226   4.084   0.346   3.855
 1109SOL    HW2 4227   4.165   0.230   3.937
 1110SOL     OW 4228   2.773   3.483   1.776
 1110SOL    HW1 4229   2.697   3.508   1.715
 1110SOL    HW2 4230   2.777   3.548   1.851
 1111SOL     OW 4231   5.824   0.432   6.985
 1111SOL    HW1 4232   5.726   0.412   6.980
 1111SOL    HW2 4233   5.876   0.352   6.954
 1112SOL     OW 4234   6.394   0.895   2.188
 1112SOL    HW1 4235   6.416   0.810   2.141
 1112SOL    HW2 4236   6.474   0.954   2.190
 1113SOL     OW 4237   6.797   3.559   2.354
 1113SOL    HW1 4238   6.726   3.488   2.352
 1113SOL    HW2 4239   6.760   3.644   2.316
 1114SOL     OW 4240   4.446   1.715   5.284
 1114SOL    HW1 4241   4.450   1.682   5.190
 1114SOL    HW2 4242   4.489   1.649   5.345
 1115SOL     OW 4243   2.797   3.660   0.910
 1115SOL    HW1 4244   2.879   3.707   0.944
 1115SOL    HW2 4245   2.771   3.588   0.974
 1116SOL     OW 4246   3.777   0.022   4.154
 1116SOL    HW1 4247   3.849   0.070   4.204
 1116SOL    HW2 4248   3.809   0.001   4.062
 1117SOL     OW 4249   2.678   3.068   1.093
 1117SOL    HW1 4250   2.673   2.971   1.069
 1117SOL    HW2 4251   2.744   3.081   1.167
 1118SOL     OW 4252   2.294   4.144   3.488
 1118SOL    HW1 4253   2.310   4.222   3.428
 1118SOL    HW2 4254   2.256   4.068   3.434
 1119SOL     OW 4255   4.366   4.019   1.551
 1119SOL    HW1 4256   4.448   4.012   1.607
 1119SOL    HW2 4257   4.336   4.114   1.548
 1120SOL     OW 4258   4.228   0.291   5.379
 1120SOL    HW1 4259   4.234   0.311   5.282
 1120SOL    HW2 4260   4.283   0.211   5.401
 1121SOL     OW 4261   5.412   3.199   2.190
 1121SOL    HW1 4262   5.458   3.134   2.250
 1121SOL    HW2 4263   5.321   3.165   2.168
 1122SOL     OW 4264   5.121   3.653   6.465
 1122SOL    HW1 4265   5.028   3.664   6.432
 1122SOL    HW2 4266   5.119   3.639   6.564
 1123SOL     OW 4267   4.435   0.865   2.771
 1123SOL    HW1 4268   4.439   0.826   2.680
 1123SOL    HW2 4269   4.497   0.814   2.832
 1124SOL     OW 4270   0.066   4.279   4.555
 1124SOL    HW1 4271   0.151   4.331   4.554
 1124SOL    HW2 4272   7.019   4.330   4.505
 1125SOL     OW 4273   3.564   3.252   5.057
 1125SOL    HW1 4274   3.573   3.334   5.113
 1125SOL    HW2 4275   3.481   3.202   5.082
 1126SOL     OW 4276   5.174   6.148   1.536
 1126SOL    HW1 4277   5.141   6.224   1.593
 1126SOL    HW2 4278   5.217   6.184   1.454
 1127SOL     OW 4279   1.959   4.666   6.892
 1127SOL    HW1 4280   1.878   4.609   6.884
 1127SOL    HW2 4281   1.942   4.754   6.848
 1128SOL     OW 4282   3.144   1.496   4.530
 1128SOL    HW1 4283   3.157   1.580   4.583
 1128SOL    HW2 4284   3.047   1.474   4.525
 1129SOL     OW 4285   5.224   0.513   6.715
 1129SOL    HW1 4286   5.137   0.466   6.699
 1129SOL    HW2 4287   5.294   0.445   6.736
 1130SOL     OW 4288   1.248   4.326   6.852
 1130SOL    HW1 4289   1.226   4.415   6.811
 1130SOL    HW2 4290   1.163   4.277   6.873
 1131SOL     OW 4291   0.364   6.049   5.762
 1131SOL    HW1 4292   0.450   6.033   5.812
 1131SOL    HW2 4293   0.294   6.080   5.826
 1132SOL     OW 4294   5.201   6.990   5.610
 1132SOL    HW1 4295   5.138   0.015   5.550
 1132SOL    HW2 4296   5.198   6.892   5.588
 1133SOL     OW 4297   0.277   3.424   1.568
 1133SOL    HW1 4298   0.249   3.374   1.486
 1133SOL    HW2 4299   0.267   3.366   1.648
 1134SOL     OW 4300   5.152   2.703   6.207
 1134SOL    HW1 4301   5.073   2.743   6.254
 1134SOL    HW2 4302   5.210   2.775   6.170
 1135SOL     OW 4303   2.886   2.208   3.042
 1135SOL    HW1 4304   2.982   2.193   3.067
 1135SOL    HW2 4305   2.840   2.120   3.030
 1136SOL     OW 4306   3.471   5.447   3.763
 1136SOL    HW1 4307   3.442   5.398   3.680
 1136SOL    HW2 4308   3.392   5.492   3.804
 1137SOL     OW 4309   1.019   1.454   5.985
 1137SOL    HW1 4310   1.068   1.369   5.967
 1137SOL    HW2 4311   1.079   1.519   6.031
 1138SOL     OW 4312   0.779   3.533   5.965
 1138SOL    HW1 4313   0.810   3.619   5.924
 1138SOL    HW2 4314   0.679   3.531   5.966
 1139SOL     OW 4315   1.517   6.147   2.472
 1139SOL    HW1 4316   1.540   6.148   2.569
 1139SOL    HW2 4317   1.454   6.223   2.452
 1140SOL     OW 4318   3.496   1.832   4.000
 1140SOL    HW1 4319   3.417   1.770   4.001
 1140SOL    HW2 4320   3.518   1.856   3.905
 1141SOL     OW 4321   6.361   5.808   5.370
 1141SOL    HW1 4322   6.349   5.907   5.376
 1141SOL    HW2 4323   6.457   5.788   5.348
 1142SOL     OW 4324   5.748   0.665   3.985
 1142SOL    HW1 4325   5.721   0.572   3.960
 1142SOL    HW2 4326   5.703   0.691   4.070
 1143SOL     OW 4327   4.157   1.784   2.874
 1143SOL    HW1 4328   4.127   1.850   2.943
 1143SOL    HW2 4329   4.225   1.826   2.814
 1144SOL     OW 4330   0.162   5.386   4.177
 1144SOL    HW1 4331   0.198   5.319   4.242
 1144SOL    HW2 4332   0.191   5.478   4.205
 1145SOL     OW 4333   0.193   5.678   4.920
 1145SOL    HW1 4334   0.198   5.720   4.830
 1145SOL    HW2 4335   0.264   5.609   4.929
 1146SOL     OW 4336   5.572   2.052   0.983
 1146SOL    HW1 4337   5.635   1.978   1.007
 1146SOL    HW2 4338   5.606   2.099   0.902
 1147SOL     OW 4339   0.128   3.298   2.236
 1147SOL    HW1 4340   0.050   3.251   2.195
 1147SOL    HW2 4341   0.100   3.341   2.321
 1148SOL     OW 4342   3.363   6.924   0.147
 1148SOL    HW1 4343   3.413   6.840   0.169
 1148SOL    HW2 4344   3.288   6.936   0.212
 1149SOL     OW 4345   6.596   3.379   2.360
 1149SOL    HW1 4346   6.587   3.293   2.310
 1149SOL    HW2 4347   6.514   3.434   2.347
 1150SOL     OW 4348   1.583   4.661   0.414
 1150SOL    HW1 4349   1.557   4.752   0.381
 1150SOL    HW2 4350   1.633   4.669   0.501
 1151SOL     OW 4351   5.696   5.012   6.463
 1151SOL    HW1 4352   5.737   5.088   6.514
 1151SOL    HW2 4353   5.601   5.000   6.491
 1152SOL     OW 4354   1.872   6.942   5.110
 1152SOL    HW1 4355   1.875   7.005   5.033
 1152SOL    HW2 4356   1.800   6.970   5.173
 1153SOL     OW 4357   2.480   5.298   2.890
 1153SOL    HW1 4358   2.451   5.224   2.829
 1153SOL    HW2 4359   2.468   5.386   2.844
 1154SOL     OW 4360   0.408   4.047   1.970
 1154SOL    HW1 4361   0.339   4.090   2.028
 1154SOL    HW2 4362   0.499   4.070   2.005
 1155SOL     OW 4363   3.959   5.852   2.066
 1155SOL    HW1 4364   3.955   5.906   1.982
 1155SOL    HW2 4365   3.907   5.767   2.054
 1156SOL     OW 4366   2.334   0.253   4.254
 1156SOL    HW1 4367   2.423   0.219   4.285
 1156SOL    HW2 4368   2.262   0.193   4.289
 1157SOL     OW 4369   0.337   2.712   3.912
 1157SOL    HW1 4370   0.390   2.639   3.957
 1157SOL    HW2 4371   0.239   2.694   3.923
 1158SOL     OW 4372   5.130   5.218   5.488
 1158SOL    HW1 4373   5.078   5.295   5.522
 1158SOL    HW2 4374   5.214   5.207   5.543
 1159SOL     OW 4375   3.907   5.064   3.692
 1159SOL    HW1 4376   3.824   5.030   3.736
 1159SOL    HW2 4377   3.899   5.052   3.593
 1160SOL     OW 4378   3.496   3.670   1.584
 1160SOL    HW1 4379   3.482   3.618   1.500
 1160SOL    HW2 4380   3.583   3.719   1.579
 1161SOL     OW 4381   5.389   0.919   3.455
 1161SOL    HW1 4382   5.306   0.966   3.483
 1161SOL    HW2 4383   5.444   0.980   3.398
 1162SOL     OW 4384   3.350   4.041   1.930
 1162SOL    HW1 4385   3.386   4.059   1.838
 1162SOL    HW2 4386   3.425   4.020   1.992
 1163SOL     OW 4387   5.370   1.691   2.805
 1163SOL    HW1 4388   5.425   1.769   2.837
 1163SOL    HW2 4389   5.430   1.626   2.758
 1164SOL     OW 4390   5.913   3.305   3.701
 1164SOL    HW1 4391   5.834   3.244   3.702
 1164SOL    HW2 4392   5.912   3.364   3.781
 1165SOL     OW 4393   0.817   4.779   3.143
 1165SOL    HW1 4394   0.766   4.709   3.093
 1165SOL    HW2 4395   0.786   4.870   3.114
 1166SOL     OW 4396   4.403   2.674   6.254
 1166SOL    HW1 4397   4.320   2.637   6.296
 1166SOL    HW2 4398   4.385   2.765   6.218
 1167SOL     OW 4399   4.751   1.190   5.230
 1167SOL    HW1 4400   4.748   1.146   5.140
 1167SOL    HW2 4401   4.658   1.206   5.263
 1168SOL     OW 4402   6.293   6.814   3.185
 1168SOL    HW1 4403   6.250   6.777   3.267
 1168SOL    HW2 4404   6.355   6.888   3.210
 1169SOL     OW 4405   0.598   3.464   1.800
 1169SOL    HW1 4406   0.573   3.370   1.820
 1169SOL    HW2 4407   0.527   3.526   1.835
 1170SOL     OW 4408   3.028   0.979   1.486
 1170SOL    HW1 4409   2.967   1.012   1.558
 1170SOL    HW2 4410   3.076   0.897   1.517
 1171SOL     OW 4411   2.976   5.978   0.754
 1171SOL    HW1 4412   2.978   5.878   0.758
 1171SOL    HW2 4413   2.916   6.007   0.679
 1172SOL     OW 4414   3.044   3.356   5.088
 1172SOL    HW1 4415   2.986   3.399   5.158
 1172SOL    HW2 4416   3.040   3.257   5.098
 1173SOL     OW 4417   3.374   1.169   6.568
 1173SOL    HW1 4418   3.364   1.226   6.649
 1173SOL    HW2 4419   3.292   1.113   6.556
 1174SOL     OW 4420   3.127   6.221   0.791
 1174SOL    HW1 4421   3.076   6.136   0.804
 1174SOL    HW2 4422   3.225   6.201   0.786
 1175SOL     OW 4423   6.069   4.802   5.517
 1175SOL    HW1 4424   5.996   4.749   5.560
 1175SOL    HW2 4425   6.045   4.820   5.421
 1176SOL     OW 4426   5.617   4.565   0.843
 1176SOL    HW1 4427   5.693   4.626   0.865
 1176SOL    HW2 4428   5.648   4.470   0.849
 1177SOL     OW 4429   6.521   2.884   5.875
 1177SOL    HW1 4430   6.518   2.870   5.776
 1177SOL    HW2 4431   6.611   2.857   5.909
 1178SOL     OW 4432   6.263   3.416   1.811
 1178SOL    HW1 4433   6.244   3.412   1.713
 1178SOL    HW2 4434   6.177   3.423   1.862
 1179SOL     OW 4435   2.098   5.336   6.322
 1179SOL    HW1 4436   2.038   5.414   6.343
 1179SOL    HW2 4437   2.057   5.283   6.248
 1180SOL     OW 4438   2.793   1.619   4.142
 1180SOL    HW1 4439   2.780   1.529   4.184
 1180SOL    HW2 4440   2.704   1.659   4.121
 1181SOL     OW 4441   1.978   4.190   2.953
 1181SOL    HW1 4442   1.969   4.091   2.960
 1181SOL    HW2 4443   1.888   4.233   2.963
 1182SOL     OW 4444   2.139   4.468   3.749
 1182SOL    HW1 4445   2.109   4.431   3.837
 1182SOL    HW2 4446   2.232   4.437   3.729
 1183SOL     OW 4447   4.383   6.123   0.808
 1183SOL    HW1 4448   4.370   6.126   0.907
 1183SOL    HW2 4449   4.310   6.174   0.764
 1184SOL     OW 4450   3.035   2.674   5.742
 1184SOL    HW1 4451   3.106   2.744   5.738
 1184SOL    HW2 4452   2.945   2.717   5.754
 1185SOL     OW 4453   1.522   0.817   0.135
 1185SOL    HW1 4454   1.549   0.728   0.172
 1185SOL    HW2 4455   1.538   0.888   0.204
 1186SOL     OW 4456   4.865   1.076   4.461
 1186SOL    HW1 4457   4.899   0.983   4.445
 1186SOL    HW2 4458   4.767   1.079   4.444
 1187SOL     OW 4459   5.902   0.587   5.197
 1187SOL    HW1 4460   5.929   0.558   5.105
 1187SOL    HW2 4461   5.836   0.521   5.234
 1188SOL     OW 4462   1.819   0.460   5.713
 1188SOL    HW1 4463   1.820   0.518   5.794
 1188SOL    HW2 4464   1.808   0.516   5.631
 1189SOL     OW 4465   5.480   0.566   1.773
 1189SOL    HW1 4466   5.561   0.509   1.786
 1189SOL    HW2 4467   5.429   0.573   1.859
 1190SOL     OW 4468   4.737   4.943   2.531
 1190SOL    HW1 4469   4.704   4.873   2.595
 1190SOL    HW2 4470   4.836   4.935   2.521
 1191SOL     OW 4471   3.391   5.865   6.701
 1191SOL    HW1 4472   3.293   5.880   6.718
 1191SOL    HW2 4473   3.404   5.846   6.603
 1192SOL     OW 4474   5.545   5.271   3.098
 1192SOL    HW1 4475   5.509   5.345   3.041
 1192SOL    HW2 4476   5.471   5.208   3.121
 1193SOL     OW 4477   5.013   0.681   4.029
 1193SOL    HW1 4478   4.992   0.590   4.063
 1193SOL    HW2 4479   4.930   0.722   3.990
 1194SOL     OW 4480   5.998   6.994   0.802
 1194SOL    HW1 4481   5.963   7.014   0.894
 1194SOL    HW2 4482   6.086   0.016   0.789
 1195SOL     OW 4483   5.369   0.826   6.297
 1195SOL    HW1 4484   5.460   0.866   6.303
 1195SOL    HW2 4485   5.350   0.773   6.380
 1196SOL     OW 4486   0.386   5.386   2.579
 1196SOL    HW1 4487   0.308   5.371   2.640
 1196SOL    HW2 4488   0.369   5.465   2.520
 1197SOL     OW 4489   3.820   5.624   5.968
 1197SOL    HW1 4490   3.821   5.638   5.869
 1197SOL    HW2 4491   3.831   5.711   6.015
 1198SOL     OW 4492   2.977   2.171   2.634
 1198SOL    HW1 4493   2.877   2.177   2.635
 1198SOL    HW2 4494   3.009   2.162   2.540
 1199SOL     OW 4495   4.114   4.044   1.797
 1199SOL    HW1 4496   4.211   4.070   1.794
 1199SOL    HW2 4497   4.062   4.103   1.736
 1200SOL     OW 4498   4.032   4.117   7.002
 1200SOL    HW1 4499   4.040   4.029   6.956
 1200SOL    HW2 4500   4.064   4.190   6.941
 1201SOL     OW 4501   1.269   1.145   5.005
 1201SOL    HW1 4502   1.197   1.076   4.997
 1201SOL    HW2 4503   1.332   1.137   4.928
 1202SOL     OW 4504   5.994   0.419   5.005
 1202SOL    HW1 4505   6.094   0.427   5.008
 1202SOL    HW2 4506   5.965   0.342   5.063
 1203SOL     OW 4507   5.500   0.020   1.113
 1203SOL    HW1 4508   5.575   0.070   1.157
 1203SOL    HW2 4509   5.525   7.024   1.018
 1204SOL     OW 4510   3.387   0.789   0.667
 1204SOL    HW1 4511   3.358   0.760   0.576
 1204SOL    HW2 4512   3.453   0.864   0.659
 1205SOL     OW 4513   6.330   2.697   4.945
 1205SOL    HW1 4514   6.341   2.796   4.940
 1205SOL    HW2 4515   6.415   2.653   4.915
 1206SOL     OW 4516   2.133   1.775   5.021
 1206SOL    HW1 4517   2.040   1.804   5.047
 1206SOL    HW2 4518   2.128   1.691   4.968
 1207SOL     OW 4519   5.832   0.049   6.600
 1207SOL    HW1 4520   5.829   0.144   6.571
 1207SOL    HW2 4521   5.742   0.008   6.589
 1208SOL     OW 4522   3.506   3.753   3.292
 1208SOL    HW1 4523   3.515   3.653   3.284
 1208SOL    HW2 4524   3.432   3.774   3.356
 1209SOL     OW 4525   5.686   5.299   4.171
 1209SOL    HW1 4526   5.651   5.210   4.200
 1209SOL    HW2 4527   5.676   5.308   4.072
 1210SOL     OW 4528   3.904   7.022   2.154
 1210SOL    HW1 4529   3.978   0.061   2.177
 1210SOL    HW2 4530   3.856   6.995   2.238
 1211SOL     OW 4531   0.520   4.506   4.971
 1211SOL    HW1 4532   0.513   4.604   4.989
 1211SOL    HW2 4533   0.603   4.488   4.917
 1212SOL     OW 4534   1.824   3.781   5.081
 1212SOL    HW1 4535   1.919   3.808   5.098
 1212SOL    HW2 4536   1.762   3.853   5.112
 1213SOL     OW 4537   5.937   2.131   5.545
 1213SOL    HW1 4538   5.854   2.112   5.599
 1213SOL    HW2 4539   5.916   2.197   5.474
 1214SOL     OW 4540   2.084   3.769   3.605
 1214SOL    HW1 4541   2.048   3.710   3.533
 1214SOL    HW2 4542   2.069   3.865   3.581
 1215SOL     OW 4543   1.031   4.868   1.763
 1215SOL    HW1 4544   1.003   4.806   1.690
 1215SOL    HW2 4545   0.950   4.896   1.816
 1216SOL     OW 4546   2.144   0.010   2.168
 1216SOL    HW1 4547   2.182   0.017   2.076
 1216SOL    HW2 4548   2.163   6.943   2.206
 1217SOL     OW 4549   0.990   6.589   1.816
 1217SOL    HW1 4550   1.090   6.591   1.810
 1217SOL    HW2 4551   0.959   6.659   1.880
 1218SOL     OW 4552   0.654   3.627   3.598
 1218SOL    HW1 4553   0.655   3.552   3.663
 1218SOL    HW2 4554   0.678   3.712   3.645
 1219SOL     OW 4555   3.793   6.332   1.720
 1219SOL    HW1 4556   3.722   6.373   1.664
 1219SOL    HW2 4557   3.857   6.282   1.662
 1220SOL     OW 4558   5.992   3.709   3.740
 1220SOL    HW1 4559   6.028   3.618   3.720
 1220SOL    HW2 4560   5.926   3.735   3.668
 1221SOL     OW 4561   5.002   3.816   0.055
 1221SOL    HW1 4562   5.012   3.857   0.146
 1221SOL    HW2 4563   5.035   3.722   0.057
 1222SOL     OW 4564   6.925   6.402   1.439
 1222SOL    HW1 4565   6.937   6.306   1.462
 1222SOL    HW2 4566   6.836   6.434   1.471
 1223SOL     OW 4567   5.982   6.726   6.466
 1223SOL    HW1 4568   6.045   6.655   6.434
 1223SOL    HW2 4569   5.994   6.809   6.411
 1224SOL     OW 4570   4.989   4.984   1.758
 1224SOL    HW1 4571   5.084   4.957   1.741
 1224SOL    HW2 4572   4.979   5.081   1.740
 1225SOL     OW 4573   4.913   2.462   0.529
 1225SOL    HW1 4574   4.951   2.523   0.598
 1225SOL    HW2 4575   4.977   2.455   0.452
 1226SOL     OW 4576   5.443   5.876   1.181
 1226SOL    HW1 4577   5.519   5.916   1.233
 1226SOL    HW2 4578   5.479   5.812   1.114
 1227SOL     OW 4579   5.777   3.844   5.588
 1227SOL    HW1 4580   5.763   3.900   5.670
 1227SOL    HW2 4581   5.733   3.755   5.601
 1228SOL     OW 4582   4.144   3.535   3.037
 1228SOL    HW1 4583   4.089   3.588   3.101
 1228SOL    HW2 4584   4.198   3.597   2.980
 1229SOL     OW 4585   2.343   5.578   3.014
 1229SOL    HW1 4586   2.263   5.539   2.968
 1229SOL    HW2 4587   2.393   5.506   3.062
 1230SOL     OW 4588   5.154   4.914   1.494
 1230SOL    HW1 4589   5.080   4.959   1.444
 1230SOL    HW2 4590   5.158   4.818   1.469
 1231SOL     OW 4591   1.554   2.375   6.658
 1231SOL    HW1 4592   1.601   2.461   6.680
 1231SOL    HW2 4593   1.508   2.384   6.569
 1232SOL     OW 4594   3.104   0.628   5.765
 1232SOL    HW1 4595   3.089   0.639   5.863
 1232SOL    HW2 4596   3.082   0.714   5.718
 1233SOL     OW 4597   0.127   5.967   5.004
 1233SOL    HW1 4598   0.135   5.875   4.966
 1233SOL    HW2 4599   0.035   5.982   5.037
 1234SOL     OW 4600   6.676   3.301   0.107
 1234SOL    HW1 4601   6.719   3.306   0.017
 1234SOL    HW2 4602   6.580   3.273   0.097
 1235SOL     OW 4603   6.374   5.226   0.070
 1235SOL    HW1 4604   6.352   5.254   0.163
 1235SOL    HW2 4605   6.401   5.305   0.016
 1236SOL     OW 4606   1.216   1.890   1.992
 1236SOL    HW1 4607   1.192   1.985   1.973
 1236SOL    HW2 4608   1.310   1.885   2.025
 1237SOL     OW 4609   1.029   0.061   4.632
 1237SOL    HW1 4610   1.084   7.002   4.619
 1237SOL    HW2 4611   0.961   0.045   4.704
 1238SOL     OW 4612   6.893   0.790   4.091
 1238SOL    HW1 4613   6.812   0.779   4.034
 1238SOL    HW2 4614   6.882   0.739   4.176
 1239SOL     OW 4615   6.469   4.871   4.699
 1239SOL    HW1 4616   6.474   4.921   4.612
 1239SOL    HW2 4617   6.561   4.848   4.729
 1240SOL     OW 4618   6.330   4.501   3.749
 1240SOL    HW1 4619   6.237   4.516   3.783
 1240SOL    HW2 4620   6.359   4.579   3.694
 1241SOL     OW 4621   5.090   5.022   4.780
 1241SOL    HW1 4622   4.990   5.021   4.789
 1241SOL    HW2 4623   5.126   4.930   4.795
 1242SOL     OW 4624   1.185   4.575   6.753
 1242SOL    HW1 4625   1.263   4.624   6.791
 1242SOL    HW2 4626   1.157   4.618   6.668
 1243SOL     OW 4627   0.623   4.886   4.882
 1243SOL    HW1 4628   0.535   4.909   4.841
 1243SOL    HW2 4629   0.611   4.813   4.949
 1244SOL     OW 4630   4.930   0.053   4.801
 1244SOL    HW1 4631   4.896   0.012   4.717
 1244SOL    HW2 4632   4.930   7.009   4.874
 1245SOL     OW 4633   4.995   6.482   1.419
 1245SOL    HW1 4634   4.973   6.452   1.327
 1245SOL    HW2 4635   5.010   6.581   1.420
 1246SOL     OW 4636   4.547   1.718   0.413
 1246SOL    HW1 4637   4.627   1.693   0.469
 1246SOL    HW2 4638   4.578   1.771   0.334
 1247SOL     OW 4639   6.785   6.886   3.385
 1247SOL    HW1 4640   6.850   6.823   3.428
 1247SOL    HW2 4641   6.798   6.978   3.421
 1248SOL     OW 4642   1.205   6.818   4.661
 1248SOL    HW1 4643   1.283   6.862   4.704
 1248SOL    HW2 4644   1.223   6.805   4.564
 1249SOL     OW 4645   5.671   4.588   6.869
 1249SOL    HW1 4646   5.608   4.664   6.852
 1249SOL    HW2 4647   5.765   4.622   6.870
 1250SOL     OW 4648   6.590   3.232   4.916
 1250SOL    HW1 4649   6.614   3.165   4.847
 1250SOL    HW2 4650   6.491   3.233   4.930
 1251SOL     OW 4651   3.145   0.479   2.850
 1251SOL    HW1 4652   3.236   0.509   2.822
 1251SOL    HW2 4653   3.094   0.556   2.887
 1252SOL     OW 4654   1.542   5.420   0.045
 1252SOL    HW1 4655   1.554   5.506   7.019
 1252SOL    HW2 4656   1.449   5.414   0.080
 1253SOL     OW 4657   3.442   1.196   0.909
 1253SOL    HW1 4658   3.448   1.250   0.825
 1253SOL    HW2 4659   3.350   1.159   0.919
 1254SOL     OW 4660   6.561   1.010   1.456
 1254SOL    HW1 4661   6.620   0.944   1.502
 1254SOL    HW2 4662   6.539   0.977   1.365
 1255SOL     OW 4663   5.582   1.755   5.255
 1255SOL    HW1 4664   5.614   1.689   5.188
 1255SOL    HW2 4665   5.585   1.847   5.216
 1256SOL     OW 4666   1.011   5.957   4.668
 1256SOL    HW1 4667   0.996   5.858   4.672
 1256SOL    HW2 4668   1.102   5.979   4.701
 1257SOL     OW 4669   0.006   5.604   4.073
 1257SOL    HW1 4670   0.053   5.688   4.098
 1257SOL    HW2 4671   0.060   5.525   4.101
 1258SOL     OW 4672   3.815   6.151   4.609
 1258SOL    HW1 4673   3.900   6.197   4.586
 1258SOL    HW2 4674   3.799   6.158   4.708
 1259SOL     OW 4675   5.664   0.416   4.096
 1259SOL    HW1 4676   5.738   0.361   4.137
 1259SOL    HW2 4677   5.599   0.355   4.051
 1260SOL     OW 4678   1.907   0.811   2.285
 1260SOL    HW1 4679   1.888   0.874   2.361
 1260SOL    HW2 4680   1.890   0.717   2.316
 1261SOL     OW 4681   6.333   4.455   6.235
 1261SOL    HW1 4682   6.428   4.484   6.238
 1261SOL    HW2 4683   6.328   4.356   6.224
 1262SOL     OW 4684   4.790   5.239   0.017
 1262SOL    HW1 4685   4.841   5.226   0.102
 1262SOL    HW2 4686   4.713   5.176   0.014
 1263SOL     OW 4687   0.204   2.306   1.817
 1263SOL    HW1 4688   0.276   2.316   1.887
 1263SOL    HW2 4689   0.206   2.386   1.757
 1264SOL     OW 4690   0.256   3.444   3.718
 1264SOL    HW1 4691   0.234   3.432   3.814
 1264SOL    HW2 4692   0.238   3.359   3.668
 1265SOL     OW 4693   6.867   4.385   5.679
 1265SOL    HW1 4694   6.839   4.289   5.677
 1265SOL    HW2 4695   6.904   4.410   5.589
 1266SOL     OW 4696   3.142   1.575   5.009
 1266SOL    HW1 4697   3.131   1.507   4.937
 1266SOL    HW2 4698   3.118   1.666   4.974
 1267SOL     OW 4699   0.058   5.132   2.724
 1267SOL    HW1 4700   0.130   5.068   2.752
 1267SOL    HW2 4701   6.998   5.113   2.775
 1268SOL     OW 4702   5.565   2.652   0.150
 1268SOL    HW1 4703   5.597   2.568   0.195
 1268SOL    HW2 4704   5.497   2.697   0.208
 1269SOL     OW 4705   6.733   5.358   5.460
 1269SOL    HW1 4706   6.770   5.449   5.475
 1269SOL    HW2 4707   6.801   5.289   5.486
 1270SOL     OW 4708   1.828   3.301   4.862
 1270SOL    HW1 4709   1.904   3.291   4.926
 1270SOL    HW2 4710   1.764   3.225   4.874
 1271SOL     OW 4711   3.574   1.425   2.981
 1271SOL    HW1 4712   3.555   1.509   3.031
 1271SOL    HW2 4713   3.570   1.442   2.883
 1272SOL     OW 4714   0.173   5.579   1.437
 1272SOL    HW1 4715   0.166   5.552   1.341
 1272SOL    HW2 4716   0.192   5.678   1.443
 1273SOL     OW 4717   2.957   5.643   6.608
 1273SOL    HW1 4718   2.889   5.691   6.552
 1273SOL    HW2 4719   2.934   5.545   6.611
 1274SOL     OW 4720   6.879   2.474   2.168
 1274SOL    HW1 4721   6.952   2.495   2.234
 1274SOL    HW2 4722   6.881   2.541   2.094
 1275SOL     OW 4723   3.395   1.807   4.409
 1275SOL    HW1 4724   3.435   1.715   4.403
 1275SOL    HW2 4725   3.363   1.823   4.502
 1276SOL     OW 4726   0.621   0.112   2.447
 1276SOL    HW1 4727   0.581   0.053   2.518
 1276SOL    HW2 4728   0.704   0.155   2.483
 1277SOL     OW 4729   0.130   0.337   4.183
 1277SOL    HW1 4730   0.184   0.276   4.126
 1277SOL    HW2 4731   0.090   0.286   4.258
 1278SOL     OW 4732   2.045   1.882   5.826
 1278SOL    HW1 4733   2.117   1.916   5.765
 1278SOL    HW2 4734   2.084   1.862   5.916
 1279SOL     OW 4735   2.843   5.993   0.525
 1279SOL    HW1 4736   2.859   6.089   0.503
 1279SOL    HW2 4737   2.820   5.943   0.442
 1280SOL     OW 4738   2.722   7.014   3.449
 1280SOL    HW1 4739   2.810   6.988   3.489
 1280SOL    HW2 4740   2.677   6.934   3.411
 1281SOL     OW 4741   1.327   6.219   3.068
 1281SOL    HW1 4742   1.366   6.177   2.985
 1281SOL    HW2 4743   1.395   6.278   3.110
 1282SOL     OW 4744   1.038   1.181   1.054
 1282SOL    HW1 4745   0.943   1.182   1.024
 1282SOL    HW2 4746   1.047   1.234   1.138
 1283SOL     OW 4747   5.526   5.123   5.068
 1283SOL    HW1 4748   5.428   5.126   5.087
 1283SOL    HW2 4749   5.541   5.097   4.972
 1284SOL     OW 4750   3.052   2.558   1.716
 1284SOL    HW1 4751   3.051   2.658   1.715
 1284SOL    HW2 4752   3.017   2.526   1.804
 1285SOL     OW 4753   4.662   3.166   5.442
 1285SOL    HW1 4754   4.711   3.185   5.357
 1285SOL    HW2 4755   4.575   3.123   5.422
 1286SOL     OW 4756   5.557   4.138   1.732
 1286SOL    HW1 4757   5.519   4.118   1.822
 1286SOL    HW2 4758   5.493   4.195   1.681
 1287SOL     OW 4759   6.802   6.091   6.484
 1287SOL    HW1 4760   6.777   6.009   6.432
 1287SOL    HW2 4761   6.722   6.125   6.533
 1288SOL     OW 4762   0.031   3.287   0.717
 1288SOL    HW1 4763   6.987   3.359   0.733
 1288SOL    HW2 4764   0.122   3.328   0.712
 1289SOL     OW 4765   6.857   6.176   2.596
 1289SOL    HW1 4766   6.914   6.224   2.529
 1289SOL    HW2 4767   6.763   6.170   2.562
 1290SOL     OW 4768   0.825   6.633   0.409
 1290SOL    HW1 4769   0.868   6.653   0.321
 1290SOL    HW2 4770   0.807   6.719   0.457
 1291SOL     OW 4771   1.370   6.174   0.066
 1291SOL    HW1 4772   1.300   6.176   7.019
 1291SOL    HW2 4773   1.364   6.088   0.117
 1292SOL     OW 4774   0.666   4.965   0.831
 1292SOL    HW1 4775   0.572   4.979   0.864
 1292SOL    HW2 4776   0.721   5.046   0.849
 1293SOL     OW 4777   0.748   1.864   6.497
 1293SOL    HW1 4778   0.761   1.960   6.470
 1293SOL    HW2 4779   0.722   1.810   6.417
 1294SOL     OW 4780   0.030   2.641   2.289
 1294SOL    HW1 4781   6.983   2.709   2.268
 1294SOL    HW2 4782   0.110   2.656   2.231
 1295SOL     OW 4783   5.267   2.771   1.915
 1295SOL    HW1 4784   5.298   2.681   1.947
 1295SOL    HW2 4785   5.173   2.787   1.945
 1296SOL     OW 4786   3.232   1.686   6.740
 1296SOL    HW1 4787   3.283   1.664   6.824
 1296SOL    HW2 4788   3.286   1.751   6.686
 1297SOL     OW 4789   6.752   1.305   5.206
 1297SOL    HW1 4790   6.851   1.295   5.198
 1297SOL    HW2 4791   6.722   1.385   5.154
 1298SOL     OW 4792   6.163   2.948   2.764
 1298SOL    HW1 4793   6.237   3.012   2.781
 1298SOL    HW2 4794   6.201   2.859   2.739
 1299SOL     OW 4795   1.363   4.138   4.352
 1299SOL    HW1 4796   1.456   4.175   4.359
 1299SOL    HW2 4797   1.365   4.040   4.369
 1300SOL     OW 4798   3.412   2.935   2.376
 1300SOL    HW1 4799   3.386   2.847   2.334
 1300SOL    HW2 4800   3.495   2.923   2.429
 1301SOL     OW 4801   0.994   6.785   4.037
 1301SOL    HW1 4802   0.962   6.758   3.945
 1301SOL    HW2 4803   1.081   6.833   4.029
 1302SOL     OW 4804   2.385   6.749   5.058
 1302SOL    HW1 4805   2.385   6.748   4.958
 1302SOL    HW2 4806   2.434   6.669   5.091
 1303SOL     OW 4807   3.410   1.560   1.046
 1303SOL    HW1 4808   3.477   1.602   0.986
 1303SOL    HW2 4809   3.450   1.479   1.090
 1304SOL     OW 4810   1.854   0.312   6.262
 1304SOL    HW1 4811   1.800   0.392   6.239
 1304SOL    HW2 4812   1.894   0.323   6.353
 1305SOL     OW 4813   4.363   0.369   4.732
 1305SOL    HW1 4814   4.440   0.429   4.712
 1305SOL    HW2 4815   4.396   0.287   4.781
 1306SOL     OW 4816   0.686   4.427   4.244
 1306SOL    HW1 4817   0.753   4.376   4.190
 1306SOL    HW2 4818   0.669   4.379   4.330
 1307SOL     OW 4819   1.306   2.755   4.100
 1307SOL    HW1 4820   1.333   2.696   4.176
 1307SOL    HW2 4821   1.343   2.847   4.114
 1308SOL     OW 4822   4.483   6.152   4.162
 1308SOL    HW1 4823   4.395   6.105   4.157
 1308SOL    HW2 4824   4.551   6.101   4.109
 1309SOL     OW 4825   6.058   2.325   4.525
 1309SOL    HW1 4826   5.965   2.337   4.559
 1309SOL    HW2 4827   6.064   2.240   4.473
 1310SOL     OW 4828   5.679   3.758   4.295
 1310SOL    HW1 4829   5.713   3.734   4.386
 1310SOL    HW2 4830   5.737   3.716   4.226
 1311SOL     OW 4831   6.140   6.704   5.148
 1311SOL    HW1 4832   6.221   6.742   5.104
 1311SOL    HW2 4833   6.062   6.711   5.087
 1312SOL     OW 4834   0.461   0.193   0.597
 1312SOL    HW1 4835   0.451   0.255   0.519
 1312SOL    HW2 4836   0.554   0.199   0.633
 1313SOL     OW 4837   3.117   5.315   4.752
 1313SOL    HW1 4838   3.212   5.289   4.772
 1313SOL    HW2 4839   3.107   5.414   4.762
 1314SOL     OW 4840   1.065   1.438   5.484
 1314SOL    HW1 4841   1.044   1.465   5.390
 1314SOL    HW2 4842   1.082   1.520   5.538
 1315SOL     OW 4843   2.153   1.626   1.856
 1315SOL    HW1 4844   2.189   1.537   1.884
 1315SOL    HW2 4845   2.223   1.675   1.804
 1316SOL     OW 4846   2.564   6.763   4.017
 1316SOL    HW1 4847   2.602   6.751   3.926
 1316SOL    HW2 4848   2.525   6.855   4.025
 1317SOL     OW 4849   6.815   5.152   4.486
 1317SOL    HW1 4850   6.765   5.067   4.502
 1317SOL    HW2 4851   6.874   5.141   4.406
 1318SOL     OW 4852   0.292   0.002   0.155
 1318SOL    HW1 4853   0.335   0.092   0.151
 1318SOL    HW2 4854   0.276   6.993   0.062
 1319SOL     OW 4855   6.344   1.209   0.223
 1319SOL    HW1 4856   6.345   1.228   0.125
 1319SOL    HW2 4857   6.424   1.252   0.266
 1320SOL     OW 4858   5.858   4.604   5.938
 1320SOL    HW1 4859   5.846   4.696   5.900
 1320SOL    HW2 4860   5.869   4.611   6.037
 1321SOL     OW 4861   3.770   2.441   0.299
 1321SOL    HW1 4862   3.811   2.371   0.240
 1321SOL    HW2 4863   3.823   2.449   0.384
 1322SOL     OW 4864   6.694   1.320   3.668
 1322SOL    HW1 4865   6.681   1.281   3.759
 1322SOL    HW2 4866   6.628   1.394   3.654
 1323SOL     OW 4867   0.642   1.927   4.922
 1323SOL    HW1 4868   0.577   1.989   4.967
 1323SOL    HW2 4869   0.697   1.880   4.992
 1324SOL     OW 4870   1.443   3.057   1.845
 1324SOL    HW1 4871   1.377   2.993   1.884
 1324SOL    HW2 4872   1.420   3.151   1.873
 1325SOL     OW 4873   2.795   6.188   3.493
 1325SOL    HW1 4874   2.700   6.201   3.468
 1325SOL    HW2 4875   2.823   6.260   3.557
 1326SOL     OW 4876   5.497   2.943   4.126
 1326SOL    HW1 4877   5.417   2.935   4.186
 1326SOL    HW2 4878   5.472   2.917   4.033
 1327SOL     OW 4879   3.776   4.869   3.169
 1327SOL    HW1 4880   3.817   4.878   3.078
 1327SOL    HW2 4881   3.681   4.900   3.165
 1328SOL     OW 4882   1.513   1.720   0.027
 1328SOL    HW1 4883   1.455   1.643   0.001
 1328SOL    HW2 4884   1.600   1.716   7.002
 1329SOL     OW 4885   0.848   1.085   0.483
 1329SOL    HW1 4886   0.883   1.132   0.564
 1329SOL    HW2 4887   0.915   1.018   0.452
 1330SOL     OW 4888   6.611   0.170   0.954
 1330SOL    HW1 4889   6.702   0.129   0.963
 1330SOL    HW2 4890   6.585   0.173   0.858
 1331SOL     OW 4891   5.961   0.377   2.055
 1331SOL    HW1 4892   5.945   0.293   2.003
 1331SOL    HW2 4893   5.873   0.414   2.085
 1332SOL     OW 4894   4.429   0.970   1.435
 1332SOL    HW1 4895   4.443   1.027   1.354
 1332SOL    HW2 4896   4.355   1.008   1.491
 1333SOL     OW 4897   3.999   3.857   5.015
 1333SOL    HW1 4898   4.030   3.789   4.949
 1333SOL    HW2 4899   3.993   3.947   4.971
 1334SOL     OW 4900   0.582   3.878   5.303
 1334SOL    HW1 4901   0.538   3.788   5.298
 1334SOL    HW2 4902   0.573   3.914   5.396
 1335SOL     OW 4903   2.021   5.621   2.976
 1335SOL    HW1 4904   1.961   5.676   2.918
 1335SOL    HW2 4905   2.058   5.679   3.049
 1336SOL     OW 4906   0.856   0.829   5.450
 1336SOL    HW1 4907   0.773   0.826   5.505
 1336SOL    HW2 4908   0.883   0.924   5.436
 1337SOL     OW 4909   1.745   2.346   6.269
 1337SOL    HW1 4910   1.768   2.308   6.179
 1337SOL    HW2 4911   1.800   2.428   6.285
 1338SOL     OW 4912   4.324   5.185   6.337
 1338SOL    HW1 4913   4.289   5.149   6.423
 1338SOL    HW2 4914   4.414   5.227   6.352
 1339SOL     OW 4915   6.787   4.126   5.692
 1339SOL    HW1 4916   6.844   4.130   5.774
 1339SOL    HW2 4917   6.737   4.040   5.690
 1340SOL     OW 4918   1.251   2.179   0.501
 1340SOL    HW1 4919   1.238   2.109   0.431
 1340SOL    HW2 4920   1.229   2.269   0.463
 1341SOL     OW 4921   3.198   1.164   3.713
 1341SOL    HW1 4922   3.276   1.148   3.652
 1341SOL    HW2 4923   3.119   1.193   3.659
 1342SOL     OW 4924   0.750   6.220   0.440
 1342SOL    HW1 4925   0.781   6.206   0.346
 1342SOL    HW2 4926   0.796   6.156   0.501
 1343SOL     OW 4927   3.923   5.924   2.913
 1343SOL    HW1 4928   3.928   5.853   2.983
 1343SOL    HW2 4929   3.857   5.994   2.940
 1344SOL     OW 4930   6.314   1.049   2.427
 1344SOL    HW1 4931   6.331   0.979   2.357
 1344SOL    HW2 4932   6.241   1.110   2.396
 1345SOL     OW 4933   0.726   0.406   2.521
 1345SOL    HW1 4934   0.679   0.471   2.581
 1345SOL    HW2 4935   0.825   0.416   2.531
 1346SOL     OW 4936   6.814   0.115   3.519
 1346SOL    HW1 4937   6.875   0.148   3.592
 1346SOL    HW2 4938   6.774   0.193   3.471
 1347SOL     OW 4939   6.329   6.312   3.320
 1347SOL    HW1 4940   6.284   6.381   3.377
 1347SOL    HW2 4941   6.322   6.338   3.224
 1348SOL     OW 4942   5.900   4.489   4.104
 1348SOL    HW1 4943   5.824   4.506   4.166
 1348SOL    HW2 4944   5.866   4.448   4.019
 1349SOL     OW 4945   3.728   2.599   6.948
 1349SOL    HW1 4946   3.642   2.570   6.991
 1349SOL    HW2 4947   3.789   2.635   7.018
 1350SOL     OW 4948   2.746   0.218   6.822
 1350SOL    HW1 4949   2.798   0.302   6.834
 1350SOL    HW2 4950   2.749   0.164   6.907
 1351SOL     OW 4951   0.232   1.382   3.442
 1351SOL    HW1 4952   0.226   1.345   3.350
 1351SOL    HW2 4953   0.142   1.381   3.485
 1352SOL     OW 4954   0.144   1.067   2.426
 1352SOL    HW1 4955   0.226   1.094   2.375
 1352SOL    HW2 4956   0.165   0.987   2.482
 1353SOL     OW 4957   0.784   4.212   4.768
 1353SOL    HW1 4958   0.873   4.175   4.794
 1353SOL    HW2 4959   0.736   4.146   4.710
 1354SOL     OW 4960   0.462   0.206   1.837
 1354SOL    HW1 4961   0.553   0.165   1.837
 1354SOL    HW2 4962   0.398   0.146   1.886
 1355SOL     OW 4963   4.935   3.490   6.734
 1355SOL    HW1 4964   4.997   3.426   6.688
 1355SOL    HW2 4965   4.977   3.580   6.739
 1356SOL     OW 4966   3.622   3.463   2.673
 1356SOL    HW1 4967   3.552   3.479   2.743
 1356SOL    HW2 4968   3.694   3.404   2.711
 1357SOL     OW 4969   2.772   2.809   5.749
 1357SOL    HW1 4970   2.686   2.799   5.699
 1357SOL    HW2 4971   2.772   2.896   5.798
 1358SOL     OW 4972   2.255   2.723   6.465
 1358SOL    HW1 4973   2.265   2.738   6.563
 1358SOL    HW2 4974   2.312   2.645   6.438
 1359SOL     OW 4975   6.330   2.662   0.176
 1359SOL    HW1 4976   6.387   2.580   0.172
 1359SOL    HW2 4977   6.247   2.647   0.121
 1360SOL     OW 4978   3.345   3.882   3.532
 1360SOL    HW1 4979   3.308   3.790   3.547
 1360SOL    HW2 4980   3.272   3.942   3.499
 1361SOL     OW 4981   0.769   6.247   6.861
 1361SOL    HW1 4982   0.866   6.268   6.874
 1361SOL    HW2 4983   0.739   6.282   6.772
 1362SOL     OW 4984   2.916   3.237   5.993
 1362SOL    HW1 4985   2.898   3.159   6.052
 1362SOL    HW2 4986   2.888   3.321   6.040
 1363SOL     OW 4987   6.316   5.570   2.346
 1363SOL    HW1 4988   6.397   5.515   2.365
 1363SOL    HW2 4989   6.260   5.525   2.277
 1364SOL     OW 4990   6.966   3.295   1.072
 1364SOL    HW1 4991   0.036   3.308   1.039
 1364SOL    HW2 4992   6.955   3.202   1.105
 1365SOL     OW 4993   0.355   3.667   6.791
 1365SOL    HW1 4994   0.306   3.618   6.719
 1365SOL    HW2 4995   0.337   3.765   6.783
 1366SOL     OW 4996   0.033   1.698   0.374
 1366SOL    HW1 4997   6.986   1.728   0.310
 1366SOL    HW2 4998   0.071   1.610   0.344
 1367SOL     OW 4999   6.766   5.916   4.251
 1367SOL    HW1 5000   6.719   5.994   4.292
 1367SOL    HW2 5001   6.796   5.940   4.159
 1368SOL     OW 5002   6.841   6.911   4.168
 1368SOL    HW1 5003   6.857   6.984   4.101
 1368SOL    HW2 5004   6.832   6.824   4.120
 1369SOL     OW 5005   2.973   6.257   2.700
 1369SOL    HW1 5006   2.883   6.218   2.686
 1369SOL    HW2 5007   2.965   6.354   2.721
 1370SOL     OW 5008   6.834   2.441   3.151
 1370SOL    HW1 5009   6.845   2.342   3.146
 1370SOL    HW2 5010   6.922   2.484   3.171
 1371SOL     OW 5011   5.707   1.603   5.006
 1371SOL    HW1 5012   5.658   1.519   4.980
 1371SOL    HW2 5013   5.782   1.618   4.942
 1372SOL     OW 5014   6.289   2.635   6.738
 1372SOL    HW1 5015   6.375   2.623   6.787
 1372SOL    HW2 5016   6.303   2.619   6.640
 1373SOL     OW 5017   4.641   2.712   2.076
 1373SOL    HW1 5018   4.649   2.811   2.062
 1373SOL    HW2 5019   4.615   2.668   1.990
 1374SOL     OW 5020   5.247   4.665   0.205
 1374SOL    HW1 5021   5.308   4.651   0.127
 1374SOL    HW2 5022   5.175   4.596   0.204
 1375SOL     OW 5023   5.836   5.934   4.765
 1375SOL    HW1 5024   5.826   5.943   4.665
 1375SOL    HW2 5025   5.887   6.012   4.800
 1376SOL     OW 5026   2.311   4.849   6.749
 1376SOL    HW1 5027   2.302   4.948   6.744
 1376SOL    HW2 5028   2.292   4.818   6.843
 1377SOL     OW 5029   1.628   2.034   2.908
 1377SOL    HW1 5030   1.563   2.079   2.846
 1377SOL    HW2 5031   1.609   2.063   3.002
 1378SOL     OW 5032   4.518   2.182   4.346
 1378SOL    HW1 5033   4.616   2.178   4.368
 1378SOL    HW2 5034   4.466   2.141   4.421
 1379SOL     OW 5035   5.797   5.151   1.234
 1379SOL    HW1 5036   5.753   5.082   1.177
 1379SOL    HW2 5037   5.882   5.182   1.191
 1380SOL     OW 5038   6.887   5.904   1.006
 1380SOL    HW1 5039   6.979   5.866   1.020
 1380SOL    HW2 5040   6.859   5.891   0.911
 1381SOL     OW 5041   6.105   2.169   5.845
 1381SOL    HW1 5042   6.159   2.238   5.893
 1381SOL    HW2 5043   6.087   2.092   5.906
 1382SOL     OW 5044   4.220   2.867   1.434
 1382SOL    HW1 5045   4.132   2.915   1.436
 1382SOL    HW2 5046   4.249   2.846   1.527
 1383SOL     OW 5047   1.137   0.695   1.936
 1383SOL    HW1 5048   1.148   0.739   1.847
 1383SOL    HW2 5049   1.226   0.687   1.981
 1384SOL     OW 5050   5.467   0.180   0.787
 1384SOL    HW1 5051   5.473   0.221   0.878
 1384SOL    HW2 5052   5.376   0.142   0.774
 1385SOL     OW 5053   1.718   5.333   2.658
 1385SOL    HW1 5054   1.814   5.320   2.634
 1385SOL    HW2 5055   1.673   5.243   2.663
 1386SOL     OW 5056   2.704   5.963   3.859
 1386SOL    HW1 5057   2.670   5.870   3.869
 1386SOL    HW2 5058   2.803   5.964   3.875
 1387SOL     OW 5059   4.123   5.969   1.665
 1387SOL    HW1 5060   4.220   5.946   1.658
 1387SOL    HW2 5061   4.109   6.062   1.630
 1388SOL     OW 5062   6.746   0.192   1.434
 1388SOL    HW1 5063   6.662   0.194   1.380
 1388SOL    HW2 5064   6.779   0.286   1.447
 1389SOL     OW 5065   6.897   0.897   3.030
 1389SOL    HW1 5066   6.903   0.931   2.937
 1389SOL    HW2 5067   6.818   0.936   3.076
 1390SOL     OW 5068   0.703   2.877   5.809
 1390SOL    HW1 5069   0.775   2.822   5.766
 1390SOL    HW2 5070   0.617   2.864   5.760
 1391SOL     OW 5071   6.952   1.868   3.554
 1391SOL    HW1 5072   6.992   1.777   3.556
 1391SOL    HW2 5073   6.996   1.925   3.625
 1392SOL     OW 5074   4.971   5.405   5.298
 1392SOL    HW1 5075   5.016   5.460   5.369
 1392SOL    HW2 5076   5.030   5.401   5.217
 1393SOL     OW 5077   4.887   6.603   6.141
 1393SOL    HW1 5078   4.788   6.600   6.122
 1393SOL    HW2 5079   4.913   6.522   6.194
 1394SOL     OW 5080   2.884   5.951   5.516
 1394SOL    HW1 5081   2.796   5.945   5.563
 1394SOL    HW2 5082   2.871   5.933   5.418
 1395SOL     OW 5083   3.060   4.532   5.813
 1395SOL    HW1 5084   3.096   4.566   5.900
 1395SOL    HW2 5085   3.121   4.462   5.777
 1396SOL     OW 5086   6.533   6.671   4.341
 1396SOL    HW1 5087   6.553   6.769   4.337
 1396SOL    HW2 5088   6.604   6.625   4.395
 1397SOL     OW 5089   5.901   0.453   4.641
 1397SOL    HW1 5090   5.949   0.401   4.571
 1397SOL    HW2 5091   5.966   0.509   4.692
 1398SOL     OW 5092   1.417   1.066   4.803
 1398SOL    HW1 5093   1.378   0.993   4.747
 1398SOL    HW2 5094   1.455   1.138   4.744
 1399SOL     OW 5095   2.988   5.812   1.144
 1399SOL    HW1 5096   3.041   5.888   1.180
 1399SOL    HW2 5097   3.049   5.735   1.125
 1400SOL     OW 5098   7.005   1.170   1.717
 1400SOL    HW1 5099   6.939   1.126   1.779
 1400SOL    HW2 5100   6.966   1.176   1.625
 1401SOL     OW 5101   0.571   1.950   5.290
 1401SOL    HW1 5102   0.505   1.956   5.364
 1401SOL    HW2 5103   0.652   2.004   5.313
 1402SOL     OW 5104   6.944   3.575   0.004
 1402SOL    HW1 5105   6.916   3.508   6.959
 1402SOL    HW2 5106   0.018   3.591   7.021
 1403SOL     OW 5107   2.760   0.205   1.857
 1403SOL    HW1 5108   2.849   0.248   1.868
 1403SOL    HW2 5109   2.728   0.171   1.945
 1404SOL     OW 5110   5.352   0.412   0.328
 1404SOL    HW1 5111   5.293   0.371   0.397
 1404SOL    HW2 5112   5.368   0.509   0.350
 1405SOL     OW 5113   1.835   3.850   1.169
 1405SOL    HW1 5114   1.796   3.942   1.170
 1405SOL    HW2 5115   1.861   3.824   1.261
 1406SOL     OW 5116   0.941   4.643   1.336
 1406SOL    HW1 5117   0.985   4.682   1.417
 1406SOL    HW2 5118   0.963   4.698   1.256
 1407SOL     OW 5119   6.559   1.359   2.118
 1407SOL    HW1 5120   6.546   1.265   2.149
 1407SOL    HW2 5121   6.655   1.384   2.127
 1408SOL     OW 5122   5.700   0.928   6.050
 1408SOL    HW1 5123   5.707   0.849   6.112
 1408SOL    HW2 5124   5.745   0.906   5.964
 1409SOL     OW 5125   0.146   0.610   4.360
 1409SOL    HW1 5126   0.099   0.523   4.378
 1409SOL    HW2 5127   0.154   0.662   4.444
 1410SOL     OW 5128   1.460   3.189   6.543
 1410SOL    HW1 5129   1.426   3.247   6.617
 1410SOL    HW2 5130   1.419   3.218   6.457
 1411SOL     OW 5131   2.146   6.481   2.767
 1411SOL    HW1 5132   2.243   6.502   2.780
 1411SOL    HW2 5133   2.128   6.468   2.670
 1412SOL     OW 5134   1.825   3.192   0.353
 1412SOL    HW1 5135   1.769   3.130   0.299
 1412SOL    HW2 5136   1.807   3.178   0.450
 1413SOL     OW 5137   2.220   0.822   4.558
 1413SOL    HW1 5138   2.255   0.892   4.496
 1413SOL    HW2 5139   2.121   0.814   4.547
 1414SOL     OW 5140   2.460   1.782   1.901
 1414SOL    HW1 5141   2.459   1.882   1.901
 1414SOL    HW2 5142   2.439   1.748   1.810
 1415SOL     OW 5143   3.001   6.216   4.674
 1415SOL    HW1 5144   3.080   6.236   4.617
 1415SOL    HW2 5145   2.973   6.121   4.660
 1416SOL     OW 5146   4.472   4.505   2.576
 1416SOL    HW1 5147   4.405   4.432   2.592
 1416SOL    HW2 5148   4.447   4.556   2.494
 1417SOL     OW 5149   2.753   2.320   6.713
 1417SOL    HW1 5150   2.796   2.286   6.629
 1417SOL    HW2 5151   2.823   2.363   6.771
 1418SOL     OW 5152   3.020   3.779   3.037
 1418SOL    HW1 5153   2.998   3.807   2.944
 1418SOL    HW2 5154   2.991   3.850   3.101
 1419SOL     OW 5155   2.647   6.798   4.661
 1419SOL    HW1 5156   2.594   6.810   4.745
 1419SOL    HW2 5157   2.744   6.789   4.684
 1420SOL     OW 5158   1.319   6.322   2.375
 1420SOL    HW1 5159   1.268   6.255   2.320
 1420SOL    HW2 5160   1.399   6.352   2.324
 1421SOL     OW 5161   1.906   2.850   3.168
 1421SOL    HW1 5162   1.967   2.863   3.090
 1421SOL    HW2 5163   1.960   2.829   3.249
 1422SOL     OW 5164   2.336   4.313   1.970
 1422SOL    HW1 5165   2.276   4.372   2.024
 1422SOL    HW2 5166   2.429   4.350   1.970
 1423SOL     OW 5167   5.729   6.238   1.739
 1423SOL    HW1 5168   5.805   6.297   1.766
 1423SOL    HW2 5169   5.648   6.295   1.720
 1424SOL     OW 5170   5.472   4.827   4.793
 1424SOL    HW1 5171   5.525   4.911   4.800
 1424SOL    HW2 5172   5.413   4.831   4.712
 1425SOL     OW 5173   1.491   6.104   4.030
 1425SOL    HW1 5174   1.519   6.080   4.123
 1425SOL    HW2 5175   1.391   6.098   4.023
 1426SOL     OW 5176   0.928   2.048   5.524
 1426SOL    HW1 5177   0.889   2.115   5.461
 1426SOL    HW2 5178   0.865   1.971   5.535
 1427SOL     OW 5179   0.011   0.202   3.065
 1427SOL    HW1 5180   0.007   0.173   3.160
 1427SOL    HW2 5181   6.964   0.271   3.048
 1428SOL     OW 5182   6.190   2.612   0.431
 1428SOL    HW1 5183   6.102   2.578   0.399
 1428SOL    HW2 5184   6.253   2.618   0.353
 1429SOL     OW 5185   6.298   1.451   0.477
 1429SOL    HW1 5186   6.377   1.462   0.417
 1429SOL    HW2 5187   6.268   1.355   0.475
 1430SOL     OW 5188   1.134   3.855   4.261
 1430SOL    HW1 5189   1.098   3.762   4.268
 1430SOL    HW2 5190   1.080   3.915   4.321
 1431SOL     OW 5191   2.365   1.702   1.665
 1431SOL    HW1 5192   2.411   1.626   1.619
 1431SOL    HW2 5193   2.324   1.763   1.596
 1432SOL     OW 5194   2.408   1.420   3.515
 1432SOL    HW1 5195   2.410   1.472   3.601
 1432SOL    HW2 5196   2.315   1.416   3.480
 1433SOL     OW 5197   4.242   0.974   3.722
 1433SOL    HW1 5198   4.238   0.878   3.693
 1433SOL    HW2 5199   4.187   1.030   3.660
 1434SOL     OW 5200   0.662   1.025   5.149
 1434SOL    HW1 5201   0.602   1.101   5.124
 1434SOL    HW2 5202   0.644   0.999   5.244
 1435SOL     OW 5203   5.830   1.290   2.583
 1435SOL    HW1 5204   5.833   1.376   2.533
 1435SOL    HW2 5205   5.819   1.214   2.518
 1436SOL     OW 5206   4.342   4.150   6.943
 1436SOL    HW1 5207   4.430   4.164   6.987
 1436SOL    HW2 5208   4.276   4.116   7.010
 1437SOL     OW 5209   2.923   1.635   3.890
 1437SOL    HW1 5210   2.986   1.574   3.843
 1437SOL    HW2 5211   2.895   1.595   3.977
 1438SOL     OW 5212   3.825   5.966   1.182
 1438SOL    HW1 5213   3.782   6.024   1.251
 1438SOL    HW2 5214   3.754   5.928   1.122
 1439SOL     OW 5215   0.199   6.184   1.791
 1439SOL    HW1 5216   0.237   6.245   1.722
 1439SOL    HW2 5217   0.104   6.209   1.809
 1440SOL     OW 5218   2.872   4.459   1.326
 1440SOL    HW1 5219   2.919   4.519   1.390
 1440SOL    HW2 5220   2.785   4.499   1.299
 1441SOL     OW 5221   6.590   0.519   1.576
 1441SOL    HW1 5222   6.524   0.444   1.576
 1441SOL    HW2 5223   6.593   0.561   1.485
 1442SOL     OW 5224   6.237   6.110   6.871
 1442SOL    HW1 5225   6.334   6.112   6.893
 1442SOL    HW2 5226   6.214   6.187   6.812
 1443SOL     OW 5227   0.431   2.454   2.656
 1443SOL    HW1 5228   0.423   2.517   2.734
 1443SOL    HW2 5229   0.398   2.364   2.682
 1444SOL     OW 5230   5.190   6.722   1.155
 1444SOL    HW1 5231   5.165   6.630   1.127
 1444SOL    HW2 5232   5.145   6.789   1.096
 1445SOL     OW 5233   0.529   3.628   2.911
 1445SOL    HW1 5234   0.478   3.575   2.843
 1445SOL    HW2 5235   0.590   3.567   2.961
 1446SOL     OW 5236   6.274   0.374   6.296
 1446SOL    HW1 5237   6.200   0.411   6.352
 1446SOL    HW2 5238   6.237   0.339   6.210
 1447SOL     OW 5239   5.444   5.380   3.414
 1447SOL    HW1 5240   5.370   5.386   3.481
 1447SOL    HW2 5241   5.448   5.465   3.362
 1448SOL     OW 5242   0.270   3.163   4.728
 1448SOL    HW1 5243   0.259   3.128   4.634
 1448SOL    HW2 5244   0.196   3.227   4.748
 1449SOL     OW 5245   1.935   4.096   4.834
 1449SOL    HW1 5246   1.945   4.096   4.934
 1449SOL    HW2 5247   2.015   4.051   4.794
 1450SOL     OW 5248   0.953   2.083   5.805
 1450SOL    HW1 5249   0.943   2.074   5.706
 1450SOL    HW2 5250   1.034   2.033   5.835
 1451SOL     OW 5251   1.587   6.277   2.078
 1451SOL    HW1 5252   1.576   6.347   2.148
 1451SOL    HW2 5253   1.618   6.192   2.120
 1452SOL     OW 5254   4.369   3.239   5.871
 1452SOL    HW1 5255   4.322   3.153   5.850
 1452SOL    HW2 5256   4.353   3.263   5.967
 1453SOL     OW 5257   0.794   4.575   5.500
 1453SOL    HW1 5258   0.838   4.514   5.434
 1453SOL    HW2 5259   0.862   4.604   5.568
 1454SOL     OW 5260   2.885   1.964   3.242
 1454SOL    HW1 5261   2.898   1.875   3.200
 1454SOL    HW2 5262   2.964   1.985   3.301
 1455SOL     OW 5263   1.426   6.113   2.851
 1455SOL    HW1 5264   1.367   6.129   2.772
 1455SOL    HW2 5265   1.509   6.168   2.842
 1456SOL     OW 5266   6.779   5.828   6.394
 1456SOL    HW1 5267   6.851   5.763   6.419
 1456SOL    HW2 5268   6.811   5.886   6.319
 1457SOL     OW 5269   0.673   4.119   0.420
 1457SOL    HW1 5270   0.650   4.187   0.489
 1457SOL    HW2 5271   0.711   4.037   0.464
 1458SOL     OW 5272   5.547   5.024   5.613
 1458SOL    HW1 5273   5.581   5.118   5.611
 1458SOL    HW2 5274   5.520   4.996   5.521
 1459SOL     OW 5275   4.994   0.128   5.505
 1459SOL    HW1 5276   4.921   0.070   5.540
 1459SOL    HW2 5277   5.034   0.180   5.580
 1460SOL     OW 5278   1.648   6.542   5.471
 1460SOL    HW1 5279   1.607   6.531   5.561
 1460SOL    HW2 5280   1.586   6.595   5.412
 1461SOL     OW 5281   0.143   3.427   2.484
 1461SOL    HW1 5282   0.240   3.446   2.471
 1461SOL    HW2 5283   0.129   3.388   2.575
 1462SOL     OW 5284   0.759   0.728   6.971
 1462SOL    HW1 5285   0.813   0.730   6.887
 1462SOL    HW2 5286   0.663   0.747   6.950
 1463SOL     OW 5287   1.832   5.566   6.688
 1463SOL    HW1 5288   1.895   5.613   6.626
 1463SOL    HW2 5289   1.738   5.579   6.656
 1464SOL     OW 5290   6.085   4.433   3.495
 1464SOL    HW1 5291   6.110   4.341   3.523
 1464SOL    HW2 5292   6.127   4.499   3.558
 1465SOL     OW 5293   2.028   1.549   3.690
 1465SOL    HW1 5294   2.084   1.614   3.638
 1465SOL    HW2 5295   2.053   1.455   3.664
 1466SOL     OW 5296   3.661   2.598   1.734
 1466SOL    HW1 5297   3.590   2.649   1.784
 1466SOL    HW2 5298   3.671   2.507   1.774
 1467SOL     OW 5299   1.105   0.687   4.032
 1467SOL    HW1 5300   1.186   0.646   3.989
 1467SOL    HW2 5301   1.028   0.683   3.969
 1468SOL     OW 5302   3.200   5.827   1.846
 1468SOL    HW1 5303   3.243   5.741   1.873
 1468SOL    HW2 5304   3.115   5.809   1.797
 1469SOL     OW 5305   6.281   6.102   3.569
 1469SOL    HW1 5306   6.239   6.192   3.579
 1469SOL    HW2 5307   6.331   6.079   3.652
 1470SOL     OW 5308   6.907   2.776   1.210
 1470SOL    HW1 5309   6.985   2.777   1.148
 1470SOL    HW2 5310   6.825   2.748   1.161
 1471SOL     OW 5311   6.844   6.811   0.905
 1471SOL    HW1 5312   6.933   6.779   0.873
 1471SOL    HW2 5313   6.853   6.904   0.939
 1472SOL     OW 5314   2.587   6.901   6.296
 1472SOL    HW1 5315   2.679   6.938   6.311
 1472SOL    HW2 5316   2.523   6.944   6.359
 1473SOL     OW 5317   3.494   5.047   5.076
 1473SOL    HW1 5318   3.454   5.136   5.099
 1473SOL    HW2 5319   3.438   4.974   5.115
 1474SOL     OW 5320   4.414   4.967   1.486
 1474SOL    HW1 5321   4.349   4.891   1.478
 1474SOL    HW2 5322   4.504   4.938   1.456
 1475SOL     OW 5323   5.089   0.850   0.537
 1475SOL    HW1 5324   5.163   0.812   0.593
 1475SOL    HW2 5325   5.079   0.947   0.556
 1476SOL     OW 5326   3.171   1.298   1.227
 1476SOL    HW1 5327   3.231   1.300   1.147
 1476SOL    HW2 5328   3.113   1.379   1.228
 1477SOL     OW 5329   4.420   6.657   0.544
 1477SOL    HW1 5330   4.497   6.699   0.496
 1477SOL    HW2 5331   4.437   6.559   0.555
 1478SOL     OW 5332   5.007   6.470   5.405
 1478SOL    HW1 5333   5.081   6.427   5.353
 1478SOL    HW2 5334   4.957   6.533   5.347
 1479SOL     OW 5335   3.709   4.125   1.970
 1479SOL    HW1 5336   3.628   4.171   1.931
 1479SOL    HW2 5337   3.748   4.063   1.901
 1480SOL     OW 5338   2.722   0.903   5.622
 1480SOL    HW1 5339   2.637   0.951   5.600
 1480SOL    HW2 5340   2.700   0.814   5.662
 1481SOL     OW 5341   5.539   2.566   5.199
 1481SOL    HW1 5342   5.525   2.664   5.211
 1481SOL    HW2 5343   5.464   2.529   5.144
 1482SOL     OW 5344   4.679   0.567   0.806
 1482SOL    HW1 5345   4.620   0.620   0.745
 1482SOL    HW2 5346   4.624   0.501   0.857
 1483SOL     OW 5347   4.207   1.706   5.983
 1483SOL    HW1 5348   4.281   1.647   6.016
 1483SOL    HW2 5349   4.127   1.695   6.042
 1484SOL     OW 5350   3.405   4.927   4.496
 1484SOL    HW1 5351   3.483   4.969   4.542
 1484SOL    HW2 5352   3.334   4.906   4.563
 1485SOL     OW 5353   5.135   1.274   3.082
 1485SOL    HW1 5354   5.192   1.345   3.039
 1485SOL    HW2 5355   5.073   1.236   3.014
 1486SOL     OW 5356   5.237   0.004   3.453
 1486SOL    HW1 5357   5.148   0.026   3.416
 1486SOL    HW2 5358   5.300   7.007   3.378
 1487SOL     OW 5359   0.102   0.687   0.225
 1487SOL    HW1 5360   0.067   0.770   0.181
 1487SOL    HW2 5361   0.028   0.641   0.274
 1488SOL     OW 5362   6.258   0.360   2.882
 1488SOL    HW1 5363   6.175   0.413   2.862
 1488SOL    HW2 5364   6.338   0.413   2.854
 1489SOL     OW 5365   4.177   4.803   6.730
 1489SOL    HW1 5366   4.156   4.785   6.827
 1489SOL    HW2 5367   4.091   4.811   6.679
 1490SOL     OW 5368   0.513   2.515   1.886
 1490SOL    HW1 5369   0.560   2.540   1.971
 1490SOL    HW2 5370   0.489   2.598   1.835
 1491SOL     OW 5371   6.660   3.575   1.708
 1491SOL    HW1 5372   6.685   3.540   1.799
 1491SOL    HW2 5373   6.732   3.636   1.675
 1492SOL     OW 5374   6.185   0.530   2.416
 1492SOL    HW1 5375   6.115   0.475   2.462
 1492SOL    HW2 5376   6.147   0.567   2.331
 1493SOL     OW 5377   4.380   1.434   5.806
 1493SOL    HW1 5378   4.344   1.342   5.821
 1493SOL    HW2 5379   4.307   1.493   5.773
 1494SOL     OW 5380   5.649   2.429   6.253
 1494SOL    HW1 5381   5.714   2.504   6.265
 1494SOL    HW2 5382   5.564   2.464   6.215
 1495SOL     OW 5383   5.702   3.623   3.821
 1495SOL    HW1 5384   5.757   3.701   3.791
 1495SOL    HW2 5385   5.687   3.628   3.920
 1496SOL     OW 5386   0.111   6.159   6.847
 1496SOL    HW1 5387   0.097   6.249   6.886
 1496SOL    HW2 5388   0.025   6.126   6.808
 1497SOL     OW 5389   5.214   1.892   2.935
 1497SOL    HW1 5390   5.208   1.963   2.865
 1497SOL    HW2 5391   5.252   1.809   2.894
 1498SOL     OW 5392   2.916   4.716   1.440
 1498SOL    HW1 5393   2.894   4.813   1.427
 1498SOL    HW2 5394   3.012   4.708   1.469
 1499SOL     OW 5395   0.234   3.700   5.949
 1499SOL    HW1 5396   0.200   3.783   5.907
 1499SOL    HW2 5397   0.172   3.671   6.022
 1500SOL     OW 5398   1.087   5.887   0.451
 1500SOL    HW1 5399   1.072   5.791   0.474
 1500SOL    HW2 5400   1.042   5.908   0.364
 1501SOL     OW 5401   6.000   1.468   6.245
 1501SOL    HW1 5402   6.093   1.471   6.207
 1501SOL    HW2 5403   5.943   1.534   6.195
 1502SOL     OW 5404   0.018   1.028   6.120
 1502SOL    HW1 5405   0.074   0.988   6.047
 1502SOL    HW2 5406   0.078   1.076   6.184
 1503SOL     OW 5407   0.665   4.085   2.042
 1503SOL    HW1 5408   0.678   3.986   2.034
 1503SOL    HW2 5409   0.725   4.131   1.976
 1504SOL     OW 5410   0.565   6.908   3.638
 1504SOL    HW1 5411   0.499   6.868   3.574
 1504SOL    HW2 5412   0.630   6.965   3.588
 1505SOL     OW 5413   5.670   6.803   4.996
 1505SOL    HW1 5414   5.651   6.891   4.952
 1505SOL    HW2 5415   5.641   6.806   5.092
 1506SOL     OW 5416   1.621   0.874   1.146
 1506SOL    HW1 5417   1.540   0.817   1.162
 1506SOL    HW2 5418   1.631   0.889   1.047
 1507SOL     OW 5419   1.131   1.767   4.404
 1507SOL    HW1 5420   1.135   1.735   4.309
 1507SOL    HW2 5421   1.223   1.774   4.440
 1508SOL     OW 5422   0.464   1.391   0.660
 1508SOL    HW1 5423   0.464   1.308   0.716
 1508SOL    HW2 5424   0.472   1.365   0.563
 1509SOL     OW 5425   5.305   1.329   4.896
 1509SOL    HW1 5426   5.273   1.371   4.811
 1509SOL    HW2 5427   5.249   1.363   4.972
 1510SOL     OW 5428   3.508   6.871   3.517
 1510SOL    HW1 5429   3.532   6.932   3.592
 1510SOL    HW2 5430   3.542   6.779   3.538
 1511SOL     OW 5431   3.447   3.906   4.195
 1511SOL    HW1 5432   3.500   3.991   4.188
 1511SOL    HW2 5433   3.354   3.927   4.224
 1512SOL     OW 5434   6.622   5.781   1.057
 1512SOL    HW1 5435   6.539   5.814   1.012
 1512SOL    HW2 5436   6.691   5.854   1.056
 1513SOL     OW 5437   3.073   6.769   5.766
 1513SOL    HW1 5438   3.076   6.725   5.855
 1513SOL    HW2 5439   2.987   6.746   5.720
 1514SOL     OW 5440   3.683   2.362   5.679
 1514SOL    HW1 5441   3.630   2.320   5.606
 1514SOL    HW2 5442   3.637   2.444   5.712
 1515SOL     OW 5443   6.626   1.811   2.947
 1515SOL    HW1 5444   6.618   1.832   2.850
 1515SOL    HW2 5445   6.564   1.736   2.971
 1516SOL     OW 5446   6.599   6.552   4.740
 1516SOL    HW1 5447   6.687   6.505   4.728
 1516SOL    HW2 5448   6.525   6.485   4.738
 1517SOL     OW 5449   3.462   6.353   3.476
 1517SOL    HW1 5450   3.530   6.329   3.545
 1517SOL    HW2 5451   3.372   6.360   3.519
 1518SOL     OW 5452   6.716   2.968   0.052
 1518SOL    HW1 5453   6.748   2.968   0.147
 1518SOL    HW2 5454   6.728   2.877   0.012
 1519SOL     OW 5455   6.961   4.885   0.329
 1519SOL    HW1 5456   6.904   4.828   0.388
 1519SOL    HW2 5457   0.012   4.925   0.382
 1520SOL     OW 5458   0.775   4.844   1.212
 1520SOL    HW1 5459   0.711   4.916   1.187
 1520SOL    HW2 5460   0.746   4.802   1.298
 1521SOL     OW 5461   2.734   4.721   6.941
 1521SOL    HW1 5462   2.734   4.729   0.017
 1521SOL    HW2 5463   2.785   4.797   6.902
 1522SOL     OW 5464   5.275   5.983   5.167
 1522SOL    HW1 5465   5.190   5.952   5.123
 1522SOL    HW2 5466   5.271   5.962   5.264
 1523SOL     OW 5467   3.794   0.079   6.678
 1523SOL    HW1 5468   3.882   0.100   6.720
 1523SOL    HW2 5469   3.725   0.144   6.709
 1524SOL     OW 5470   2.648   2.326   2.947
 1524SOL    HW1 5471   2.734   2.281   2.971
 1524SOL    HW2 5472   2.640   2.412   2.997
 1525SOL     OW 5473   6.283   2.889   0.612
 1525SOL    HW1 5474   6.318   2.958   0.676
 1525SOL    HW2 5475   6.360   2.849   0.562
 1526SOL     OW 5476   0.496   1.711   0.092
 1526SOL    HW1 5477   0.579   1.657   0.076
 1526SOL    HW2 5478   0.443   1.670   0.166
 1527SOL     OW 5479   3.661   1.370   4.970
 1527SOL    HW1 5480   3.683   1.351   4.875
 1527SOL    HW2 5481   3.561   1.377   4.981
 1528SOL     OW 5482   4.646   3.976   0.887
 1528SOL    HW1 5483   4.739   3.939   0.879
 1528SOL    HW2 5484   4.591   3.915   0.944
 1529SOL     OW 5485   5.542   1.058   6.565
 1529SOL    HW1 5486   5.447   1.060   6.534
 1529SOL    HW2 5487   5.602   1.051   6.485
 1530SOL     OW 5488   3.106   0.054   1.742
 1530SOL    HW1 5489   3.127   0.040   1.645
 1530SOL    HW2 5490   3.081   0.150   1.757
 1531SOL     OW 5491   4.012   0.802   3.887
 1531SOL    HW1 5492   3.921   0.775   3.855
 1531SOL    HW2 5493   4.078   0.792   3.812
 1532SOL     OW 5494   3.467   4.781   5.805
 1532SOL    HW1 5495   3.406   4.834   5.746
 1532SOL    HW2 5496   3.526   4.722   5.748
 1533SOL     OW 5497   5.201   5.604   1.085
 1533SOL    HW1 5498   5.119   5.581   1.032
 1533SOL    HW2 5499   5.271   5.535   1.069
 1534SOL     OW 5500   4.038   6.425   0.049
 1534SOL    HW1 5501   3.947   6.425   0.090
 1534SOL    HW2 5502   4.107   6.408   0.119
 1535SOL     OW 5503   6.275   0.090   4.930
 1535SOL    HW1 5504   6.317   0.087   4.840
 1535SOL    HW2 5505   6.179   0.063   4.924
 1536SOL     OW 5506   4.181   4.476   6.969
 1536SOL    HW1 5507   4.278   4.473   6.993
 1536SOL    HW2 5508   4.147   4.569   6.981
 1537SOL     OW 5509   3.652   5.195   3.931
 1537SOL    HW1 5510   3.648   5.266   4.000
 1537SOL    HW2 5511   3.560   5.181   3.893
 1538SOL     OW 5512   3.570   1.426   0.320
 1538SOL    HW1 5513   3.663   1.392   0.304
 1538SOL    HW2 5514   3.506   1.349   0.316
 1539SOL     OW 5515   5.286   3.233   1.579
 1539SOL    HW1 5516   5.255   3.170   1.650
 1539SOL    HW2 5517   5.212   3.249   1.514
 1540SOL     OW 5518   1.808   0.010   4.845
 1540SOL    HW1 5519   1.765   6.953   4.806
 1540SOL    HW2 5520   1.747   0.088   4.835
 1541SOL     OW 5521   3.963   3.115   4.654
 1541SOL    HW1 5522   3.912   3.064   4.585
 1541SOL    HW2 5523   4.059   3.086   4.652
 1542SOL     OW 5524   6.665   6.793   2.116
 1542SOL    HW1 5525   6.635   6.797   2.021
 1542SOL    HW2 5526   6.640   6.704   2.155
 1543SOL     OW 5527   3.209   5.978   6.080
 1543SOL    HW1 5528   3.259   5.925   6.011
 1543SOL    HW2 5529   3.168   5.915   6.147
 1544SOL     OW 5530   3.627   3.762   4.053
 1544SOL    HW1 5531   3.624   3.771   3.953
 1544SOL    HW2 5532   3.550   3.810   4.094
 1545SOL     OW 5533   5.935   0.239   1.675
 1545SOL    HW1 5534   5.986   0.242   1.589
 1545SOL    HW2 5535   5.997   0.260   1.751
 1546SOL     OW 5536   5.380   0.336   5.776
 1546SOL    HW1 5537   5.365   0.238   5.791
 1546SOL    HW2 5538   5.462   0.349   5.720
 1547SOL     OW 5539   1.219   4.032   0.823
 1547SOL    HW1 5540   1.268   4.031   0.736
 1547SOL    HW2 5541   1.186   4.124   0.843
 1548SOL     OW 5542   6.257   3.398   0.175
 1548SOL    HW1 5543   6.297   3.468   0.234
 1548SOL    HW2 5544   6.310   3.314   0.183
 1549SOL     OW 5545   4.040   1.212   4.496
 1549SOL    HW1 5546   4.118   1.274   4.497
 1549SOL    HW2 5547   3.966   1.251   4.552
 1550SOL     OW 5548   4.140   3.370   2.502
 1550SOL    HW1 5549   4.153   3.383   2.601
 1550SOL    HW2 5550   4.163   3.276   2.478
 1551SOL     OW 5551   1.261   5.121   0.094
 1551SOL    HW1 5552   1.191   5.099   0.162
 1551SOL    HW2 5553   1.230   5.088   0.004
 1552SOL     OW 5554   2.830   4.891   0.930
 1552SOL    HW1 5555   2.861   4.809   0.883
 1552SOL    HW2 5556   2.872   4.971   0.888
 1553SOL     OW 5557   0.515   1.809   6.194
 1553SOL    HW1 5558   0.449   1.778   6.262
 1553SOL    HW2 5559   0.595   1.750   6.195
 1554SOL     OW 5560   2.990   1.887   3.843
 1554SOL    HW1 5561   2.998   1.894   3.743
 1554SOL    HW2 5562   2.943   1.802   3.866
 1555SOL     OW 5563   5.698   2.691   5.985
 1555SOL    HW1 5564   5.792   2.694   5.951
 1555SOL    HW2 5565   5.644   2.628   5.929
 1556SOL     OW 5566   1.953   1.095   6.483
 1556SOL    HW1 5567   1.854   1.097   6.502
 1556SOL    HW2 5568   1.986   1.001   6.490
 1557SOL     OW 5569   1.654   3.151   5.935
 1557SOL    HW1 5570   1.746   3.157   5.974
 1557SOL    HW2 5571   1.656   3.171   5.838
 1558SOL     OW 5572   6.642   0.875   4.363
 1558SOL    HW1 5573   6.647   0.974   4.376
 1558SOL    HW2 5574   6.613   0.855   4.269
 1559SOL     OW 5575   0.598   2.366   6.437
 1559SOL    HW1 5576   0.681   2.416   6.411
 1559SOL    HW2 5577   0.566   2.399   6.526
 1560SOL     OW 5578   6.960   0.879   6.351
 1560SOL    HW1 5579   6.970   0.962   6.407
 1560SOL    HW2 5580   6.976   0.901   6.255
 1561SOL     OW 5581   4.689   6.234   2.946
 1561SOL    HW1 5582   4.678   6.328   2.977
 1561SOL    HW2 5583   4.622   6.176   2.992
 1562SOL     OW 5584   4.537   6.614   1.939
 1562SOL    HW1 5585   4.626   6.649   1.970
 1562SOL    HW2 5586   4.507   6.541   2.000
 1563SOL     OW 5587   3.314   0.477   6.221
 1563SOL    HW1 5588   3.340   0.383   6.245
 1563SOL    HW2 5589   3.251   0.512   6.290
 1564SOL     OW 5590   1.625   0.759   2.063
 1564SOL    HW1 5591   1.689   0.682   2.069
 1564SOL    HW2 5592   1.675   0.844   2.052
 1565SOL     OW 5593   4.875   3.889   2.299
 1565SOL    HW1 5594   4.847   3.964   2.239
 1565SOL    HW2 5595   4.804   3.871   2.366
 1566SOL     OW 5596   5.347   4.204   3.430
 1566SOL    HW1 5597   5.395   4.175   3.347
 1566SOL    HW2 5598   5.248   4.199   3.414
 1567SOL     OW 5599   6.029   5.909   6.507
 1567SOL    HW1 5600   6.022   6.004   6.478
 1567SOL    HW2 5601   5.976   5.850   6.446
 1568SOL     OW 5602   1.238   0.299   0.610
 1568SOL    HW1 5603   1.157   0.275   0.665
 1568SOL    HW2 5604   1.217   0.379   0.553
 1569SOL     OW 5605   4.124   6.555   4.302
 1569SOL    HW1 5606   4.074   6.630   4.259
 1569SOL    HW2 5607   4.218   6.583   4.322
 1570SOL     OW 5608   3.002   1.847   1.457
 1570SOL    HW1 5609   2.961   1.931   1.492
 1570SOL    HW2 5610   3.002   1.849   1.357
 1571SOL     OW 5611   6.396   3.042   1.675
 1571SOL    HW1 5612   6.397   3.131   1.630
 1571SOL    HW2 5613   6.349   2.975   1.618
 1572SOL     OW 5614   0.164   0.638   2.139
 1572SOL    HW1 5615   0.090   0.599   2.194
 1572SOL    HW2 5616   0.175   0.735   2.162
 1573SOL     OW 5617   5.413   6.474   1.938
 1573SOL    HW1 5618   5.344   6.482   1.866
 1573SOL    HW2 5619   5.454   6.564   1.955
 1574SOL     OW 5620   0.541   2.099   1.949
 1574SOL    HW1 5621   0.541   2.009   1.994
 1574SOL    HW2 5622   0.617   2.103   1.885
 1575SOL     OW 5623   2.300   2.286   0.594
 1575SOL    HW1 5624   2.276   2.270   0.499
 1575SOL    HW2 5625   2.261   2.373   0.625
 1576SOL     OW 5626   5.674   6.260   3.696
 1576SOL    HW1 5627   5.771   6.257   3.673
 1576SOL    HW2 5628   5.651   6.181   3.753
 1577SOL     OW 5629   2.320   0.772   5.393
 1577SOL    HW1 5630   2.393   0.839   5.379
 1577SOL    HW2 5631   2.237   0.819   5.425
 1578SOL     OW 5632   5.933   3.943   5.370
 1578SOL    HW1 5633   5.843   3.933   5.412
 1578SOL    HW2 5634   5.924   3.936   5.270
 1579SOL     OW 5635   0.477   1.014   2.919
 1579SOL    HW1 5636   0.486   1.008   3.018
 1579SOL    HW2 5637   0.380   1.015   2.894
 1580SOL     OW 5638   2.667   4.405   5.303
 1580SOL    HW1 5639   2.676   4.307   5.321
 1580SOL    HW2 5640   2.750   4.438   5.257
 1581SOL     OW 5641   6.456   4.049   4.286
 1581SOL    HW1 5642   6.402   4.027   4.367
 1581SOL    HW2 5643   6.438   4.144   4.260
 1582SOL     OW 5644   0.230   5.251   4.614
 1582SOL    HW1 5645   0.284   5.304   4.549
 1582SOL    HW2 5646   0.176   5.314   4.671
 1583SOL     OW 5647   2.237   2.999   4.021
 1583SOL    HW1 5648   2.150   2.950   4.027
 1583SOL    HW2 5649   2.308   2.937   3.988
 1584SOL     OW 5650   2.508   6.351   5.357
 1584SOL    HW1 5651   2.573   6.283   5.323
 1584SOL    HW2 5652   2.422   6.306   5.381
 1585SOL     OW 5653   5.344   2.054   3.353
 1585SOL    HW1 5654   5.296   2.132   3.312
 1585SOL    HW2 5655   5.325   1.972   3.300
 1586SOL     OW 5656   3.435   4.127   2.270
 1586SOL    HW1 5657   3.443   4.214   2.222
 1586SOL    HW2 5658   3.485   4.056   2.221
 1587SOL     OW 5659   3.429   6.282   6.801
 1587SOL    HW1 5660   3.506   6.299   6.739
 1587SOL    HW2 5661   3.464   6.259   6.892
 1588SOL     OW 5662   5.475   1.529   2.351
 1588SOL    HW1 5663   5.407   1.541   2.278
 1588SOL    HW2 5664   5.479   1.611   2.407
 1589SOL     OW 5665   5.617   4.674   3.736
 1589SOL    HW1 5666   5.597   4.647   3.642
 1589SOL    HW2 5667   5.621   4.774   3.743
 1590SOL     OW 5668   1.845   6.775   0.426
 1590SOL    HW1 5669   1.797   6.818   0.502
 1590SOL    HW2 5670   1.901   6.844   0.379
 1591SOL     OW 5671   0.928   4.955   2.286
 1591SOL    HW1 5672   0.858   4.892   2.320
 1591SOL    HW2 5673   0.906   4.982   2.193
 1592SOL     OW 5674   2.956   3.252   2.437
 1592SOL    HW1 5675   2.891   3.302   2.379
 1592SOL    HW2 5676   3.011   3.191   2.380
 1593SOL     OW 5677   0.308   6.393   4.450
 1593SOL    HW1 5678   0.236   6.423   4.512
 1593SOL    HW2 5679   0.385   6.457   4.453
 1594SOL     OW 5680   6.502   5.402   2.464
 1594SOL    HW1 5681   6.479   5.350   2.546
 1594SOL    HW2 5682   6.595   5.379   2.435
 1595SOL     OW 5683   0.221   4.513   6.404
 1595SOL    HW1 5684   0.145   4.450   6.389
 1595SOL    HW2 5685   0.276   4.481   6.481
 1596SOL     OW 5686   1.822   5.243   6.253
 1596SOL    HW1 5687   1.845   5.147   6.270
 1596SOL    HW2 5688   1.737   5.265   6.301
 1597SOL     OW 5689   1.999   6.372   2.279
 1597SOL    HW1 5690   2.054   6.289   2.269
 1597SOL    HW2 5691   1.982   6.412   2.190
 1598SOL     OW 5692   6.998   4.245   0.696
 1598SOL    HW1 5693   6.919   4.282   0.745
 1598SOL    HW2 5694   0.050   4.234   0.760
 1599SOL     OW 5695   3.787   4.640   6.635
 1599SOL    HW1 5696   3.783   4.625   6.733
 1599SOL    HW2 5697   3.700   4.614   6.593
 1600SOL     OW 5698   4.987   1.458   5.207
 1600SOL    HW1 5699   4.944   1.499   5.127
 1600SOL    HW2 5700   4.918   1.406   5.258
 1601SOL     OW 5701   1.313   4.626   5.433
 1601SOL    HW1 5702   1.338   4.579   5.348
 1601SOL    HW2 5703   1.361   4.713   5.439
 1602SOL     OW 5704   1.430   5.967   3.399
 1602SOL    HW1 5705   1.486   6.044   3.367
 1602SOL    HW2 5706   1.484   5.882   3.394
 1603SOL     OW 5707   0.616   6.444   2.184
 1603SOL    HW1 5708   0.572   6.529   2.157
 1603SOL    HW2 5709   0.604   6.375   2.113
 1604SOL     OW 5710   0.141   5.360   6.940
 1604SOL    HW1 5711   0.162   5.438   6.882
 1604SOL    HW2 5712   0.195   5.365   0.000
 1605SOL     OW 5713   6.762   6.871   2.684
 1605SOL    HW1 5714   6.707   6.920   2.751
 1605SOL    HW2 5715   6.856   6.861   2.719
 1606SOL     OW 5716   4.754   6.991   5.435
 1606SOL    HW1 5717   4.738   0.008   5.346
 1606SOL    HW2 5718   4.707   6.903   5.440
 1607SOL     OW 5719   4.019   2.354   1.199
 1607SOL    HW1 5720   4.034   2.274   1.257
 1607SOL    HW2 5721   4.016   2.436   1.256
 1608SOL     OW 5722   2.373   6.788   0.440
 1608SOL    HW1 5723   2.324   6.827   0.362
 1608SOL    HW2 5724   2.326   6.813   0.524
 1609SOL     OW 5725   5.341   2.075   6.073
 1609SOL    HW1 5726   5.409   2.118   6.013
 1609SOL    HW2 5727   5.283   2.014   6.019
 1610SOL     OW 5728   6.410   6.359   4.742
 1610SOL    HW1 5729   6.375   6.292   4.677
 1610SOL    HW2 5730   6.343   6.375   4.814
 1611SOL     OW 5731   4.081   3.460   2.221
 1611SOL    HW1 5732   4.077   3.376   2.168
 1611SOL    HW2 5733   4.116   3.440   2.313
 1612SOL     OW 5734   2.230   1.346   5.025
 1612SOL    HW1 5735   2.245   1.270   5.088
 1612SOL    HW2 5736   2.312   1.403   5.022
 1613SOL     OW 5737   1.805   6.036   1.015
 1613SOL    HW1 5738   1.817   5.998   0.923
 1613SOL    HW2 5739   1.722   6.091   1.018
 1614SOL     OW 5740   6.171   2.322   0.067
 1614SOL    HW1 5741   6.146   2.263   7.013
 1614SOL    HW2 5742   6.217   2.404   0.032
 1615SOL     OW 5743   6.825   4.043   6.357
 1615SOL    HW1 5744   6.741   4.097   6.352
 1615SOL    HW2 5745   6.801   3.947   6.371
 1616SOL     OW 5746   3.657   1.959   6.183
 1616SOL    HW1 5747   3.610   2.033   6.135
 1616SOL    HW2 5748   3.605   1.933   6.264
 1617SOL     OW 5749   5.531   0.983   2.621
 1617SOL    HW1 5750   5.537   0.982   2.721
 1617SOL    HW2 5751   5.469   0.911   2.591
 1618SOL     OW 5752   6.754   3.617   1.346
 1618SOL    HW1 5753   6.786   3.671   1.425
 1618SOL    HW2 5754   6.654   3.613   1.347
 1619SOL     OW 5755   1.478   3.415   4.171
 1619SOL    HW1 5756   1.554   3.350   4.165
 1619SOL    HW2 5757   1.431   3.420   4.083
 1620SOL     OW 5758   2.677   5.932   1.725
 1620SOL    HW1 5759   2.608   5.942   1.797
 1620SOL    HW2 5760   2.723   6.019   1.710
 1621SOL     OW 5761   0.849   0.563   0.930
 1621SOL    HW1 5762   0.772   0.512   0.969
 1621SOL    HW2 5763   0.912   0.588   1.003
 1622SOL     OW 5764   1.782   1.704   4.574
 1622SOL    HW1 5765   1.863   1.760   4.556
 1622SOL    HW2 5766   1.805   1.608   4.564
 1623SOL     OW 5767   2.533   2.212   6.359
 1623SOL    HW1 5768   2.569   2.305   6.355
 1623SOL    HW2 5769   2.455   2.209   6.422
 1624SOL     OW 5770   3.499   1.230   6.977
 1624SOL    HW1 5771   3.561   1.163   6.935
 1624SOL    HW2 5772   3.463   1.291   6.906
 1625SOL     OW 5773   0.668   5.174   2.068
 1625SOL    HW1 5774   0.694   5.221   2.152
 1625SOL    HW2 5775   0.735   5.103   2.047
 1626SOL     OW 5776   2.011   2.817   6.496
 1626SOL    HW1 5777   1.982   2.863   6.412
 1626SOL    HW2 5778   2.089   2.758   6.477
 1627SOL     OW 5779   6.546   2.208   3.358
 1627SOL    HW1 5780   6.524   2.301   3.330
 1627SOL    HW2 5781   6.612   2.168   3.294
 1628SOL     OW 5782   3.078   4.949   1.149
 1628SOL    HW1 5783   3.148   4.967   1.079
 1628SOL    HW2 5784   3.121   4.944   1.239
 1629SOL     OW 5785   3.346   2.129   4.356
 1629SOL    HW1 5786   3.328   2.031   4.344
 1629SOL    HW2 5787   3.403   2.162   4.281
 1630SOL     OW 5788   0.936   4.796   5.966
 1630SOL    HW1 5789   0.870   4.830   5.900
 1630SOL    HW2 5790   1.015   4.857   5.969
 1631SOL     OW 5791   0.033   0.274   5.399
 1631SOL    HW1 5792   0.073   0.310   5.483
 1631SOL    HW2 5793   0.081   0.313   5.320
 1632SOL     OW 5794   6.944   0.977   0.287
 1632SOL    HW1 5795   6.956   1.076   0.281
 1632SOL    HW2 5796   6.991   0.943   0.369
 1633SOL     OW 5797   5.940   1.853   3.072
 1633SOL    HW1 5798   5.944   1.894   3.164
 1633SOL    HW2 5799   6.034   1.838   3.039
 1634SOL     OW 5800   2.618   6.367   5.946
 1634SOL    HW1 5801   2.651   6.280   5.984
 1634SOL    HW2 5802   2.648   6.374   5.850
 1635SOL     OW 5803   0.254   5.892   4.704
 1635SOL    HW1 5804   0.160   5.884   4.671
 1635SOL    HW2 5805   0.289   5.984   4.686
 1636SOL     OW 5806   2.720   5.840   1.405
 1636SOL    HW1 5807   2.704   5.864   1.500
 1636SOL    HW2 5808   2.815   5.859   1.380
 1637SOL     OW 5809   0.051   3.625   2.283
 1637SOL    HW1 5810   0.079   3.541   2.330
 1637SOL    HW2 5811   6.976   3.634   2.286
 1638SOL     OW 5812   0.234   3.502   4.190
 1638SOL    HW1 5813   0.266   3.574   4.128
 1638SOL    HW2 5814   0.143   3.472   4.161
 1639SOL     OW 5815   4.628   5.596   3.011
 1639SOL    HW1 5816   4.543   5.586   3.063
 1639SOL    HW2 5817   4.608   5.587   2.913
 1640SOL     OW 5818   6.551   1.080   0.480
 1640SOL    HW1 5819   6.469   1.031   0.511
 1640SOL    HW2 5820   6.587   1.036   0.397
 1641SOL     OW 5821   6.128   3.394   4.635
 1641SOL    HW1 5822   6.073   3.350   4.564
 1641SOL    HW2 5823   6.072   3.406   4.717
 1642SOL     OW 5824   6.468   2.818   0.392
 1642SOL    HW1 5825   6.552   2.873   0.395
 1642SOL    HW2 5826   6.453   2.787   0.298
 1643SOL     OW 5827   3.395   6.515   5.317
 1643SOL    HW1 5828   3.434   6.429   5.350
 1643SOL    HW2 5829   3.298   6.502   5.296
 1644SOL     OW 5830   2.977   1.478   1.253
 1644SOL    HW1 5831   3.015   1.568   1.273
 1644SOL    HW2 5832   2.890   1.466   1.301
 1645SOL     OW 5833   3.341   6.410   6.136
 1645SOL    HW1 5834   3.396   6.493   6.144
 1645SOL    HW2 5835   3.282   6.401   6.216
 1646SOL     OW 5836   1.628   4.180   0.947
 1646SOL    HW1 5837   1.677   4.097   0.918
 1646SOL    HW2 5838   1.632   4.248   0.873
 1647SOL     OW 5839   5.704   3.131   3.629
 1647SOL    HW1 5840   5.620   3.170   3.592
 1647SOL    HW2 5841   5.769   3.115   3.556
 1648SOL     OW 5842   4.722   0.277   1.895
 1648SOL    HW1 5843   4.764   0.263   1.805
 1648SOL    HW2 5844   4.782   0.335   1.951
 1649SOL     OW 5845   2.905   0.603   3.200
 1649SOL    HW1 5846   2.952   0.647   3.277
 1649SOL    HW2 5847   2.953   0.624   3.115
 1650SOL     OW 5848   2.990   0.622   3.974
 1650SOL    HW1 5849   3.050   0.575   3.909
 1650SOL    HW2 5850   2.976   0.564   4.054
 1651SOL     OW 5851   0.462   0.368   0.389
 1651SOL    HW1 5852   0.532   0.434   0.418
 1651SOL    HW2 5853   0.491   0.325   0.304
 1652SOL     OW 5854   2.976   2.482   1.480
 1652SOL    HW1 5855   3.013   2.515   1.567
 1652SOL    HW2 5856   2.880   2.510   1.472
 1653SOL     OW 5857   0.209   5.561   0.763
 1653SOL    HW1 5858   0.224   5.611   0.677
 1653SOL    HW2 5859   0.291   5.565   0.819
 1654SOL     OW 5860   6.807   3.530   2.917
 1654SOL    HW1 5861   6.821   3.625   2.946
 1654SOL    HW2 5862   6.825   3.522   2.819
 1655SOL     OW 5863   5.289   4.195   6.177
 1655SOL    HW1 5864   5.310   4.273   6.236
 1655SOL    HW2 5865   5.340   4.115   6.207
 1656SOL     OW 5866   0.978   5.044   4.020
 1656SOL    HW1 5867   0.956   5.084   3.931
 1656SOL    HW2 5868   1.068   5.001   4.017
 1657SOL     OW 5869   1.482   1.013   5.118
 1657SOL    HW1 5870   1.406   1.076   5.101
 1657SOL    HW2 5871   1.565   1.049   5.075
 1658SOL     OW 5872   5.965   6.151   2.811
 1658SOL    HW1 5873   6.016   6.238   2.814
 1658SOL    HW2 5874   5.874   6.168   2.773
 1659SOL     OW 5875   3.466   2.122   6.524
 1659SOL    HW1 5876   3.551   2.128   6.472
 1659SOL    HW2 5877   3.480   2.163   6.615
 1660SOL     OW 5878   1.244   6.074   3.881
 1660SOL    HW1 5879   1.175   6.069   3.809
 1660SOL    HW2 5880   1.295   5.989   3.885
 1661SOL     OW 5881   2.900   1.591   2.002
 1661SOL    HW1 5882   2.932   1.686   1.995
 1661SOL    HW2 5883   2.978   1.531   2.019
 1662SOL     OW 5884   0.052   1.449   2.913
 1662SOL    HW1 5885   0.002   1.415   2.992
 1662SOL    HW2 5886   7.018   1.446   2.832
 1663SOL     OW 5887   3.467   0.138   2.808
 1663SOL    HW1 5888   3.440   0.042   2.805
 1663SOL    HW2 5889   3.507   0.159   2.897
 1664SOL     OW 5890   1.994   6.418   4.386
 1664SOL    HW1 5891   1.981   6.428   4.484
 1664SOL    HW2 5892   2.075   6.470   4.358
 1665SOL     OW 5893   0.273   1.268   2.589
 1665SOL    HW1 5894   0.243   1.177   2.561
 1665SOL    HW2 5895   0.222   1.337   2.537
 1666SOL     OW 5896   5.589   2.566   5.749
 1666SOL    HW1 5897   5.635   2.617   5.677
 1666SOL    HW2 5898   5.506   2.523   5.712
 1667SOL     OW 5899   6.445   6.904   6.401
 1667SOL    HW1 5900   6.529   6.868   6.360
 1667SOL    HW2 5901   6.376   6.832   6.405
 1668SOL     OW 5902   4.262   0.534   4.435
 1668SOL    HW1 5903   4.212   0.611   4.396
 1668SOL    HW2 5904   4.210   0.496   4.511
 1669SOL     OW 5905   5.963   6.856   5.923
 1669SOL    HW1 5906   5.912   6.842   6.008
 1669SOL    HW2 5907   5.952   6.950   5.892
 1670SOL     OW 5908   5.452   4.560   5.495
 1670SOL    HW1 5909   5.513   4.504   5.551
 1670SOL    HW2 5910   5.364   4.570   5.542
 1671SOL     OW 5911   4.896   3.222   0.394
 1671SOL    HW1 5912   4.865   3.225   0.299
 1671SOL    HW2 5913   4.817   3.207   0.454
 1672SOL     OW 5914   1.895   4.359   2.293
 1672SOL    HW1 5915   1.993   4.362   2.273
 1672SOL    HW2 5916   1.878   4.390   2.386
 1673SOL     OW 5917   6.911   3.775   4.202
 1673SOL    HW1 5918   6.821   3.816   4.217
 1673SOL    HW2 5919   6.946   3.739   4.288
 1674SOL     OW 5920   0.706   3.973   0.732
 1674SOL    HW1 5921   0.782   3.950   0.792
 1674SOL    HW2 5922   0.663   3.889   0.698
 1675SOL     OW 5923   4.702   1.827   6.609
 1675SOL    HW1 5924   4.759   1.746   6.597
 1675SOL    HW2 5925   4.721   1.868   6.698
 1676SOL     OW 5926   2.094   0.895   2.756
 1676SOL    HW1 5927   2.068   0.865   2.848
 1676SOL    HW2 5928   2.024   0.958   2.721
 1677SOL     OW 5929   5.866   1.420   5.294
 1677SOL    HW1 5930   5.851   1.394   5.389
 1677SOL    HW2 5931   5.779   1.442   5.250
 1678SOL     OW 5932   5.131   6.295   2.377
 1678SOL    HW1 5933   5.041   6.336   2.390
 1678SOL    HW2 5934   5.176   6.339   2.299
 1679SOL     OW 5935   0.803   3.150   5.776
 1679SOL    HW1 5936   0.761   3.064   5.804
 1679SOL    HW2 5937   0.860   3.185   5.850
 1680SOL     OW 5938   0.762   1.012   3.936
 1680SOL    HW1 5939   0.674   1.008   3.890
 1680SOL    HW2 5940   0.835   1.018   3.867
 1681SOL     OW 5941   6.597   5.567   0.553
 1681SOL    HW1 5942   6.641   5.492   0.602
 1681SOL    HW2 5943   6.528   5.609   0.611
 1682SOL     OW 5944   0.284   3.497   4.987
 1682SOL    HW1 5945   0.184   3.501   4.981
 1682SOL    HW2 5946   0.320   3.589   5.004
 1683SOL     OW 5947   4.977   5.597   1.444
 1683SOL    HW1 5948   4.992   5.664   1.517
 1683SOL    HW2 5949   5.065   5.575   1.401
 1684SOL     OW 5950   0.544   6.633   5.466
 1684SOL    HW1 5951   0.503   6.720   5.438
 1684SOL    HW2 5952   0.542   6.569   5.389
 1685SOL     OW 5953   1.896   1.265   0.443
 1685SOL    HW1 5954   1.993   1.286   0.450
 1685SOL    HW2 5955   1.880   1.204   0.365
 1686SOL     OW 5956   1.175   5.740   5.750
 1686SOL    HW1 5957   1.232   5.702   5.677
 1686SOL    HW2 5958   1.113   5.808   5.711
 1687SOL     OW 5959   1.700   4.717   2.198
 1687SOL    HW1 5960   1.675   4.642   2.259
 1687SOL    HW2 5961   1.619   4.772   2.178
 1688SOL     OW 5962   1.732   1.688   3.162
 1688SOL    HW1 5963   1.774   1.607   3.119
 1688SOL    HW2 5964   1.804   1.754   3.183
 1689SOL     OW 5965   2.660   1.340   2.337
 1689SOL    HW1 5966   2.737   1.335   2.273
 1689SOL    HW2 5967   2.576   1.362   2.287
 1690SOL     OW 5968   1.534   1.737   2.070
 1690SOL    HW1 5969   1.544   1.641   2.093
 1690SOL    HW2 5970   1.602   1.761   2.000
 1691SOL     OW 5971   5.267   3.387   3.341
 1691SOL    HW1 5972   5.311   3.314   3.394
 1691SOL    HW2 5973   5.279   3.474   3.388
 1692SOL     OW 5974   0.741   0.173   1.775
 1692SOL    HW1 5975   0.802   0.154   1.852
 1692SOL    HW2 5976   0.757   0.266   1.742
 1693SOL     OW 5977   2.727   2.431   3.846
 1693SOL    HW1 5978   2.713   2.386   3.934
 1693SOL    HW2 5979   2.818   2.408   3.811
 1694SOL     OW 5980   4.427   5.879   4.956
 1694SOL    HW1 5981   4.428   5.979   4.949
 1694SOL    HW2 5982   4.502   5.841   4.902
 1695SOL     OW 5983   2.827   2.697   5.475
 1695SOL    HW1 5984   2.845   2.740   5.563
 1695SOL    HW2 5985   2.908   2.648   5.444
 1696SOL     OW 5986   4.791   5.416   0.373
 1696SOL    HW1 5987   4.839   5.333   0.346
 1696SOL    HW2 5988   4.694   5.406   0.352
 1697SOL     OW 5989   1.334   0.667   1.272
 1697SOL    HW1 5990   1.290   0.604   1.208
 1697SOL    HW2 5991   1.295   0.758   1.262
 1698SOL     OW 5992   4.930   2.139   1.689
 1698SOL    HW1 5993   4.961   2.222   1.734
 1698SOL    HW2 5994   4.962   2.059   1.741
 1699SOL     OW 5995   2.430   3.567   1.183
 1699SOL    HW1 5996   2.395   3.592   1.093
 1699SOL    HW2 5997   2.519   3.612   1.197
 1700SOL     OW 5998   6.690   2.862   2.867
 1700SOL    HW1 5999   6.783   2.864   2.831
 1700SOL    HW2 6000   6.684   2.795   2.941
 1701SOL     OW 6001   6.111   2.881   4.302
 1701SOL    HW1 6002   6.080   2.808   4.241
 1701SOL    HW2 6003   6.034   2.917   4.354
 1702SOL     OW 6004   5.693   3.395   1.331
 1702SOL    HW1 6005   5.656   3.338   1.405
 1702SOL    HW2 6006   5.659   3.363   1.243
 1703SOL     OW 6007   2.001   3.609   0.764
 1703SOL    HW1 6008   2.056   3.629   0.845
 1703SOL    HW2 6009   2.061   3.594   0.685
 1704SOL     OW 6010   6.933   0.558   1.364
 1704SOL    HW1 6011   6.913   0.538   1.268
 1704SOL    HW2 6012   7.022   0.603   1.371
 1705SOL     OW 6013   3.834   2.729   1.565
 1705SOL    HW1 6014   3.806   2.672   1.642
 1705SOL    HW2 6015   3.873   2.672   1.494
 1706SOL     OW 6016   3.704   0.785   0.084
 1706SOL    HW1 6017   3.746   0.774   0.175
 1706SOL    HW2 6018   3.670   0.696   0.053
 1707SOL     OW 6019   5.794   1.875   2.826
 1707SOL    HW1 6020   5.795   1.966   2.785
 1707SOL    HW2 6021   5.845   1.877   2.912
 1708SOL     OW 6022   6.432   6.340   2.711
 1708SOL    HW1 6023   6.468   6.409   2.649
 1708SOL    HW2 6024   6.482   6.344   2.798
 1709SOL     OW 6025   3.080   6.525   2.473
 1709SOL    HW1 6026   3.080   6.425   2.471
 1709SOL    HW2 6027   3.058   6.557   2.566
 1710SOL     OW 6028   0.490   4.887   4.133
 1710SOL    HW1 6029   0.561   4.816   4.137
 1710SOL    HW2 6030   0.533   4.975   4.116
 1711SOL     OW 6031   1.672   4.862   5.931
 1711SOL    HW1 6032   1.754   4.856   5.987
 1711SOL    HW2 6033   1.663   4.779   5.876
 1712SOL     OW 6034   6.830   4.233   0.132
 1712SOL    HW1 6035   6.786   4.169   0.070
 1712SOL    HW2 6036   6.904   4.187   0.181
 1713SOL     OW 6037   1.831   2.636   1.416
 1713SOL    HW1 6038   1.885   2.653   1.334
 1713SOL    HW2 6039   1.795   2.723   1.451
 1714SOL     OW 6040   3.372   1.877   0.027
 1714SOL    HW1 6041   3.442   1.941   0.059
 1714SOL    HW2 6042   3.288   1.926   0.006
 1715SOL     OW 6043   0.753   3.254   2.685
 1715SOL    HW1 6044   0.727   3.277   2.779
 1715SOL    HW2 6045   0.698   3.177   2.653
 1716SOL     OW 6046   0.013   6.425   0.309
 1716SOL    HW1 6047   0.034   6.430   0.407
 1716SOL    HW2 6048   0.011   6.329   0.281
 1717SOL     OW 6049   2.765   6.840   6.626
 1717SOL    HW1 6050   2.849   6.786   6.636
 1717SOL    HW2 6051   2.777   6.906   6.552
 1718SOL     OW 6052   2.220   4.363   0.775
 1718SOL    HW1 6053   2.245   4.272   0.807
 1718SOL    HW2 6054   2.121   4.370   0.769
 1719SOL     OW 6055   1.923   3.394   1.443
 1719SOL    HW1 6056   1.954   3.450   1.366
 1719SOL    HW2 6057   1.988   3.402   1.518
 1720SOL     OW 6058   6.772   1.375   0.616
 1720SOL    HW1 6059   6.672   1.376   0.624
 1720SOL    HW2 6060   6.799   1.429   0.536
 1721SOL     OW 6061   1.804   6.411   3.263
 1721SOL    HW1 6062   1.805   6.492   3.204
 1721SOL    HW2 6063   1.849   6.432   3.350
 1722SOL     OW 6064   6.050   0.260   2.286
 1722SOL    HW1 6065   6.139   0.289   2.323
 1722SOL    HW2 6066   6.037   0.301   2.196
 1723SOL     OW 6067   0.015   1.699   2.989
 1723SOL    HW1 6068   0.075   1.767   3.031
 1723SOL    HW2 6069   0.064   1.613   2.978
 1724SOL     OW 6070   5.038   1.091   6.734
 1724SOL    HW1 6071   5.074   1.088   6.827
 1724SOL    HW2 6072   4.977   1.170   6.725
 1725SOL     OW 6073   3.408   4.372   1.448
 1725SOL    HW1 6074   3.349   4.296   1.476
 1725SOL    HW2 6075   3.421   4.433   1.525
 1726SOL     OW 6076   7.019   5.000   5.217
 1726SOL    HW1 6077   6.931   4.956   5.196
 1726SOL    HW2 6078   0.067   4.960   5.160
 1727SOL     OW 6079   4.164   3.362   5.211
 1727SOL    HW1 6080   4.212   3.431   5.266
 1727SOL    HW2 6081   4.079   3.337   5.256
 1728SOL     OW 6082   4.384   4.687   4.049
 1728SOL    HW1 6083   4.388   4.682   4.149
 1728SOL    HW2 6084   4.333   4.609   4.014
 1729SOL     OW 6085   1.140   4.025   2.850
 1729SOL    HW1 6086   1.190   4.093   2.903
 1729SOL    HW2 6087   1.150   4.044   2.753
 1730SOL     OW 6088   6.548   1.961   4.894
 1730SOL    HW1 6089   6.502   2.037   4.848
 1730SOL    HW2 6090   6.504   1.943   4.982
 1731SOL     OW 6091   1.917   4.951   1.081
 1731SOL    HW1 6092   1.849   4.879   1.068
 1731SOL    HW2 6093   1.982   4.951   1.004
 1732SOL     OW 6094   1.853   4.713   0.123
 1732SOL    HW1 6095   1.806   4.628   0.147
 1732SOL    HW2 6096   1.898   4.702   0.034
 1733SOL     OW 6097   1.369   3.733   1.989
 1733SOL    HW1 6098   1.352   3.795   1.913
 1733SOL    HW2 6099   1.445   3.672   1.966
 1734SOL     OW 6100   4.137   2.689   0.825
 1734SOL    HW1 6101   4.106   2.773   0.781
 1734SOL    HW2 6102   4.221   2.708   0.876
 1735SOL     OW 6103   5.831   5.083   1.490
 1735SOL    HW1 6104   5.876   4.994   1.491
 1735SOL    HW2 6105   5.790   5.099   1.400
 1736SOL     OW 6106   3.280   3.245   0.193
 1736SOL    HW1 6107   3.249   3.155   0.224
 1736SOL    HW2 6108   3.366   3.268   0.238
 1737SOL     OW 6109   2.279   0.283   3.876
 1737SOL    HW1 6110   2.311   0.267   3.970
 1737SOL    HW2 6111   2.291   0.199   3.823
 1738SOL     OW 6112   2.187   2.980   2.312
 1738SOL    HW1 6113   2.282   2.953   2.292
 1738SOL    HW2 6114   2.131   2.966   2.231
 1739SOL     OW 6115   4.423   2.183   4.797
 1739SOL    HW1 6116   4.375   2.123   4.732
 1739SOL    HW2 6117   4.494   2.131   4.843
 1740SOL     OW 6118   6.849   0.643   6.438
 1740SOL    HW1 6119   6.831   0.742   6.440
 1740SOL    HW2 6120   6.857   0.613   6.344
 1741SOL     OW 6121   1.792   0.523   2.698
 1741SOL    HW1 6122   1.862   0.453   2.696
 1741SOL    HW2 6123   1.806   0.587   2.623
 1742SOL     OW 6124   6.036   0.621   4.819
 1742SOL    HW1 6125   5.979   0.678   4.878
 1742SOL    HW2 6126   6.044   0.529   4.858
 1743SOL     OW 6127   3.333   1.574   1.462
 1743SOL    HW1 6128   3.432   1.573   1.474
 1743SOL    HW2 6129   3.308   1.641   1.392
 1744SOL     OW 6130   2.530   0.961   2.162
 1744SOL    HW1 6131   2.525   1.016   2.078
 1744SOL    HW2 6132   2.626   0.944   2.184
 1745SOL     OW 6133   6.871   1.656   3.200
 1745SOL    HW1 6134   6.792   1.717   3.211
 1745SOL    HW2 6135   6.897   1.653   3.103
 1746SOL     OW 6136   2.607   0.481   6.496
 1746SOL    HW1 6137   2.597   0.526   6.585
 1746SOL    HW2 6138   2.557   0.533   6.427
 1747SOL     OW 6139   3.703   0.114   1.266
 1747SOL    HW1 6140   3.792   0.076   1.240
 1747SOL    HW2 6141   3.706   0.141   1.362
 1748SOL     OW 6142   5.977   1.950   3.579
 1748SOL    HW1 6143   5.966   1.852   3.597
 1748SOL    HW2 6144   6.060   1.965   3.526
 1749SOL     OW 6145   4.483   6.951   6.764
 1749SOL    HW1 6146   4.406   7.014   6.750
 1749SOL    HW2 6147   4.484   6.883   6.690
 1750SOL     OW 6148   5.059   1.304   2.228
 1750SOL    HW1 6149   5.037   1.232   2.294
 1750SOL    HW2 6150   5.149   1.342   2.248
 1751SOL     OW 6151   1.910   5.294   4.433
 1751SOL    HW1 6152   1.837   5.313   4.498
 1751SOL    HW2 6153   1.946   5.202   4.449
 1752SOL     OW 6154   6.587   1.879   0.940
 1752SOL    HW1 6155   6.590   1.906   1.037
 1752SOL    HW2 6156   6.554   1.955   0.885
 1753SOL     OW 6157   0.724   6.816   0.658
 1753SOL    HW1 6158   0.641   6.872   0.653
 1753SOL    HW2 6159   0.710   6.741   0.722
 1754SOL     OW 6160   3.512   3.268   1.196
 1754SOL    HW1 6161   3.604   3.241   1.167
 1754SOL    HW2 6162   3.446   3.248   1.123
 1755SOL     OW 6163   5.265   5.012   1.712
 1755SOL    HW1 6164   5.225   4.983   1.625
 1755SOL    HW2 6165   5.345   5.068   1.694
 1756SOL     OW 6166   6.416   4.982   4.177
 1756SOL    HW1 6167   6.459   5.029   4.100
 1756SOL    HW2 6168   6.373   5.049   4.237
 1757SOL     OW 6169   2.719   6.454   4.418
 1757SOL    HW1 6170   2.661   6.466   4.499
 1757SOL    HW2 6171   2.798   6.515   4.424
 1758SOL     OW 6172   2.481   0.862   3.653
 1758SOL    HW1 6173   2.500   0.837   3.558
 1758SOL    HW2 6174   2.456   0.958   3.658
 1759SOL     OW 6175   0.034   4.674   5.735
 1759SOL    HW1 6176   6.973   4.638   5.774
 1759SOL    HW2 6177   0.014   4.760   5.686
 1760SOL     OW 6178   6.231   1.511   1.596
 1760SOL    HW1 6179   6.229   1.434   1.531
 1760SOL    HW2 6180   6.245   1.476   1.688
 1761SOL     OW 6181   5.699   0.933   0.800
 1761SOL    HW1 6182   5.656   0.858   0.849
 1761SOL    HW2 6183   5.775   0.898   0.745
 1762SOL     OW 6184   6.566   2.179   5.830
 1762SOL    HW1 6185   6.510   2.208   5.907
 1762SOL    HW2 6186   6.657   2.153   5.863
 1763SOL     OW 6187   2.065   4.108   4.161
 1763SOL    HW1 6188   2.075   4.022   4.210
 1763SOL    HW2 6189   1.972   4.116   4.127
 1764SOL     OW 6190   0.994   3.173   3.226
 1764SOL    HW1 6191   1.008   3.108   3.151
 1764SOL    HW2 6192   1.072   3.168   3.288
 1765SOL     OW 6193   2.722   1.498   0.225
 1765SOL    HW1 6194   2.685   1.459   0.140
 1765SOL    HW2 6195   2.734   1.425   0.292
 1766SOL     OW 6196   5.565   2.974   5.130
 1766SOL    HW1 6197   5.507   2.968   5.211
 1766SOL    HW2 6198   5.537   2.905   5.063
 1767SOL     OW 6199   5.419   3.839   2.238
 1767SOL    HW1 6200   5.413   3.739   2.231
 1767SOL    HW2 6201   5.332   3.875   2.271
 1768SOL     OW 6202   4.255   0.258   3.571
 1768SOL    HW1 6203   4.174   0.267   3.514
 1768SOL    HW2 6204   4.240   0.302   3.660
 1769SOL     OW 6205   3.816   1.507   3.777
 1769SOL    HW1 6206   3.802   1.545   3.868
 1769SOL    HW2 6207   3.751   1.433   3.761
 1770SOL     OW 6208   1.524   5.605   5.563
 1770SOL    HW1 6209   1.592   5.630   5.494
 1770SOL    HW2 6210   1.433   5.629   5.531
 1771SOL     OW 6211   3.232   6.485   6.743
 1771SOL    HW1 6212   3.307   6.432   6.782
 1771SOL    HW2 6213   3.145   6.451   6.778
 1772SOL     OW 6214   3.217   6.921   3.596
 1772SOL    HW1 6215   3.229   6.941   3.693
 1772SOL    HW2 6216   3.281   6.848   3.569
 1773SOL     OW 6217   2.524   4.996   6.176
 1773SOL    HW1 6218   2.591   5.068   6.197
 1773SOL    HW2 6219   2.451   4.998   6.245
 1774SOL     OW 6220   4.374   5.558   1.633
 1774SOL    HW1 6221   4.337   5.575   1.724
 1774SOL    HW2 6222   4.374   5.460   1.614
 1775SOL     OW 6223   0.835   4.119   2.363
 1775SOL    HW1 6224   0.752   4.163   2.328
 1775SOL    HW2 6225   0.893   4.092   2.286
 1776SOL     OW 6226   4.088   6.215   4.130
 1776SOL    HW1 6227   4.004   6.197   4.181
 1776SOL    HW2 6228   4.094   6.313   4.109
 1777SOL     OW 6229   3.873   6.101   7.012
 1777SOL    HW1 6230   3.806   6.027   7.007
 1777SOL    HW2 6231   3.874   6.138   0.081
 1778SOL     OW 6232   4.471   3.345   5.641
 1778SOL    HW1 6233   4.440   3.296   5.723
 1778SOL    HW2 6234   4.468   3.282   5.562
 1779SOL     OW 6235   3.729   0.676   5.097
 1779SOL    HW1 6236   3.757   0.583   5.072
 1779SOL    HW2 6237   3.797   0.716   5.157
 1780SOL     OW 6238   3.487   3.086   6.102
 1780SOL    HW1 6239   3.537   3.052   6.182
 1780SOL    HW2 6240   3.514   3.033   6.022
 1781SOL     OW 6241   4.177   6.640   3.115
 1781SOL    HW1 6242   4.209   6.734   3.126
 1781SOL    HW2 6243   4.143   6.626   3.022
 1782SOL     OW 6244   3.005   1.596   2.820
 1782SOL    HW1 6245   2.953   1.523   2.863
 1782SOL    HW2 6246   2.945   1.674   2.803
 1783SOL     OW 6247   2.751   5.016   6.004
 1783SOL    HW1 6248   2.776   5.081   6.076
 1783SOL    HW2 6249   2.659   5.038   5.970
 1784SOL     OW 6250   3.838   0.825   5.780
 1784SOL    HW1 6251   3.742   0.817   5.752
 1784SOL    HW2 6252   3.893   0.856   5.702
 1785SOL     OW 6253   6.533   4.245   2.812
 1785SOL    HW1 6254   6.557   4.340   2.789
 1785SOL    HW2 6255   6.617   4.191   2.819
 1786SOL     OW 6256   2.310   2.616   0.130
 1786SOL    HW1 6257   2.311   2.595   0.228
 1786SOL    HW2 6258   2.297   2.715   0.117
 1787SOL     OW 6259   3.225   1.461   5.372
 1787SOL    HW1 6260   3.263   1.529   5.310
 1787SOL    HW2 6261   3.293   1.437   5.441
 1788SOL     OW 6262   2.135   4.555   6.233
 1788SOL    HW1 6263   2.036   4.547   6.223
 1788SOL    HW2 6264   2.169   4.485   6.295
 1789SOL     OW 6265   5.423   2.301   1.020
 1789SOL    HW1 6266   5.457   2.208   1.033
 1789SOL    HW2 6267   5.415   2.321   0.922
 1790SOL     OW 6268   4.022   6.483   3.313
 1790SOL    HW1 6269   4.070   6.533   3.240
 1790SOL    HW2 6270   4.088   6.431   3.367
 1791SOL     OW 6271   6.576   0.650   2.307
 1791SOL    HW1 6272   6.614   0.726   2.360
 1791SOL    HW2 6273   6.642   0.622   2.237
 1792SOL     OW 6274   7.013   3.889   4.941
 1792SOL    HW1 6275   6.967   3.955   4.882
 1792SOL    HW2 6276   0.081   3.921   4.962
 1793SOL     OW 6277   6.266   0.237   3.891
 1793SOL    HW1 6278   6.314   0.149   3.891
 1793SOL    HW2 6279   6.318   0.302   3.835
 1794SOL     OW 6280   5.300   6.049   5.825
 1794SOL    HW1 6281   5.204   6.049   5.797
 1794SOL    HW2 6282   5.332   6.143   5.836
 1795SOL     OW 6283   0.675   2.732   0.974
 1795SOL    HW1 6284   0.597   2.713   0.914
 1795SOL    HW2 6285   0.661   2.687   1.063
 1796SOL     OW 6286   2.969   1.072   5.919
 1796SOL    HW1 6287   3.015   1.143   5.972
 1796SOL    HW2 6288   2.951   0.993   5.978
 1797SOL     OW 6289   1.117   0.249   0.325
 1797SOL    HW1 6290   1.122   0.339   0.368
 1797SOL    HW2 6291   1.132   0.178   0.394
 1798SOL     OW 6292   4.432   2.438   4.287
 1798SOL    HW1 6293   4.332   2.431   4.280
 1798SOL    HW2 6294   4.473   2.348   4.275
 1799SOL     OW 6295   0.004   3.030   4.547
 1799SOL    HW1 6296   0.042   3.116   4.513
 1799SOL    HW2 6297   6.932   3.043   4.571
 1800SOL     OW 6298   4.425   4.388   1.407
 1800SOL    HW1 6299   4.336   4.358   1.441
 1800SOL    HW2 6300   4.495   4.375   1.477
 1801SOL     OW 6301   0.240   1.275   2.021
 1801SOL    HW1 6302   0.206   1.229   1.939
 1801SOL    HW2 6303   0.172   1.267   2.095
 1802SOL     OW 6304   5.812   6.232   4.142
 1802SOL    HW1 6305   5.721   6.191   4.139
 1802SOL    HW2 6306   5.845   6.248   4.049
 1803SOL     OW 6307   0.774   5.113   6.497
 1803SOL    HW1 6308   0.756   5.015   6.499
 1803SOL    HW2 6309   0.871   5.128   6.478
 1804SOL     OW 6310   2.572   4.109   5.330
 1804SOL    HW1 6311   2.533   4.108   5.422
 1804SOL    HW2 6312   2.519   4.049   5.270
 1805SOL     OW 6313   4.807   3.652   6.441
 1805SOL    HW1 6314   4.804   3.720   6.368
 1805SOL    HW2 6315   4.768   3.691   6.524
 1806SOL     OW 6316   0.489   0.275   0.149
 1806SOL    HW1 6317   0.552   0.230   0.086
 1806SOL    HW2 6318   0.442   0.349   0.102
 1807SOL     OW 6319   5.495   2.546   4.828
 1807SOL    HW1 6320   5.491   2.470   4.894
 1807SOL    HW2 6321   5.527   2.511   4.739
 1808SOL     OW 6322   6.922   4.906   5.630
 1808SOL    HW1 6323   6.935   4.995   5.586
 1808SOL    HW2 6324   6.830   4.902   5.669
 1809SOL     OW 6325   2.619   2.060   5.625
 1809SOL    HW1 6326   2.576   2.084   5.712
 1809SOL    HW2 6327   2.688   2.129   5.602
 1810SOL     OW 6328   3.072   0.153   3.715
 1810SOL    HW1 6329   3.170   0.158   3.700
 1810SOL    HW2 6330   3.051   0.079   3.779
 1811SOL     OW 6331   5.922   5.748   3.758
 1811SOL    HW1 6332   5.954   5.836   3.721
 1811SOL    HW2 6333   5.916   5.754   3.857
 1812SOL     OW 6334   4.058   5.900   5.196
 1812SOL    HW1 6335   4.111   5.886   5.113
 1812SOL    HW2 6336   3.962   5.917   5.172
 1813SOL     OW 6337   5.433   4.144   0.591
 1813SOL    HW1 6338   5.503   4.205   0.554
 1813SOL    HW2 6339   5.432   4.058   0.540
 1814SOL     OW 6340   4.612   6.884   1.542
 1814SOL    HW1 6341   4.630   6.891   1.641
 1814SOL    HW2 6342   4.693   6.914   1.492
 1815SOL     OW 6343   0.186   1.489   2.420
 1815SOL    HW1 6344   0.155   1.562   2.481
 1815SOL    HW2 6345   0.234   1.530   2.342
 1816SOL     OW 6346   2.859   3.339   1.216
 1816SOL    HW1 6347   2.803   3.373   1.141
 1816SOL    HW2 6348   2.833   3.244   1.237
 1817SOL     OW 6349   1.574   6.434   2.303
 1817SOL    HW1 6350   1.628   6.499   2.250
 1817SOL    HW2 6351   1.576   6.460   2.400
 1818SOL     OW 6352   1.119   0.249   3.458
 1818SOL    HW1 6353   1.056   0.199   3.517
 1818SOL    HW2 6354   1.072   0.274   3.373
 1819SOL     OW 6355   1.244   4.388   2.093
 1819SOL    HW1 6356   1.230   4.401   2.191
 1819SOL    HW2 6357   1.326   4.334   2.078
 1820SOL     OW 6358   4.708   1.232   2.356
 1820SOL    HW1 6359   4.775   1.298   2.390
 1820SOL    HW2 6360   4.616   1.269   2.369
 1821SOL     OW 6361   1.767   1.190   2.967
 1821SOL    HW1 6362   1.718   1.156   2.887
 1821SOL    HW2 6363   1.847   1.133   2.984
 1822SOL     OW 6364   3.303   2.565   1.592
 1822SOL    HW1 6365   3.210   2.558   1.627
 1822SOL    HW2 6366   3.362   2.502   1.642
 1823SOL     OW 6367   3.760   6.441   2.502
 1823SOL    HW1 6368   3.692   6.424   2.431
 1823SOL    HW2 6369   3.749   6.534   2.538
 1824SOL     OW 6370   4.262   2.585   1.398
 1824SOL    HW1 6371   4.290   2.680   1.399
 1824SOL    HW2 6372   4.280   2.545   1.308
 1825SOL     OW 6373   1.401   0.175   1.648
 1825SOL    HW1 6374   1.385   0.271   1.673
 1825SOL    HW2 6375   1.365   0.159   1.556
 1826SOL     OW 6376   3.070   1.602   1.572
 1826SOL    HW1 6377   3.169   1.596   1.561
 1826SOL    HW2 6378   3.038   1.691   1.540
 1827SOL     OW 6379   6.728   4.841   1.900
 1827SOL    HW1 6380   6.810   4.796   1.935
 1827SOL    HW2 6381   6.739   4.940   1.904
 1828SOL     OW 6382   0.807   2.915   0.209
 1828SOL    HW1 6383   0.825   2.981   0.283
 1828SOL    HW2 6384   0.867   2.836   0.220
 1829SOL     OW 6385   5.136   6.318   3.375
 1829SOL    HW1 6386   5.123   6.257   3.297
 1829SOL    HW2 6387   5.163   6.264   3.455
 1830SOL     OW 6388   4.640   0.149   3.917
 1830SOL    HW1 6389   4.561   0.116   3.866
 1830SOL    HW2 6390   4.719   0.091   3.898
 1831SOL     OW 6391   6.255   6.873   2.581
 1831SOL    HW1 6392   6.205   6.791   2.555
 1831SOL    HW2 6393   6.318   6.851   2.656
 1832SOL     OW 6394   4.434   2.542   1.567
 1832SOL    HW1 6395   4.355   2.565   1.510
 1832SOL    HW2 6396   4.408   2.472   1.633
 1833SOL     OW 6397   4.955   0.315   4.838
 1833SOL    HW1 6398   4.963   0.374   4.758
 1833SOL    HW2 6399   4.945   0.220   4.808
 1834SOL     OW 6400   3.021   3.792   0.988
 1834SOL    HW1 6401   3.096   3.744   1.032
 1834SOL    HW2 6402   3.047   3.887   0.971
 1835SOL     OW 6403   1.906   4.198   1.485
 1835SOL    HW1 6404   1.872   4.106   1.506
 1835SOL    HW2 6405   1.889   4.258   1.563
 1836SOL     OW 6406   0.136   1.630   0.642
 1836SOL    HW1 6407   0.093   1.589   0.722
 1836SOL    HW2 6408   0.069   1.638   0.568
 1837SOL     OW 6409   1.030   2.132   4.194
 1837SOL    HW1 6410   1.013   2.081   4.110
 1837SOL    HW2 6411   1.078   2.217   4.172
 1838SOL     OW 6412   0.041   2.314   3.938
 1838SOL    HW1 6413   0.113   2.269   3.992
 1838SOL    HW2 6414   6.975   2.294   3.979
 1839SOL     OW 6415   5.785   2.875   4.857
 1839SOL    HW1 6416   5.699   2.874   4.908
 1839SOL    HW2 6417   5.818   2.781   4.845
 1840SOL     OW 6418   2.480   6.044   1.269
 1840SOL    HW1 6419   2.448   6.016   1.360
 1840SOL    HW2 6420   2.530   5.968   1.226
 1841SOL     OW 6421   2.075   3.588   4.036
 1841SOL    HW1 6422   2.125   3.642   3.968
 1841SOL    HW2 6423   2.096   3.621   4.128
 1842SOL     OW 6424   0.284   4.930   0.791
 1842SOL    HW1 6425   0.304   5.027   0.776
 1842SOL    HW2 6426   0.274   4.913   0.889
 1843SOL     OW 6427   1.851   2.121   5.280
 1843SOL    HW1 6428   1.768   2.147   5.329
 1843SOL    HW2 6429   1.919   2.087   5.345
 1844SOL     OW 6430   4.028   2.133   5.091
 1844SOL    HW1 6431   4.051   2.037   5.105
 1844SOL    HW2 6432   4.018   2.178   5.179
 1845SOL     OW 6433   3.047   6.993   6.533
 1845SOL    HW1 6434   3.064   6.972   6.629
 1845SOL    HW2 6435   3.095   6.927   6.475
 1846SOL     OW 6436   3.976   2.024   0.025
 1846SOL    HW1 6437   3.942   1.999   6.958
 1846SOL    HW2 6438   4.031   1.949   0.061
 1847SOL     OW 6439   0.837   0.101   0.362
 1847SOL    HW1 6440   0.930   0.080   0.393
 1847SOL    HW2 6441   0.795   0.168   0.424
 1848SOL     OW 6442   2.834   5.901   2.599
 1848SOL    HW1 6443   2.766   5.888   2.528
 1848SOL    HW2 6444   2.917   5.849   2.576
 1849SOL     OW 6445   3.941   0.600   0.143
 1849SOL    HW1 6446   3.960   0.517   0.196
 1849SOL    HW2 6447   4.010   0.610   0.071
 1850SOL     OW 6448   6.184   1.807   2.968
 1850SOL    HW1 6449   6.182   1.708   2.980
 1850SOL    HW2 6450   6.225   1.829   2.880
 1851SOL     OW 6451   7.020   1.521   1.669
 1851SOL    HW1 6452   7.012   1.480   1.578
 1851SOL    HW2 6453   7.018   1.621   1.661
 1852SOL     OW 6454   4.034   3.668   0.186
 1852SOL    HW1 6455   3.978   3.629   0.112
 1852SOL    HW2 6456   4.103   3.729   0.147
 1853SOL     OW 6457   0.962   3.959   1.412
 1853SOL    HW1 6458   0.916   3.885   1.460
 1853SOL    HW2 6459   0.936   3.957   1.315
 1854SOL     OW 6460   2.949   5.961   4.005
 1854SOL    HW1 6461   2.957   6.041   4.065
 1854SOL    HW2 6462   3.036   5.912   4.004
 1855SOL     OW 6463   4.971   5.498   0.557
 1855SOL    HW1 6464   4.940   5.484   0.463
 1855SOL    HW2 6465   4.897   5.476   0.620
 1856SOL     OW 6466   5.383   2.468   5.599
 1856SOL    HW1 6467   5.372   2.418   5.513
 1856SOL    HW2 6468   5.307   2.532   5.610
 1857SOL     OW 6469   4.335   1.009   4.494
 1857SOL    HW1 6470   4.360   0.915   4.469
 1857SOL    HW2 6471   4.252   1.036   4.445
 1858SOL     OW 6472   5.487   3.593   4.120
 1858SOL    HW1 6473   5.465   3.519   4.056
 1858SOL    HW2 6474   5.502   3.555   4.211
 1859SOL     OW 6475   4.201   2.330   3.665
 1859SOL    HW1 6476   4.191   2.311   3.763
 1859SOL    HW2 6477   4.169   2.251   3.612
 1860SOL     OW 6478   6.419   1.355   4.008
 1860SOL    HW1 6479   6.507   1.317   3.979
 1860SOL    HW2 6480   6.350   1.282   4.007
 1861SOL     OW 6481   4.866   6.260   2.502
 1861SOL    HW1 6482   4.901   6.258   2.596
 1861SOL    HW2 6483   4.842   6.167   2.474
 1862SOL     OW 6484   1.804   0.718   7.006
 1862SOL    HW1 6485   1.820   0.797   0.041
 1862SOL    HW2 6486   1.738   0.657   0.026
 1863SOL     OW 6487   2.900   2.237   0.848
 1863SOL    HW1 6488   2.947   2.164   0.798
 1863SOL    HW2 6489   2.882   2.313   0.786
 1864SOL     OW 6490   0.577   6.725   4.934
 1864SOL    HW1 6491   0.614   6.771   4.853
 1864SOL    HW2 6492   0.503   6.664   4.907
 1865SOL     OW 6493   3.704   1.628   5.583
 1865SOL    HW1 6494   3.750   1.691   5.521
 1865SOL    HW2 6495   3.605   1.638   5.574
 1866SOL     OW 6496   4.429   4.508   1.820
 1866SOL    HW1 6497   4.418   4.416   1.856
 1866SOL    HW2 6498   4.494   4.507   1.744
 1867SOL     OW 6499   0.328   3.867   0.343
 1867SOL    HW1 6500   0.286   3.946   0.389
 1867SOL    HW2 6501   0.262   3.824   0.283
 1868SOL     OW 6502   5.678   4.372   6.679
 1868SOL    HW1 6503   5.608   4.402   6.615
 1868SOL    HW2 6504   5.686   4.439   6.753
 1869SOL     OW 6505   6.718   2.106   5.255
 1869SOL    HW1 6506   6.691   2.010   5.267
 1869SOL    HW2 6507   6.797   2.126   5.312
 1870SOL     OW 6508   1.957   4.560   5.650
 1870SOL    HW1 6509   2.032   4.618   5.683
 1870SOL    HW2 6510   1.870   4.598   5.681
 1871SOL     OW 6511   2.477   0.102   0.752
 1871SOL    HW1 6512   2.414   0.178   0.767
 1871SOL    HW2 6513   2.557   0.112   0.811
 1872SOL     OW 6514   2.933   4.467   0.059
 1872SOL    HW1 6515   2.951   4.564   0.043
 1872SOL    HW2 6516   2.835   4.453   0.073
 1873SOL     OW 6517   4.002   1.010   5.565
 1873SOL    HW1 6518   4.068   1.085   5.568
 1873SOL    HW2 6519   4.027   0.945   5.493
 1874SOL     OW 6520   2.104   2.063   1.934
 1874SOL    HW1 6521   2.085   2.020   1.845
 1874SOL    HW2 6522   2.027   2.046   1.996
 1875SOL     OW 6523   0.830   0.298   6.351
 1875SOL    HW1 6524   0.917   0.256   6.327
 1875SOL    HW2 6525   0.782   0.241   6.418
 1876SOL     OW 6526   2.897   6.820   4.782
 1876SOL    HW1 6527   2.986   6.797   4.742
 1876SOL    HW2 6528   2.908   6.894   4.848
 1877SOL     OW 6529   0.577   0.097   3.939
 1877SOL    HW1 6530   0.644   0.162   3.904
 1877SOL    HW2 6531   0.618   0.006   3.941
 1878SOL     OW 6532   0.053   1.832   4.096
 1878SOL    HW1 6533   7.015   1.767   4.053
 1878SOL    HW2 6534   0.096   1.790   4.176
 1879SOL     OW 6535   1.352   3.242   4.522
 1879SOL    HW1 6536   1.367   3.340   4.539
 1879SOL    HW2 6537   1.256   3.227   4.500
 1880SOL     OW 6538   6.688   1.534   5.062
 1880SOL    HW1 6539   6.753   1.605   5.091
 1880SOL    HW2 6540   6.725   1.485   4.983
 1881SOL     OW 6541   6.389   1.716   1.149
 1881SOL    HW1 6542   6.347   1.773   1.219
 1881SOL    HW2 6543   6.479   1.751   1.126
 1882SOL     OW 6544   1.496   3.751   6.282
 1882SOL    HW1 6545   1.419   3.694   6.254
 1882SOL    HW2 6546   1.530   3.803   6.203
 1883SOL     OW 6547   6.368   2.270   2.563
 1883SOL    HW1 6548   6.466   2.288   2.567
 1883SOL    HW2 6549   6.328   2.277   2.654
 1884SOL     OW 6550   1.079   1.589   0.885
 1884SOL    HW1 6551   1.177   1.580   0.898
 1884SOL    HW2 6552   1.058   1.678   0.844
 1885SOL     OW 6553   1.699   1.578   5.606
 1885SOL    HW1 6554   1.657   1.615   5.523
 1885SOL    HW2 6555   1.792   1.615   5.617
 1886SOL     OW 6556   2.190   0.038   2.475
 1886SOL    HW1 6557   2.170   0.049   2.377
 1886SOL    HW2 6558   2.129   6.992   2.513
 1887SOL     OW 6559   1.204   5.498   6.181
 1887SOL    HW1 6560   1.163   5.549   6.106
 1887SOL    HW2 6561   1.154   5.517   6.265
 1888SOL     OW 6562   3.372   2.319   0.308
 1888SOL    HW1 6563   3.283   2.295   0.348
 1888SOL    HW2 6564   3.380   2.278   0.218
 1889SOL     OW 6565   0.950   3.498   4.409
 1889SOL    HW1 6566   0.999   3.411   4.405
 1889SOL    HW2 6567   0.868   3.488   4.466
 1890SOL     OW 6568   0.494   5.655   4.274
 1890SOL    HW1 6569   0.515   5.710   4.355
 1890SOL    HW2 6570   0.540   5.566   4.281
 1891SOL     OW 6571   3.847   3.034   1.925
 1891SOL    HW1 6572   3.768   2.992   1.880
 1891SOL    HW2 6573   3.820   3.070   2.014
 1892SOL     OW 6574   7.019   0.467   1.776
 1892SOL    HW1 6575   6.953   0.429   1.711
 1892SOL    HW2 6576   7.021   0.410   1.858
 1893SOL     OW 6577   3.635   3.065   2.608
 1893SOL    HW1 6578   3.665   2.974   2.582
 1893SOL    HW2 6579   3.589   3.062   2.696
 1894SOL     OW 6580   3.498   3.664   4.361
 1894SOL    HW1 6581   3.506   3.744   4.302
 1894SOL    HW2 6582   3.416   3.674   4.419
 1895SOL     OW 6583   4.280   0.382   1.169
 1895SOL    HW1 6584   4.236   0.360   1.256
 1895SOL    HW2 6585   4.321   0.473   1.175
 1896SOL     OW 6586   6.143   1.760   0.795
 1896SOL    HW1 6587   6.139   1.835   0.860
 1896SOL    HW2 6588   6.124   1.674   0.842
 1897SOL     OW 6589   1.281   5.237   2.268
 1897SOL    HW1 6590   1.347   5.272   2.202
 1897SOL    HW2 6591   1.250   5.311   2.328
 1898SOL     OW 6592   1.867   5.188   3.150
 1898SOL    HW1 6593   1.862   5.128   3.070
 1898SOL    HW2 6594   1.943   5.251   3.139
 1899SOL     OW 6595   0.694   0.693   1.633
 1899SOL    HW1 6596   0.602   0.690   1.672
 1899SOL    HW2 6597   0.738   0.779   1.658
 1900SOL     OW 6598   2.785   0.008   0.019
 1900SOL    HW1 6599   2.871   0.050   7.015
 1900SOL    HW2 6600   2.770   6.948   6.990
 1901SOL     OW 6601   2.221   3.177   1.255
 1901SOL    HW1 6602   2.231   3.226   1.168
 1901SOL    HW2 6603   2.273   3.092   1.252
 1902SOL     OW 6604   2.688   0.252   4.665
 1902SOL    HW1 6605   2.627   0.284   4.737
 1902SOL    HW2 6606   2.658   0.162   4.632
 1903SOL     OW 6607   0.590   2.852   3.861
 1903SOL    HW1 6608   0.550   2.929   3.911
 1903SOL    HW2 6609   0.594   2.772   3.921
 1904SOL     OW 6610   5.841   5.132   2.845
 1904SOL    HW1 6611   5.812   5.043   2.808
 1904SOL    HW2 6612   5.940   5.132   2.859
 1905SOL     OW 6613   0.922   0.561   3.550
 1905SOL    HW1 6614   0.856   0.535   3.480
 1905SOL    HW2 6615   1.012   0.572   3.508
 1906SOL     OW 6616   2.625   0.631   5.714
 1906SOL    HW1 6617   2.535   0.592   5.696
 1906SOL    HW2 6618   2.685   0.561   5.751
 1907SOL     OW 6619   5.064   2.298   0.921
 1907SOL    HW1 6620   4.969   2.328   0.907
 1907SOL    HW2 6621   5.119   2.376   0.950
 1908SOL     OW 6622   3.784   6.999   6.971
 1908SOL    HW1 6623   3.685   6.996   6.955
 1908SOL    HW2 6624   3.817   0.069   6.961
 1909SOL     OW 6625   6.965   3.656   4.457
 1909SOL    HW1 6626   6.952   3.732   4.521
 1909SOL    HW2 6627   0.034   3.620   4.466
 1910SOL     OW 6628   6.631   5.537   5.846
 1910SOL    HW1 6629   6.579   5.557   5.929
 1910SOL    HW2 6630   6.618   5.442   5.821
 1911SOL     OW 6631   0.031   4.619   4.232
 1911SOL    HW1 6632   0.056   4.523   4.223
 1911SOL    HW2 6633   0.114   4.674   4.241
 1912SOL     OW 6634   2.723   4.799   2.483
 1912SOL    HW1 6635   2.643   4.857   2.467
 1912SOL    HW2 6636   2.778   4.793   2.400
 1913SOL     OW 6637   2.090   5.373   4.898
 1913SOL    HW1 6638   2.028   5.315   4.844
 1913SOL    HW2 6639   2.177   5.381   4.850
 1914SOL     OW 6640   2.977   4.052   5.843
 1914SOL    HW1 6641   2.915   4.088   5.774
 1914SOL    HW2 6642   3.001   4.125   5.907
 1915SOL     OW 6643   4.401   2.934   6.145
 1915SOL    HW1 6644   4.306   2.948   6.173
 1915SOL    HW2 6645   4.457   3.012   6.174
 1916SOL     OW 6646   3.784   0.190   1.516
 1916SOL    HW1 6647   3.740   0.232   1.595
 1916SOL    HW2 6648   3.862   0.136   1.546
 1917SOL     OW 6649   2.490   4.927   0.684
 1917SOL    HW1 6650   2.556   4.996   0.712
 1917SOL    HW2 6651   2.529   4.870   0.612
 1918SOL     OW 6652   0.821   0.832   4.690
 1918SOL    HW1 6653   0.913   0.862   4.717
 1918SOL    HW2 6654   0.800   0.746   4.736
 1919SOL     OW 6655   1.502   2.386   1.515
 1919SOL    HW1 6656   1.411   2.345   1.505
 1919SOL    HW2 6657   1.544   2.394   1.424
 1920SOL     OW 6658   5.367   2.535   2.010
 1920SOL    HW1 6659   5.282   2.487   2.029
 1920SOL    HW2 6660   5.440   2.468   1.991
 1921SOL     OW 6661   1.409   2.581   0.229
 1921SOL    HW1 6662   1.507   2.589   0.245
 1921SOL    HW2 6663   1.368   2.673   0.227
 1922SOL     OW 6664   3.438   3.119   2.134
 1922SOL    HW1 6665   3.417   3.216   2.145
 1922SOL    HW2 6666   3.408   3.069   2.216
 1923SOL     OW 6667   4.766   0.274   6.273
 1923SOL    HW1 6668   4.812   0.200   6.224
 1923SOL    HW2 6669   4.769   0.357   6.217
 1924SOL     OW 6670   4.633   0.219   1.178
 1924SOL    HW1 6671   4.575   0.139   1.192
 1924SOL    HW2 6672   4.634   0.243   1.081
 1925SOL     OW 6673   1.264   4.453   1.171
 1925SOL    HW1 6674   1.206   4.408   1.239
 1925SOL    HW2 6675   1.305   4.384   1.111
 1926SOL     OW 6676   3.916   0.623   1.773
 1926SOL    HW1 6677   3.979   0.676   1.830
 1926SOL    HW2 6678   3.897   0.672   1.688
 1927SOL     OW 6679   2.391   4.589   1.449
 1927SOL    HW1 6680   2.320   4.636   1.397
 1927SOL    HW2 6681   2.352   4.509   1.494
 1928SOL     OW 6682   4.576   4.369   4.125
 1928SOL    HW1 6683   4.620   4.411   4.204
 1928SOL    HW2 6684   4.646   4.329   4.065
 1929SOL     OW 6685   2.939   1.166   2.754
 1929SOL    HW1 6686   3.019   1.187   2.810
 1929SOL    HW2 6687   2.941   1.069   2.727
 1930SOL     OW 6688   4.703   3.194   6.592
 1930SOL    HW1 6689   4.771   3.264   6.570
 1930SOL    HW2 6690   4.635   3.232   6.655
 1931SOL     OW 6691   0.975   1.637   5.797
 1931SOL    HW1 6692   0.975   1.558   5.858
 1931SOL    HW2 6693   0.896   1.695   5.818
 1932SOL     OW 6694   4.351   2.145   3.437
 1932SOL    HW1 6695   4.358   2.245   3.432
 1932SOL    HW2 6696   4.367   2.106   3.347
 1933SOL     OW 6697   0.327   1.934   0.182
 1933SOL    HW1 6698   0.365   1.857   0.132
 1933SOL    HW2 6699   0.392   1.965   0.251
 1934SOL     OW 6700   6.946   0.588   4.990
 1934SOL    HW1 6701   6.904   0.555   4.905
 1934SOL    HW2 6702   6.921   0.528   5.066
 1935SOL     OW 6703   5.429   5.002   3.614
 1935SOL    HW1 6704   5.396   4.914   3.650
 1935SOL    HW2 6705   5.352   5.053   3.576
 1936SOL     OW 6706   5.492   3.244   4.575
 1936SOL    HW1 6707   5.401   3.246   4.616
 1936SOL    HW2 6708   5.560   3.276   4.642
 1937SOL     OW 6709   4.933   5.299   6.527
 1937SOL    HW1 6710   4.846   5.289   6.575
 1937SOL    HW2 6711   4.976   5.385   6.554
 1938SOL     OW 6712   0.814   2.372   6.785
 1938SOL    HW1 6713   0.825   2.456   6.731
 1938SOL    HW2 6714   0.750   2.389   6.859
 1939SOL     OW 6715   0.942   5.606   5.215
 1939SOL    HW1 6716   0.926   5.701   5.190
 1939SOL    HW2 6717   1.037   5.582   5.193
 1940SOL     OW 6718   5.968   4.834   1.514
 1940SOL    HW1 6719   6.048   4.887   1.543
 1940SOL    HW2 6720   5.933   4.780   1.591
 1941SOL     OW 6721   0.605   2.881   4.271
 1941SOL    HW1 6722   0.542   2.929   4.210
 1941SOL    HW2 6723   0.615   2.786   4.241
 1942SOL     OW 6724   5.289   3.148   2.593
 1942SOL    HW1 6725   5.198   3.109   2.587
 1942SOL    HW2 6726   5.292   3.234   2.542
 1943SOL     OW 6727   1.456   1.419   2.179
 1943SOL    HW1 6728   1.361   1.441   2.204
 1943SOL    HW2 6729   1.518   1.457   2.248
 1944SOL     OW 6730   0.163   2.934   0.907
 1944SOL    HW1 6731   0.161   2.883   0.822
 1944SOL    HW2 6732   0.180   2.872   0.983
 1945SOL     OW 6733   4.237   6.861   1.017
 1945SOL    HW1 6734   4.325   6.815   1.004
 1945SOL    HW2 6735   4.202   6.891   0.928
 1946SOL     OW 6736   6.642   6.275   1.311
 1946SOL    HW1 6737   6.607   6.260   1.404
 1946SOL    HW2 6738   6.740   6.256   1.309
 1947SOL     OW 6739   5.740   3.980   2.958
 1947SOL    HW1 6740   5.805   4.052   2.982
 1947SOL    HW2 6741   5.750   3.957   2.861
 1948SOL     OW 6742   5.732   3.416   3.148
 1948SOL    HW1 6743   5.680   3.371   3.075
 1948SOL    HW2 6744   5.824   3.437   3.116
 1949SOL     OW 6745   3.558   5.109   0.418
 1949SOL    HW1 6746   3.515   5.165   0.348
 1949SOL    HW2 6747   3.646   5.148   0.444
 1950SOL     OW 6748   3.542   4.173   4.203
 1950SOL    HW1 6749   3.607   4.148   4.132
 1950SOL    HW2 6750   3.575   4.255   4.251
 1951SOL     OW 6751   6.344   5.138   5.442
 1951SOL    HW1 6752   6.391   5.208   5.496
 1951SOL    HW2 6753   6.262   5.107   5.490
 1952SOL     OW 6754   5.223   4.117   0.077
 1952SOL    HW1 6755   5.290   4.189   0.097
 1952SOL    HW2 6756   5.261   4.055   0.008
 1953SOL     OW 6757   0.737   1.369   6.318
 1953SOL    HW1 6758   0.684   1.417   6.249
 1953SOL    HW2 6759   0.767   1.281   6.281
 1954SOL     OW 6760   3.530   6.912   1.468
 1954SOL    HW1 6761   3.549   6.958   1.555
 1954SOL    HW2 6762   3.551   6.975   1.393
 1955SOL     OW 6763   0.811   1.623   2.018
 1955SOL    HW1 6764   0.804   1.719   1.990
 1955SOL    HW2 6765   0.903   1.590   1.999
 1956SOL     OW 6766   6.342   0.649   1.943
 1956SOL    HW1 6767   6.249   0.636   1.909
 1956SOL    HW2 6768   6.342   0.642   2.043
 1957SOL     OW 6769   5.216   2.476   3.931
 1957SOL    HW1 6770   5.311   2.449   3.945
 1957SOL    HW2 6771   5.168   2.405   3.879
 1958SOL     OW 6772   4.575   1.708   0.757
 1958SOL    HW1 6773   4.569   1.678   0.852
 1958SOL    HW2 6774   4.540   1.636   0.697
 1959SOL     OW 6775   6.967   7.000   3.901
 1959SOL    HW1 6776   0.027   7.015   3.953
 1959SOL    HW2 6777   6.967   6.907   3.864
 1960SOL     OW 6778   5.690   3.274   2.623
 1960SOL    HW1 6779   5.757   3.271   2.698
 1960SOL    HW2 6780   5.607   3.225   2.650
 1961SOL     OW 6781   6.618   4.244   5.346
 1961SOL    HW1 6782   6.650   4.156   5.310
 1961SOL    HW2 6783   6.684   4.315   5.321
 1962SOL     OW 6784   1.047   6.909   2.953
 1962SOL    HW1 6785   1.013   6.991   2.998
 1962SOL    HW2 6786   0.986   6.832   2.972
 1963SOL     OW 6787   0.833   1.872   1.892
 1963SOL    HW1 6788   0.847   1.952   1.949
 1963SOL    HW2 6789   0.918   1.848   1.845
 1964SOL     OW 6790   5.304   4.335   1.830
 1964SOL    HW1 6791   5.234   4.282   1.782
 1964SOL    HW2 6792   5.312   4.302   1.924
 1965SOL     OW 6793   0.438   4.512   4.148
 1965SOL    HW1 6794   0.529   4.481   4.174
 1965SOL    HW2 6795   0.422   4.604   4.183
 1966SOL     OW 6796   1.806   4.573   0.839
 1966SOL    HW1 6797   1.870   4.612   0.906
 1966SOL    HW2 6798   1.760   4.646   0.789
 1967SOL     OW 6799   6.254   2.766   3.365
 1967SOL    HW1 6800   6.301   2.731   3.446
 1967SOL    HW2 6801   6.261   2.865   3.361
 1968SOL     OW 6802   2.206   1.138   5.480
 1968SOL    HW1 6803   2.291   1.139   5.532
 1968SOL    HW2 6804   2.135   1.186   5.533
 1969SOL     OW 6805   2.618   6.407   0.680
 1969SOL    HW1 6806   2.673   6.403   0.596
 1969SOL    HW2 6807   2.648   6.485   0.735
 1970SOL     OW 6808   6.670   5.834   4.984
 1970SOL    HW1 6809   6.651   5.918   4.933
 1970SOL    HW2 6810   6.664   5.755   4.923
 1971SOL     OW 6811   1.761   6.853   5.503
 1971SOL    HW1 6812   1.813   6.890   5.580
 1971SOL    HW2 6813   1.818   6.789   5.451
 1972SOL     OW 6814   5.892   2.756   1.879
 1972SOL    HW1 6815   5.819   2.702   1.920
 1972SOL    HW2 6816   5.980   2.723   1.912
 1973SOL     OW 6817   1.951   4.075   0.836
 1973SOL    HW1 6818   1.960   4.174   0.828
 1973SOL    HW2 6819   2.039   4.032   0.813
 1974SOL     OW 6820   3.548   6.641   5.131
 1974SOL    HW1 6821   3.632   6.591   5.111
 1974SOL    HW2 6822   3.494   6.590   5.198
 1975SOL     OW 6823   1.336   3.159   3.048
 1975SOL    HW1 6824   1.310   3.231   3.113
 1975SOL    HW2 6825   1.433   3.167   3.028
 1976SOL     OW 6826   0.120   0.095   5.650
 1976SOL    HW1 6827   0.096   0.040   5.730
 1976SOL    HW2 6828   0.211   0.135   5.663
 1977SOL     OW 6829   1.921   3.602   6.554
 1977SOL    HW1 6830   1.831   3.617   6.513
 1977SOL    HW2 6831   1.988   3.583   6.482
 1978SOL     OW 6832   2.221   0.324   2.221
 1978SOL    HW1 6833   2.315   0.344   2.245
 1978SOL    HW2 6834   2.219   0.250   2.153
 1979SOL     OW 6835   6.252   5.535   6.407
 1979SOL    HW1 6836   6.342   5.493   6.397
 1979SOL    HW2 6837   6.228   5.539   6.504
 1980SOL     OW 6838   3.046   1.823   1.982
 1980SOL    HW1 6839   3.040   1.918   1.954
 1980SOL    HW2 6840   3.117   1.813   2.052
 1981SOL     OW 6841   4.440   2.492   3.186
 1981SOL    HW1 6842   4.383   2.459   3.261
 1981SOL    HW2 6843   4.497   2.568   3.219
 1982SOL     OW 6844   6.545   2.821   4.137
 1982SOL    HW1 6845   6.644   2.825   4.122
 1982SOL    HW2 6846   6.524   2.843   4.232
 1983SOL     OW 6847   0.042   0.305   1.078
 1983SOL    HW1 6848   0.086   0.279   1.164
 1983SOL    HW2 6849   0.112   0.332   1.012
 1984SOL     OW 6850   5.861   2.876   5.618
 1984SOL    HW1 6851   5.960   2.875   5.601
 1984SOL    HW2 6852   5.834   2.966   5.651
 1985SOL     OW 6853   6.303   4.593   1.898
 1985SOL    HW1 6854   6.305   4.643   1.812
 1985SOL    HW2 6855   6.381   4.620   1.954
 1986SOL     OW 6856   3.316   1.894   0.600
 1986SOL    HW1 6857   3.329   1.912   0.502
 1986SOL    HW2 6858   3.405   1.876   0.643
 1987SOL     OW 6859   1.802   0.051   3.238
 1987SOL    HW1 6860   1.765   0.143   3.237
 1987SOL    HW2 6861   1.860   0.038   3.157
 1988SOL     OW 6862   0.043   1.931   1.464
 1988SOL    HW1 6863   0.062   1.916   1.367
 1988SOL    HW2 6864   0.089   2.015   1.494
 1989SOL     OW 6865   3.144   5.061   4.888
 1989SOL    HW1 6866   3.055   5.016   4.895
 1989SOL    HW2 6867   3.134   5.147   4.837
 1990SOL     OW 6868   3.645   0.648   0.366
 1990SOL    HW1 6869   3.592   0.703   0.301
 1990SOL    HW2 6870   3.656   0.699   0.451
 1991SOL     OW 6871   3.433   5.819   0.255
 1991SOL    HW1 6872   3.431   5.745   0.322
 1991SOL    HW2 6873   3.526   5.834   0.224
 1992SOL     OW 6874   0.418   6.229   0.712
 1992SOL    HW1 6875   0.512   6.237   0.745
 1992SOL    HW2 6876   0.392   6.314   0.666
 1993SOL     OW 6877   2.020   3.409   4.333
 1993SOL    HW1 6878   2.029   3.351   4.252
 1993SOL    HW2 6879   1.960   3.364   4.400
 1994SOL     OW 6880   3.171   3.736   0.471
 1994SOL    HW1 6881   3.121   3.735   0.558
 1994SOL    HW2 6882   3.176   3.643   0.435
 1995SOL     OW 6883   5.355   2.919   4.590
 1995SOL    HW1 6884   5.269   2.954   4.628
 1995SOL    HW2 6885   5.346   2.821   4.573
 1996SOL     OW 6886   3.815   1.421   0.750
 1996SOL    HW1 6887   3.861   1.502   0.786
 1996SOL    HW2 6888   3.751   1.448   0.678
 1997SOL     OW 6889   3.628   1.378   3.413
 1997SOL    HW1 6890   3.594   1.469   3.438
 1997SOL    HW2 6891   3.687   1.343   3.485
 1998SOL     OW 6892   1.314   3.301   1.758
 1998SOL    HW1 6893   1.270   3.351   1.833
 1998SOL    HW2 6894   1.247   3.286   1.685
 1999SOL     OW 6895   1.300   6.635   5.226
 1999SOL    HW1 6896   1.207   6.609   5.253
 1999SOL    HW2 6897   1.310   6.624   5.127
 2000SOL     OW 6898   3.448   3.559   6.411
 2000SOL    HW1 6899   3.469   3.461   6.404
 2000SOL    HW2 6900   3.503   3.609   6.344
 2001SOL     OW 6901   2.296   1.584   6.375
 2001SOL    HW1 6902   2.300   1.511   6.306
 2001SOL    HW2 6903   2.382   1.635   6.375
 2002SOL     OW 6904   6.655   4.916   1.176
 2002SOL    HW1 6905   6.606   4.887   1.259
 2002SOL    HW2 6906   6.738   4.964   1.203
 2003SOL     OW 6907   6.333   5.180   2.280
 2003SOL    HW1 6908   6.347   5.222   2.191
 2003SOL    HW2 6909   6.291   5.247   2.342
 2004SOL     OW 6910   3.284   0.864   3.186
 2004SOL    HW1 6911   3.229   0.886   3.105
 2004SOL    HW2 6912   3.277   0.939   3.252
 2005SOL     OW 6913   1.055   6.272   0.928
 2005SOL    HW1 6914   0.976   6.317   0.888
 2005SOL    HW2 6915   1.121   6.250   0.857
 2006SOL     OW 6916   5.220   6.910   3.139
 2006SOL    HW1 6917   5.127   6.878   3.120
 2006SOL    HW2 6918   5.223   7.010   3.130
 2007SOL     OW 6919   5.323   4.722   0.483
 2007SOL    HW1 6920   5.290   4.703   0.391
 2007SOL    HW2 6921   5.251   4.767   0.536
 2008SOL     OW 6922   2.017   4.028   3.550
 2008SOL    HW1 6923   1.993   4.047   3.455
 2008SOL    HW2 6924   2.073   4.102   3.586
 2009SOL     OW 6925   6.580   6.046   2.055
 2009SOL    HW1 6926   6.678   6.060   2.048
 2009SOL    HW2 6927   6.535   6.086   1.975
 2010SOL     OW 6928   1.718   2.275   1.641
 2010SOL    HW1 6929   1.787   2.346   1.631
 2010SOL    HW2 6930   1.627   2.315   1.630
 2011SOL     OW 6931   0.302   5.743   5.619
 2011SOL    HW1 6932   0.271   5.649   5.608
 2011SOL    HW2 6933   0.251   5.787   5.693
 2012SOL     OW 6934   1.298   3.098   2.710
 2012SOL    HW1 6935   1.208   3.126   2.743
 2012SOL    HW2 6936   1.366   3.115   2.780
 2013SOL     OW 6937   0.555   3.200   3.169
 2013SOL    HW1 6938   0.614   3.199   3.250
 2013SOL    HW2 6939   0.482   3.267   3.182
 2014SOL     OW 6940   3.341   0.506   3.975
 2014SOL    HW1 6941   3.275   0.536   3.906
 2014SOL    HW2 6942   3.355   0.408   3.967
 2015SOL     OW 6943   4.154   0.674   1.987
 2015SOL    HW1 6944   4.224   0.631   2.044
 2015SOL    HW2 6945   4.063   0.642   2.016
 2016SOL     OW 6946   1.818   0.235   5.527
 2016SOL    HW1 6947   1.820   0.298   5.605
 2016SOL    HW2 6948   1.883   0.160   5.544
 2017SOL     OW 6949   3.788   0.149   2.520
 2017SOL    HW1 6950   3.723   0.100   2.578
 2017SOL    HW2 6951   3.863   0.088   2.495
 2018SOL     OW 6952   0.546   1.545   3.105
 2018SOL    HW1 6953   0.562   1.452   3.071
 2018SOL    HW2 6954   0.524   1.605   3.028
 2019SOL     OW 6955   6.178   4.916   6.410
 2019SOL    HW1 6956   6.079   4.900   6.402
 2019SOL    HW2 6957   6.207   4.979   6.338
 2020SOL     OW 6958   1.692   6.516   6.244
 2020SOL    HW1 6959   1.628   6.525   6.320
 2020SOL    HW2 6960   1.749   6.598   6.238
 2021SOL     OW 6961   5.958   6.253   3.607
 2021SOL    HW1 6962   5.965   6.155   3.629
 2021SOL    HW2 6963   5.967   6.266   3.509
 2022SOL     OW 6964   2.239   4.277   5.145
 2022SOL    HW1 6965   2.332   4.311   5.159
 2022SOL    HW2 6966   2.237   4.178   5.158
 2023SOL     OW 6967   0.371   6.834   6.991
 2023SOL    HW1 6968   0.465   6.817   7.019
 2023SOL    HW2 6969   0.321   6.747   6.989
 2024SOL     OW 6970   0.527   5.830   4.707
 2024SOL    HW1 6971   0.561   5.882   4.786
 2024SOL    HW2 6972   0.428   5.817   4.716
 2025SOL     OW 6973   2.595   0.320   4.911
 2025SOL    HW1 6974   2.606   0.420   4.909
 2025SOL    HW2 6975   2.502   0.298   4.939
 2026SOL     OW 6976   6.428   1.148   6.218
 2026SOL    HW1 6977   6.374   1.133   6.135
 2026SOL    HW2 6978   6.518   1.183   6.193
 2027SOL     OW 6979   0.204   6.119   2.489
 2027SOL    HW1 6980   0.121   6.084   2.444
 2027SOL    HW2 6981   0.209   6.218   2.477
 2028SOL     OW 6982   4.256   6.054   3.019
 2028SOL    HW1 6983   4.188   6.101   3.075
 2028SOL    HW2 6984   4.221   6.040   2.927
 2029SOL     OW 6985   6.409   2.802   6.135
 2029SOL    HW1 6986   6.445   2.863   6.065
 2029SOL    HW2 6987   6.315   2.777   6.113
 2030SOL     OW 6988   2.597   6.034   3.156
 2030SOL    HW1 6989   2.681   6.003   3.200
 2030SOL    HW2 6990   2.570   5.968   3.086
 2031SOL     OW 6991   6.175   5.845   3.422
 2031SOL    HW1 6992   6.177   5.752   3.458
 2031SOL    HW2 6993   6.080   5.869   3.399
 2032SOL     OW 6994   3.184   1.755   5.837
 2032SOL    HW1 6995   3.186   1.719   5.930
 2032SOL    HW2 6996   3.119   1.702   5.783
 2033SOL     OW 6997   1.881   1.493   1.222
 2033SOL    HW1 6998   1.926   1.507   1.133
 2033SOL    HW2 6999   1.907   1.404   1.258
 2034SOL     OW 7000   0.083   4.328   5.911
 2034SOL    HW1 7001   0.119   4.340   5.819
 2034SOL    HW2 7002   0.140   4.377   5.977
 2035SOL     OW 7003   5.753   6.874   2.355
 2035SOL    HW1 7004   5.802   6.794   2.388
 2035SOL    HW2 7005   5.700   6.914   2.430
 2036SOL     OW 7006   1.241   3.898   2.187
 2036SOL    HW1 7007   1.313   3.962   2.213
 2036SOL    HW2 7008   1.271   3.842   2.110
 2037SOL     OW 7009   0.336   3.027   6.687
 2037SOL    HW1 7010   0.423   3.002   6.645
 2037SOL    HW2 7011   0.351   3.095   6.759
 2038SOL     OW 7012   2.497   1.172   0.128
 2038SOL    HW1 7013   2.574   1.165   0.191
 2038SOL    HW2 7014   2.521   1.236   0.055
 2039SOL     OW 7015   6.397   6.021   2.277
 2039SOL    HW1 7016   6.343   5.939   2.258
 2039SOL    HW2 7017   6.464   6.035   2.205
 2040SOL     OW 7018   2.183   2.876   0.111
 2040SOL    HW1 7019   2.186   2.959   0.055
 2040SOL    HW2 7020   2.095   2.870   0.158
 2041SOL     OW 7021   1.614   0.591   6.280
 2041SOL    HW1 7022   1.589   0.684   6.255
 2041SOL    HW2 7023   1.536   0.546   6.324
 2042SOL     OW 7024   5.011   1.188   5.338
 2042SOL    HW1 7025   5.070   1.108   5.330
 2042SOL    HW2 7026   4.923   1.170   5.295
 2043SOL     OW 7027   6.126   4.327   0.965
 2043SOL    HW1 7028   6.158   4.233   0.971
 2043SOL    HW2 7029   6.028   4.330   0.988
 2044SOL     OW 7030   4.885   0.429   0.692
 2044SOL    HW1 7031   4.944   0.491   0.641
 2044SOL    HW2 7032   4.829   0.482   0.756
 2045SOL     OW 7033   2.022   6.276   6.428
 2045SOL    HW1 7034   2.062   6.316   6.345
 2045SOL    HW2 7035   2.072   6.193   6.452
 2046SOL     OW 7036   1.343   2.529   4.868
 2046SOL    HW1 7037   1.268   2.467   4.843
 2046SOL    HW2 7038   1.329   2.562   4.961
 2047SOL     OW 7039   0.102   1.154   6.878
 2047SOL    HW1 7040   0.159   1.200   6.946
 2047SOL    HW2 7041   0.008   1.152   6.910
 2048SOL     OW 7042   0.925   1.450   4.560
 2048SOL    HW1 7043   0.857   1.496   4.616
 2048SOL    HW2 7044   0.882   1.421   4.474
 2049SOL     OW 7045   4.850   1.581   4.996
 2049SOL    HW1 7046   4.934   1.616   4.954
 2049SOL    HW2 7047   4.801   1.525   4.929
 2050SOL     OW 7048   0.503   1.024   3.861
 2050SOL    HW1 7049   0.477   0.943   3.913
 2050SOL    HW2 7050   0.453   1.103   3.895
 2051SOL     OW 7051   3.417   6.216   0.750
 2051SOL    HW1 7052   3.414   6.303   0.702
 2051SOL    HW2 7053   3.471   6.225   0.834
 2052SOL     OW 7054   1.833   3.934   6.782
 2052SOL    HW1 7055   1.746   3.887   6.800
 2052SOL    HW2 7056   1.853   3.930   6.684
 2053SOL     OW 7057   0.860   5.162   4.224
 2053SOL    HW1 7058   0.918   5.118   4.156
 2053SOL    HW2 7059   0.854   5.105   4.305
 2054SOL     OW 7060   3.323   3.159   3.738
 2054SOL    HW1 7061   3.263   3.206   3.674
 2054SOL    HW2 7062   3.369   3.083   3.692
 2055SOL     OW 7063   2.478   2.131   5.843
 2055SOL    HW1 7064   2.402   2.189   5.815
 2055SOL    HW2 7065   2.514   2.163   5.931
 2056SOL     OW 7066   4.218   4.826   1.089
 2056SOL    HW1 7067   4.246   4.813   1.184
 2056SOL    HW2 7068   4.141   4.764   1.068
 2057SOL     OW 7069   6.033   2.341   4.035
 2057SOL    HW1 7070   5.935   2.331   4.019
 2057SOL    HW2 7071   6.066   2.424   3.991
 2058SOL     OW 7072   0.616   5.681   3.170
 2058SOL    HW1 7073   0.654   5.774   3.167
 2058SOL    HW2 7074   0.617   5.642   3.078
 2059SOL     OW 7075   1.544   0.246   6.256
 2059SOL    HW1 7076   1.525   0.293   6.170
 2059SOL    HW2 7077   1.641   0.224   6.261
 2060SOL     OW 7078   1.204   3.432   7.001
 2060SOL    HW1 7079   1.147   3.422   6.919
 2060SOL    HW2 7080   1.224   3.342   0.016
 2061SOL     OW 7081   2.006   2.267   2.902
 2061SOL    HW1 7082   2.005   2.248   2.804
 2061SOL    HW2 7083   1.930   2.327   2.925
 2062SOL     OW 7084   6.561   5.019   4.998
 2062SOL    HW1 7085   6.611   4.978   4.921
 2062SOL    HW2 7086   6.464   4.996   4.990
 2063SOL     OW 7087   1.472   0.749   5.178
 2063SOL    HW1 7088   1.500   0.841   5.149
 2063SOL    HW2 7089   1.521   0.724   5.261
 2064SOL     OW 7090   0.361   2.977   3.436
 2064SOL    HW1 7091   0.443   2.922   3.445
 2064SOL    HW2 7092   0.317   2.987   3.525
 2065SOL     OW 7093   4.605   2.924   5.650
 2065SOL    HW1 7094   4.665   3.002   5.668
 2065SOL    HW2 7095   4.560   2.896   5.735
 2066SOL     OW 7096   6.325   3.028   5.176
 2066SOL    HW1 7097   6.415   3.062   5.202
 2066SOL    HW2 7098   6.312   2.936   5.215
 2067SOL     OW 7099   6.244   4.945   1.262
 2067SOL    HW1 7100   6.175   4.909   1.324
 2067SOL    HW2 7101   6.244   4.892   1.177
 2068SOL     OW 7102   3.931   0.289   4.236
 2068SOL    HW1 7103   3.986   0.354   4.184
 2068SOL    HW2 7104   3.908   0.329   4.325
 2069SOL     OW 7105   6.981   2.276   3.671
 2069SOL    HW1 7106   6.985   2.176   3.671
 2069SOL    HW2 7107   0.008   2.311   3.749
 2070SOL     OW 7108   0.376   4.292   1.239
 2070SOL    HW1 7109   0.443   4.307   1.166
 2070SOL    HW2 7110   0.422   4.298   1.328
 2071SOL     OW 7111   6.918   1.244   5.785
 2071SOL    HW1 7112   7.010   1.255   5.822
 2071SOL    HW2 7113   6.897   1.322   5.725
 2072SOL     OW 7114   4.235   4.533   5.583
 2072SOL    HW1 7115   4.150   4.583   5.604
 2072SOL    HW2 7116   4.235   4.446   5.631
 2073SOL     OW 7117   3.272   6.298   0.152
 2073SOL    HW1 7118   3.251   6.205   0.181
 2073SOL    HW2 7119   3.194   6.357   0.168
 2074SOL     OW 7120   1.023   3.770   5.429
 2074SOL    HW1 7121   1.067   3.702   5.370
 2074SOL    HW2 7122   0.935   3.734   5.461
 2075SOL     OW 7123   6.570   1.899   1.492
 2075SOL    HW1 7124   6.596   1.807   1.521
 2075SOL    HW2 7125   6.553   1.956   1.572
 2076SOL     OW 7126   5.091   6.757   4.841
 2076SOL    HW1 7127   5.095   6.834   4.905
 2076SOL    HW2 7128   5.166   6.694   4.860
 2077SOL     OW 7129   6.642   4.171   0.779
 2077SOL    HW1 7130   6.651   4.137   0.873
 2077SOL    HW2 7131   6.635   4.271   0.781
 2078SOL     OW 7132   0.936   3.208   5.552
 2078SOL    HW1 7133   1.028   3.168   5.556
 2078SOL    HW2 7134   0.885   3.183   5.634
 2079SOL     OW 7135   5.006   2.063   2.355
 2079SOL    HW1 7136   5.010   2.116   2.439
 2079SOL    HW2 7137   4.912   2.032   2.340
 2080SOL     OW 7138   2.374   3.156   5.649
 2080SOL    HW1 7139   2.365   3.253   5.624
 2080SOL    HW2 7140   2.414   3.149   5.741
 2081SOL     OW 7141   6.294   0.214   3.096
 2081SOL    HW1 7142   6.326   0.135   3.043
 2081SOL    HW2 7143   6.296   0.296   3.039
 2082SOL     OW 7144   0.344   6.237   2.983
 2082SOL    HW1 7145   0.247   6.238   2.957
 2082SOL    HW2 7146   0.351   6.240   3.083
 2083SOL     OW 7147   0.243   6.186   4.285
 2083SOL    HW1 7148   0.262   6.266   4.341
 2083SOL    HW2 7149   0.296   6.191   4.200
 2084SOL     OW 7150   0.138   2.109   2.057
 2084SOL    HW1 7151   0.068   2.142   2.120
 2084SOL    HW2 7152   0.118   2.140   1.964
 2085SOL     OW 7153   4.954   5.567   0.925
 2085SOL    HW1 7154   5.028   5.576   0.859
 2085SOL    HW2 7155   4.880   5.512   0.886
 2086SOL     OW 7156   4.177   0.153   0.110
 2086SOL    HW1 7157   4.124   0.187   0.033
 2086SOL    HW2 7158   4.191   0.054   0.100
 2087SOL     OW 7159   4.613   2.503   6.739
 2087SOL    HW1 7160   4.644   2.503   6.644
 2087SOL    HW2 7161   4.539   2.437   6.750
 2088SOL     OW 7162   0.163   5.550   5.268
 2088SOL    HW1 7163   0.210   5.467   5.238
 2088SOL    HW2 7164   0.225   5.628   5.260
 2089SOL     OW 7165   3.095   3.462   7.016
 2089SOL    HW1 7166   3.110   3.506   6.928
 2089SOL    HW2 7167   3.164   3.494   0.058
 2090SOL     OW 7168   4.452   3.485   5.337
 2090SOL    HW1 7169   4.527   3.513   5.277
 2090SOL    HW2 7170   4.459   3.387   5.355
 2091SOL     OW 7171   5.918   5.594   1.710
 2091SOL    HW1 7172   5.958   5.685   1.701
 2091SOL    HW2 7173   5.934   5.542   1.626
 2092SOL     OW 7174   4.644   3.532   1.303
 2092SOL    HW1 7175   4.596   3.444   1.295
 2092SOL    HW2 7176   4.721   3.534   1.239
 2093SOL     OW 7177   3.867   1.801   2.840
 2093SOL    HW1 7178   3.804   1.736   2.797
 2093SOL    HW2 7179   3.962   1.772   2.823
 2094SOL     OW 7180   5.557   2.461   6.509
 2094SOL    HW1 7181   5.509   2.548   6.517
 2094SOL    HW2 7182   5.610   2.459   6.425
 2095SOL     OW 7183   4.932   6.543   3.385
 2095SOL    HW1 7184   5.001   6.477   3.416
 2095SOL    HW2 7185   4.840   6.507   3.406
 2096SOL     OW 7186   5.077   6.713   2.599
 2096SOL    HW1 7187   5.014   6.731   2.523
 2096SOL    HW2 7188   5.061   6.621   2.634
 2097SOL     OW 7189   1.081   4.656   6.508
 2097SOL    HW1 7190   1.129   4.645   6.421
 2097SOL    HW2 7191   1.065   4.753   6.525
 2098SOL     OW 7192   3.525   5.971   3.306
 2098SOL    HW1 7193   3.496   5.992   3.213
 2098SOL    HW2 7194   3.588   6.043   3.338
 2099SOL     OW 7195   5.373   1.010   7.004
 2099SOL    HW1 7196   5.443   1.045   6.942
 2099SOL    HW2 7197   5.356   0.914   6.985
 2100SOL     OW 7198   5.785   0.506   0.855
 2100SOL    HW1 7199   5.844   0.525   0.933
 2100SOL    HW2 7200   5.749   0.592   0.819
 2101SOL     OW 7201   0.204   6.847   1.825
 2101SOL    HW1 7202   0.274   6.906   1.864
 2101SOL    HW2 7203   0.122   6.850   1.882
 2102SOL     OW 7204   3.422   3.325   0.501
 2102SOL    HW1 7205   3.477   3.394   0.548
 2102SOL    HW2 7206   3.466   3.302   0.414
 2103SOL     OW 7207   2.819   6.011   1.026
 2103SOL    HW1 7208   2.870   5.939   1.072
 2103SOL    HW2 7209   2.848   6.016   0.930
 2104SOL     OW 7210   1.204   5.148   2.691
 2104SOL    HW1 7211   1.133   5.100   2.743
 2104SOL    HW2 7212   1.246   5.218   2.748
 2105SOL     OW 7213   5.895   4.126   6.367
 2105SOL    HW1 7214   5.839   4.199   6.329
 2105SOL    HW2 7215   5.896   4.048   6.305
 2106SOL     OW 7216   4.962   3.959   1.459
 2106SOL    HW1 7217   4.953   3.978   1.361
 2106SOL    HW2 7218   5.043   3.903   1.475
 2107SOL     OW 7219   5.453   3.578   5.405
 2107SOL    HW1 7220   5.493   3.610   5.320
 2107SOL    HW2 7221   5.516   3.596   5.481
 2108SOL     OW 7222   5.737   0.719   5.802
 2108SOL    HW1 7223   5.720   0.722   5.703
 2108SOL    HW2 7224   5.651   0.698   5.850
 2109SOL     OW 7225   2.382   6.039   3.482
 2109SOL    HW1 7226   2.415   6.127   3.449
 2109SOL    HW2 7227   2.458   5.990   3.526
 2110SOL     OW 7228   4.212   0.384   6.850
 2110SOL    HW1 7229   4.304   0.352   6.874
 2110SOL    HW2 7230   4.214   0.421   6.757
 2111SOL     OW 7231   1.002   2.364   5.514
 2111SOL    HW1 7232   0.983   2.450   5.467
 2111SOL    HW2 7233   1.100   2.343   5.507
 2112SOL     OW 7234   0.248   1.104   0.132
 2112SOL    HW1 7235   0.331   1.075   0.178
 2112SOL    HW2 7236   0.181   1.029   0.133
 2113SOL     OW 7237   1.209   0.232   4.451
 2113SOL    HW1 7238   1.202   0.311   4.512
 2113SOL    HW2 7239   1.163   0.154   4.493
 2114SOL     OW 7240   1.864   1.974   6.184
 2114SOL    HW1 7241   1.868   1.991   6.283
 2114SOL    HW2 7242   1.935   2.027   6.139
 2115SOL     OW 7243   6.594   5.611   3.118
 2115SOL    HW1 7244   6.596   5.642   3.213
 2115SOL    HW2 7245   6.575   5.513   3.115
 2116SOL     OW 7246   0.272   2.436   0.371
 2116SOL    HW1 7247   0.262   2.480   0.460
 2116SOL    HW2 7248   0.282   2.337   0.383
 2117SOL     OW 7249   6.072   1.306   2.027
 2117SOL    HW1 7250   6.094   1.362   2.106
 2117SOL    HW2 7251   6.114   1.216   2.037
 2118SOL     OW 7252   6.203   2.673   2.397
 2118SOL    HW1 7253   6.199   2.574   2.410
 2118SOL    HW2 7254   6.142   2.700   2.323
 2119SOL     OW 7255   2.970   0.804   6.886
 2119SOL    HW1 7256   2.950   0.829   6.791
 2119SOL    HW2 7257   2.885   0.795   6.937
 2120SOL     OW 7258   5.785   1.589   0.892
 2120SOL    HW1 7259   5.742   1.594   0.801
 2120SOL    HW2 7260   5.736   1.522   0.948
 2121SOL     OW 7261   1.388   0.476   6.638
 2121SOL    HW1 7262   1.480   0.463   6.601
 2121SOL    HW2 7263   1.395   0.522   6.727
 2122SOL     OW 7264   6.011   1.031   4.396
 2122SOL    HW1 7265   6.095   1.086   4.401
 2122SOL    HW2 7266   6.006   0.973   4.477
 2123SOL     OW 7267   1.767   5.694   3.435
 2123SOL    HW1 7268   1.817   5.613   3.405
 2123SOL    HW2 7269   1.819   5.776   3.411
 2124SOL     OW 7270   3.969   3.590   5.840
 2124SOL    HW1 7271   3.889   3.553   5.793
 2124SOL    HW2 7272   4.045   3.598   5.774
 2125SOL     OW 7273   1.358   5.819   3.793
 2125SOL    HW1 7274   1.446   5.862   3.771
 2125SOL    HW2 7275   1.321   5.776   3.710
 2126SOL     OW 7276   3.482   4.478   6.877
 2126SOL    HW1 7277   3.424   4.559   6.869
 2126SOL    HW2 7278   3.446   4.418   6.948
 2127SOL     OW 7279   0.652   2.428   4.546
 2127SOL    HW1 7280   0.553   2.439   4.553
 2127SOL    HW2 7281   0.675   2.384   4.460
 2128SOL     OW 7282   5.277   2.959   1.678
 2128SOL    HW1 7283   5.243   2.919   1.763
 2128SOL    HW2 7284   5.366   3.000   1.693
 2129SOL     OW 7285   5.082   4.438   4.012
 2129SOL    HW1 7286   5.108   4.412   4.105
 2129SOL    HW2 7287   5.161   4.477   3.965
 2130SOL     OW 7288   2.474   0.177   2.829
 2130SOL    HW1 7289   2.554   0.235   2.847
 2130SOL    HW2 7290   2.425   0.213   2.749
 2131SOL     OW 7291   5.771   1.326   5.540
 2131SOL    HW1 7292   5.855   1.280   5.566
 2131SOL    HW2 7293   5.708   1.261   5.498
 2132SOL     OW 7294   2.916   2.441   0.256
 2132SOL    HW1 7295   2.941   2.475   0.166
 2132SOL    HW2 7296   2.932   2.512   0.325
 2133SOL     OW 7297   2.715   2.124   2.023
 2133SOL    HW1 7298   2.802   2.174   2.032
 2133SOL    HW2 7299   2.731   2.038   1.976
 2134SOL     OW 7300   0.879   6.784   4.931
 2134SOL    HW1 7301   0.908   6.812   5.023
 2134SOL    HW2 7302   0.801   6.840   4.903
 2135SOL     OW 7303   0.797   1.191   3.532
 2135SOL    HW1 7304   0.709   1.213   3.490
 2135SOL    HW2 7305   0.843   1.276   3.557
 2136SOL     OW 7306   0.447   4.078   3.242
 2136SOL    HW1 7307   0.393   4.157   3.272
 2136SOL    HW2 7308   0.422   4.053   3.149
 2137SOL     OW 7309   1.429   0.392   5.116
 2137SOL    HW1 7310   1.373   0.329   5.064
 2137SOL    HW2 7311   1.410   0.382   5.214
 2138SOL     OW 7312   0.526   2.836   0.594
 2138SOL    HW1 7313   0.551   2.923   0.637
 2138SOL    HW2 7314   0.506   2.769   0.665
 2139SOL     OW 7315   2.818   1.294   5.740
 2139SOL    HW1 7316   2.890   1.345   5.786
 2139SOL    HW2 7317   2.856   1.210   5.700
 2140SOL     OW 7318   2.436   5.510   2.707
 2140SOL    HW1 7319   2.517   5.566   2.721
 2140SOL    HW2 7320   2.373   5.557   2.645
 2141SOL     OW 7321   5.119   1.891   0.698
 2141SOL    HW1 7322   5.187   1.829   0.737
 2141SOL    HW2 7323   5.027   1.861   0.726
 2142SOL     OW 7324   2.399   2.215   3.182
 2142SOL    HW1 7325   2.359   2.211   3.274
 2142SOL    HW2 7326   2.342   2.273   3.124
 2143SOL     OW 7327   2.922   6.866   1.086
 2143SOL    HW1 7328   3.014   6.889   1.055
 2143SOL    HW2 7329   2.914   6.885   1.184
 2144SOL     OW 7330   0.318   1.257   3.188
 2144SOL    HW1 7331   0.312   1.279   3.090
 2144SOL    HW2 7332   0.414   1.241   3.212
 2145SOL     OW 7333   3.872   5.364   3.134
 2145SOL    HW1 7334   3.971   5.357   3.142
 2145SOL    HW2 7335   3.849   5.426   3.059
 2146SOL     OW 7336   4.116   3.415   2.783
 2146SOL    HW1 7337   4.125   3.420   2.883
 2146SOL    HW2 7338   4.107   3.508   2.746
 2147SOL     OW 7339   1.115   0.487   5.429
 2147SOL    HW1 7340   1.063   0.559   5.383
 2147SOL    HW2 7341   1.056   0.444   5.498
 2148SOL     OW 7342   4.874   3.424   2.795
 2148SOL    HW1 7343   4.809   3.490   2.756
 2148SOL    HW2 7344   4.967   3.449   2.768
 2149SOL     OW 7345   3.609   1.014   2.650
 2149SOL    HW1 7346   3.534   1.075   2.674
 2149SOL    HW2 7347   3.648   0.974   2.733
 2150SOL     OW 7348   3.420   2.062   2.961
 2150SOL    HW1 7349   3.438   1.971   2.924
 2150SOL    HW2 7350   3.502   2.118   2.953
 2151SOL     OW 7351   3.884   2.951   5.747
 2151SOL    HW1 7352   3.856   2.911   5.660
 2151SOL    HW2 7353   3.859   3.047   5.749
 2152SOL     OW 7354   6.078   5.814   1.338
 2152SOL    HW1 7355   6.006   5.747   1.356
 2152SOL    HW2 7356   6.142   5.776   1.271
 2153SOL     OW 7357   4.640   2.690   3.226
 2153SOL    HW1 7358   4.711   2.681   3.156
 2153SOL    HW2 7359   4.655   2.774   3.278
 2154SOL     OW 7360   3.856   6.311   5.311
 2154SOL    HW1 7361   3.894   6.314   5.219
 2154SOL    HW2 7362   3.918   6.260   5.371
 2155SOL     OW 7363   6.754   3.891   0.329
 2155SOL    HW1 7364   6.727   3.966   0.389
 2155SOL    HW2 7365   6.850   3.903   0.302
 2156SOL     OW 7366   2.007   0.460   2.102
 2156SOL    HW1 7367   2.027   0.486   2.008
 2156SOL    HW2 7368   2.086   0.413   2.141
 2157SOL     OW 7369   0.771   1.384   5.001
 2157SOL    HW1 7370   0.744   1.294   4.967
 2157SOL    HW2 7371   0.768   1.450   4.926
 2158SOL     OW 7372   3.225   6.555   1.908
 2158SOL    HW1 7373   3.240   6.463   1.944
 2158SOL    HW2 7374   3.304   6.613   1.931
 2159SOL     OW 7375   1.804   6.320   4.878
 2159SOL    HW1 7376   1.765   6.379   4.948
 2159SOL    HW2 7377   1.865   6.254   4.920
 2160SOL     OW 7378   3.019   4.194   0.833
 2160SOL    HW1 7379   2.961   4.181   0.914
 2160SOL    HW2 7380   3.017   4.290   0.806
 2161SOL     OW 7381   5.193   2.212   3.212
 2161SOL    HW1 7382   5.129   2.148   3.170
 2161SOL    HW2 7383   5.155   2.305   3.208
 2162SOL     OW 7384   1.071   0.622   6.907
 2162SOL    HW1 7385   1.157   0.610   6.956
 2162SOL    HW2 7386   1.009   0.546   6.927
 2163SOL     OW 7387   1.983   1.988   0.638
 2163SOL    HW1 7388   1.906   1.924   0.643
 2163SOL    HW2 7389   1.997   2.031   0.728
 2164SOL     OW 7390   0.994   0.859   0.707
 2164SOL    HW1 7391   1.075   0.869   0.765
 2164SOL    HW2 7392   0.912   0.859   0.763
 2165SOL     OW 7393   2.458   6.935   2.721
 2165SOL    HW1 7394   2.458   6.933   2.621
 2165SOL    HW2 7395   2.482   0.003   2.752
 2166SOL     OW 7396   0.153   2.796   6.797
 2166SOL    HW1 7397   0.125   2.891   6.808
 2166SOL    HW2 7398   0.209   2.787   6.715
 2167SOL     OW 7399   2.951   0.316   2.570
 2167SOL    HW1 7400   2.973   0.220   2.583
 2167SOL    HW2 7401   3.025   0.361   2.519
 2168SOL     OW 7402   5.599   5.091   4.790
 2168SOL    HW1 7403   5.582   5.172   4.735
 2168SOL    HW2 7404   5.696   5.071   4.791
 2169SOL     OW 7405   4.913   1.611   6.075
 2169SOL    HW1 7406   4.898   1.549   6.152
 2169SOL    HW2 7407   4.986   1.574   6.017
 2170SOL     OW 7408   3.965   4.910   4.467
 2170SOL    HW1 7409   4.038   4.842   4.458
 2170SOL    HW2 7410   3.901   4.900   4.390
 2171SOL     OW 7411   0.249   2.486   0.065
 2171SOL    HW1 7412   0.263   2.513   0.160
 2171SOL    HW2 7413   0.331   2.510   0.011
 2172SOL     OW 7414   3.220   0.815   0.905
 2172SOL    HW1 7415   3.281   0.827   0.826
 2172SOL    HW2 7416   3.181   0.904   0.930
 2173SOL     OW 7417   5.581   1.425   5.215
 2173SOL    HW1 7418   5.571   1.400   5.119
 2173SOL    HW2 7419   5.574   1.344   5.272
 2174SOL     OW 7420   0.070   5.600   4.510
 2174SOL    HW1 7421   0.107   5.609   4.417
 2174SOL    HW2 7422   0.040   5.689   4.543
 2175SOL     OW 7423   2.133   6.592   4.851
 2175SOL    HW1 7424   2.085   6.680   4.856
 2175SOL    HW2 7425   2.122   6.543   4.937
 2176SOL     OW 7426   1.635   2.386   2.908
 2176SOL    HW1 7427   1.644   2.486   2.909
 2176SOL    HW2 7428   1.671   2.350   2.823
 2177SOL     OW 7429   0.052   2.407   1.367
 2177SOL    HW1 7430   6.976   2.407   1.377
 2177SOL    HW2 7431   0.091   2.338   1.427
 2178SOL     OW 7432   0.572   4.863   0.062
 2178SOL    HW1 7433   0.626   4.841   7.004
 2178SOL    HW2 7434   0.475   4.845   0.044
 2179SOL     OW 7435   1.829   5.401   4.203
 2179SOL    HW1 7436   1.855   5.343   4.281
 2179SOL    HW2 7437   1.784   5.484   4.237
 2180SOL     OW 7438   3.912   3.094   2.602
 2180SOL    HW1 7439   3.815   3.116   2.602
 2180SOL    HW2 7440   3.945   3.086   2.508
 2181SOL     OW 7441   5.179   4.985   5.902
 2181SOL    HW1 7442   5.180   5.084   5.893
 2181SOL    HW2 7443   5.091   4.949   5.869
 2182SOL     OW 7444   6.208   2.942   6.462
 2182SOL    HW1 7445   6.186   2.991   6.378
 2182SOL    HW2 7446   6.189   3.001   6.541
 2183SOL     OW 7447   3.252   3.690   1.114
 2183SOL    HW1 7448   3.246   3.596   1.146
 2183SOL    HW2 7449   3.235   3.753   1.190
 2184SOL     OW 7450   3.939   2.559   6.435
 2184SOL    HW1 7451   4.037   2.580   6.429
 2184SOL    HW2 7452   3.889   2.642   6.459
 2185SOL     OW 7453   1.626   1.537   1.395
 2185SOL    HW1 7454   1.691   1.602   1.434
 2185SOL    HW2 7455   1.674   1.474   1.333
 2186SOL     OW 7456   0.708   6.028   2.960
 2186SOL    HW1 7457   0.681   6.011   3.055
 2186SOL    HW2 7458   0.648   6.098   2.921
 2187SOL     OW 7459   0.159   1.104   6.328
 2187SOL    HW1 7460   0.223   1.034   6.361
 2187SOL    HW2 7461   0.149   1.175   6.397
 2188SOL     OW 7462   5.574   0.301   2.613
 2188SOL    HW1 7463   5.503   0.345   2.668
 2188SOL    HW2 7464   5.538   0.282   2.521
 2189SOL     OW 7465   2.109   0.124   6.615
 2189SOL    HW1 7466   2.096   0.202   6.676
 2189SOL    HW2 7467   2.152   0.154   6.530
 2190SOL     OW 7468   4.752   2.128   2.119
 2190SOL    HW1 7469   4.736   2.224   2.098
 2190SOL    HW2 7470   4.850   2.109   2.114
 2191SOL     OW 7471   3.315   2.580   6.860
 2191SOL    HW1 7472   3.232   2.635   6.850
 2191SOL    HW2 7473   3.359   2.570   6.770
 2192SOL     OW 7474   5.075   5.847   5.019
 2192SOL    HW1 7475   5.048   5.871   4.926
 2192SOL    HW2 7476   5.032   5.761   5.046
 2193SOL     OW 7477   0.872   4.593   6.166
 2193SOL    HW1 7478   0.881   4.669   6.101
 2193SOL    HW2 7479   0.904   4.622   6.256
 2194SOL     OW 7480   2.595   0.342   1.681
 2194SOL    HW1 7481   2.563   0.294   1.599
 2194SOL    HW2 7482   2.638   0.277   1.743
 2195SOL     OW 7483   1.559   4.435   2.594
 2195SOL    HW1 7484   1.582   4.487   2.511
 2195SOL    HW2 7485   1.460   4.422   2.598
 2196SOL     OW 7486   3.666   2.532   6.293
 2196SOL    HW1 7487   3.701   2.448   6.252
 2196SOL    HW2 7488   3.732   2.566   6.361
 2197SOL     OW 7489   4.503   5.141   0.483
 2197SOL    HW1 7490   4.473   5.114   0.574
 2197SOL    HW2 7491   4.425   5.142   0.421
 2198SOL     OW 7492   6.119   4.041   0.145
 2198SOL    HW1 7493   6.103   3.942   0.150
 2198SOL    HW2 7494   6.041   4.085   0.102
 2199SOL     OW 7495   4.783   0.741   1.552
 2199SOL    HW1 7496   4.765   0.808   1.624
 2199SOL    HW2 7497   4.697   0.716   1.507
 2200SOL     OW 7498   2.854   0.652   4.783
 2200SOL    HW1 7499   2.909   0.618   4.859
 2200SOL    HW2 7500   2.771   0.695   4.818
 2201SOL     OW 7501   5.263   3.567   1.889
 2201SOL    HW1 7502   5.304   3.558   1.980
 2201SOL    HW2 7503   5.308   3.640   1.838
 2202SOL     OW 7504   4.331   6.475   3.849
 2202SOL    HW1 7505   4.376   6.530   3.779
 2202SOL    HW2 7506   4.299   6.389   3.809
 2203SOL     OW 7507   3.478   1.791   2.900
 2203SOL    HW1 7508   3.414   1.718   2.925
 2203SOL    HW2 7509   3.542   1.806   2.975
 2204SOL     OW 7510   3.062   2.592   0.933
 2204SOL    HW1 7511   2.986   2.625   0.989
 2204SOL    HW2 7512   3.044   2.612   0.837
 2205SOL     OW 7513   2.611   6.920   0.489
 2205SOL    HW1 7514   2.597   6.918   0.390
 2205SOL    HW2 7515   2.522   6.913   0.534
 2206SOL     OW 7516   2.184   2.761   6.766
 2206SOL    HW1 7517   2.259   2.826   6.774
 2206SOL    HW2 7518   2.206   2.678   6.818
 2207SOL     OW 7519   0.718   4.193   5.352
 2207SOL    HW1 7520   0.769   4.117   5.311
 2207SOL    HW2 7521   0.687   4.255   5.279
 2208SOL     OW 7522   0.374   4.207   1.659
 2208SOL    HW1 7523   0.285   4.178   1.625
 2208SOL    HW2 7524   0.387   4.172   1.752
 2209SOL     OW 7525   1.265   5.947   0.634
 2209SOL    HW1 7526   1.250   5.872   0.699
 2209SOL    HW2 7527   1.205   5.935   0.556
 2210SOL     OW 7528   0.512   6.033   4.337
 2210SOL    HW1 7529   0.419   6.053   4.367
 2210SOL    HW2 7530   0.524   6.061   4.242
 2211SOL     OW 7531   6.345   1.407   5.603
 2211SOL    HW1 7532   6.333   1.313   5.571
 2211SOL    HW2 7533   6.289   1.469   5.549
 2212SOL     OW 7534   1.505   0.398   6.024
 2212SOL    HW1 7535   1.416   0.379   5.984
 2212SOL    HW2 7536   1.548   0.475   5.976
 2213SOL     OW 7537   3.400   1.634   3.166
 2213SOL    HW1 7538   3.354   1.551   3.196
 2213SOL    HW2 7539   3.333   1.707   3.154
 2214SOL     OW 7540   4.250   7.003   4.611
 2214SOL    HW1 7541   4.265   0.068   4.654
 2214SOL    HW2 7542   4.335   6.971   4.570
 2215SOL     OW 7543   5.981   2.505   5.555
 2215SOL    HW1 7544   5.940   2.483   5.644
 2215SOL    HW2 7545   6.059   2.565   5.569
 2216SOL     OW 7546   2.226   0.024   1.907
 2216SOL    HW1 7547   2.291   6.985   1.951
 2216SOL    HW2 7548   2.163   6.996   1.850
 2217SOL     OW 7549   3.897   0.731   1.508
 2217SOL    HW1 7550   3.975   0.739   1.446
 2217SOL    HW2 7551   3.830   0.668   1.468
 2218SOL     OW 7552   1.045   5.986   0.964
 2218SOL    HW1 7553   1.003   5.917   0.905
 2218SOL    HW2 7554   1.018   6.077   0.932
 2219SOL     OW 7555   0.867   3.433   3.130
 2219SOL    HW1 7556   0.913   3.345   3.145
 2219SOL    HW2 7557   0.830   3.466   3.217
 2220SOL     OW 7558   0.437   1.041   6.832
 2220SOL    HW1 7559   0.342   1.011   6.830
 2220SOL    HW2 7560   0.441   1.141   6.834
 2221SOL     OW 7561   0.011   2.386   0.941
 2221SOL    HW1 7562   6.964   2.337   0.992
 2221SOL    HW2 7563   6.999   2.411   0.850
 2222SOL     OW 7564   5.517   6.442   2.759
 2222SOL    HW1 7565   5.560   6.504   2.692
 2222SOL    HW2 7566   5.428   6.413   2.725
 2223SOL     OW 7567   5.195   5.737   2.344
 2223SOL    HW1 7568   5.280   5.688   2.362
 2223SOL    HW2 7569   5.118   5.674   2.354
 2224SOL     OW 7570   1.176   5.119   1.092
 2224SOL    HW1 7571   1.120   5.054   1.142
 2224SOL    HW2 7572   1.135   5.137   1.002
 2225SOL     OW 7573   6.396   5.108   1.431
 2225SOL    HW1 7574   6.459   5.171   1.386
 2225SOL    HW2 7575   6.333   5.070   1.364
 2226SOL     OW 7576   4.587   3.804   1.310
 2226SOL    HW1 7577   4.599   3.705   1.320
 2226SOL    HW2 7578   4.522   3.822   1.237
 2227SOL     OW 7579   0.559   3.923   4.810
 2227SOL    HW1 7580   0.647   3.879   4.828
 2227SOL    HW2 7581   0.562   3.972   4.724
 2228SOL     OW 7582   3.008   4.817   5.493
 2228SOL    HW1 7583   2.932   4.780   5.440
 2228SOL    HW2 7584   2.986   4.812   5.590
 2229SOL     OW 7585   5.125   0.677   3.352
 2229SOL    HW1 7586   5.188   0.634   3.418
 2229SOL    HW2 7587   5.138   0.636   3.262
 2230SOL     OW 7588   1.374   6.315   0.311
 2230SOL    HW1 7589   1.348   6.266   0.227
 2230SOL    HW2 7590   1.471   6.301   0.329
 2231SOL     OW 7591   2.813   6.765   1.768
 2231SOL    HW1 7592   2.898   6.718   1.745
 2231SOL    HW2 7593   2.806   6.775   1.868
 2232SOL     OW 7594   6.832   3.088   2.754
 2232SOL    HW1 7595   6.802   3.129   2.668
 2232SOL    HW2 7596   6.752   3.061   2.808
 2233SOL     OW 7597   3.838   0.976   6.722
 2233SOL    HW1 7598   3.754   0.990   6.774
 2233SOL    HW2 7599   3.901   0.919   6.775
 2234SOL     OW 7600   3.003   1.877   0.687
 2234SOL    HW1 7601   2.921   1.865   0.744
 2234SOL    HW2 7602   3.062   1.946   0.729
 2235SOL     OW 7603   1.867   6.892   1.547
 2235SOL    HW1 7604   1.927   6.863   1.472
 2235SOL    HW2 7605   1.771   6.885   1.517
 2236SOL     OW 7606   6.411   4.115   0.249
 2236SOL    HW1 7607   6.329   4.095   0.196
 2236SOL    HW2 7608   6.402   4.074   0.341
 2237SOL     OW 7609   6.582   2.066   3.881
 2237SOL    HW1 7610   6.626   2.141   3.929
 2237SOL    HW2 7611   6.570   2.090   3.785
 2238SOL     OW 7612   0.724   6.086   2.293
 2238SOL    HW1 7613   0.779   6.099   2.210
 2238SOL    HW2 7614   0.765   6.014   2.349
 2239SOL     OW 7615   4.866   4.780   2.989
 2239SOL    HW1 7616   4.873   4.714   2.914
 2239SOL    HW2 7617   4.927   4.752   3.063
 2240SOL     OW 7618   5.418   3.352   2.479
 2240SOL    HW1 7619   5.505   3.317   2.444
 2240SOL    HW2 7620   5.422   3.452   2.484
 2241SOL     OW 7621   0.457   0.499   2.166
 2241SOL    HW1 7622   0.447   0.505   2.067
 2241SOL    HW2 7623   0.381   0.547   2.210
 2242SOL     OW 7624   5.245   2.413   2.652
 2242SOL    HW1 7625   5.287   2.473   2.722
 2242SOL    HW2 7626   5.258   2.454   2.562
 2243SOL     OW 7627   2.445   5.858   5.379
 2243SOL    HW1 7628   2.441   5.872   5.280
 2243SOL    HW2 7629   2.498   5.775   5.399
 2244SOL     OW 7630   2.943   0.708   5.237
 2244SOL    HW1 7631   3.014   0.640   5.258
 2244SOL    HW2 7632   2.853   0.664   5.239
 2245SOL     OW 7633   0.918   1.867   1.565
 2245SOL    HW1 7634   0.977   1.842   1.643
 2245SOL    HW2 7635   0.906   1.966   1.563
 2246SOL     OW 7636   1.138   3.959   5.013
 2246SOL    HW1 7637   1.175   4.023   5.080
 2246SOL    HW2 7638   1.122   3.871   5.057
 2247SOL     OW 7639   1.830   2.046   5.759
 2247SOL    HW1 7640   1.908   1.988   5.782
 2247SOL    HW2 7641   1.756   2.028   5.824
 2248SOL     OW 7642   5.551   3.678   5.177
 2248SOL    HW1 7643   5.645   3.649   5.192
 2248SOL    HW2 7644   5.551   3.762   5.123
 2249SOL     OW 7645   4.976   5.763   4.756
 2249SOL    HW1 7646   4.971   5.666   4.734
 2249SOL    HW2 7647   4.891   5.808   4.730
 2250SOL     OW 7648   5.933   5.047   0.295
 2250SOL    HW1 7649   5.983   4.998   0.367
 2250SOL    HW2 7650   5.835   5.043   0.313
 2251SOL     OW 7651   6.564   0.640   6.839
 2251SOL    HW1 7652   6.615   0.589   6.770
 2251SOL    HW2 7653   6.521   0.720   6.798
 2252SOL     OW 7654   3.688   1.701   5.850
 2252SOL    HW1 7655   3.680   1.688   5.752
 2252SOL    HW2 7656   3.755   1.638   5.888
 2253SOL     OW 7657   1.957   2.569   6.638
 2253SOL    HW1 7658   2.005   2.657   6.637
 2253SOL    HW2 7659   2.018   2.498   6.673
 2254SOL     OW 7660   2.175   3.272   6.383
 2254SOL    HW1 7661   2.193   3.275   6.482
 2254SOL    HW2 7662   2.086   3.229   6.367
 2255SOL     OW 7663   5.713   2.589   2.009
 2255SOL    HW1 7664   5.675   2.502   1.979
 2255SOL    HW2 7665   5.652   2.664   1.982
 2256SOL     OW 7666   4.218   4.958   1.813
 2256SOL    HW1 7667   4.260   4.879   1.858
 2256SOL    HW2 7668   4.178   5.018   1.882
 2257SOL     OW 7669   1.784   4.273   3.849
 2257SOL    HW1 7670   1.772   4.241   3.755
 2257SOL    HW2 7671   1.783   4.373   3.849
 2258SOL     OW 7672   1.459   5.252   4.433
 2258SOL    HW1 7673   1.406   5.254   4.348
 2258SOL    HW2 7674   1.408   5.299   4.505
 2259SOL     OW 7675   5.674   2.817   6.516
 2259SOL    HW1 7676   5.753   2.872   6.542
 2259SOL    HW2 7677   5.695   2.766   6.432
 2260SOL     OW 7678   5.363   5.373   1.095
 2260SOL    HW1 7679   5.320   5.292   1.135
 2260SOL    HW2 7680   5.459   5.377   1.123
 2261SOL     OW 7681   4.336   6.399   6.373
 2261SOL    HW1 7682   4.411   6.366   6.430
 2261SOL    HW2 7683   4.249   6.384   6.420
 2262SOL     OW 7684   4.171   1.527   2.918
 2262SOL    HW1 7685   4.215   1.466   2.853
 2262SOL    HW2 7686   4.189   1.622   2.893
 2263SOL     OW 7687   0.035   4.723   6.470
 2263SOL    HW1 7688   0.122   4.675   6.457
 2263SOL    HW2 7689   0.052   4.817   6.500
 2264SOL     OW 7690   3.582   4.057   3.681
 2264SOL    HW1 7691   3.621   4.083   3.593
 2264SOL    HW2 7692   3.582   3.957   3.689
 2265SOL     OW 7693   6.838   0.687   1.802
 2265SOL    HW1 7694   6.799   0.604   1.843
 2265SOL    HW2 7695   6.938   0.684   1.808
 2266SOL     OW 7696   5.772   6.593   1.122
 2266SOL    HW1 7697   5.726   6.656   1.059
 2266SOL    HW2 7698   5.868   6.618   1.130
 2267SOL     OW 7699   5.417   1.832   5.560
 2267SOL    HW1 7700   5.380   1.910   5.509
 2267SOL    HW2 7701   5.417   1.751   5.501
 2268SOL     OW 7702   6.564   5.421   0.321
 2268SOL    HW1 7703   6.468   5.395   0.331
 2268SOL    HW2 7704   6.584   5.499   0.380
 2269SOL     OW 7705   6.911   5.463   4.933
 2269SOL    HW1 7706   6.930   5.530   5.005
 2269SOL    HW2 7707   6.912   5.371   4.972
 2270SOL     OW 7708   4.311   3.471   1.563
 2270SOL    HW1 7709   4.403   3.460   1.600
 2270SOL    HW2 7710   4.254   3.519   1.629
 2271SOL     OW 7711   6.094   4.201   3.169
 2271SOL    HW1 7712   6.078   4.140   3.247
 2271SOL    HW2 7713   6.014   4.201   3.110
 2272SOL     OW 7714   5.789   1.809   6.495
 2272SOL    HW1 7715   5.810   1.715   6.519
 2272SOL    HW2 7716   5.729   1.849   6.564
 2273SOL     OW 7717   1.378   1.337   3.707
 2273SOL    HW1 7718   1.373   1.437   3.707
 2273SOL    HW2 7719   1.286   1.299   3.693
 2274SOL     OW 7720   1.656   3.366   3.554
 2274SOL    HW1 7721   1.572   3.314   3.543
 2274SOL    HW2 7722   1.685   3.365   3.649
 2275SOL     OW 7723   4.960   6.864   3.193
 2275SOL    HW1 7724   4.984   6.887   3.288
 2275SOL    HW2 7725   4.880   6.917   3.165
 2276SOL     OW 7726   4.646   4.840   1.403
 2276SOL    HW1 7727   4.678   4.809   1.492
 2276SOL    HW2 7728   4.725   4.855   1.343
 2277SOL     OW 7729   3.030   4.041   0.610
 2277SOL    HW1 7730   2.998   4.089   0.692
 2277SOL    HW2 7731   2.955   4.032   0.545
 2278SOL     OW 7732   5.609   6.704   0.907
 2278SOL    HW1 7733   5.632   6.641   0.832
 2278SOL    HW2 7734   5.510   6.701   0.923
 2279SOL     OW 7735   5.430   4.352   4.893
 2279SOL    HW1 7736   5.493   4.374   4.968
 2279SOL    HW2 7737   5.360   4.289   4.926
 2280SOL     OW 7738   5.610   6.914   5.858
 2280SOL    HW1 7739   5.621   6.897   5.956
 2280SOL    HW2 7740   5.580   6.830   5.813
 2281SOL     OW 7741   3.248   3.421   0.820
 2281SOL    HW1 7742   3.248   3.352   0.748
 2281SOL    HW2 7743   3.187   3.496   0.794
 2282SOL     OW 7744   3.933   5.146   2.824
 2282SOL    HW1 7745   3.945   5.119   2.728
 2282SOL    HW2 7746   3.917   5.245   2.828
 2283SOL     OW 7747   0.111   3.663   3.185
 2283SOL    HW1 7748   0.138   3.720   3.263
 2283SOL    HW2 7749   0.053   3.588   3.217
 2284SOL     OW 7750   2.412   2.656   1.829
 2284SOL    HW1 7751   2.428   2.721   1.754
 2284SOL    HW2 7752   2.497   2.607   1.849
 2285SOL     OW 7753   2.057   4.526   0.341
 2285SOL    HW1 7754   2.022   4.619   0.355
 2285SOL    HW2 7755   2.026   4.467   0.416
 2286SOL     OW 7756   5.656   6.785   4.683
 2286SOL    HW1 7757   5.670   6.732   4.767
 2286SOL    HW2 7758   5.682   6.729   4.604
 2287SOL     OW 7759   1.915   3.220   2.009
 2287SOL    HW1 7760   1.920   3.121   2.022
 2287SOL    HW2 7761   1.965   3.245   1.926
 2288SOL     OW 7762   0.548   6.521   4.426
 2288SOL    HW1 7763   0.594   6.437   4.397
 2288SOL    HW2 7764   0.603   6.567   4.495
 2289SOL     OW 7765   4.670   2.495   1.466
 2289SOL    HW1 7766   4.741   2.545   1.518
 2289SOL    HW2 7767   4.580   2.527   1.495
 2290SOL     OW 7768   3.261   3.380   2.701
 2290SOL    HW1 7769   3.204   3.298   2.703
 2290SOL    HW2 7770   3.301   3.395   2.792
 2291SOL     OW 7771   1.539   2.319   6.942
 2291SOL    HW1 7772   1.598   2.340   7.020
 2291SOL    HW2 7773   1.594   2.317   6.858
 2292SOL     OW 7774   4.392   2.076   3.031
 2292SOL    HW1 7775   4.303   2.092   3.073
 2292SOL    HW2 7776   4.381   2.021   2.949
 2293SOL     OW 7777   6.822   1.217   0.064
 2293SOL    HW1 7778   6.826   1.209   0.164
 2293SOL    HW2 7779   6.834   1.313   0.038
 2294SOL     OW 7780   0.336   1.842   5.814
 2294SOL    HW1 7781   0.336   1.911   5.887
 2294SOL    HW2 7782   0.242   1.817   5.791
 2295SOL     OW 7783   6.046   6.361   0.903
 2295SOL    HW1 7784   6.077   6.267   0.913
 2295SOL    HW2 7785   6.077   6.398   0.815
 2296SOL     OW 7786   3.354   5.589   4.393
 2296SOL    HW1 7787   3.383   5.552   4.305
 2296SOL    HW2 7788   3.255   5.601   4.393
 2297SOL     OW 7789   4.119   4.186   5.285
 2297SOL    HW1 7790   4.169   4.263   5.244
 2297SOL    HW2 7791   4.060   4.145   5.216
 2298SOL     OW 7792   3.809   3.655   4.641
 2298SOL    HW1 7793   3.809   3.649   4.542
 2298SOL    HW2 7794   3.903   3.657   4.675
 2299SOL     OW 7795   5.756   3.373   4.530
 2299SOL    HW1 7796   5.788   3.280   4.546
 2299SOL    HW2 7797   5.704   3.377   4.445
 2300SOL     OW 7798   4.873   6.448   2.288
 2300SOL    HW1 7799   4.846   6.397   2.206
 2300SOL    HW2 7800   4.851   6.395   2.369
 2301SOL     OW 7801   3.799   2.960   4.219
 2301SOL    HW1 7802   3.841   3.043   4.182
 2301SOL    HW2 7803   3.836   2.942   4.310
 2302SOL     OW 7804   4.480   2.390   0.809
 2302SOL    HW1 7805   4.394   2.393   0.759
 2302SOL    HW2 7806   4.523   2.480   0.807
 2303SOL     OW 7807   3.955   1.875   6.783
 2303SOL    HW1 7808   3.864   1.841   6.809
 2303SOL    HW2 7809   4.018   1.798   6.772
 2304SOL     OW 7810   5.098   5.930   2.530
 2304SOL    HW1 7811   5.148   6.012   2.560
 2304SOL    HW2 7812   5.162   5.864   2.492
 2305SOL     OW 7813   2.201   0.902   5.143
 2305SOL    HW1 7814   2.242   0.840   5.209
 2305SOL    HW2 7815   2.125   0.855   5.096
 2306SOL     OW 7816   1.784   4.986   4.406
 2306SOL    HW1 7817   1.839   4.919   4.456
 2306SOL    HW2 7818   1.718   5.028   4.468
 2307SOL     OW 7819   6.637   3.652   5.913
 2307SOL    HW1 7820   6.680   3.584   5.855
 2307SOL    HW2 7821   6.685   3.740   5.903
 2308SOL     OW 7822   1.846   4.840   1.488
 2308SOL    HW1 7823   1.922   4.882   1.438
 2308SOL    HW2 7824   1.840   4.883   1.579
 2309SOL     OW 7825   2.177   6.080   5.631
 2309SOL    HW1 7826   2.264   6.032   5.637
 2309SOL    HW2 7827   2.154   6.118   5.721
 2310SOL     OW 7828   4.882   6.522   1.171
 2310SOL    HW1 7829   4.809   6.455   1.187
 2310SOL    HW2 7830   4.842   6.608   1.138
 2311SOL     OW 7831   3.200   5.879   1.468
 2311SOL    HW1 7832   3.206   5.781   1.484
 2311SOL    HW2 7833   3.111   5.912   1.499
 2312SOL     OW 7834   3.151   4.898   2.590
 2312SOL    HW1 7835   3.210   4.944   2.656
 2312SOL    HW2 7836   3.056   4.901   2.622
 2313SOL     OW 7837   4.639   5.844   1.447
 2313SOL    HW1 7838   4.627   5.795   1.534
 2313SOL    HW2 7839   4.689   5.787   1.383
 2314SOL     OW 7840   2.181   5.407   4.210
 2314SOL    HW1 7841   2.150   5.436   4.300
 2314SOL    HW2 7842   2.125   5.449   4.139
 2315SOL     OW 7843   4.465   2.827   6.482
 2315SOL    HW1 7844   4.444   2.772   6.402
 2315SOL    HW2 7845   4.559   2.863   6.475
 2316SOL     OW 7846   5.428   3.582   2.120
 2316SOL    HW1 7847   5.371   3.522   2.176
 2316SOL    HW2 7848   5.524   3.570   2.145
 2317SOL     OW 7849   0.698   4.707   4.099
 2317SOL    HW1 7850   0.788   4.720   4.057
 2317SOL    HW2 7851   0.701   4.627   4.160
 2318SOL     OW 7852   0.147   1.081   3.969
 2318SOL    HW1 7853   0.131   1.043   4.059
 2318SOL    HW2 7854   0.212   1.157   3.976
 2319SOL     OW 7855   0.717   3.870   3.694
 2319SOL    HW1 7856   0.779   3.844   3.620
 2319SOL    HW2 7857   0.675   3.958   3.673
 2320SOL     OW 7858   6.471   4.221   4.664
 2320SOL    HW1 7859   6.393   4.219   4.602
 2320SOL    HW2 7860   6.532   4.144   4.643
 2321SOL     OW 7861   2.520   5.595   5.387
 2321SOL    HW1 7862   2.567   5.562   5.469
 2321SOL    HW2 7863   2.546   5.539   5.309
 2322SOL     OW 7864   2.240   0.386   6.289
 2322SOL    HW1 7865   2.313   0.421   6.231
 2322SOL    HW2 7866   2.152   0.396   6.241
 2323SOL     OW 7867   5.240   4.753   1.820
 2323SOL    HW1 7868   5.268   4.834   1.769
 2323SOL    HW2 7869   5.322   4.704   1.851
 2324SOL     OW 7870   6.574   5.134   3.484
 2324SOL    HW1 7871   6.537   5.220   3.449
 2324SOL    HW2 7872   6.670   5.147   3.510
 2325SOL     OW 7873   6.412   3.040   0.795
 2325SOL    HW1 7874   6.417   2.971   0.867
 2325SOL    HW2 7875   6.504   3.067   0.768
 2326SOL     OW 7876   1.994   5.160   6.982
 2326SOL    HW1 7877   1.899   5.186   6.997
 2326SOL    HW2 7878   2.039   5.145   0.046
 2327SOL     OW 7879   5.420   2.267   4.878
 2327SOL    HW1 7880   5.406   2.172   4.904
 2327SOL    HW2 7881   5.517   2.282   4.858
 2328SOL     OW 7882   5.473   6.973   3.272
 2328SOL    HW1 7883   5.493   0.041   3.239
 2328SOL    HW2 7884   5.475   6.908   3.195
 2329SOL     OW 7885   0.026   6.172   3.507
 2329SOL    HW1 7886   0.019   6.166   3.408
 2329SOL    HW2 7887   0.121   6.191   3.533
 2330SOL     OW 7888   0.398   3.439   2.376
 2330SOL    HW1 7889   0.411   3.341   2.388
 2330SOL    HW2 7890   0.478   3.488   2.411
 2331SOL     OW 7891   1.060   4.460   5.644
 2331SOL    HW1 7892   1.085   4.557   5.648
 2331SOL    HW2 7893   0.968   4.448   5.682
 2332SOL     OW 7894   5.707   2.289   4.876
 2332SOL    HW1 7895   5.785   2.292   4.938
 2332SOL    HW2 7896   5.739   2.270   4.783
 2333SOL     OW 7897   1.310   5.407   3.911
 2333SOL    HW1 7898   1.387   5.446   3.962
 2333SOL    HW2 7899   1.325   5.309   3.897
 2334SOL     OW 7900   2.802   0.103   0.386
 2334SOL    HW1 7901   2.854   0.032   0.339
 2334SOL    HW2 7902   2.712   0.068   0.411
 2335SOL     OW 7903   4.871   7.023   3.905
 2335SOL    HW1 7904   4.957   0.025   3.950
 2335SOL    HW2 7905   4.891   6.974   3.820
 2336SOL     OW 7906   4.591   1.930   6.057
 2336SOL    HW1 7907   4.558   2.024   6.069
 2336SOL    HW2 7908   4.685   1.931   6.024
 2337SOL     OW 7909   6.143   0.575   2.745
 2337SOL    HW1 7910   6.152   0.503   2.677
 2337SOL    HW2 7911   6.201   0.653   2.719
 2338SOL     OW 7912   1.050   0.108   6.384
 2338SOL    HW1 7913   1.141   0.147   6.397
 2338SOL    HW2 7914   1.048   0.055   6.299
 2339SOL     OW 7915   3.825   4.796   0.037
 2339SOL    HW1 7916   3.792   4.890   0.029
 2339SOL    HW2 7917   3.762   4.734   7.014
 2340SOL     OW 7918   3.768   5.057   4.596
 2340SOL    HW1 7919   3.688   5.062   4.536
 2340SOL    HW2 7920   3.829   4.985   4.564
 2341SOL     OW 7921   6.002   5.323   0.347
 2341SOL    HW1 7922   6.023   5.227   0.329
 2341SOL    HW2 7923   5.985   5.370   0.260
 2342SOL     OW 7924   6.437   0.362   5.334
 2342SOL    HW1 7925   6.491   0.362   5.418
 2342SOL    HW2 7926   6.469   0.288   5.274
 2343SOL     OW 7927   1.288   6.856   0.260
 2343SOL    HW1 7928   1.365   6.797   0.285
 2343SOL    HW2 7929   1.212   6.839   0.323
 2344SOL     OW 7930   2.051   1.691   3.044
 2344SOL    HW1 7931   2.027   1.786   3.068
 2344SOL    HW2 7932   2.014   1.670   2.954
 2345SOL     OW 7933   2.540   1.325   4.084
 2345SOL    HW1 7934   2.494   1.411   4.063
 2345SOL    HW2 7935   2.599   1.338   4.164
 2346SOL     OW 7936   4.827   3.459   5.817
 2346SOL    HW1 7937   4.731   3.451   5.844
 2346SOL    HW2 7938   4.881   3.390   5.866
 2347SOL     OW 7939   1.289   2.919   1.181
 2347SOL    HW1 7940   1.309   2.946   1.087
 2347SOL    HW2 7941   1.249   2.996   1.231
 2348SOL     OW 7942   2.518   6.475   2.083
 2348SOL    HW1 7943   2.449   6.544   2.061
 2348SOL    HW2 7944   2.566   6.501   2.167
 2349SOL     OW 7945   4.850   5.427   5.974
 2349SOL    HW1 7946   4.907   5.507   5.955
 2349SOL    HW2 7947   4.754   5.452   5.970
 2350SOL     OW 7948   2.668   6.098   5.318
 2350SOL    HW1 7949   2.709   6.057   5.237
 2350SOL    HW2 7950   2.591   6.043   5.349
 2351SOL     OW 7951   2.641   5.321   4.340
 2351SOL    HW1 7952   2.578   5.370   4.280
 2351SOL    HW2 7953   2.731   5.316   4.297
 2352SOL     OW 7954   6.947   3.171   2.131
 2352SOL    HW1 7955   6.929   3.125   2.218
 2352SOL    HW2 7956   6.867   3.224   2.103
 2353SOL     OW 7957   2.585   4.096   6.115
 2353SOL    HW1 7958   2.599   4.011   6.064
 2353SOL    HW2 7959   2.646   4.167   6.079
 2354SOL     OW 7960   3.603   2.969   1.054
 2354SOL    HW1 7961   3.650   2.914   0.985
 2354SOL    HW2 7962   3.532   2.913   1.098
 2355SOL     OW 7963   0.574   0.159   0.979
 2355SOL    HW1 7964   0.523   0.078   0.950
 2355SOL    HW2 7965   0.553   0.235   0.918
 2356SOL     OW 7966   2.929   5.043   3.227
 2356SOL    HW1 7967   2.866   5.110   3.267
 2356SOL    HW2 7968   2.917   5.042   3.127
 2357SOL     OW 7969   6.128   4.580   0.832
 2357SOL    HW1 7970   6.214   4.630   0.835
 2357SOL    HW2 7971   6.140   4.491   0.877
 2358SOL     OW 7972   3.915   1.547   5.873
 2358SOL    HW1 7973   3.909   1.452   5.843
 2358SOL    HW2 7974   4.003   1.586   5.846
 2359SOL     OW 7975   1.581   1.400   5.249
 2359SOL    HW1 7976   1.492   1.358   5.233
 2359SOL    HW2 7977   1.569   1.490   5.289
 2360SOL     OW 7978   4.222   4.130   0.302
 2360SOL    HW1 7979   4.222   4.230   0.298
 2360SOL    HW2 7980   4.295   4.094   0.243
 2361SOL     OW 7981   4.033   5.694   1.739
 2361SOL    HW1 7982   4.057   5.783   1.702
 2361SOL    HW2 7983   4.112   5.655   1.787
 2362SOL     OW 7984   4.033   6.153   3.844
 2362SOL    HW1 7985   3.997   6.060   3.834
 2362SOL    HW2 7986   4.050   6.172   3.941
 2363SOL     OW 7987   2.730   4.359   0.736
 2363SOL    HW1 7988   2.678   4.443   0.720
 2363SOL    HW2 7989   2.683   4.303   0.804
 2364SOL     OW 7990   4.493   1.418   2.382
 2364SOL    HW1 7991   4.523   1.477   2.457
 2364SOL    HW2 7992   4.451   1.474   2.310
 2365SOL     OW 7993   4.980   3.704   3.302
 2365SOL    HW1 7994   4.969   3.610   3.335
 2365SOL    HW2 7995   4.928   3.715   3.217
 2366SOL     OW 7996   2.559   4.685   5.000
 2366SOL    HW1 7997   2.541   4.772   5.046
 2366SOL    HW2 7998   2.653   4.656   5.019
 2367SOL     OW 7999   6.174   4.681   6.188
 2367SOL    HW1 8000   6.173   4.723   6.279
 2367SOL    HW2 8001   6.241   4.606   6.187
 2368SOL     OW 8002   5.295   6.584   4.148
 2368SOL    HW1 8003   5.242   6.499   4.149
 2368SOL    HW2 8004   5.385   6.567   4.110
 2369SOL     OW 8005   3.043   1.931   4.547
 2369SOL    HW1 8006   3.086   1.883   4.623
 2369SOL    HW2 8007   3.039   1.871   4.467
 2370SOL     OW 8008   5.798   2.676   1.429
 2370SOL    HW1 8009   5.870   2.695   1.496
 2370SOL    HW2 8010   5.829   2.702   1.338
 2371SOL     OW 8011   0.856   6.715   3.001
 2371SOL    HW1 8012   0.785   6.647   2.982
 2371SOL    HW2 8013   0.830   6.770   3.080
 2372SOL     OW 8014   6.418   0.610   5.787
 2372SOL    HW1 8015   6.458   0.684   5.732
 2372SOL    HW2 8016   6.437   0.627   5.884
 2373SOL     OW 8017   5.995   5.419   0.102
 2373SOL    HW1 8018   6.038   5.464   0.024
 2373SOL    HW2 8019   5.969   5.326   0.076
 2374SOL     OW 8020   6.043   6.070   1.897
 2374SOL    HW1 8021   6.102   6.012   1.953
 2374SOL    HW2 8022   6.095   6.111   1.823
 2375SOL     OW 8023   0.780   6.864   4.222
 2375SOL    HW1 8024   0.777   6.964   4.220
 2375SOL    HW2 8025   0.825   6.830   4.140
 2376SOL     OW 8026   5.993   1.410   3.275
 2376SOL    HW1 8027   5.902   1.450   3.282
 2376SOL    HW2 8028   6.026   1.387   3.366
 2377SOL     OW 8029   4.434   4.850   5.504
 2377SOL    HW1 8030   4.449   4.937   5.552
 2377SOL    HW2 8031   4.348   4.809   5.535
 2378SOL     OW 8032   6.668   0.946   0.266
 2378SOL    HW1 8033   6.766   0.940   0.284
 2378SOL    HW2 8034   6.648   0.901   0.178
 2379SOL     OW 8035   6.680   4.360   1.136
 2379SOL    HW1 8036   6.582   4.358   1.159
 2379SOL    HW2 8037   6.733   4.381   1.219
 2380SOL     OW 8038   4.609   4.702   4.667
 2380SOL    HW1 8039   4.671   4.636   4.626
 2380SOL    HW2 8040   4.609   4.689   4.767
 2381SOL     OW 8041   2.188   4.612   4.888
 2381SOL    HW1 8042   2.215   4.516   4.895
 2381SOL    HW2 8043   2.102   4.619   4.837
 2382SOL     OW 8044   0.459   6.103   2.582
 2382SOL    HW1 8045   0.363   6.126   2.573
 2382SOL    HW2 8046   0.513   6.160   2.519
 2383SOL     OW 8047   5.701   5.544   5.554
 2383SOL    HW1 8048   5.680   5.446   5.546
 2383SOL    HW2 8049   5.729   5.564   5.648
 2384SOL     OW 8050   0.633   1.650   2.231
 2384SOL    HW1 8051   0.684   1.606   2.156
 2384SOL    HW2 8052   0.694   1.666   2.308
 2385SOL     OW 8053   0.335   2.146   1.228
 2385SOL    HW1 8054   0.378   2.111   1.144
 2385SOL    HW2 8055   0.373   2.099   1.307
 2386SOL     OW 8056   5.238   5.994   3.816
 2386SOL    HW1 8057   5.169   6.049   3.864
 2386SOL    HW2 8058   5.215   5.897   3.823
 2387SOL     OW 8059   1.744   1.921   4.135
 2387SOL    HW1 8060   1.687   2.003   4.131
 2387SOL    HW2 8061   1.820   1.929   4.070
 2388SOL     OW 8062   6.892   1.694   5.485
 2388SOL    HW1 8063   6.845   1.767   5.534
 2388SOL    HW2 8064   6.954   1.646   5.546
 2389SOL     OW 8065   5.120   4.758   4.817
 2389SOL    HW1 8066   5.093   4.692   4.747
 2389SOL    HW2 8067   5.168   4.709   4.891
 2390SOL     OW 8068   4.278   3.891   5.717
 2390SOL    HW1 8069   4.325   3.941   5.644
 2390SOL    HW2 8070   4.345   3.838   5.768
 2391SOL     OW 8071   3.517   4.801   6.091
 2391SOL    HW1 8072   3.502   4.764   6.000
 2391SOL    HW2 8073   3.433   4.792   6.145
 2392SOL     OW 8074   3.868   5.387   5.347
 2392SOL    HW1 8075   3.845   5.481   5.368
 2392SOL    HW2 8076   3.869   5.375   5.247
 2393SOL     OW 8077   3.492   5.158   1.577
 2393SOL    HW1 8078   3.461   5.233   1.518
 2393SOL    HW2 8079   3.469   5.180   1.672
 2394SOL     OW 8080   1.041   2.082   3.715
 2394SOL    HW1 8081   1.058   2.153   3.784
 2394SOL    HW2 8082   1.118   2.079   3.652
 2395SOL     OW 8083   0.031   2.326   4.572
 2395SOL    HW1 8084   7.018   2.403   4.624
 2395SOL    HW2 8085   0.131   2.326   4.578
 2396SOL     OW 8086   6.905   0.847   5.136
 2396SOL    HW1 8087   6.898   0.747   5.131
 2396SOL    HW2 8088   6.996   0.872   5.167
 2397SOL     OW 8089   0.458   4.314   5.698
 2397SOL    HW1 8090   0.538   4.307   5.637
 2397SOL    HW2 8091   0.483   4.368   5.778
 2398SOL     OW 8092   3.607   6.287   3.697
 2398SOL    HW1 8093   3.686   6.227   3.687
 2398SOL    HW2 8094   3.558   6.264   3.782
 2399SOL     OW 8095   3.182   2.167   3.840
 2399SOL    HW1 8096   3.145   2.076   3.859
 2399SOL    HW2 8097   3.107   2.232   3.828
 2400SOL     OW 8098   0.839   4.238   0.668
 2400SOL    HW1 8099   0.839   4.296   0.749
 2400SOL    HW2 8100   0.836   4.142   0.696
 2401SOL     OW 8101   2.525   0.041   5.806
 2401SOL    HW1 8102   2.545   0.114   5.871
 2401SOL    HW2 8103   2.511   0.081   5.715
 2402SOL     OW 8104   1.336   4.268   2.539
 2402SOL    HW1 8105   1.408   4.202   2.560
 2402SOL    HW2 8106   1.247   4.227   2.561
 2403SOL     OW 8107   3.945   3.954   3.149
 2403SOL    HW1 8108   3.986   4.024   3.091
 2403SOL    HW2 8109   3.846   3.954   3.137
 2404SOL     OW 8110   6.370   1.592   0.708
 2404SOL    HW1 8111   6.340   1.530   0.636
 2404SOL    HW2 8112   6.290   1.632   0.753
 2405SOL     OW 8113   1.935   3.275   0.922
 2405SOL    HW1 8114   1.878   3.304   0.845
 2405SOL    HW2 8115   1.876   3.240   0.995
 2406SOL     OW 8116   2.295   6.161   4.450
 2406SOL    HW1 8117   2.317   6.130   4.543
 2406SOL    HW2 8118   2.379   6.189   4.403
 2407SOL     OW 8119   3.414   1.422   4.052
 2407SOL    HW1 8120   3.354   1.362   4.105
 2407SOL    HW2 8121   3.449   1.373   3.972
 2408SOL     OW 8122   3.135   5.991   4.481
 2408SOL    HW1 8123   3.115   6.085   4.452
 2408SOL    HW2 8124   3.067   5.930   4.442
 2409SOL     OW 8125   1.710   3.238   1.648
 2409SOL    HW1 8126   1.727   3.288   1.733
 2409SOL    HW2 8127   1.687   3.143   1.669
 2410SOL     OW 8128   1.012   3.126   5.120
 2410SOL    HW1 8129   1.070   3.141   5.200
 2410SOL    HW2 8130   0.989   3.214   5.079
 2411SOL     OW 8131   2.911   4.100   0.329
 2411SOL    HW1 8132   2.997   4.055   0.307
 2411SOL    HW2 8133   2.853   4.105   0.247
 2412SOL     OW 8134   3.355   1.338   6.760
 2412SOL    HW1 8135   3.425   1.404   6.733
 2412SOL    HW2 8136   3.279   1.386   6.803
 2413SOL     OW 8137   6.802   3.113   6.869
 2413SOL    HW1 8138   6.743   3.082   6.943
 2413SOL    HW2 8139   6.768   3.078   6.782
 2414SOL     OW 8140   6.600   2.572   4.711
 2414SOL    HW1 8141   6.687   2.598   4.669
 2414SOL    HW2 8142   6.539   2.652   4.711
 2415SOL     OW 8143   2.695   5.640   0.738
 2415SOL    HW1 8144   2.724   5.572   0.806
 2415SOL    HW2 8145   2.648   5.716   0.785
 2416SOL     OW 8146   0.012   3.936   2.339
 2416SOL    HW1 8147   0.041   3.845   2.310
 2416SOL    HW2 8148   6.994   3.931   2.429
 2417SOL     OW 8149   3.131   2.987   1.536
 2417SOL    HW1 8150   3.044   3.006   1.490
 2417SOL    HW2 8151   3.204   3.040   1.493
 2418SOL     OW 8152   4.605   4.196   5.945
 2418SOL    HW1 8153   4.581   4.254   6.022
 2418SOL    HW2 8154   4.567   4.105   5.959
 2419SOL     OW 8155   1.788   6.617   3.962
 2419SOL    HW1 8156   1.819   6.694   3.907
 2419SOL    HW2 8157   1.767   6.539   3.902
 2420SOL     OW 8158   1.581   4.168   2.572
 2420SOL    HW1 8159   1.602   4.265   2.561
 2420SOL    HW2 8160   1.633   4.115   2.505
 2421SOL     OW 8161   2.102   6.199   4.262
 2421SOL    HW1 8162   2.033   6.269   4.278
 2421SOL    HW2 8163   2.169   6.201   4.337
 2422SOL     OW 8164   4.739   6.593   0.277
 2422SOL    HW1 8165   4.795   6.674   0.259
 2422SOL    HW2 8166   4.790   6.511   0.251
 2423SOL     OW 8167   2.377   4.995   2.842
 2423SOL    HW1 8168   2.359   4.948   2.755
 2423SOL    HW2 8169   2.433   4.936   2.900
 2424SOL     OW 8170   5.760   1.153   5.801
 2424SOL    HW1 8171   5.844   1.177   5.852
 2424SOL    HW2 8172   5.680   1.179   5.855
 2425SOL     OW 8173   5.088   5.522   5.514
 2425SOL    HW1 8174   5.026   5.600   5.527
 2425SOL    HW2 8175   5.166   5.531   5.576
 2426SOL     OW 8176   2.237   3.854   5.971
 2426SOL    HW1 8177   2.312   3.913   5.941
 2426SOL    HW2 8178   2.263   3.806   6.055
 2427SOL     OW 8179   5.296   0.754   0.342
 2427SOL    HW1 8180   5.200   0.780   0.353
 2427SOL    HW2 8181   5.346   0.777   0.426
 2428SOL     OW 8182   0.288   0.822   3.402
 2428SOL    HW1 8183   0.197   0.790   3.373
 2428SOL    HW2 8184   0.277   0.888   3.477
 2429SOL     OW 8185   5.301   5.222   1.944
 2429SOL    HW1 8186   5.202   5.235   1.945
 2429SOL    HW2 8187   5.323   5.140   1.892
 2430SOL     OW 8188   6.227   1.850   6.253
 2430SOL    HW1 8189   6.232   1.756   6.219
 2430SOL    HW2 8190   6.132   1.874   6.271
 2431SOL     OW 8191   6.708   2.651   1.393
 2431SOL    HW1 8192   6.782   2.712   1.365
 2431SOL    HW2 8193   6.707   2.644   1.493
 2432SOL     OW 8194   3.469   5.241   2.652
 2432SOL    HW1 8195   3.448   5.145   2.669
 2432SOL    HW2 8196   3.459   5.261   2.554
 2433SOL     OW 8197   6.004   4.481   6.179
 2433SOL    HW1 8198   6.060   4.400   6.192
 2433SOL    HW2 8199   6.062   4.562   6.181
 2434SOL     OW 8200   4.790   1.252   3.309
 2434SOL    HW1 8201   4.826   1.178   3.365
 2434SOL    HW2 8202   4.770   1.331   3.367
 2435SOL     OW 8203   5.936   6.629   6.858
 2435SOL    HW1 8204   5.897   6.695   6.794
 2435SOL    HW2 8205   5.924   6.536   6.822
 2436SOL     OW 8206   1.824   2.018   2.051
 2436SOL    HW1 8207   1.824   1.999   1.953
 2436SOL    HW2 8208   1.761   2.093   2.071
 2437SOL     OW 8209   0.074   4.481   2.715
 2437SOL    HW1 8210   0.103   4.419   2.788
 2437SOL    HW2 8211   0.138   4.557   2.709
 2438SOL     OW 8212   3.365   1.351   4.983
 2438SOL    HW1 8213   3.338   1.296   4.904
 2438SOL    HW2 8214   3.358   1.296   5.066
 2439SOL     OW 8215   1.079   6.553   1.035
 2439SOL    HW1 8216   1.058   6.459   1.009
 2439SOL    HW2 8217   1.014   6.615   0.991
 2440SOL     OW 8218   5.381   0.986   4.971
 2440SOL    HW1 8219   5.411   1.080   4.990
 2440SOL    HW2 8220   5.457   0.923   4.988
 2441SOL     OW 8221   5.947   0.211   6.889
 2441SOL    HW1 8222   6.001   0.219   6.973
 2441SOL    HW2 8223   6.005   0.173   6.817
 2442SOL     OW 8224   5.033   3.196   1.737
 2442SOL    HW1 8225   5.005   3.176   1.831
 2442SOL    HW2 8226   4.974   3.268   1.699
 2443SOL     OW 8227   0.664   2.218   0.909
 2443SOL    HW1 8228   0.690   2.252   0.999
 2443SOL    HW2 8229   0.746   2.205   0.853
 2444SOL     OW 8230   3.802   5.703   1.359
 2444SOL    HW1 8231   3.822   5.795   1.326
 2444SOL    HW2 8232   3.719   5.669   1.313
 2445SOL     OW 8233   6.580   2.592   0.452
 2445SOL    HW1 8234   6.550   2.527   0.383
 2445SOL    HW2 8235   6.524   2.675   0.447
 2446SOL     OW 8236   1.859   4.688   1.237
 2446SOL    HW1 8237   1.866   4.701   1.336
 2446SOL    HW2 8238   1.815   4.600   1.218
 2447SOL     OW 8239   3.032   7.008   0.728
 2447SOL    HW1 8240   2.994   0.068   0.691
 2447SOL    HW2 8241   2.966   6.934   0.718
 2448SOL     OW 8242   6.017   1.694   3.708
 2448SOL    HW1 8243   5.963   1.642   3.774
 2448SOL    HW2 8244   6.094   1.639   3.677
 2449SOL     OW 8245   1.691   4.726   1.825
 2449SOL    HW1 8246   1.727   4.633   1.813
 2449SOL    HW2 8247   1.745   4.790   1.771
 2450SOL     OW 8248   1.456   6.251   6.335
 2450SOL    HW1 8249   1.451   6.314   6.412
 2450SOL    HW2 8250   1.471   6.158   6.369
 2451SOL     OW 8251   0.825   0.061   4.811
 2451SOL    HW1 8252   0.759   7.018   4.777
 2451SOL    HW2 8253   0.790   0.153   4.795
 2452SOL     OW 8254   2.971   1.755   4.276
 2452SOL    HW1 8255   3.055   1.729   4.228
 2452SOL    HW2 8256   2.896   1.696   4.246
 2453SOL     OW 8257   0.959   1.457   0.154
 2453SOL    HW1 8258   0.948   1.411   0.066
 2453SOL    HW2 8259   1.052   1.492   0.161
 2454SOL     OW 8260   3.188   5.554   1.091
 2454SOL    HW1 8261   3.275   5.569   1.045
 2454SOL    HW2 8262   3.202   5.497   1.172
 2455SOL     OW 8263   3.731   1.823   0.334
 2455SOL    HW1 8264   3.671   1.896   0.368
 2455SOL    HW2 8265   3.776   1.778   0.412
 2456SOL     OW 8266   0.880   4.557   6.698
 2456SOL    HW1 8267   0.902   4.460   6.684
 2456SOL    HW2 8268   0.957   4.613   6.667
 2457SOL     OW 8269   5.647   2.176   5.444
 2457SOL    HW1 8270   5.725   2.236   5.423
 2457SOL    HW2 8271   5.668   2.121   5.524
 2458SOL     OW 8272   1.758   6.788   1.884
 2458SOL    HW1 8273   1.716   6.803   1.794
 2458SOL    HW2 8274   1.691   6.807   1.955
 2459SOL     OW 8275   2.615   6.270   1.364
 2459SOL    HW1 8276   2.549   6.201   1.336
 2459SOL    HW2 8277   2.680   6.286   1.289
 2460SOL     OW 8278   1.492   0.954   5.396
 2460SOL    HW1 8279   1.503   0.960   5.297
 2460SOL    HW2 8280   1.545   1.026   5.441
 2461SOL     OW 8281   3.629   1.385   4.417
 2461SOL    HW1 8282   3.679   1.451   4.361
 2461SOL    HW2 8283   3.604   1.426   4.504
 2462SOL     OW 8284   0.048   4.845   0.626
 2462SOL    HW1 8285   6.976   4.821   0.639
 2462SOL    HW2 8286   0.091   4.861   0.715
 2463SOL     OW 8287   6.881   1.114   6.487
 2463SOL    HW1 8288   6.921   1.184   6.427
 2463SOL    HW2 8289   6.808   1.154   6.542
 2464SOL     OW 8290   0.390   1.618   3.324
 2464SOL    HW1 8291   0.423   1.580   3.238
 2464SOL    HW2 8292   0.356   1.544   3.382
 2465SOL     OW 8293   0.836   4.534   5.821
 2465SOL    HW1 8294   0.761   4.486   5.867
 2465SOL    HW2 8295   0.849   4.623   5.863
 2466SOL     OW 8296   0.790   2.517   1.972
 2466SOL    HW1 8297   0.790   2.538   2.069
 2466SOL    HW2 8298   0.805   2.419   1.959
 2467SOL     OW 8299   5.047   1.357   5.936
 2467SOL    HW1 8300   5.035   1.432   5.871
 2467SOL    HW2 8301   4.958   1.320   5.962
 2468SOL     OW 8302   3.314   6.823   5.654
 2468SOL    HW1 8303   3.322   6.921   5.669
 2468SOL    HW2 8304   3.225   6.791   5.689
 2469SOL     OW 8305   3.252   2.518   5.642
 2469SOL    HW1 8306   3.329   2.474   5.688
 2469SOL    HW2 8307   3.205   2.578   5.707
 2470SOL     OW 8308   3.652   5.081   0.090
 2470SOL    HW1 8309   3.616   5.163   0.046
 2470SOL    HW2 8310   3.577   5.032   0.135
 2471SOL     OW 8311   4.201   5.763   1.427
 2471SOL    HW1 8312   4.255   5.764   1.511
 2471SOL    HW2 8313   4.130   5.833   1.432
 2472SOL     OW 8314   4.605   1.645   4.487
 2472SOL    HW1 8315   4.642   1.555   4.508
 2472SOL    HW2 8316   4.664   1.690   4.420
 2473SOL     OW 8317   0.030   4.593   5.145
 2473SOL    HW1 8318   0.057   4.644   5.227
 2473SOL    HW2 8319   0.079   4.505   5.143
 2474SOL     OW 8320   0.794   5.680   1.358
 2474SOL    HW1 8321   0.841   5.593   1.358
 2474SOL    HW2 8322   0.859   5.754   1.343
 2475SOL     OW 8323   4.905   0.327   1.131
 2475SOL    HW1 8324   4.814   0.288   1.120
 2475SOL    HW2 8325   4.974   0.258   1.111
 2476SOL     OW 8326   6.006   0.292   0.670
 2476SOL    HW1 8327   5.922   0.273   0.722
 2476SOL    HW2 8328   5.983   0.305   0.574
 2477SOL     OW 8329   3.655   0.414   3.080
 2477SOL    HW1 8330   3.586   0.343   3.084
 2477SOL    HW2 8331   3.651   0.469   3.164
 2478SOL     OW 8332   4.185   1.572   3.187
 2478SOL    HW1 8333   4.254   1.502   3.200
 2478SOL    HW2 8334   4.139   1.559   3.099
 2479SOL     OW 8335   0.734   3.464   0.607
 2479SOL    HW1 8336   0.662   3.489   0.672
 2479SOL    HW2 8337   0.694   3.410   0.533
 2480SOL     OW 8338   3.111   2.372   1.281
 2480SOL    HW1 8339   3.047   2.406   1.350
 2480SOL    HW2 8340   3.200   2.355   1.323
 2481SOL     OW 8341   3.040   0.975   1.228
 2481SOL    HW1 8342   3.043   0.882   1.191
 2481SOL    HW2 8343   3.038   0.971   1.328
 2482SOL     OW 8344   5.303   4.021   6.707
 2482SOL    HW1 8345   5.306   4.119   6.727
 2482SOL    HW2 8346   5.213   3.984   6.730
 2483SOL     OW 8347   0.278   2.301   0.887
 2483SOL    HW1 8348   0.272   2.216   0.835
 2483SOL    HW2 8349   0.187   2.330   0.916
 2484SOL     OW 8350   5.086   1.434   2.583
 2484SOL    HW1 8351   5.069   1.403   2.676
 2484SOL    HW2 8352   5.165   1.385   2.546
 2485SOL     OW 8353   4.714   2.498   6.070
 2485SOL    HW1 8354   4.724   2.407   6.028
 2485SOL    HW2 8355   4.802   2.544   6.072
 2486SOL     OW 8356   0.501   3.744   5.678
 2486SOL    HW1 8357   0.575   3.785   5.625
 2486SOL    HW2 8358   0.422   3.805   5.676
 2487SOL     OW 8359   5.105   6.108   0.010
 2487SOL    HW1 8360   5.032   6.077   0.072
 2487SOL    HW2 8361   5.169   6.165   0.061
 2488SOL     OW 8362   6.572   4.628   2.033
 2488SOL    HW1 8363   6.649   4.689   2.011
 2488SOL    HW2 8364   6.583   4.541   1.985
 2489SOL     OW 8365   0.376   5.895   3.993
 2489SOL    HW1 8366   0.278   5.874   3.992
 2489SOL    HW2 8367   0.427   5.812   4.017
 2490SOL     OW 8368   2.477   6.107   2.673
 2490SOL    HW1 8369   2.554   6.095   2.611
 2490SOL    HW2 8370   2.400   6.146   2.623
 2491SOL     OW 8371   4.261   4.742   1.423
 2491SOL    HW1 8372   4.274   4.691   1.508
 2491SOL    HW2 8373   4.337   4.722   1.361
 2492SOL     OW 8374   5.398   3.748   0.750
 2492SOL    HW1 8375   5.453   3.710   0.675
 2492SOL    HW2 8376   5.302   3.744   0.726
 2493SOL     OW 8377   6.716   6.524   1.527
 2493SOL    HW1 8378   6.697   6.498   1.621
 2493SOL    HW2 8379   6.631   6.549   1.481
 2494SOL     OW 8380   5.723   2.262   1.777
 2494SOL    HW1 8381   5.701   2.165   1.765
 2494SOL    HW2 8382   5.742   2.303   1.688
 2495SOL     OW 8383   5.349   5.624   3.363
 2495SOL    HW1 8384   5.301   5.700   3.406
 2495SOL    HW2 8385   5.289   5.579   3.297
 2496SOL     OW 8386   6.696   4.019   6.818
 2496SOL    HW1 8387   6.659   4.052   6.904
 2496SOL    HW2 8388   6.622   4.008   6.752
 2497SOL     OW 8389   0.221   0.349   1.541
 2497SOL    HW1 8390   0.260   0.269   1.585
 2497SOL    HW2 8391   0.155   0.392   1.603
 2498SOL     OW 8392   2.713   3.041   5.878
 2498SOL    HW1 8393   2.772   3.118   5.901
 2498SOL    HW2 8394   2.707   2.980   5.957
 2499SOL     OW 8395   6.336   3.240   1.457
 2499SOL    HW1 8396   6.326   3.158   1.401
 2499SOL    HW2 8397   6.246   3.277   1.481
 2500SOL     OW 8398   3.552   3.700   6.180
 2500SOL    HW1 8399   3.649   3.690   6.159
 2500SOL    HW2 8400   3.509   3.761   6.113
 2501SOL     OW 8401   5.712   6.007   0.224
 2501SOL    HW1 8402   5.746   6.065   0.150
 2501SOL    HW2 8403   5.787   5.953   0.262
 2502SOL     OW 8404   2.397   5.836   5.114
 2502SOL    HW1 8405   2.428   5.853   5.021
 2502SOL    HW2 8406   2.353   5.746   5.119
 2503SOL     OW 8407   2.800   6.698   5.617
 2503SOL    HW1 8408   2.859   6.767   5.576
 2503SOL    HW2 8409   2.743   6.657   5.545
 2504SOL     OW 8410   3.011   5.655   2.859
 2504SOL    HW1 8411   2.976   5.583   2.800
 2504SOL    HW2 8412   3.111   5.657   2.856
 2505SOL     OW 8413   0.628   5.623   2.902
 2505SOL    HW1 8414   0.549   5.642   2.843
 2505SOL    HW2 8415   0.709   5.607   2.846
 2506SOL     OW 8416   5.795   3.727   6.239
 2506SOL    HW1 8417   5.860   3.801   6.220
 2506SOL    HW2 8418   5.748   3.701   6.155
 2507SOL     OW 8419   6.805   3.200   0.375
 2507SOL    HW1 8420   6.762   3.245   0.296
 2507SOL    HW2 8421   6.904   3.217   0.372
 2508SOL     OW 8422   2.914   2.305   5.229
 2508SOL    HW1 8423   3.005   2.344   5.220
 2508SOL    HW2 8424   2.921   2.210   5.261
 2509SOL     OW 8425   6.630   4.041   0.056
 2509SOL    HW1 8426   6.584   4.057   0.144
 2509SOL    HW2 8427   6.619   3.945   0.031
 2510SOL     OW 8428   3.982   4.190   1.571
 2510SOL    HW1 8429   3.982   4.252   1.493
 2510SOL    HW2 8430   3.906   4.125   1.562
 2511SOL     OW 8431   2.035   0.719   5.036
 2511SOL    HW1 8432   2.088   0.687   4.957
 2511SOL    HW2 8433   1.937   0.707   5.017
 2512SOL     OW 8434   3.781   4.286   5.249
 2512SOL    HW1 8435   3.874   4.318   5.269
 2512SOL    HW2 8436   3.769   4.280   5.150
 2513SOL     OW 8437   2.037   6.391   5.718
 2513SOL    HW1 8438   1.974   6.464   5.693
 2513SOL    HW2 8439   2.029   6.372   5.816
 2514SOL     OW 8440   1.137   3.571   3.751
 2514SOL    HW1 8441   1.139   3.655   3.804
 2514SOL    HW2 8442   1.105   3.591   3.658
 2515SOL     OW 8443   2.052   0.440   1.504
 2515SOL    HW1 8444   2.050   0.342   1.524
 2515SOL    HW2 8445   1.967   0.482   1.535
 2516SOL     OW 8446   4.982   1.428   3.504
 2516SOL    HW1 8447   4.966   1.329   3.504
 2516SOL    HW2 8448   4.901   1.475   3.468
 2517SOL     OW 8449   1.879   0.357   5.290
 2517SOL    HW1 8450   1.862   0.451   5.319
 2517SOL    HW2 8451   1.861   0.294   5.367
 2518SOL     OW 8452   2.369   5.695   1.271
 2518SOL    HW1 8453   2.441   5.724   1.208
 2518SOL    HW2 8454   2.287   5.752   1.257
 2519SOL     OW 8455   2.882   1.214   1.325
 2519SOL    HW1 8456   2.931   1.287   1.278
 2519SOL    HW2 8457   2.942   1.134   1.333
 2520SOL     OW 8458   3.341   1.929   0.294
 2520SOL    HW1 8459   3.342   1.833   0.265
 2520SOL    HW2 8460   3.432   1.969   0.282
 2521SOL     OW 8461   4.064   1.669   4.939
 2521SOL    HW1 8462   4.023   1.587   4.977
 2521SOL    HW2 8463   4.112   1.719   5.011
 2522SOL     OW 8464   1.154   1.723   5.163
 2522SOL    HW1 8465   1.157   1.777   5.248
 2522SOL    HW2 8466   1.124   1.630   5.184
 2523SOL     OW 8467   1.786   4.123   1.252
 2523SOL    HW1 8468   1.693   4.157   1.244
 2523SOL    HW2 8469   1.833   4.169   1.328
 2524SOL     OW 8470   0.173   6.773   4.536
 2524SOL    HW1 8471   0.083   6.796   4.497
 2524SOL    HW2 8472   0.245   6.799   4.471
 2525SOL     OW 8473   1.255   2.774   4.724
 2525SOL    HW1 8474   1.209   2.752   4.638
 2525SOL    HW2 8475   1.282   2.690   4.770
 2526SOL     OW 8476   1.682   4.803   6.734
 2526SOL    HW1 8477   1.695   4.796   6.833
 2526SOL    HW2 8478   1.747   4.742   6.687
 2527SOL     OW 8479   5.585   5.766   5.614
 2527SOL    HW1 8480   5.618   5.676   5.585
 2527SOL    HW2 8481   5.657   5.834   5.603
 2528SOL     OW 8482   5.311   4.011   5.905
 2528SOL    HW1 8483   5.384   4.077   5.924
 2528SOL    HW2 8484   5.264   4.038   5.821
 2529SOL     OW 8485   0.777   0.529   6.630
 2529SOL    HW1 8486   0.861   0.574   6.601
 2529SOL    HW2 8487   0.750   0.461   6.562
 2530SOL     OW 8488   2.187   5.617   5.801
 2530SOL    HW1 8489   2.129   5.629   5.721
 2530SOL    HW2 8490   2.239   5.701   5.818
 2531SOL     OW 8491   5.542   5.572   6.000
 2531SOL    HW1 8492   5.499   5.503   6.059
 2531SOL    HW2 8493   5.474   5.638   5.970
 2532SOL     OW 8494   0.699   6.494   1.089
 2532SOL    HW1 8495   0.763   6.454   1.024
 2532SOL    HW2 8496   0.625   6.430   1.106
 2533SOL     OW 8497   4.858   0.996   3.518
 2533SOL    HW1 8498   4.939   0.964   3.568
 2533SOL    HW2 8499   4.827   0.924   3.456
 2534SOL     OW 8500   5.052   1.953   1.833
 2534SOL    HW1 8501   5.013   1.861   1.836
 2534SOL    HW2 8502   5.152   1.947   1.835
 2535SOL     OW 8503   3.609   2.755   6.781
 2535SOL    HW1 8504   3.639   2.691   6.852
 2535SOL    HW2 8505   3.553   2.705   6.714
 2536SOL     OW 8506   1.583   0.840   6.189
 2536SOL    HW1 8507   1.644   0.859   6.113
 2536SOL    HW2 8508   1.488   0.853   6.160
 2537SOL     OW 8509   3.370   0.220   6.371
 2537SOL    HW1 8510   3.442   0.177   6.426
 2537SOL    HW2 8511   3.323   0.151   6.317
 2538SOL     OW 8512   6.937   4.000   4.049
 2538SOL    HW1 8513   6.899   4.041   4.132
 2538SOL    HW2 8514   6.949   3.901   4.063
 2539SOL     OW 8515   5.811   0.930   3.400
 2539SOL    HW1 8516   5.894   0.956   3.352
 2539SOL    HW2 8517   5.834   0.870   3.477
 2540SOL     OW 8518   4.036   1.968   3.011
 2540SOL    HW1 8519   3.948   1.956   2.965
 2540SOL    HW2 8520   4.054   2.065   3.024
 2541SOL     OW 8521   2.655   0.373   5.594
 2541SOL    HW1 8522   2.602   0.423   5.525
 2541SOL    HW2 8523   2.743   0.420   5.608
 2542SOL     OW 8524   2.886   3.945   6.909
 2542SOL    HW1 8525   2.941   4.027   6.922
 2542SOL    HW2 8526   2.813   3.964   6.842
 2543SOL     OW 8527   1.075   0.970   3.979
 2543SOL    HW1 8528   0.985   0.966   3.936
 2543SOL    HW2 8529   1.099   0.881   4.017
 2544SOL     OW 8530   0.911   5.761   0.757
 2544SOL    HW1 8531   0.983   5.720   0.701
 2544SOL    HW2 8532   0.829   5.775   0.702
 2545SOL     OW 8533   1.395   7.001   2.198
 2545SOL    HW1 8534   1.407   6.996   2.298
 2545SOL    HW2 8535   1.444   0.056   2.163
 2546SOL     OW 8536   6.614   1.679   0.756
 2546SOL    HW1 8537   6.610   1.766   0.804
 2546SOL    HW2 8538   6.523   1.638   0.753
 2547SOL     OW 8539   0.159   3.889   6.808
 2547SOL    HW1 8540   0.091   3.923   6.873
 2547SOL    HW2 8541   0.112   3.851   6.728
 2548SOL     OW 8542   6.941   6.798   4.428
 2548SOL    HW1 8543   6.892   6.711   4.426
 2548SOL    HW2 8544   6.912   6.855   4.352
 2549SOL     OW 8545   0.912   0.682   1.453
 2549SOL    HW1 8546   0.864   0.638   1.377
 2549SOL    HW2 8547   0.846   0.714   1.521
 2550SOL     OW 8548   5.936   6.943   0.313
 2550SOL    HW1 8549   6.007   6.957   0.244
 2550SOL    HW2 8550   5.848   6.976   0.279
 2551SOL     OW 8551   3.130   4.727   0.031
 2551SOL    HW1 8552   3.177   4.669   0.098
 2551SOL    HW2 8553   3.098   4.810   0.076
 2552SOL     OW 8554   2.646   5.042   4.928
 2552SOL    HW1 8555   2.611   5.015   5.017
 2552SOL    HW2 8556   2.597   4.994   4.856
 2553SOL     OW 8557   3.821   3.655   6.081
 2553SOL    HW1 8558   3.854   3.749   6.092
 2553SOL    HW2 8559   3.874   3.609   6.010
 2554SOL     OW 8560   2.353   1.103   0.562
 2554SOL    HW1 8561   2.388   1.142   0.646
 2554SOL    HW2 8562   2.297   1.022   0.583
 2555SOL     OW 8563   5.090   3.013   4.340
 2555SOL    HW1 8564   5.070   2.939   4.276
 2555SOL    HW2 8565   5.025   3.009   4.417
 2556SOL     OW 8566   3.694   6.168   0.280
 2556SOL    HW1 8567   3.695   6.146   0.378
 2556SOL    HW2 8568   3.682   6.083   0.228
 2557SOL     OW 8569   2.073   3.322   6.782
 2557SOL    HW1 8570   2.015   3.400   6.761
 2557SOL    HW2 8571   2.152   3.322   6.720
 2558SOL     OW 8572   4.774   0.987   5.756
 2558SOL    HW1 8573   4.823   1.033   5.682
 2558SOL    HW2 8574   4.829   0.989   5.839
 2559SOL     OW 8575   1.086   4.153   5.884
 2559SOL    HW1 8576   1.120   4.130   5.792
 2559SOL    HW2 8577   0.998   4.200   5.876
 2560SOL     OW 8578   6.739   2.823   6.061
 2560SOL    HW1 8579   6.704   2.805   6.153
 2560SOL    HW2 8580   6.778   2.915   6.059
 2561SOL     OW 8581   3.434   4.963   4.797
 2561SOL    HW1 8582   3.457   5.018   4.876
 2561SOL    HW2 8583   3.350   4.911   4.815
 2562SOL     OW 8584   2.345   4.125   0.862
 2562SOL    HW1 8585   2.443   4.143   0.867
 2562SOL    HW2 8586   2.316   4.075   0.943
 2563SOL     OW 8587   2.846   0.503   0.423
 2563SOL    HW1 8588   2.844   0.603   0.421
 2563SOL    HW2 8589   2.813   0.470   0.512
 2564SOL     OW 8590   1.430   5.198   0.857
 2564SOL    HW1 8591   1.465   5.246   0.937
 2564SOL    HW2 8592   1.419   5.262   0.782
 2565SOL     OW 8593   0.460   0.587   0.628
 2565SOL    HW1 8594   0.502   0.663   0.579
 2565SOL    HW2 8595   0.376   0.558   0.582
 2566SOL     OW 8596   2.032   6.342   1.265
 2566SOL    HW1 8597   1.986   6.271   1.212
 2566SOL    HW2 8598   2.126   6.315   1.283
 2567SOL     OW 8599   1.410   6.961   0.851
 2567SOL    HW1 8600   1.318   6.931   0.875
 2567SOL    HW2 8601   1.430   0.023   0.896
 2568SOL     OW 8602   4.833   2.456   6.925
 2568SOL    HW1 8603   4.800   2.384   6.987
 2568SOL    HW2 8604   4.765   2.474   6.855
 2569SOL     OW 8605   3.288   1.373   3.452
 2569SOL    HW1 8606   3.224   1.450   3.456
 2569SOL    HW2 8607   3.269   1.318   3.371
 2570SOL     OW 8608   5.629   1.021   5.608
 2570SOL    HW1 8609   5.536   1.056   5.624
 2570SOL    HW2 8610   5.692   1.062   5.674
 2571SOL     OW 8611   1.472   4.827   4.215
 2571SOL    HW1 8612   1.386   4.822   4.164
 2571SOL    HW2 8613   1.460   4.891   4.292
 2572SOL     OW 8614   2.877   4.916   2.698
 2572SOL    HW1 8615   2.828   4.879   2.777
 2572SOL    HW2 8616   2.842   4.874   2.614
 2573SOL     OW 8617   0.565   1.629   0.702
 2573SOL    HW1 8618   0.598   1.634   0.797
 2573SOL    HW2 8619   0.521   1.541   0.687
 2574SOL     OW 8620   5.534   2.900   0.898
 2574SOL    HW1 8621   5.628   2.920   0.926
 2574SOL    HW2 8622   5.528   2.805   0.868
 2575SOL     OW 8623   5.957   6.009   6.975
 2575SOL    HW1 8624   6.046   5.964   6.965
 2575SOL    HW2 8625   5.889   5.961   6.920
 2576SOL     OW 8626   4.302   6.354   4.673
 2576SOL    HW1 8627   4.238   6.290   4.629
 2576SOL    HW2 8628   4.251   6.415   4.734
 2577SOL     OW 8629   2.876   4.765   2.189
 2577SOL    HW1 8630   2.822   4.694   2.143
 2577SOL    HW2 8631   2.827   4.852   2.183
 2578SOL     OW 8632   3.768   1.267   4.187
 2578SOL    HW1 8633   3.751   1.359   4.153
 2578SOL    HW2 8634   3.721   1.255   4.275
 2579SOL     OW 8635   0.467   6.151   3.724
 2579SOL    HW1 8636   0.535   6.127   3.793
 2579SOL    HW2 8637   0.375   6.147   3.764
 2580SOL     OW 8638   2.402   4.634   0.251
 2580SOL    HW1 8639   2.446   4.556   0.296
 2580SOL    HW2 8640   2.310   4.646   0.286
 2581SOL     OW 8641   2.771   6.133   6.018
 2581SOL    HW1 8642   2.831   6.172   6.088
 2581SOL    HW2 8643   2.826   6.093   5.945
 2582SOL     OW 8644   6.916   4.028   1.019
 2582SOL    HW1 8645   6.903   4.044   0.921
 2582SOL    HW2 8646   6.827   4.013   1.063
 2583SOL     OW 8647   0.087   6.981   0.873
 2583SOL    HW1 8648   0.016   0.014   0.914
 2583SOL    HW2 8649   0.152   0.015   0.824
 2584SOL     OW 8650   4.072   5.286   5.485
 2584SOL    HW1 8651   4.026   5.236   5.558
 2584SOL    HW2 8652   4.005   5.312   5.415
 2585SOL     OW 8653   2.991   5.319   6.332
 2585SOL    HW1 8654   3.085   5.349   6.316
 2585SOL    HW2 8655   2.975   5.233   6.284
 2586SOL     OW 8656   2.585   1.245   5.845
 2586SOL    HW1 8657   2.675   1.274   5.812
 2586SOL    HW2 8658   2.539   1.324   5.886
 2587SOL     OW 8659   0.907   1.061   2.817
 2587SOL    HW1 8660   0.840   1.134   2.805
 2587SOL    HW2 8661   0.998   1.101   2.824
 2588SOL     OW 8662   4.183   2.072   5.351
 2588SOL    HW1 8663   4.149   2.165   5.367
 2588SOL    HW2 8664   4.283   2.074   5.343
 2589SOL     OW 8665   0.885   6.591   6.984
 2589SOL    HW1 8666   0.799   6.570   6.938
 2589SOL    HW2 8667   0.951   6.625   6.916
 2590SOL     OW 8668   2.933   5.057   0.334
 2590SOL    HW1 8669   2.940   5.156   0.352
 2590SOL    HW2 8670   2.911   5.009   0.419
 2591SOL     OW 8671   6.177   5.504   3.798
 2591SOL    HW1 8672   6.155   5.437   3.869
 2591SOL    HW2 8673   6.230   5.579   3.837
 2592SOL     OW 8674   2.435   4.154   6.620
 2592SOL    HW1 8675   2.457   4.205   6.703
 2592SOL    HW2 8676   2.476   4.201   6.541
 2593SOL     OW 8677   3.272   5.905   0.914
 2593SOL    HW1 8678   3.212   5.829   0.937
 2593SOL    HW2 8679   3.247   5.941   0.824
 2594SOL     OW 8680   2.081   4.200   5.723
 2594SOL    HW1 8681   2.050   4.281   5.772
 2594SOL    HW2 8682   2.141   4.228   5.647
 2595SOL     OW 8683   1.336   1.614   4.218
 2595SOL    HW1 8684   1.366   1.526   4.181
 2595SOL    HW2 8685   1.414   1.675   4.228
 2596SOL     OW 8686   1.955   2.916   1.175
 2596SOL    HW1 8687   1.931   2.988   1.240
 2596SOL    HW2 8688   2.054   2.907   1.169
 2597SOL     OW 8689   0.392   5.180   6.167
 2597SOL    HW1 8690   0.453   5.100   6.169
 2597SOL    HW2 8691   0.447   5.263   6.160
 2598SOL     OW 8692   6.403   1.623   2.068
 2598SOL    HW1 8693   6.356   1.666   2.145
 2598SOL    HW2 8694   6.437   1.533   2.095
 2599SOL     OW 8695   3.194   6.247   2.003
 2599SOL    HW1 8696   3.096   6.228   2.000
 2599SOL    HW2 8697   3.229   6.257   1.910
 2600SOL     OW 8698   6.674   3.750   4.700
 2600SOL    HW1 8699   6.688   3.658   4.665
 2600SOL    HW2 8700   6.720   3.760   4.788
 2601SOL     OW 8701   1.198   1.435   2.242
 2601SOL    HW1 8702   1.128   1.372   2.276
 2601SOL    HW2 8703   1.156   1.520   2.213
 2602SOL     OW 8704   1.888   5.014   4.151
 2602SOL    HW1 8705   1.858   5.000   4.245
 2602SOL    HW2 8706   1.814   4.989   4.088
 2603SOL     OW 8707   2.944   1.183   2.240
 2603SOL    HW1 8708   2.941   1.191   2.340
 2603SOL    HW2 8709   2.900   1.097   2.212
 2604SOL     OW 8710   5.899   1.453   1.513
 2604SOL    HW1 8711   5.925   1.431   1.607
 2604SOL    HW2 8712   5.973   1.428   1.451
 2605SOL     OW 8713   1.462   4.224   2.010
 2605SOL    HW1 8714   1.452   4.279   1.927
 2605SOL    HW2 8715   1.500   4.135   1.986
 2606SOL     OW 8716   5.061   4.460   1.246
 2606SOL    HW1 8717   4.996   4.431   1.175
 2606SOL    HW2 8718   5.150   4.418   1.230
 2607SOL     OW 8719   1.848   2.537   0.850
 2607SOL    HW1 8720   1.811   2.520   0.759
 2607SOL    HW2 8721   1.831   2.456   0.907
 2608SOL     OW 8722   2.154   6.072   6.545
 2608SOL    HW1 8723   2.146   5.973   6.552
 2608SOL    HW2 8724   2.244   6.097   6.510
 2609SOL     OW 8725   0.638   0.993   1.251
 2609SOL    HW1 8726   0.629   0.898   1.221
 2609SOL    HW2 8727   0.652   0.995   1.350
 2610SOL     OW 8728   0.960   4.608   4.906
 2610SOL    HW1 8729   0.988   4.653   4.821
 2610SOL    HW2 8730   1.022   4.634   4.980
 2611SOL     OW 8731   5.164   6.818   6.957
 2611SOL    HW1 8732   5.238   6.877   6.927
 2611SOL    HW2 8733   5.077   6.851   6.919
 2612SOL     OW 8734   5.442   0.449   4.769
 2612SOL    HW1 8735   5.495   0.455   4.684
 2612SOL    HW2 8736   5.505   0.430   4.845
 2613SOL     OW 8737   0.704   5.596   6.591
 2613SOL    HW1 8738   0.651   5.609   6.508
 2613SOL    HW2 8739   0.688   5.672   6.654
 2614SOL     OW 8740   6.323   1.135   5.991
 2614SOL    HW1 8741   6.228   1.105   5.982
 2614SOL    HW2 8742   6.374   1.108   5.909
 2615SOL     OW 8743   1.209   3.589   1.109
 2615SOL    HW1 8744   1.226   3.667   1.048
 2615SOL    HW2 8745   1.164   3.622   1.192
 2616SOL     OW 8746   1.351   0.372   5.382
 2616SOL    HW1 8747   1.413   0.400   5.455
 2616SOL    HW2 8748   1.267   0.425   5.388
 2617SOL     OW 8749   5.549   0.324   0.572
 2617SOL    HW1 8750   5.484   0.299   0.644
 2617SOL    HW2 8751   5.578   0.243   0.523
 2618SOL     OW 8752   1.495   5.825   6.212
 2618SOL    HW1 8753   1.564   5.871   6.157
 2618SOL    HW2 8754   1.435   5.772   6.152
 2619SOL     OW 8755   4.481   1.625   1.940
 2619SOL    HW1 8756   4.426   1.601   2.020
 2619SOL    HW2 8757   4.433   1.596   1.857
 2620SOL     OW 8758   6.720   6.213   1.669
 2620SOL    HW1 8759   6.729   6.114   1.673
 2620SOL    HW2 8760   6.649   6.238   1.603
 2621SOL     OW 8761   1.225   5.902   2.580
 2621SOL    HW1 8762   1.323   5.892   2.597
 2621SOL    HW2 8763   1.192   5.824   2.528
 2622SOL     OW 8764   2.816   3.359   6.230
 2622SOL    HW1 8765   2.909   3.368   6.265
 2622SOL    HW2 8766   2.762   3.302   6.291
 2623SOL     OW 8767   0.712   6.914   3.853
 2623SOL    HW1 8768   0.671   6.924   3.762
 2623SOL    HW2 8769   0.717   6.817   3.877
 2624SOL     OW 8770   7.007   1.957   4.803
 2624SOL    HW1 8771   6.924   1.998   4.842
 2624SOL    HW2 8772   0.051   1.944   4.874
 2625SOL     OW 8773   1.783   5.119   5.531
 2625SOL    HW1 8774   1.877   5.109   5.499
 2625SOL    HW2 8775   1.770   5.210   5.570
 2626SOL     OW 8776   6.247   6.327   5.440
 2626SOL    HW1 8777   6.265   6.298   5.534
 2626SOL    HW2 8778   6.331   6.362   5.400
 2627SOL     OW 8779   1.165   6.842   5.870
 2627SOL    HW1 8780   1.229   6.771   5.843
 2627SOL    HW2 8781   1.213   6.929   5.879
 2628SOL     OW 8782   1.490   3.978   3.067
 2628SOL    HW1 8783   1.510   3.889   3.026
 2628SOL    HW2 8784   1.539   4.050   3.018
 2629SOL     OW 8785   3.057   3.983   3.527
 2629SOL    HW1 8786   3.023   3.893   3.498
 2629SOL    HW2 8787   3.068   4.041   3.447
 2630SOL     OW 8788   3.701   1.243   3.686
 2630SOL    HW1 8789   3.644   1.237   3.768
 2630SOL    HW2 8790   3.772   1.173   3.690
 2631SOL     OW 8791   5.532   0.756   6.751
 2631SOL    HW1 8792   5.596   0.680   6.744
 2631SOL    HW2 8793   5.456   0.731   6.811
 2632SOL     OW 8794   5.751   4.794   2.261
 2632SOL    HW1 8795   5.716   4.748   2.180
 2632SOL    HW2 8796   5.674   4.831   2.314
 2633SOL     OW 8797   6.865   3.023   5.444
 2633SOL    HW1 8798   6.769   3.022   5.473
 2633SOL    HW2 8799   6.870   3.014   5.344
 2634SOL     OW 8800   6.261   0.392   4.950
 2634SOL    HW1 8801   6.353   0.430   4.939
 2634SOL    HW2 8802   6.263   0.293   4.937
 2635SOL     OW 8803   5.463   5.567   4.029
 2635SOL    HW1 8804   5.533   5.637   4.017
 2635SOL    HW2 8805   5.442   5.557   4.126
 2636SOL     OW 8806   3.543   0.415   6.035
 2636SOL    HW1 8807   3.587   0.370   6.112
 2636SOL    HW2 8808   3.605   0.482   5.995
 2637SOL     OW 8809   1.294   1.370   2.901
 2637SOL    HW1 8810   1.353   1.440   2.942
 2637SOL    HW2 8811   1.218   1.350   2.963
 2638SOL     OW 8812   0.814   0.240   4.428
 2638SOL    HW1 8813   0.900   0.225   4.477
 2638SOL    HW2 8814   0.825   0.210   4.333
 2639SOL     OW 8815   4.719   5.519   4.586
 2639SOL    HW1 8816   4.630   5.475   4.598
 2639SOL    HW2 8817   4.765   5.480   4.506
 2640SOL     OW 8818   0.850   6.808   4.504
 2640SOL    HW1 8819   0.837   6.812   4.405
 2640SOL    HW2 8820   0.947   6.823   4.526
 2641SOL     OW 8821   5.363   2.271   0.331
 2641SOL    HW1 8822   5.300   2.208   0.286
 2641SOL    HW2 8823   5.312   2.330   0.394
 2642SOL     OW 8824   0.359   1.256   3.952
 2642SOL    HW1 8825   0.307   1.307   4.020
 2642SOL    HW2 8826   0.433   1.313   3.917
 2643SOL     OW 8827   0.969   4.126   3.210
 2643SOL    HW1 8828   1.046   4.181   3.241
 2643SOL    HW2 8829   0.945   4.152   3.116
 2644SOL     OW 8830   5.259   5.599   5.089
 2644SOL    HW1 8831   5.159   5.590   5.084
 2644SOL    HW2 8832   5.282   5.695   5.105
 2645SOL     OW 8833   4.811   4.670   3.361
 2645SOL    HW1 8834   4.728   4.725   3.351
 2645SOL    HW2 8835   4.818   4.607   3.284
 2646SOL     OW 8836   0.391   3.395   6.157
 2646SOL    HW1 8837   0.308   3.401   6.213
 2646SOL    HW2 8838   0.464   3.448   6.201
 2647SOL     OW 8839   5.070   6.841   1.761
 2647SOL    HW1 8840   5.170   6.849   1.763
 2647SOL    HW2 8841   5.033   6.907   1.695
 2648SOL     OW 8842   0.336   0.222   4.033
 2648SOL    HW1 8843   0.370   0.314   4.010
 2648SOL    HW2 8844   0.398   0.153   3.996
 2649SOL     OW 8845   4.718   2.385   2.076
 2649SOL    HW1 8846   4.703   2.408   2.172
 2649SOL    HW2 8847   4.698   2.464   2.018
 2650SOL     OW 8848   3.643   5.771   5.250
 2650SOL    HW1 8849   3.718   5.818   5.203
 2650SOL    HW2 8850   3.564   5.831   5.255
 2651SOL     OW 8851   4.148   1.867   5.156
 2651SOL    HW1 8852   4.189   1.921   5.230
 2651SOL    HW2 8853   4.184   1.897   5.068
 2652SOL     OW 8854   5.427   3.474   5.016
 2652SOL    HW1 8855   5.454   3.418   5.095
 2652SOL    HW2 8856   5.444   3.570   5.036
 2653SOL     OW 8857   3.153   6.347   6.327
 2653SOL    HW1 8858   3.182   6.277   6.393
 2653SOL    HW2 8859   3.062   6.381   6.353
 2654SOL     OW 8860   5.447   0.654   0.137
 2654SOL    HW1 8861   5.376   0.686   0.200
 2654SOL    HW2 8862   5.519   0.722   0.129
 2655SOL     OW 8863   5.088   6.155   3.161
 2655SOL    HW1 8864   5.033   6.119   3.237
 2655SOL    HW2 8865   5.159   6.090   3.136
 2656SOL     OW 8866   3.742   5.486   3.799
 2656SOL    HW1 8867   3.644   5.498   3.813
 2656SOL    HW2 8868   3.758   5.400   3.751
 2657SOL     OW 8869   2.433   3.550   0.159
 2657SOL    HW1 8870   2.474   3.606   0.087
 2657SOL    HW2 8871   2.500   3.484   0.192
 2658SOL     OW 8872   4.335   4.809   5.898
 2658SOL    HW1 8873   4.420   4.764   5.872
 2658SOL    HW2 8874   4.301   4.768   5.983
 2659SOL     OW 8875   6.360   2.410   4.727
 2659SOL    HW1 8876   6.456   2.435   4.720
 2659SOL    HW2 8877   6.328   2.374   4.639
 2660SOL     OW 8878   0.597   2.246   1.413
 2660SOL    HW1 8879   0.554   2.156   1.414
 2660SOL    HW2 8880   0.529   2.316   1.438
 2661SOL     OW 8881   1.718   0.964   0.897
 2661SOL    HW1 8882   1.712   1.027   0.820
 2661SOL    HW2 8883   1.767   1.008   0.972
 2662SOL     OW 8884   3.243   0.868   2.693
 2662SOL    HW1 8885   3.243   0.924   2.610
 2662SOL    HW2 8886   3.336   0.841   2.716
 2663SOL     OW 8887   4.224   6.816   6.303
 2663SOL    HW1 8888   4.154   6.753   6.337
 2663SOL    HW2 8889   4.246   6.883   6.374
 2664SOL     OW 8890   4.074   2.710   5.868
 2664SOL    HW1 8891   4.008   2.775   5.830
 2664SOL    HW2 8892   4.166   2.749   5.862
 2665SOL     OW 8893   2.254   3.993   5.382
 2665SOL    HW1 8894   2.299   3.967   5.296
 2665SOL    HW2 8895   2.299   3.946   5.458
 2666SOL     OW 8896   2.193   3.860   2.314
 2666SOL    HW1 8897   2.222   3.954   2.329
 2666SOL    HW2 8898   2.102   3.859   2.272
 2667SOL     OW 8899   5.763   4.143   3.719
 2667SOL    HW1 8900   5.713   4.059   3.700
 2667SOL    HW2 8901   5.831   4.125   3.790
 2668SOL     OW 8902   5.927   1.566   4.555
 2668SOL    HW1 8903   5.868   1.487   4.572
 2668SOL    HW2 8904   5.907   1.604   4.464
 2669SOL     OW 8905   2.197   0.590   0.548
 2669SOL    HW1 8906   2.193   0.688   0.571
 2669SOL    HW2 8907   2.107   0.549   0.562
 2670SOL     OW 8908   0.176   0.901   5.905
 2670SOL    HW1 8909   0.093   0.845   5.899
 2670SOL    HW2 8910   0.241   0.874   5.834
 2671SOL     OW 8911   4.141   5.618   5.807
 2671SOL    HW1 8912   4.048   5.649   5.830
 2671SOL    HW2 8913   4.146   5.599   5.709
 2672SOL     OW 8914   3.996   0.903   1.760
 2672SOL    HW1 8915   4.019   0.930   1.666
 2672SOL    HW2 8916   4.079   0.905   1.816
 2673SOL     OW 8917   5.148   0.179   2.522
 2673SOL    HW1 8918   5.069   0.123   2.499
 2673SOL    HW2 8919   5.130   0.275   2.499
 2674SOL     OW 8920   0.968   5.598   3.000
 2674SOL    HW1 8921   0.954   5.523   3.065
 2674SOL    HW2 8922   0.939   5.684   3.041
 2675SOL     OW 8923   6.138   6.877   4.315
 2675SOL    HW1 8924   6.189   6.958   4.345
 2675SOL    HW2 8925   6.155   6.862   4.218
 2676SOL     OW 8926   3.283   3.669   3.016
 2676SOL    HW1 8927   3.285   3.619   3.103
 2676SOL    HW2 8928   3.203   3.728   3.013
 2677SOL     OW 8929   2.235   4.781   1.700
 2677SOL    HW1 8930   2.198   4.689   1.692
 2677SOL    HW2 8931   2.334   4.777   1.706
 2678SOL     OW 8932   5.616   2.489   2.634
 2678SOL    HW1 8933   5.586   2.464   2.542
 2678SOL    HW2 8934   5.580   2.423   2.701
 2679SOL     OW 8935   2.058   4.875   3.329
 2679SOL    HW1 8936   2.065   4.824   3.414
 2679SOL    HW2 8937   2.149   4.906   3.301
 2680SOL     OW 8938   1.041   2.010   6.871
 2680SOL    HW1 8939   1.140   2.000   6.865
 2680SOL    HW2 8940   1.008   2.067   6.795
 2681SOL     OW 8941   1.668   2.292   5.117
 2681SOL    HW1 8942   1.752   2.240   5.130
 2681SOL    HW2 8943   1.647   2.300   5.020
 2682SOL     OW 8944   4.686   4.503   1.281
 2682SOL    HW1 8945   4.724   4.416   1.314
 2682SOL    HW2 8946   4.672   4.564   1.358
 2683SOL     OW 8947   2.111   4.215   2.497
 2683SOL    HW1 8948   2.085   4.151   2.569
 2683SOL    HW2 8949   2.139   4.164   2.416
 2684SOL     OW 8950   5.789   6.197   2.263
 2684SOL    HW1 8951   5.809   6.131   2.191
 2684SOL    HW2 8952   5.779   6.149   2.350
 2685SOL     OW 8953   0.644   5.964   4.931
 2685SOL    HW1 8954   0.731   5.923   4.955
 2685SOL    HW2 8955   0.584   5.966   5.011
 2686SOL     OW 8956   1.304   1.028   4.323
 2686SOL    HW1 8957   1.244   1.064   4.394
 2686SOL    HW2 8958   1.315   0.929   4.336
 2687SOL     OW 8959   3.931   1.654   2.015
 2687SOL    HW1 8960   3.832   1.654   2.000
 2687SOL    HW2 8961   3.951   1.619   2.107
 2688SOL     OW 8962   3.552   3.380   5.877
 2688SOL    HW1 8963   3.518   3.286   5.875
 2688SOL    HW2 8964   3.534   3.420   5.967
 2689SOL     OW 8965   0.684   3.784   3.187
 2689SOL    HW1 8966   0.663   3.820   3.096
 2689SOL    HW2 8967   0.782   3.791   3.204
 2690SOL     OW 8968   3.315   1.466   6.040
 2690SOL    HW1 8969   3.381   1.464   6.115
 2690SOL    HW2 8970   3.349   1.524   5.966
 2691SOL     OW 8971   0.370   4.652   3.602
 2691SOL    HW1 8972   0.411   4.679   3.689
 2691SOL    HW2 8973   0.415   4.569   3.569
 2692SOL     OW 8974   2.945   5.487   2.663
 2692SOL    HW1 8975   2.902   5.503   2.574
 2692SOL    HW2 8976   2.879   5.443   2.724
 2693SOL     OW 8977   1.668   5.484   3.809
 2693SOL    HW1 8978   1.629   5.443   3.726
 2693SOL    HW2 8979   1.703   5.575   3.787
 2694SOL     OW 8980   2.783   6.780   4.209
 2694SOL    HW1 8981   2.705   6.771   4.147
 2694SOL    HW2 8982   2.847   6.847   4.172
 2695SOL     OW 8983   6.886   5.986   3.177
 2695SOL    HW1 8984   6.948   6.064   3.176
 2695SOL    HW2 8985   6.791   6.019   3.183
 2696SOL     OW 8986   4.785   4.389   5.917
 2696SOL    HW1 8987   4.761   4.293   5.903
 2696SOL    HW2 8988   4.768   4.414   6.012
 2697SOL     OW 8989   3.712   2.840   0.816
 2697SOL    HW1 8990   3.650   2.904   0.771
 2697SOL    HW2 8991   3.768   2.794   0.746
 2698SOL     OW 8992   1.512   3.866   5.796
 2698SOL    HW1 8993   1.576   3.937   5.825
 2698SOL    HW2 8994   1.466   3.827   5.876
 2699SOL     OW 8995   3.584   5.741   1.930
 2699SOL    HW1 8996   3.526   5.751   2.011
 2699SOL    HW2 8997   3.665   5.688   1.953
 2700SOL     OW 8998   2.884   2.083   1.508
 2700SOL    HW1 8999   2.850   2.105   1.416
 2700SOL    HW2 9000   2.887   2.167   1.563
 2701SOL     OW 9001   5.134   3.064   4.634
 2701SOL    HW1 9002   5.152   3.160   4.658
 2701SOL    HW2 9003   5.035   3.049   4.629
 2702SOL     OW 9004   2.410   1.783   4.956
 2702SOL    HW1 9005   2.332   1.775   5.019
 2702SOL    HW2 9006   2.426   1.879   4.936
 2703SOL     OW 9007   1.401   6.635   2.081
 2703SOL    HW1 9008   1.385   6.595   2.171
 2703SOL    HW2 9009   1.341   6.592   2.014
 2704SOL     OW 9010   6.162   6.513   3.421
 2704SOL    HW1 9011   6.188   6.609   3.410
 2704SOL    HW2 9012   6.063   6.507   3.434
 2705SOL     OW 9013   0.231   0.333   4.872
 2705SOL    HW1 9014   0.200   0.395   4.943
 2705SOL    HW2 9015   0.237   0.240   4.908
 2706SOL     OW 9016   6.697   4.298   4.199
 2706SOL    HW1 9017   6.600   4.295   4.223
 2706SOL    HW2 9018   6.711   4.254   4.111
 2707SOL     OW 9019   3.861   0.620   2.892
 2707SOL    HW1 9020   3.873   0.583   2.984
 2707SOL    HW2 9021   3.944   0.668   2.864
 2708SOL     OW 9022   5.405   2.594   6.961
 2708SOL    HW1 9023   5.462   2.625   0.013
 2708SOL    HW2 9024   5.339   2.666   6.938
 2709SOL     OW 9025   5.379   0.636   5.166
 2709SOL    HW1 9026   5.402   0.733   5.177
 2709SOL    HW2 9027   5.330   0.623   5.080
 2710SOL     OW 9028   1.289   2.782   3.758
 2710SOL    HW1 9029   1.367   2.723   3.783
 2710SOL    HW2 9030   1.277   2.781   3.659
 2711SOL     OW 9031   3.563   1.851   2.612
 2711SOL    HW1 9032   3.493   1.873   2.679
 2711SOL    HW2 9033   3.616   1.772   2.643
 2712SOL     OW 9034   4.114   5.305   2.574
 2712SOL    HW1 9035   4.048   5.331   2.645
 2712SOL    HW2 9036   4.146   5.212   2.591
 2713SOL     OW 9037   3.969   4.890   6.320
 2713SOL    HW1 9038   3.902   4.836   6.267
 2713SOL    HW2 9039   4.034   4.932   6.257
 2714SOL     OW 9040   3.165   4.139   7.005
 2714SOL    HW1 9041   3.211   4.155   0.068
 2714SOL    HW2 9042   3.068   4.163   7.013
 2715SOL     OW 9043   4.497   0.975   1.048
 2715SOL    HW1 9044   4.427   0.913   1.084
 2715SOL    HW2 9045   4.587   0.933   1.057
 2716SOL     OW 9046   3.744   2.036   2.810
 2716SOL    HW1 9047   3.776   1.945   2.785
 2716SOL    HW2 9048   3.723   2.088   2.727
 2717SOL     OW 9049   0.690   1.408   2.780
 2717SOL    HW1 9050   0.646   1.349   2.848
 2717SOL    HW2 9051   0.658   1.502   2.792
 2718SOL     OW 9052   0.358   0.071   6.072
 2718SOL    HW1 9053   0.306   0.113   6.146
 2718SOL    HW2 9054   0.450   0.047   6.105
 2719SOL     OW 9055   1.889   3.831   2.404
 2719SOL    HW1 9056   1.886   3.778   2.489
 2719SOL    HW2 9057   1.881   3.770   2.326
 2720SOL     OW 9058   1.235   6.214   5.175
 2720SOL    HW1 9059   1.249   6.296   5.118
 2720SOL    HW2 9060   1.277   6.229   5.264
 2721SOL     OW 9061   3.489   5.612   1.706
 2721SOL    HW1 9062   3.409   5.662   1.674
 2721SOL    HW2 9063   3.536   5.667   1.776
 2722SOL     OW 9064   4.545   4.978   6.680
 2722SOL    HW1 9065   4.468   5.034   6.650
 2722SOL    HW2 9066   4.608   4.963   6.604
 2723SOL     OW 9067   3.102   6.785   0.524
 2723SOL    HW1 9068   3.143   6.876   0.518
 2723SOL    HW2 9069   3.008   6.792   0.558
 2724SOL     OW 9070   1.527   5.746   0.935
 2724SOL    HW1 9071   1.459   5.800   0.984
 2724SOL    HW2 9072   1.594   5.710   1.000
 2725SOL     OW 9073   5.883   3.796   4.768
 2725SOL    HW1 9074   5.822   3.870   4.795
 2725SOL    HW2 9075   5.962   3.794   4.829
 2726SOL     OW 9076   0.218   1.648   1.418
 2726SOL    HW1 9077   0.184   1.717   1.482
 2726SOL    HW2 9078   0.173   1.660   1.330
 2727SOL     OW 9079   2.246   3.947   4.311
 2727SOL    HW1 9080   2.330   3.967   4.259
 2727SOL    HW2 9081   2.232   3.848   4.314
 2728SOL     OW 9082   5.229   5.613   6.282
 2728SOL    HW1 9083   5.236   5.626   6.381
 2728SOL    HW2 9084   5.278   5.685   6.235
 2729SOL     OW 9085   5.780   5.967   6.258
 2729SOL    HW1 9086   5.744   5.876   6.280
 2729SOL    HW2 9087   5.835   5.961   6.174
 2730SOL     OW 9088   0.673   5.587   2.175
 2730SOL    HW1 9089   0.599   5.631   2.226
 2730SOL    HW2 9090   0.694   5.642   2.094
 2731SOL     OW 9091   3.400   2.923   3.599
 2731SOL    HW1 9092   3.482   2.980   3.607
 2731SOL    HW2 9093   3.385   2.875   3.686
 2732SOL     OW 9094   5.743   1.223   1.499
 2732SOL    HW1 9095   5.809   1.298   1.493
 2732SOL    HW2 9096   5.770   1.150   1.436
 2733SOL     OW 9097   0.567   0.357   5.978
 2733SOL    HW1 9098   0.543   0.406   5.894
 2733SOL    HW2 9099   0.587   0.262   5.957
 2734SOL     OW 9100   3.648   5.982   1.764
 2734SOL    HW1 9101   3.565   6.038   1.758
 2734SOL    HW2 9102   3.626   5.898   1.815
 2735SOL     OW 9103   0.497   1.721   1.407
 2735SOL    HW1 9104   0.400   1.740   1.395
 2735SOL    HW2 9105   0.532   1.670   1.328
 2736SOL     OW 9106   4.306   5.789   2.941
 2736SOL    HW1 9107   4.311   5.885   2.970
 2736SOL    HW2 9108   4.347   5.779   2.850
 2737SOL     OW 9109   2.298   1.993   6.677
 2737SOL    HW1 9110   2.345   1.932   6.740
 2737SOL    HW2 9111   2.332   2.087   6.688
 2738SOL     OW 9112   5.583   0.337   1.445
 2738SOL    HW1 9113   5.484   0.320   1.449
 2738SOL    HW2 9114   5.626   0.305   1.529
 2739SOL     OW 9115   0.725   5.343   2.269
 2739SOL    HW1 9116   0.700   5.431   2.228
 2739SOL    HW2 9117   0.734   5.353   2.368
 2740SOL     OW 9118   6.854   5.871   2.846
 2740SOL    HW1 9119   6.783   5.889   2.913
 2740SOL    HW2 9120   6.944   5.890   2.886
 2741SOL     OW 9121   1.310   2.336   4.436
 2741SOL    HW1 9122   1.252   2.255   4.425
 2741SOL    HW2 9123   1.390   2.312   4.492
 2742SOL     OW 9124   3.278   5.026   1.989
 2742SOL    HW1 9125   3.320   4.970   1.917
 2742SOL    HW2 9126   3.259   4.969   2.068
 2743SOL     OW 9127   6.173   4.317   2.315
 2743SOL    HW1 9128   6.176   4.386   2.243
 2743SOL    HW2 9129   6.243   4.336   2.383
 2744SOL     OW 9130   3.421   3.889   2.912
 2744SOL    HW1 9131   3.503   3.841   2.879
 2744SOL    HW2 9132   3.370   3.829   2.973
 2745SOL     OW 9133   6.753   0.398   5.594
 2745SOL    HW1 9134   6.747   0.361   5.501
 2745SOL    HW2 9135   6.670   0.375   5.644
 2746SOL     OW 9136   1.578   0.808   3.306
 2746SOL    HW1 9137   1.545   0.876   3.372
 2746SOL    HW2 9138   1.503   0.778   3.249
 2747SOL     OW 9139   3.579   6.230   0.976
 2747SOL    HW1 9140   3.608   6.292   1.048
 2747SOL    HW2 9141   3.658   6.179   0.941
 2748SOL     OW 9142   4.452   6.673   1.064
 2748SOL    HW1 9143   4.535   6.634   1.023
 2748SOL    HW2 9144   4.414   6.608   1.129
 2749SOL     OW 9145   2.144   3.599   0.499
 2749SOL    HW1 9146   2.192   3.512   0.488
 2749SOL    HW2 9147   2.195   3.671   0.450
 2750SOL     OW 9148   2.450   5.237   2.622
 2750SOL    HW1 9149   2.451   5.336   2.635
 2750SOL    HW2 9150   2.404   5.214   2.537
 2751SOL     OW 9151   1.390   3.057   1.542
 2751SOL    HW1 9152   1.323   3.078   1.614
 2751SOL    HW2 9153   1.422   3.142   1.501
 2752SOL     OW 9154   4.011   4.566   6.203
 2752SOL    HW1 9155   3.948   4.643   6.192
 2752SOL    HW2 9156   4.012   4.537   6.299
 2753SOL     OW 9157   6.006   6.090   4.968
 2753SOL    HW1 9158   5.965   6.161   5.024
 2753SOL    HW2 9159   6.074   6.039   5.023
 2754SOL     OW 9160   0.341   6.634   6.507
 2754SOL    HW1 9161   0.403   6.690   6.561
 2754SOL    HW2 9162   0.390   6.555   6.469
 2755SOL     OW 9163   2.967   6.803   3.270
 2755SOL    HW1 9164   3.058   6.779   3.235
 2755SOL    HW2 9165   2.906   6.725   3.258
 2756SOL     OW 9166   5.459   6.272   0.071
 2756SOL    HW1 9167   5.472   6.174   0.054
 2756SOL    HW2 9168   5.431   6.286   0.165
 2757SOL     OW 9169   0.673   5.096   1.143
 2757SOL    HW1 9170   0.697   5.179   1.193
 2757SOL    HW2 9171   0.720   5.096   1.055
 2758SOL     OW 9172   4.872   0.928   6.026
 2758SOL    HW1 9173   4.928   0.850   6.055
 2758SOL    HW2 9174   4.799   0.944   6.094
 2759SOL     OW 9175   5.522   6.551   4.337
 2759SOL    HW1 9176   5.446   6.615   4.343
 2759SOL    HW2 9177   5.558   6.549   4.244
 2760SOL     OW 9178   2.268   5.206   2.389
 2760SOL    HW1 9179   2.219   5.158   2.462
 2760SOL    HW2 9180   2.223   5.188   2.301
 2761SOL     OW 9181   1.689   5.482   2.889
 2761SOL    HW1 9182   1.773   5.492   2.942
 2761SOL    HW2 9183   1.707   5.425   2.809
 2762SOL     OW 9184   1.158   6.411   5.602
 2762SOL    HW1 9185   1.097   6.474   5.554
 2762SOL    HW2 9186   1.205   6.460   5.676
 2763SOL     OW 9187   5.798   2.387   3.614
 2763SOL    HW1 9188   5.845   2.304   3.645
 2763SOL    HW2 9189   5.705   2.364   3.584
 2764SOL     OW 9190   5.324   0.707   1.001
 2764SOL    HW1 9191   5.306   0.804   1.017
 2764SOL    HW2 9192   5.241   0.663   0.966
 2765SOL     OW 9193   6.016   1.388   1.764
 2765SOL    HW1 9194   5.990   1.376   1.860
 2765SOL    HW2 9195   6.074   1.311   1.736
 2766SOL     OW 9196   5.812   1.580   1.295
 2766SOL    HW1 9197   5.902   1.609   1.262
 2766SOL    HW2 9198   5.822   1.532   1.382
 2767SOL     OW 9199   5.612   3.676   6.004
 2767SOL    HW1 9200   5.630   3.611   5.930
 2767SOL    HW2 9201   5.531   3.647   6.055
 2768SOL     OW 9202   4.991   1.693   6.847
 2768SOL    HW1 9203   5.042   1.707   6.763
 2768SOL    HW2 9204   4.954   1.600   6.848
 2769SOL     OW 9205   0.162   4.404   2.295
 2769SOL    HW1 9206   0.183   4.467   2.370
 2769SOL    HW2 9207   0.153   4.311   2.331
 2770SOL     OW 9208   1.251   5.013   1.786
 2770SOL    HW1 9209   1.167   4.959   1.777
 2770SOL    HW2 9210   1.241   5.077   1.862
 2771SOL     OW 9211   5.698   2.039   1.409
 2771SOL    HW1 9212   5.658   2.095   1.482
 2771SOL    HW2 9213   5.645   1.955   1.399
 2772SOL     OW 9214   4.559   2.633   0.091
 2772SOL    HW1 9215   4.641   2.647   0.148
 2772SOL    HW2 9216   4.547   2.536   0.073
 2773SOL     OW 9217   4.403   4.185   6.383
 2773SOL    HW1 9218   4.347   4.263   6.412
 2773SOL    HW2 9219   4.451   4.147   6.462
 2774SOL     OW 9220   5.713   3.008   2.013
 2774SOL    HW1 9221   5.780   2.943   1.976
 2774SOL    HW2 9222   5.753   3.099   2.016
 2775SOL     OW 9223   0.073   5.773   1.180
 2775SOL    HW1 9224   0.107   5.679   1.173
 2775SOL    HW2 9225   0.008   5.779   1.256
 2776SOL     OW 9226   3.825   6.533   5.605
 2776SOL    HW1 9227   3.863   6.585   5.681
 2776SOL    HW2 9228   3.751   6.584   5.563
 2777SOL     OW 9229   3.106   1.518   2.297
 2777SOL    HW1 9230   3.108   1.489   2.202
 2777SOL    HW2 9231   3.059   1.448   2.352
 2778SOL     OW 9232   2.467   1.843   5.846
 2778SOL    HW1 9233   2.500   1.830   5.940
 2778SOL    HW2 9234   2.457   1.941   5.828
 2779SOL     OW 9235   5.239   0.130   6.919
 2779SOL    HW1 9236   5.278   0.110   7.009
 2779SOL    HW2 9237   5.148   0.169   6.931
 2780SOL     OW 9238   4.676   5.167   6.339
 2780SOL    HW1 9239   4.700   5.255   6.380
 2780SOL    HW2 9240   4.737   5.149   6.262
 2781SOL     OW 9241   5.989   4.364   1.602
 2781SOL    HW1 9242   6.075   4.368   1.654
 2781SOL    HW2 9243   5.996   4.293   1.532
 2782SOL     OW 9244   3.228   2.417   6.381
 2782SOL    HW1 9245   3.287   2.488   6.343
 2782SOL    HW2 9246   3.284   2.346   6.424
 2783SOL     OW 9247   0.131   4.422   5.656
 2783SOL    HW1 9248   0.078   4.389   5.577
 2783SOL    HW2 9249   0.110   4.518   5.673
 2784SOL     OW 9250   2.106   2.638   1.013
 2784SOL    HW1 9251   2.163   2.695   1.072
 2784SOL    HW2 9252   2.033   2.596   1.067
 2785SOL     OW 9253   6.614   0.681   0.305
 2785SOL    HW1 9254   6.616   0.635   0.394
 2785SOL    HW2 9255   6.608   0.780   0.319
 2786SOL     OW 9256   4.119   6.372   0.992
 2786SOL    HW1 9257   4.057   6.364   0.914
 2786SOL    HW2 9258   4.213   6.380   0.959
 2787SOL     OW 9259   1.905   2.821   6.168
 2787SOL    HW1 9260   1.904   2.921   6.163
 2787SOL    HW2 9261   1.963   2.785   6.095
 2788SOL     OW 9262   2.829   4.595   0.544
 2788SOL    HW1 9263   2.810   4.505   0.504
 2788SOL    HW2 9264   2.928   4.607   0.555
 2789SOL     OW 9265   1.057   1.438   3.988
 2789SOL    HW1 9266   1.128   1.479   4.045
 2789SOL    HW2 9267   0.998   1.380   4.044
 2790SOL     OW 9268   3.516   4.958   3.165
 2790SOL    HW1 9269   3.540   5.049   3.133
 2790SOL    HW2 9270   3.418   4.942   3.152
 2791SOL     OW 9271   1.755   3.922   4.736
 2791SOL    HW1 9272   1.803   4.000   4.777
 2791SOL    HW2 9273   1.765   3.842   4.795
 2792SOL     OW 9274   1.116   0.930   4.980
 2792SOL    HW1 9275   1.128   0.894   5.072
 2792SOL    HW2 9276   1.019   0.952   4.965
 2793SOL     OW 9277   5.314   1.323   2.444
 2793SOL    HW1 9278   5.320   1.236   2.493
 2793SOL    HW2 9279   5.405   1.364   2.437
 2794SOL     OW 9280   0.030   1.998   0.157
 2794SOL    HW1 9281   7.010   1.920   0.113
 2794SOL    HW2 9282   0.124   1.974   0.183
 2795SOL     OW 9283   2.874   4.178   1.055
 2795SOL    HW1 9284   2.909   4.164   1.148
 2795SOL    HW2 9285   2.784   4.136   1.046
 2796SOL     OW 9286   5.854   3.727   2.875
 2796SOL    HW1 9287   5.841   3.815   2.921
 2796SOL    HW2 9288   5.779   3.712   2.811
 2797SOL     OW 9289   4.951   5.296   4.700
 2797SOL    HW1 9290   4.965   5.368   4.632
 2797SOL    HW2 9291   5.038   5.277   4.746
 2798SOL     OW 9292   1.270   3.957   3.477
 2798SOL    HW1 9293   1.274   3.883   3.409
 2798SOL    HW2 9294   1.268   3.917   3.569
 2799SOL     OW 9295   6.986   5.155   5.850
 2799SOL    HW1 9296   7.001   5.231   5.787
 2799SOL    HW2 9297   6.899   5.167   5.897
 2800SOL     OW 9298   3.961   4.855   6.577
 2800SOL    HW1 9299   3.971   4.868   6.478
 2800SOL    HW2 9300   3.910   4.771   6.594
 2801SOL     OW 9301   5.091   5.210   2.602
 2801SOL    HW1 9302   5.168   5.168   2.651
 2801SOL    HW2 9303   5.125   5.282   2.542
 2802SOL     OW 9304   4.193   1.632   5.733
 2802SOL    HW1 9305   4.244   1.678   5.661
 2802SOL    HW2 9306   4.219   1.668   5.822
 2803SOL     OW 9307   2.496   6.506   6.135
 2803SOL    HW1 9308   2.557   6.472   6.063
 2803SOL    HW2 9309   2.523   6.468   6.223
 2804SOL     OW 9310   6.661   4.732   3.781
 2804SOL    HW1 9311   6.707   4.715   3.868
 2804SOL    HW2 9312   6.567   4.763   3.799
 2805SOL     OW 9313   5.339   2.652   1.189
 2805SOL    HW1 9314   5.324   2.563   1.233
 2805SOL    HW2 9315   5.371   2.718   1.257
 2806SOL     OW 9316   6.207   5.211   3.085
 2806SOL    HW1 9317   6.116   5.216   3.128
 2806SOL    HW2 9318   6.257   5.295   3.105
 2807SOL     OW 9319   4.194   4.847   3.660
 2807SOL    HW1 9320   4.225   4.876   3.570
 2807SOL    HW2 9321   4.230   4.757   3.680
 2808SOL     OW 9322   5.591   1.688   3.388
 2808SOL    HW1 9323   5.558   1.619   3.323
 2808SOL    HW2 9324   5.625   1.643   3.470
 2809SOL     OW 9325   6.132   2.775   0.921
 2809SOL    HW1 9326   6.199   2.735   0.859
 2809SOL    HW2 9327   6.045   2.729   0.912
 2810SOL     OW 9328   2.878   0.129   5.588
 2810SOL    HW1 9329   2.868   0.227   5.603
 2810SOL    HW2 9330   2.913   0.085   5.671
 2811SOL     OW 9331   0.700   1.027   2.473
 2811SOL    HW1 9332   0.614   1.026   2.421
 2811SOL    HW2 9333   0.755   0.948   2.447
 2812SOL     OW 9334   4.863   3.711   2.762
 2812SOL    HW1 9335   4.937   3.661   2.717
 2812SOL    HW2 9336   4.864   3.807   2.733
 2813SOL     OW 9337   6.163   6.973   5.739
 2813SOL    HW1 9338   6.248   6.931   5.707
 2813SOL    HW2 9339   6.113   6.909   5.797
 2814SOL     OW 9340   4.159   4.274   5.825
 2814SOL    HW1 9341   4.100   4.340   5.872
 2814SOL    HW2 9342   4.126   4.260   5.732
 2815SOL     OW 9343   6.789   1.267   4.508
 2815SOL    HW1 9344   6.709   1.323   4.531
 2815SOL    HW2 9345   6.785   1.181   4.560
 2816SOL     OW 9346   5.991   0.091   3.765
 2816SOL    HW1 9347   5.907   0.132   3.731
 2816SOL    HW2 9348   6.044   0.159   3.815
 2817SOL     OW 9349   1.701   1.256   1.305
 2817SOL    HW1 9350   1.788   1.260   1.354
 2817SOL    HW2 9351   1.643   1.186   1.346
 2818SOL     OW 9352   6.856   4.621   6.329
 2818SOL    HW1 9353   6.850   4.670   6.242
 2818SOL    HW2 9354   6.932   4.658   6.383
 2819SOL     OW 9355   0.255   3.033   0.533
 2819SOL    HW1 9356   0.199   2.985   0.601
 2819SOL    HW2 9357   0.309   2.966   0.483
 2820SOL     OW 9358   0.121   2.388   2.922
 2820SOL    HW1 9359   0.127   2.289   2.905
 2820SOL    HW2 9360   0.111   2.405   3.020
 2821SOL     OW 9361   2.218   4.237   5.495
 2821SOL    HW1 9362   2.138   4.278   5.452
 2821SOL    HW2 9363   2.225   4.141   5.469
 2822SOL     OW 9364   4.950   2.275   0.236
 2822SOL    HW1 9365   5.000   2.360   0.218
 2822SOL    HW2 9366   5.014   2.199   0.240
 2823SOL     OW 9367   2.571   6.459   2.992
 2823SOL    HW1 9368   2.622   6.544   2.996
 2823SOL    HW2 9369   2.621   6.392   2.938
 2824SOL     OW 9370   2.303   1.146   5.189
 2824SOL    HW1 9371   2.247   1.064   5.177
 2824SOL    HW2 9372   2.326   1.157   5.286
 2825SOL     OW 9373   6.984   6.374   1.006
 2825SOL    HW1 9374   6.893   6.376   1.046
 2825SOL    HW2 9375   0.015   6.448   1.044
 2826SOL     OW 9376   5.244   2.142   5.416
 2826SOL    HW1 9377   5.267   2.051   5.383
 2826SOL    HW2 9378   5.310   2.208   5.381
 2827SOL     OW 9379   6.557   1.249   4.892
 2827SOL    HW1 9380   6.595   1.162   4.924
 2827SOL    HW2 9381   6.632   1.313   4.874
 2828SOL     OW 9382   4.274   1.001   6.286
 2828SOL    HW1 9383   4.303   1.093   6.313
 2828SOL    HW2 9384   4.180   1.005   6.252
 2829SOL     OW 9385   3.968   5.635   6.669
 2829SOL    HW1 9386   4.020   5.553   6.645
 2829SOL    HW2 9387   4.030   5.705   6.704
 2830SOL     OW 9388   5.225   3.229   6.149
 2830SOL    HW1 9389   5.293   3.245   6.078
 2830SOL    HW2 9390   5.238   3.296   6.222
 2831SOL     OW 9391   5.708   6.501   4.537
 2831SOL    HW1 9392   5.726   6.403   4.546
 2831SOL    HW2 9393   5.637   6.515   4.467
 2832SOL     OW 9394   0.027   1.371   1.115
 2832SOL    HW1 9395   6.985   1.315   1.065
 2832SOL    HW2 9396   0.119   1.351   1.081
 2833SOL     OW 9397   5.945   2.289   1.944
 2833SOL    HW1 9398   5.923   2.359   2.012
 2833SOL    HW2 9399   5.864   2.269   1.889
 2834SOL     OW 9400   3.438   1.516   6.301
 2834SOL    HW1 9401   3.403   1.607   6.280
 2834SOL    HW2 9402   3.510   1.522   6.370
 2835SOL     OW 9403   0.504   6.756   1.870
 2835SOL    HW1 9404   0.604   6.762   1.876
 2835SOL    HW2 9405   0.469   6.832   1.816
 2836SOL     OW 9406   6.976   6.905   1.672
 2836SOL    HW1 9407   0.038   6.856   1.685
 2836SOL    HW2 9408   6.985   6.998   1.706
 2837SOL     OW 9409   5.315   3.611   3.484
 2837SOL    HW1 9410   5.324   3.655   3.574
 2837SOL    HW2 9411   5.286   3.679   3.417
 2838SOL     OW 9412   2.545   4.498   1.858
 2838SOL    HW1 9413   2.530   4.581   1.805
 2838SOL    HW2 9414   2.631   4.505   1.909
 2839SOL     OW 9415   5.657   1.660   1.844
 2839SOL    HW1 9416   5.648   1.562   1.829
 2839SOL    HW2 9417   5.713   1.700   1.770
 2840SOL     OW 9418   0.215   1.524   5.049
 2840SOL    HW1 9419   0.216   1.624   5.050
 2840SOL    HW2 9420   0.148   1.492   4.982
 2841SOL     OW 9421   1.077   6.313   0.373
 2841SOL    HW1 9422   1.150   6.265   0.423
 2841SOL    HW2 9423   1.117   6.390   0.323
 2842SOL     OW 9424   6.860   3.419   3.969
 2842SOL    HW1 9425   6.925   3.492   3.946
 2842SOL    HW2 9426   6.879   3.386   4.062
 2843SOL     OW 9427   3.969   0.943   4.755
 2843SOL    HW1 9428   4.052   0.933   4.810
 2843SOL    HW2 9429   3.991   0.932   4.659
 2844SOL     OW 9430   1.351   3.908   0.011
 2844SOL    HW1 9431   1.294   3.832   7.003
 2844SOL    HW2 9432   1.364   3.973   6.960
 2845SOL     OW 9433   0.598   3.871   0.225
 2845SOL    HW1 9434   0.506   3.902   0.252
 2845SOL    HW2 9435   0.594   3.835   0.132
 2846SOL     OW 9436   5.056   1.408   0.203
 2846SOL    HW1 9437   5.122   1.431   0.276
 2846SOL    HW2 9438   5.029   1.492   0.156
 2847SOL     OW 9439   5.708   4.348   3.532
 2847SOL    HW1 9440   5.756   4.288   3.595
 2847SOL    HW2 9441   5.609   4.338   3.544
 2848SOL     OW 9442   0.394   4.504   5.470
 2848SOL    HW1 9443   0.370   4.438   5.540
 2848SOL    HW2 9444   0.363   4.471   5.381
 2849SOL     OW 9445   3.416   1.181   0.200
 2849SOL    HW1 9446   3.459   1.186   0.110
 2849SOL    HW2 9447   3.444   1.096   0.245
 2850SOL     OW 9448   3.412   0.307   1.023
 2850SOL    HW1 9449   3.353   0.383   1.051
 2850SOL    HW2 9450   3.415   0.302   0.923
 2851SOL     OW 9451   1.025   4.724   5.550
 2851SOL    HW1 9452   0.957   4.739   5.478
 2851SOL    HW2 9453   1.111   4.694   5.509
 2852SOL     OW 9454   6.206   3.447   6.556
 2852SOL    HW1 9455   6.230   3.402   6.469
 2852SOL    HW2 9456   6.269   3.522   6.573
 2853SOL     OW 9457   3.372   2.704   0.641
 2853SOL    HW1 9458   3.371   2.605   0.624
 2853SOL    HW2 9459   3.381   2.721   0.739
 2854SOL     OW 9460   2.488   0.847   4.683
 2854SOL    HW1 9461   2.391   0.864   4.700
 2854SOL    HW2 9462   2.497   0.769   4.621
 2855SOL     OW 9463   1.752   0.576   5.484
 2855SOL    HW1 9464   1.813   0.639   5.435
 2855SOL    HW2 9465   1.680   0.545   5.422
 2856SOL     OW 9466   2.057   2.388   5.602
 2856SOL    HW1 9467   2.087   2.319   5.668
 2856SOL    HW2 9468   2.093   2.477   5.627
 2857SOL     OW 9469   2.668   1.770   1.369
 2857SOL    HW1 9470   2.715   1.688   1.401
 2857SOL    HW2 9471   2.648   1.829   1.447
 2858SOL     OW 9472   6.427   2.914   2.064
 2858SOL    HW1 9473   6.407   2.859   2.145
 2858SOL    HW2 9474   6.428   2.856   1.983
 2859SOL     OW 9475   4.712   1.016   0.665
 2859SOL    HW1 9476   4.758   1.011   0.754
 2859SOL    HW2 9477   4.772   1.062   0.599
 2860SOL     OW 9478   3.827   2.012   1.692
 2860SOL    HW1 9479   3.858   2.107   1.693
 2860SOL    HW2 9480   3.729   2.008   1.711
 2861SOL     OW 9481   4.586   5.691   5.679
 2861SOL    HW1 9482   4.513   5.654   5.737
 2861SOL    HW2 9483   4.556   5.694   5.584
 2862SOL     OW 9484   5.586   1.896   3.775
 2862SOL    HW1 9485   5.613   1.801   3.791
 2862SOL    HW2 9486   5.601   1.919   3.679
 2863SOL     OW 9487   6.543   1.758   0.192
 2863SOL    HW1 9488   6.509   1.761   0.286
 2863SOL    HW2 9489   6.605   1.835   0.176
 2864SOL     OW 9490   3.931   0.654   1.100
 2864SOL    HW1 9491   3.900   0.749   1.107
 2864SOL    HW2 9492   3.890   0.600   1.173
 2865SOL     OW 9493   4.456   4.207   5.265
 2865SOL    HW1 9494   4.377   4.233   5.321
 2865SOL    HW2 9495   4.455   4.260   5.180
 2866SOL     OW 9496   6.910   6.053   6.762
 2866SOL    HW1 9497   6.868   6.055   6.671
 2866SOL    HW2 9498   6.879   5.972   6.812
 2867SOL     OW 9499   6.133   4.615   2.704
 2867SOL    HW1 9500   6.223   4.579   2.730
 2867SOL    HW2 9501   6.112   4.586   2.611
 2868SOL     OW 9502   0.245   3.727   5.330
 2868SOL    HW1 9503   0.252   3.821   5.362
 2868SOL    HW2 9504   0.148   3.703   5.318
 2869SOL     OW 9505   6.330   0.276   2.324
 2869SOL    HW1 9506   6.349   0.231   2.412
 2869SOL    HW2 9507   6.408   0.263   2.263
 2870SOL     OW 9508   6.544   1.845   3.645
 2870SOL    HW1 9509   6.562   1.943   3.653
 2870SOL    HW2 9510   6.446   1.828   3.657
 2871SOL     OW 9511   1.616   1.764   6.494
 2871SOL    HW1 9512   1.703   1.780   6.447
 2871SOL    HW2 9513   1.617   1.810   6.582
 2872SOL     OW 9514   2.717   0.765   4.192
 2872SOL    HW1 9515   2.642   0.701   4.210
 2872SOL    HW2 9516   2.800   0.733   4.237
 2873SOL     OW 9517   0.524   5.844   2.538
 2873SOL    HW1 9518   0.612   5.822   2.580
 2873SOL    HW2 9519   0.497   5.937   2.561
 2874SOL     OW 9520   5.150   3.923   2.332
 2874SOL    HW1 9521   5.053   3.926   2.308
 2874SOL    HW2 9522   5.164   3.859   2.407
 2875SOL     OW 9523   3.907   6.608   5.848
 2875SOL    HW1 9524   3.979   6.539   5.858
 2875SOL    HW2 9525   3.924   6.683   5.912
 2876SOL     OW 9526   0.770   1.330   1.565
 2876SOL    HW1 9527   0.708   1.252   1.557
 2876SOL    HW2 9528   0.753   1.378   1.650
 2877SOL     OW 9529   3.331   2.773   5.383
 2877SOL    HW1 9530   3.424   2.801   5.408
 2877SOL    HW2 9531   3.316   2.679   5.413
 2878SOL     OW 9532   2.446   4.675   4.726
 2878SOL    HW1 9533   2.445   4.675   4.826
 2878SOL    HW2 9534   2.353   4.664   4.691
 2879SOL     OW 9535   5.220   5.261   6.851
 2879SOL    HW1 9536   5.311   5.255   6.811
 2879SOL    HW2 9537   5.160   5.193   6.808
 2880SOL     OW 9538   0.455   5.793   0.865
 2880SOL    HW1 9539   0.411   5.871   0.822
 2880SOL    HW2 9540   0.444   5.799   0.964
 2881SOL     OW 9541   6.229   6.174   0.688
 2881SOL    HW1 9542   6.238   6.097   0.624
 2881SOL    HW2 9543   6.284   6.251   0.655
 2882SOL     OW 9544   0.209   2.997   2.390
 2882SOL    HW1 9545   0.114   3.006   2.361
 2882SOL    HW2 9546   0.227   2.904   2.421
 2883SOL     OW 9547   3.833   6.815   3.246
 2883SOL    HW1 9548   3.904   6.859   3.302
 2883SOL    HW2 9549   3.823   6.865   3.160
 2884SOL     OW 9550   0.643   6.543   2.901
 2884SOL    HW1 9551   0.720   6.487   2.871
 2884SOL    HW2 9552   0.564   6.484   2.919
 2885SOL     OW 9553   0.339   1.997   2.912
 2885SOL    HW1 9554   0.247   2.034   2.925
 2885SOL    HW2 9555   0.392   2.058   2.854
 2886SOL     OW 9556   1.757   2.528   0.026
 2886SOL    HW1 9557   1.738   2.501   6.956
 2886SOL    HW2 9558   1.763   2.628   0.031
 2887SOL     OW 9559   2.567   0.249   5.259
 2887SOL    HW1 9560   2.549   0.160   5.301
 2887SOL    HW2 9561   2.480   0.296   5.244
 2888SOL     OW 9562   6.785   4.355   6.539
 2888SOL    HW1 9563   6.739   4.314   6.461
 2888SOL    HW2 9564   6.718   4.404   6.595
 2889SOL     OW 9565   1.517   0.921   1.685
 2889SOL    HW1 9566   1.533   0.951   1.591
 2889SOL    HW2 9567   1.540   0.824   1.694
 2890SOL     OW 9568   3.494   0.577   1.412
 2890SOL    HW1 9569   3.462   0.657   1.462
 2890SOL    HW2 9570   3.466   0.493   1.459
 2891SOL     OW 9571   2.090   4.576   3.242
 2891SOL    HW1 9572   2.082   4.675   3.253
 2891SOL    HW2 9573   2.000   4.534   3.251
 2892SOL     OW 9574   3.853   4.227   6.563
 2892SOL    HW1 9575   3.770   4.182   6.597
 2892SOL    HW2 9576   3.932   4.167   6.579
 2893SOL     OW 9577   1.976   6.265   5.471
 2893SOL    HW1 9578   1.924   6.183   5.496
 2893SOL    HW2 9579   2.024   6.300   5.552
 2894SOL     OW 9580   2.919   2.590   0.039
 2894SOL    HW1 9581   2.915   2.687   0.064
 2894SOL    HW2 9582   2.835   2.565   7.015
 2895SOL     OW 9583   3.964   2.938   6.719
 2895SOL    HW1 9584   3.998   2.845   6.734
 2895SOL    HW2 9585   3.894   2.959   6.787
 2896SOL     OW 9586   2.705   5.575   0.151
 2896SOL    HW1 9587   2.755   5.597   0.235
 2896SOL    HW2 9588   2.608   5.564   0.172
 2897SOL     OW 9589   2.457   6.532   3.534
 2897SOL    HW1 9590   2.433   6.463   3.602
 2897SOL    HW2 9591   2.426   6.502   3.443
 2898SOL     OW 9592   4.482   5.150   2.869
 2898SOL    HW1 9593   4.436   5.166   2.957
 2898SOL    HW2 9594   4.441   5.070   2.824
 2899SOL     OW 9595   0.070   0.029   6.653
 2899SOL    HW1 9596   0.028   7.012   6.572
 2899SOL    HW2 9597   0.041   7.002   6.735
 2900SOL     OW 9598   1.195   4.956   6.004
 2900SOL    HW1 9599   1.223   5.052   6.013
 2900SOL    HW2 9600   1.271   4.896   6.028
 2901SOL     OW 9601   2.533   0.677   2.554
 2901SOL    HW1 9602   2.504   0.662   2.459
 2901SOL    HW2 9603   2.458   0.720   2.605
 2902SOL     OW 9604   5.209   6.290   0.715
 2902SOL    HW1 9605   5.220   6.354   0.639
 2902SOL    HW2 9606   5.197   6.342   0.800
 2903SOL     OW 9607   2.937   0.844   1.892
 2903SOL    HW1 9608   3.002   0.891   1.952
 2903SOL    HW2 9609   2.888   0.774   1.944
 2904SOL     OW 9610   2.475   3.278   5.348
 2904SOL    HW1 9611   2.379   3.275   5.321
 2904SOL    HW2 9612   2.525   3.207   5.298
 2905SOL     OW 9613   1.370   1.004   2.570
 2905SOL    HW1 9614   1.348   1.027   2.475
 2905SOL    HW2 9615   1.365   1.086   2.626
 2906SOL     OW 9616   5.425   4.878   2.121
 2906SOL    HW1 9617   5.422   4.781   2.097
 2906SOL    HW2 9618   5.504   4.921   2.079
 2907SOL     OW 9619   0.082   1.856   5.088
 2907SOL    HW1 9620   0.161   1.909   5.057
 2907SOL    HW2 9621   0.004   1.917   5.102
 2908SOL     OW 9622   3.953   6.764   4.224
 2908SOL    HW1 9623   3.966   6.846   4.168
 2908SOL    HW2 9624   3.901   6.788   4.306
 2909SOL     OW 9625   0.569   5.161   4.575
 2909SOL    HW1 9626   0.511   5.191   4.500
 2909SOL    HW2 9627   0.640   5.099   4.541
 2910SOL     OW 9628   3.142   6.443   5.252
 2910SOL    HW1 9629   3.119   6.473   5.160
 2910SOL    HW2 9630   3.099   6.355   5.271
 2911SOL     OW 9631   2.299   4.936   3.221
 2911SOL    HW1 9632   2.369   5.006   3.238
 2911SOL    HW2 9633   2.336   4.866   3.160
 2912SOL     OW 9634   3.028   5.922   0.251
 2912SOL    HW1 9635   3.094   5.875   0.193
 2912SOL    HW2 9636   2.940   5.929   0.204
 2913SOL     OW 9637   1.548   3.679   2.253
 2913SOL    HW1 9638   1.484   3.696   2.178
 2913SOL    HW2 9639   1.508   3.712   2.339
 2914SOL     OW 9640   5.182   4.314   5.965
 2914SOL    HW1 9641   5.090   4.280   5.947
 2914SOL    HW2 9642   5.229   4.252   6.028
 2915SOL     OW 9643   4.327   1.130   3.927
 2915SOL    HW1 9644   4.356   1.049   3.978
 2915SOL    HW2 9645   4.278   1.102   3.845
 2916SOL     OW 9646   6.499   4.604   5.459
 2916SOL    HW1 9647   6.406   4.615   5.493
 2916SOL    HW2 9648   6.498   4.558   5.370
 2917SOL     OW 9649   3.739   0.220   0.568
 2917SOL    HW1 9650   3.709   0.188   0.658
 2917SOL    HW2 9651   3.754   0.318   0.570
 2918SOL     OW 9652   0.395   3.426   3.220
 2918SOL    HW1 9653   0.346   3.379   3.293
 2918SOL    HW2 9654   0.442   3.506   3.258
 2919SOL     OW 9655   6.417   6.692   6.927
 2919SOL    HW1 9656   6.330   6.712   6.882
 2919SOL    HW2 9657   6.412   6.722   7.022
 2920SOL     OW 9658   3.574   2.084   2.414
 2920SOL    HW1 9659   3.661   2.075   2.367
 2920SOL    HW2 9660   3.569   2.015   2.487
 2921SOL     OW 9661   6.812   1.178   2.278
 2921SOL    HW1 9662   6.882   1.245   2.253
 2921SOL    HW2 9663   6.743   1.222   2.335
 2922SOL     OW 9664   5.010   0.010   5.912
 2922SOL    HW1 9665   4.985   6.937   5.904
 2922SOL    HW2 9666   5.094   0.027   5.861
 2923SOL     OW 9667   6.959   4.804   2.258
 2923SOL    HW1 9668   7.001   4.762   2.338
 2923SOL    HW2 9669   6.870   4.842   2.284
 2924SOL     OW 9670   0.925   1.245   5.646
 2924SOL    HW1 9671   0.996   1.229   5.714
 2924SOL    HW2 9672   0.942   1.332   5.599
 2925SOL     OW 9673   5.504   2.657   2.257
 2925SOL    HW1 9674   5.531   2.748   2.289
 2925SOL    HW2 9675   5.494   2.659   2.157
 2926SOL     OW 9676   7.019   2.097   5.161
 2926SOL    HW1 9677   0.064   2.131   5.097
 2926SOL    HW2 9678   6.938   2.156   5.157
 2927SOL     OW 9679   1.070   2.648   2.688
 2927SOL    HW1 9680   1.001   2.577   2.678
 2927SOL    HW2 9681   1.152   2.610   2.730
 2928SOL     OW 9682   6.792   0.263   6.685
 2928SOL    HW1 9683   6.726   0.338   6.690
 2928SOL    HW2 9684   6.801   0.233   6.590
 2929SOL     OW 9685   0.405   0.428   6.223
 2929SOL    HW1 9686   0.309   0.409   6.202
 2929SOL    HW2 9687   0.462   0.402   6.144
 2930SOL     OW 9688   5.189   0.387   4.669
 2930SOL    HW1 9689   5.283   0.405   4.698
 2930SOL    HW2 9690   5.170   0.289   4.677
 2931SOL     OW 9691   4.768   6.140   6.685
 2931SOL    HW1 9692   4.696   6.074   6.703
 2931SOL    HW2 9693   4.841   6.097   6.632
 2932SOL     OW 9694   1.025   4.445   1.668
 2932SOL    HW1 9695   1.124   4.453   1.658
 2932SOL    HW2 9696   0.983   4.534   1.652
 2933SOL     OW 9697   5.432   2.821   3.883
 2933SOL    HW1 9698   5.333   2.833   3.891
 2933SOL    HW2 9699   5.464   2.861   3.798
 2934SOL     OW 9700   3.543   0.135   0.202
 2934SOL    HW1 9701   3.482   0.185   0.141
 2934SOL    HW2 9702   3.514   0.039   0.206
 2935SOL     OW 9703   6.325   3.479   1.129
 2935SOL    HW1 9704   6.384   3.513   1.056
 2935SOL    HW2 9705   6.382   3.457   1.209
 2936SOL     OW 9706   4.566   6.004   0.598
 2936SOL    HW1 9707   4.504   6.049   0.663
 2936SOL    HW2 9708   4.516   5.934   0.547
 2937SOL     OW 9709   3.321   5.293   0.859
 2937SOL    HW1 9710   3.238   5.258   0.903
 2937SOL    HW2 9711   3.343   5.236   0.780
 2938SOL     OW 9712   4.867   5.751   5.549
 2938SOL    HW1 9713   4.811   5.725   5.628
 2938SOL    HW2 9714   4.817   5.731   5.465
 2939SOL     OW 9715   5.926   0.204   5.177
 2939SOL    HW1 9716   6.014   0.221   5.221
 2939SOL    HW2 9717   5.906   0.106   5.181
 2940SOL     OW 9718   5.596   6.977   5.316
 2940SOL    HW1 9719   5.529   0.027   5.321
 2940SOL    HW2 9720   5.636   6.962   5.407
 2941SOL     OW 9721   1.039   1.721   4.901
 2941SOL    HW1 9722   1.067   1.777   4.979
 2941SOL    HW2 9723   1.111   1.656   4.879
 2942SOL     OW 9724   3.089   0.423   2.346
 2942SOL    HW1 9725   3.167   0.377   2.304
 2942SOL    HW2 9726   3.085   0.518   2.315
 2943SOL     OW 9727   6.124   3.395   2.753
 2943SOL    HW1 9728   6.118   3.406   2.654
 2943SOL    HW2 9729   6.205   3.341   2.776
 2944SOL     OW 9730   3.413   4.772   5.269
 2944SOL    HW1 9731   3.351   4.812   5.337
 2944SOL    HW2 9732   3.377   4.788   5.177
 2945SOL     OW 9733   4.086   3.570   3.519
 2945SOL    HW1 9734   4.114   3.661   3.489
 2945SOL    HW2 9735   4.066   3.514   3.438
 2946SOL     OW 9736   6.636   6.131   5.804
 2946SOL    HW1 9737   6.640   6.112   5.706
 2946SOL    HW2 9738   6.715   6.188   5.830
 2947SOL     OW 9739   6.429   3.828   6.200
 2947SOL    HW1 9740   6.345   3.819   6.252
 2947SOL    HW2 9741   6.441   3.924   6.174
 2948SOL     OW 9742   6.456   3.796   5.243
 2948SOL    HW1 9743   6.417   3.837   5.326
 2948SOL    HW2 9744   6.404   3.714   5.219
 2949SOL     OW 9745   1.570   6.656   1.017
 2949SOL    HW1 9746   1.472   6.646   1.001
 2949SOL    HW2 9747   1.615   6.567   1.009
 2950SOL     OW 9748   6.022   3.639   4.315
 2950SOL    HW1 9749   5.965   3.647   4.397
 2950SOL    HW2 9750   5.965   3.642   4.234
 2951SOL     OW 9751   6.877   2.155   0.276
 2951SOL    HW1 9752   6.910   2.247   0.296
 2951SOL    HW2 9753   6.952   2.099   0.242
 2952SOL     OW 9754   1.062   4.506   2.890
 2952SOL    HW1 9755   1.098   4.536   2.978
 2952SOL    HW2 9756   1.137   4.496   2.825
 2953SOL     OW 9757   4.837   2.284   2.467
 2953SOL    HW1 9758   4.761   2.219   2.472
 2953SOL    HW2 9759   4.803   2.374   2.442
 2954SOL     OW 9760   0.580   6.280   1.930
 2954SOL    HW1 9761   0.501   6.341   1.938
 2954SOL    HW2 9762   0.589   6.249   1.835
 2955SOL     OW 9763   0.296   3.384   0.756
 2955SOL    HW1 9764   0.339   3.323   0.689
 2955SOL    HW2 9765   0.361   3.455   0.782
 2956SOL     OW 9766   0.336   5.791   3.168
 2956SOL    HW1 9767   0.334   5.862   3.098
 2956SOL    HW2 9768   0.430   5.757   3.178
 2957SOL     OW 9769   0.163   3.977   1.016
 2957SOL    HW1 9770   0.130   3.935   0.932
 2957SOL    HW2 9771   0.086   4.010   1.070
 2958SOL     OW 9772   1.942   4.598   5.972
 2958SOL    HW1 9773   2.033   4.640   5.962
 2958SOL    HW2 9774   1.880   4.664   6.013
 2959SOL     OW 9775   5.223   4.577   6.070
 2959SOL    HW1 9776   5.196   4.485   6.043
 2959SOL    HW2 9777   5.196   4.642   5.998
 2960SOL     OW 9778   2.997   2.059   0.464
 2960SOL    HW1 9779   2.913   2.064   0.409
 2960SOL    HW2 9780   2.990   1.983   0.528
 2961SOL     OW 9781   5.480   3.601   4.646
 2961SOL    HW1 9782   5.494   3.700   4.647
 2961SOL    HW2 9783   5.388   3.580   4.612
 2962SOL     OW 9784   4.431   1.313   3.534
 2962SOL    HW1 9785   4.421   1.385   3.602
 2962SOL    HW2 9786   4.499   1.246   3.565
 2963SOL     OW 9787   1.861   1.504   6.046
 2963SOL    HW1 9788   1.806   1.575   6.089
 2963SOL    HW2 9789   1.837   1.497   5.949
 2964SOL     OW 9790   1.527   6.519   1.717
 2964SOL    HW1 9791   1.518   6.614   1.689
 2964SOL    HW2 9792   1.598   6.511   1.786
 2965SOL     OW 9793   0.352   1.003   5.240
 2965SOL    HW1 9794   0.333   1.035   5.147
 2965SOL    HW2 9795   0.310   1.066   5.306
 2966SOL     OW 9796   5.311   4.757   3.721
 2966SOL    HW1 9797   5.247   4.681   3.710
 2966SOL    HW2 9798   5.397   4.723   3.758
 2967SOL     OW 9799   5.861   2.543   3.395
 2967SOL    HW1 9800   5.860   2.485   3.476
 2967SOL    HW2 9801   5.774   2.594   3.390
 2968SOL     OW 9802   1.052   4.142   4.808
 2968SOL    HW1 9803   1.128   4.149   4.744
 2968SOL    HW2 9804   1.071   4.069   4.875
 2969SOL     OW 9805   5.617   1.872   4.764
 2969SOL    HW1 9806   5.590   1.859   4.669
 2969SOL    HW2 9807   5.713   1.900   4.768
 2970SOL     OW 9808   0.969   4.289   6.618
 2970SOL    HW1 9809   0.978   4.244   6.707
 2970SOL    HW2 9810   0.970   4.220   6.546
 2971SOL     OW 9811   6.145   3.106   3.657
 2971SOL    HW1 9812   6.129   3.040   3.730
 2971SOL    HW2 9813   6.063   3.163   3.645
 2972SOL     OW 9814   6.237   3.375   6.286
 2972SOL    HW1 9815   6.335   3.355   6.292
 2972SOL    HW2 9816   6.201   3.338   6.201
 2973SOL     OW 9817   5.391   0.723   4.096
 2973SOL    HW1 9818   5.326   0.753   4.166
 2973SOL    HW2 9819   5.435   0.803   4.055
 2974SOL     OW 9820   6.367   4.571   2.879
 2974SOL    HW1 9821   6.458   4.530   2.885
 2974SOL    HW2 9822   6.305   4.524   2.941
 2975SOL     OW 9823   0.722   1.487   5.266
 2975SOL    HW1 9824   0.734   1.433   5.182
 2975SOL    HW2 9825   0.681   1.430   5.337
 2976SOL     OW 9826   4.072   1.601   2.641
 2976SOL    HW1 9827   4.072   1.665   2.565
 2976SOL    HW2 9828   4.162   1.558   2.649
 2977SOL     OW 9829   2.892   0.174   4.294
 2977SOL    HW1 9830   2.881   0.108   4.219
 2977SOL    HW2 9831   2.931   0.127   4.373
 2978SOL     OW 9832   4.629   5.029   6.941
 2978SOL    HW1 9833   4.539   5.022   6.985
 2978SOL    HW2 9834   4.625   4.988   6.850
 2979SOL     OW 9835   3.366   0.328   3.183
 2979SOL    HW1 9836   3.361   0.426   3.163
 2979SOL    HW2 9837   3.408   0.314   3.273
 2980SOL     OW 9838   0.539   6.786   4.347
 2980SOL    HW1 9839   0.629   6.798   4.306
 2980SOL    HW2 9840   0.530   6.693   4.382
 2981SOL     OW 9841   1.436   0.975   5.856
 2981SOL    HW1 9842   1.402   0.929   5.938
 2981SOL    HW2 9843   1.422   0.916   5.776
 2982SOL     OW 9844   4.405   6.265   2.735
 2982SOL    HW1 9845   4.473   6.206   2.779
 2982SOL    HW2 9846   4.321   6.266   2.789
 2983SOL     OW 9847   0.415   0.730   4.292
 2983SOL    HW1 9848   0.443   0.645   4.247
 2983SOL    HW2 9849   0.318   0.726   4.314
 2984SOL     OW 9850   6.634   5.378   1.590
 2984SOL    HW1 9851   6.593   5.466   1.566
 2984SOL    HW2 9852   6.607   5.353   1.683
 2985SOL     OW 9853   0.586   2.008   4.174
 2985SOL    HW1 9854   0.678   1.979   4.197
 2985SOL    HW2 9855   0.566   1.982   4.079
 2986SOL     OW 9856   1.926   3.853   5.371
 2986SOL    HW1 9857   2.026   3.843   5.371
 2986SOL    HW2 9858   1.900   3.929   5.431
 2987SOL     OW 9859   4.242   1.399   4.447
 2987SOL    HW1 9860   4.295   1.368   4.526
 2987SOL    HW2 9861   4.293   1.380   4.363
 2988SOL     OW 9862   1.390   0.447   1.646
 2988SOL    HW1 9863   1.298   0.477   1.620
 2988SOL    HW2 9864   1.456   0.519   1.626
 2989SOL     OW 9865   6.772   4.648   1.048
 2989SOL    HW1 9866   6.677   4.621   1.033
 2989SOL    HW2 9867   6.798   4.627   1.143
 2990SOL     OW 9868   3.048   0.665   2.275
 2990SOL    HW1 9869   3.070   0.759   2.301
 2990SOL    HW2 9870   2.949   0.655   2.266
 2991SOL     OW 9871   7.016   3.925   0.338
 2991SOL    HW1 9872   0.044   4.007   0.362
 2991SOL    HW2 9873   7.012   3.864   0.418
 2992SOL     OW 9874   3.386   5.821   6.400
 2992SOL    HW1 9875   3.380   5.760   6.321
 2992SOL    HW2 9876   3.340   5.907   6.380
 2993SOL     OW 9877   1.974   4.605   1.602
 2993SOL    HW1 9878   1.921   4.562   1.675
 2993SOL    HW2 9879   1.917   4.673   1.555
 2994SOL     OW 9880   4.899   0.689   6.849
 2994SOL    HW1 9881   4.959   0.730   6.781
 2994SOL    HW2 9882   4.941   0.697   6.939
 2995SOL     OW 9883   1.011   2.014   0.358
 2995SOL    HW1 9884   0.971   1.979   0.442
 2995SOL    HW2 9885   1.018   2.114   0.362
 2996SOL     OW 9886   2.780   5.076   5.324
 2996SOL    HW1 9887   2.850   5.116   5.383
 2996SOL    HW2 9888   2.795   4.978   5.317
 2997SOL     OW 9889   5.276   6.155   1.817
 2997SOL    HW1 9890   5.363   6.199   1.791
 2997SOL    HW2 9891   5.227   6.129   1.734
 2998SOL     OW 9892   5.537   6.324   3.931
 2998SOL    HW1 9893   5.497   6.234   3.946
 2998SOL    HW2 9894   5.565   6.333   3.835
 2999SOL     OW 9895   3.644   6.416   3.296
 2999SOL    HW1 9896   3.582   6.398   3.372
 2999SOL    HW2 9897   3.707   6.490   3.321
 3000SOL     OW 9898   1.508   3.208   5.479
 3000SOL    HW1 9899   1.443   3.155   5.534
 3000SOL    HW2 9900   1.557   3.272   5.538
 3001SOL     OW 9901   4.917   0.518   5.738
 3001SOL    HW1 9902   4.832   0.544   5.783
 3001SOL    HW2 9903   4.994   0.558   5.788
 3002SOL     OW 9904   4.420   0.102   5.445
 3002SOL    HW1 9905   4.420   0.136   5.539
 3002SOL    HW2 9906   4.380   0.010   5.443
 3003SOL     OW 9907   2.495   6.295   5.633
 3003SOL    HW1 9908   2.449   6.351   5.565
 3003SOL    HW2 9909   2.454   6.204   5.635
 3004SOL     OW 9910   6.153   4.239   3.670
 3004SOL    HW1 9911   6.161   4.292   3.755
 3004SOL    HW2 9912   6.243   4.200   3.647
 3005SOL     OW 9913   3.515   3.026   1.528
 3005SOL    HW1 9914   3.534   2.928   1.524
 3005SOL    HW2 9915   3.601   3.076   1.541
 3006SOL     OW 9916   5.742   1.203   0.692
 3006SOL    HW1 9917   5.698   1.115   0.709
 3006SOL    HW2 9918   5.672   1.274   0.683
 3007SOL     OW 9919   5.759   4.661   2.974
 3007SOL    HW1 9920   5.760   4.601   3.054
 3007SOL    HW2 9921   5.786   4.609   2.893
 3008SOL     OW 9922   3.500   6.842   6.016
 3008SOL    HW1 9923   3.468   6.936   6.019
 3008SOL    HW2 9924   3.500   6.809   5.922
 3009SOL     OW 9925   1.265   0.557   2.276
 3009SOL    HW1 9926   1.245   0.649   2.312
 3009SOL    HW2 9927   1.322   0.565   2.195
 3010SOL     OW 9928   4.155   5.377   3.157
 3010SOL    HW1 9929   4.226   5.401   3.222
 3010SOL    HW2 9930   4.154   5.278   3.143
 3011SOL     OW 9931   6.288   0.450   6.622
 3011SOL    HW1 9932   6.313   0.505   6.543
 3011SOL    HW2 9933   6.241   0.508   6.689
 3012SOL     OW 9934   6.980   3.815   3.743
 3012SOL    HW1 9935   0.028   3.872   3.705
 3012SOL    HW2 9936   6.891   3.848   3.712
 3013SOL     OW 9937   6.156   5.891   2.074
 3013SOL    HW1 9938   6.229   5.831   2.108
 3013SOL    HW2 9939   6.104   5.927   2.151
 3014SOL     OW 9940   5.070   1.492   4.381
 3014SOL    HW1 9941   5.036   1.557   4.449
 3014SOL    HW2 9942   5.101   1.542   4.300
 3015SOL     OW 9943   2.269   2.023   0.818
 3015SOL    HW1 9944   2.343   1.998   0.882
 3015SOL    HW2 9945   2.296   1.997   0.725
 3016SOL     OW 9946   3.498   6.141   3.895
 3016SOL    HW1 9947   3.539   6.065   3.946
 3016SOL    HW2 9948   3.445   6.104   3.819
 3017SOL     OW 9949   1.462   5.784   1.547
 3017SOL    HW1 9950   1.364   5.786   1.526
 3017SOL    HW2 9951   1.501   5.698   1.514
 3018SOL     OW 9952   3.978   0.475   6.508
 3018SOL    HW1 9953   4.069   0.432   6.508
 3018SOL    HW2 9954   3.974   0.545   6.436
 3019SOL     OW 9955   3.312   6.358   1.279
 3019SOL    HW1 9956   3.243   6.313   1.223
 3019SOL    HW2 9957   3.330   6.449   1.242
 3020SOL     OW 9958   3.124   3.597   1.896
 3020SOL    HW1 9959   3.202   3.555   1.850
 3020SOL    HW2 9960   3.156   3.642   1.980
 3021SOL     OW 9961   1.552   1.957   6.718
 3021SOL    HW1 9962   1.478   1.974   6.783
 3021SOL    HW2 9963   1.636   2.000   6.751
 3022SOL     OW 9964   4.143   6.373   2.891
 3022SOL    HW1 9965   4.143   6.275   2.910
 3022SOL    HW2 9966   4.054   6.399   2.853
 3023SOL     OW 9967   3.779   5.728   3.631
 3023SOL    HW1 9968   3.760   5.653   3.693
 3023SOL    HW2 9969   3.716   5.725   3.554
 3024SOL     OW 9970   3.149   1.030   6.583
 3024SOL    HW1 9971   3.063   1.015   6.534
 3024SOL    HW2 9972   3.130   1.053   6.678
 3025SOL     OW 9973   2.976   3.225   0.927
 3025SOL    HW1 9974   3.027   3.146   0.893
 3025SOL    HW2 9975   3.040   3.295   0.959
 3026SOL     OW 9976   1.395   3.357   1.156
 3026SOL    HW1 9977   1.445   3.343   1.071
 3026SOL    HW2 9978   1.341   3.441   1.150
 3027SOL     OW 9979   3.648   1.218   1.989
 3027SOL    HW1 9980   3.731   1.187   2.036
 3027SOL    HW2 9981   3.667   1.305   1.943
 3028SOL     OW 9982   1.524   5.046   6.781
 3028SOL    HW1 9983   1.552   4.952   6.764
 3028SOL    HW2 9984   1.603   5.106   6.773
 3029SOL     OW 9985   5.880   5.158   4.857
 3029SOL    HW1 9986   5.979   5.144   4.849
 3029SOL    HW2 9987   5.858   5.253   4.835
 3030SOL     OW 9988   0.790   0.928   5.747
 3030SOL    HW1 9989   0.735   0.861   5.796
 3030SOL    HW2 9990   0.731   0.981   5.686
 3031SOL     OW 9991   0.609   3.778   6.991
 3031SOL    HW1 9992   0.517   3.748   6.968
 3031SOL    HW2 9993   0.650   3.825   6.912
 3032SOL     OW 9994   5.027   0.451   6.520
 3032SOL    HW1 9995   5.090   0.529   6.520
 3032SOL    HW2 9996   5.025   0.411   6.429
 3033SOL     OW 9997   0.287   4.041   7.019
 3033SOL    HW1 9998   0.263   4.016   6.925
 3033SOL    HW2 9999   0.384   4.065   7.023
 3034SOL     OW10000   2.826   6.400   3.670
 3034SOL    HW110001   2.730   6.399   3.697
 3034SOL    HW210002   2.868   6.485   3.701
 3035SOL     OW10003   6.633   0.865   0.020
 3035SOL    HW110004   6.712   0.827   6.996
 3035SOL    HW210005   6.577   0.918   6.979
 3036SOL     OW10006   1.480   3.544   7.016
 3036SOL    HW110007   1.386   3.511   7.017
 3036SOL    HW210008   1.490   3.618   0.059
 3037SOL     OW10009   6.590   6.113   4.842
 3037SOL    HW110010   6.493   6.091   4.851
 3037SOL    HW210011   6.610   6.198   4.892
 3038SOL     OW10012   5.361   0.334   6.440
 3038SOL    HW110013   5.310   0.373   6.364
 3038SOL    HW210014   5.297   0.300   6.509
 3039SOL     OW10015   7.014   4.660   2.517
 3039SOL    HW110016   0.019   4.584   2.575
 3039SOL    HW210017   6.938   4.708   2.561
 3040SOL     OW10018   3.396   3.699   6.662
 3040SOL    HW110019   3.342   3.783   6.662
 3040SOL    HW210020   3.389   3.654   6.573
 3041SOL     OW10021   1.810   2.390   5.505
 3041SOL    HW110022   1.801   2.455   5.429
 3041SOL    HW210023   1.904   2.391   5.539
 3042SOL     OW10024   5.160   0.047   1.971
 3042SOL    HW110025   5.098   6.993   1.980
 3042SOL    HW210026   5.127   0.123   2.028
 3043SOL     OW10027   0.794   5.484   0.573
 3043SOL    HW110028   0.807   5.457   0.668
 3043SOL    HW210029   0.809   5.405   0.513
 3044SOL     OW10030   3.442   4.227   5.620
 3044SOL    HW110031   3.405   4.136   5.604
 3044SOL    HW210032   3.507   4.250   5.548
 3045SOL     OW10033   4.683   1.267   2.676
 3045SOL    HW110034   4.635   1.325   2.742
 3045SOL    HW210035   4.732   1.323   2.611
 3046SOL     OW10036   1.234   3.170   5.638
 3046SOL    HW110037   1.208   3.096   5.699
 3046SOL    HW210038   1.287   3.239   5.688
 3047SOL     OW10039   5.967   5.241   2.195
 3047SOL    HW110040   5.874   5.225   2.227
 3047SOL    HW210041   6.032   5.223   2.269
 3048SOL     OW10042   4.119   3.686   1.374
 3048SOL    HW110043   4.200   3.663   1.427
 3048SOL    HW210044   4.056   3.740   1.431
 3049SOL     OW10045   1.137   0.371   2.103
 3049SOL    HW110046   1.198   0.419   2.167
 3049SOL    HW210047   1.053   0.422   2.092
 3050SOL     OW10048   3.235   6.310   3.613
 3050SOL    HW110049   3.215   6.374   3.687
 3050SOL    HW210050   3.161   6.313   3.546
 3051SOL     OW10051   2.663   5.461   6.438
 3051SOL    HW110052   2.735   5.464   6.508
 3051SOL    HW210053   2.574   5.477   6.481
 3052SOL     OW10054   3.814   0.532   2.547
 3052SOL    HW110055   3.792   0.499   2.456
 3052SOL    HW210056   3.907   0.506   2.571
 3053SOL     OW10057   5.988   0.571   0.309
 3053SOL    HW110058   5.900   0.545   0.268
 3053SOL    HW210059   5.991   0.670   0.321
 3054SOL     OW10060   6.959   3.563   0.308
 3054SOL    HW110061   6.953   3.565   0.208
 3054SOL    HW210062   0.027   3.532   0.335
 3055SOL     OW10063   5.767   0.158   3.656
 3055SOL    HW110064   5.690   0.215   3.684
 3055SOL    HW210065   5.749   0.120   3.565
 3056SOL     OW10066   7.022   0.097   0.190
 3056SOL    HW110067   0.059   0.109   0.111
 3056SOL    HW210068   0.045   0.128   0.273
 3057SOL     OW10069   5.861   4.762   2.560
 3057SOL    HW110070   5.796   4.836   2.575
 3057SOL    HW210071   5.937   4.794   2.504
 3058SOL     OW10072   6.405   5.959   0.820
 3058SOL    HW110073   6.353   6.019   0.880
 3058SOL    HW210074   6.347   5.881   0.794
 3059SOL     OW10075   0.724   2.890   4.960
 3059SOL    HW110076   0.679   2.878   4.872
 3059SOL    HW210077   0.823   2.884   4.948
 3060SOL     OW10078   0.514   6.890   0.972
 3060SOL    HW110079   0.562   6.805   0.949
 3060SOL    HW210080   0.513   6.902   1.071
 3061SOL     OW10081   0.062   1.081   4.991
 3061SOL    HW110082   0.159   1.064   4.973
 3061SOL    HW210083   0.050   1.109   5.086
 3062SOL     OW10084   2.925   6.413   1.608
 3062SOL    HW110085   2.976   6.496   1.631
 3062SOL    HW210086   2.878   6.426   1.521
 3063SOL     OW10087   2.158   4.614   1.960
 3063SOL    HW110088   2.201   4.562   1.886
 3063SOL    HW210089   2.094   4.554   2.009
 3064SOL     OW10090   6.373   3.614   3.803
 3064SOL    HW110091   6.347   3.649   3.893
 3064SOL    HW210092   6.443   3.542   3.814
 3065SOL     OW10093   1.813   0.532   6.681
 3065SOL    HW110094   1.881   0.562   6.748
 3065SOL    HW210095   1.764   0.611   6.645
 3066SOL     OW10096   5.750   4.614   0.532
 3066SOL    HW110097   5.813   4.563   0.591
 3066SOL    HW210098   5.775   4.599   0.436
 3067SOL     OW10099   4.094   0.536   5.040
 3067SOL    HW110100   4.077   0.545   4.942
 3067SOL    HW210101   4.166   0.599   5.068
 3068SOL     OW10102   6.226   6.121   0.947
 3068SOL    HW110103   6.245   6.146   0.852
 3068SOL    HW210104   6.291   6.168   1.007
 3069SOL     OW10105   0.535   5.501   1.842
 3069SOL    HW110106   0.509   5.531   1.750
 3069SOL    HW210107   0.560   5.580   1.898
 3070SOL     OW10108   2.089   1.147   2.910
 3070SOL    HW110109   2.184   1.129   2.936
 3070SOL    HW210110   2.086   1.180   2.815
 3071SOL     OW10111   5.854   0.243   4.150
 3071SOL    HW110112   5.917   0.252   4.073
 3071SOL    HW210113   5.858   0.150   4.186
 3072SOL     OW10114   0.414   6.507   1.944
 3072SOL    HW110115   0.364   6.535   2.025
 3072SOL    HW210116   0.467   6.584   1.909
 3073SOL     OW10117   0.645   2.861   5.222
 3073SOL    HW110118   0.717   2.906   5.274
 3073SOL    HW210119   0.663   2.870   5.124
 3074SOL     OW10120   4.716   3.159   0.632
 3074SOL    HW110121   4.702   3.256   0.649
 3074SOL    HW210122   4.790   3.125   0.691
 3075SOL     OW10123   1.925   6.352   1.646
 3075SOL    HW110124   1.863   6.357   1.724
 3075SOL    HW210125   1.877   6.381   1.563
 3076SOL     OW10126   6.706   0.638   4.842
 3076SOL    HW110127   6.755   0.669   4.924
 3076SOL    HW210128   6.676   0.718   4.790
 3077SOL     OW10129   6.147   4.543   4.203
 3077SOL    HW110130   6.057   4.550   4.162
 3077SOL    HW210131   6.138   4.516   4.299
 3078SOL     OW10132   2.034   3.691   2.060
 3078SOL    HW110133   1.956   3.702   1.998
 3078SOL    HW210134   2.079   3.604   2.042
 3079SOL     OW10135   0.908   2.628   4.511
 3079SOL    HW110136   0.815   2.642   4.545
 3079SOL    HW210137   0.949   2.548   4.556
 3080SOL     OW10138   5.907   4.721   0.929
 3080SOL    HW110139   5.985   4.667   0.896
 3080SOL    HW210140   5.873   4.682   1.014
 3081SOL     OW10141   0.537   4.047   6.038
 3081SOL    HW110142   0.494   3.960   6.060
 3081SOL    HW210143   0.492   4.120   6.090
 3082SOL     OW10144   3.823   6.971   3.026
 3082SOL    HW110145   3.901   6.980   2.965
 3082SOL    HW210146   3.749   6.923   2.978
 3083SOL     OW10147   3.282   0.621   2.095
 3083SOL    HW110148   3.360   0.654   2.149
 3083SOL    HW210149   3.199   0.628   2.150
 3084SOL     OW10150   4.565   5.318   3.849
 3084SOL    HW110151   4.621   5.359   3.921
 3084SOL    HW210152   4.573   5.218   3.855
 3085SOL     OW10153   6.870   5.156   2.905
 3085SOL    HW110154   6.877   5.177   3.003
 3085SOL    HW210155   6.822   5.069   2.893
 3086SOL     OW10156   4.418   0.744   2.288
 3086SOL    HW110157   4.407   0.834   2.330
 3086SOL    HW210158   4.328   0.700   2.279
 3087SOL     OW10159   6.232   3.469   3.093
 3087SOL    HW110160   6.267   3.439   3.004
 3087SOL    HW210161   6.134   3.451   3.098
 3088SOL     OW10162   2.203   4.561   5.523
 3088SOL    HW110163   2.112   4.544   5.561
 3088SOL    HW210164   2.272   4.519   5.582
 3089SOL     OW10165   1.079   2.512   6.859
 3089SOL    HW110166   1.153   2.500   6.924
 3089SOL    HW210167   1.001   2.456   6.887
 3090SOL     OW10168   1.806   2.022   1.770
 3090SOL    HW110169   1.716   2.064   1.767
 3090SOL    HW210170   1.861   2.054   1.693
 3091SOL     OW10171   3.077   0.255   0.355
 3091SOL    HW110172   2.979   0.253   0.372
 3091SOL    HW210173   3.103   0.344   0.317
 3092SOL     OW10174   5.708   6.719   0.303
 3092SOL    HW110175   5.714   6.742   0.205
 3092SOL    HW210176   5.800   6.710   0.341
 3093SOL     OW10177   5.985   5.572   5.428
 3093SOL    HW110178   5.887   5.575   5.414
 3093SOL    HW210179   6.020   5.481   5.404
 3094SOL     OW10180   3.105   5.572   5.082
 3094SOL    HW110181   3.163   5.617   5.150
 3094SOL    HW210182   3.111   5.473   5.095
 3095SOL     OW10183   2.414   4.382   4.225
 3095SOL    HW110184   2.465   4.372   4.310
 3095SOL    HW210185   2.316   4.372   4.244
 3096SOL     OW10186   6.475   0.237   4.477
 3096SOL    HW110187   6.475   0.330   4.513
 3096SOL    HW210188   6.567   0.199   4.481
 3097SOL     OW10189   0.721   3.012   0.992
 3097SOL    HW110190   0.712   2.914   1.013
 3097SOL    HW210191   0.681   3.066   1.066
 3098SOL     OW10192   2.566   3.602   0.775
 3098SOL    HW110193   2.654   3.595   0.823
 3098SOL    HW210194   2.500   3.648   0.834
 3099SOL     OW10195   0.211   6.206   4.914
 3099SOL    HW110196   0.197   6.110   4.938
 3099SOL    HW210197   0.287   6.214   4.850
 3100SOL     OW10198   6.751   6.545   5.531
 3100SOL    HW110199   6.665   6.551   5.582
 3100SOL    HW210200   6.800   6.463   5.558
 3101SOL     OW10201   4.827   6.166   5.631
 3101SOL    HW110202   4.739   6.123   5.650
 3101SOL    HW210203   4.821   6.220   5.547
 3102SOL     OW10204   1.514   4.174   1.286
 3102SOL    HW110205   1.452   4.136   1.355
 3102SOL    HW210206   1.460   4.214   1.212
 3103SOL     OW10207   3.622   2.499   0.988
 3103SOL    HW110208   3.632   2.560   1.066
 3103SOL    HW210209   3.711   2.464   0.961
 3104SOL     OW10210   5.148   6.348   4.147
 3104SOL    HW110211   5.132   6.298   4.062
 3104SOL    HW210212   5.073   6.330   4.211
 3105SOL     OW10213   5.921   5.900   3.373
 3105SOL    HW110214   5.858   5.975   3.354
 3105SOL    HW210215   5.888   5.817   3.328
 3106SOL     OW10216   6.255   2.683   2.708
 3106SOL    HW110217   6.250   2.654   2.613
 3106SOL    HW210218   6.170   2.658   2.755
 3107SOL     OW10219   3.362   0.787   3.920
 3107SOL    HW110220   3.376   0.693   3.951
 3107SOL    HW210221   3.264   0.807   3.920
 3108SOL     OW10222   2.247   0.580   4.438
 3108SOL    HW110223   2.245   0.674   4.472
 3108SOL    HW210224   2.177   0.569   4.368
 3109SOL     OW10225   5.446   5.886   2.656
 3109SOL    HW110226   5.524   5.892   2.718
 3109SOL    HW210227   5.417   5.791   2.647
 3110SOL     OW10228   7.023   3.000   3.286
 3110SOL    HW110229   0.050   3.079   3.321
 3110SOL    HW210230   6.933   2.996   3.329
 3111SOL     OW10231   6.251   5.059   3.867
 3111SOL    HW110232   6.341   5.099   3.883
 3111SOL    HW210233   6.196   5.121   3.810
 3112SOL     OW10234   4.695   3.365   6.219
 3112SOL    HW110235   4.649   3.452   6.201
 3112SOL    HW210236   4.694   3.309   6.136
 3113SOL     OW10237   2.415   6.984   4.059
 3113SOL    HW110238   2.387   0.020   4.134
 3113SOL    HW210239   2.336   6.932   4.026
 3114SOL     OW10240   5.028   4.065   6.564
 3114SOL    HW110241   5.088   4.020   6.497
 3114SOL    HW210242   5.050   4.163   6.568
 3115SOL     OW10243   3.297   3.996   0.581
 3115SOL    HW110244   3.201   3.975   0.602
 3115SOL    HW210245   3.303   4.083   0.533
 3116SOL     OW10246   6.475   2.547   6.234
 3116SOL    HW110247   6.442   2.625   6.180
 3116SOL    HW210248   6.555   2.506   6.189
 3117SOL     OW10249   4.314   3.587   5.832
 3117SOL    HW110250   4.377   3.509   5.837
 3117SOL    HW210251   4.270   3.587   5.742
 3118SOL     OW10252   6.553   5.014   7.016
 3118SOL    HW110253   6.615   4.972   0.058
 3118SOL    HW210254   6.488   5.073   0.040
 3119SOL     OW10255   1.679   4.374   5.369
 3119SOL    HW110256   1.777   4.388   5.358
 3119SOL    HW210257   1.663   4.321   5.453
 3120SOL     OW10258   2.088   5.503   4.481
 3120SOL    HW110259   2.055   5.562   4.554
 3120SOL    HW210260   2.025   5.426   4.470
 3121SOL     OW10261   0.147   1.834   2.304
 3121SOL    HW110262   0.215   1.897   2.267
 3121SOL    HW210263   0.064   1.837   2.247
 3122SOL     OW10264   2.629   5.579   6.188
 3122SOL    HW110265   2.639   5.546   6.282
 3122SOL    HW210266   2.545   5.543   6.148
 3123SOL     OW10267   3.402   6.505   3.934
 3123SOL    HW110268   3.335   6.453   3.880
 3123SOL    HW210269   3.491   6.498   3.890
 3124SOL     OW10270   4.662   0.507   5.213
 3124SOL    HW110271   4.686   0.604   5.218
 3124SOL    HW210272   4.596   0.486   5.286
 3125SOL     OW10273   6.410   1.759   5.435
 3125SOL    HW110274   6.395   1.670   5.392
 3125SOL    HW210275   6.331   1.817   5.420
 3126SOL     OW10276   5.104   4.718   6.290
 3126SOL    HW110277   5.166   4.663   6.234
 3126SOL    HW210278   5.039   4.766   6.230
 3127SOL     OW10279   1.374   1.602   3.649
 3127SOL    HW110280   1.432   1.663   3.703
 3127SOL    HW210281   1.355   1.644   3.561
 3128SOL     OW10282   1.860   0.919   0.489
 3128SOL    HW110283   1.861   0.977   0.570
 3128SOL    HW210284   1.952   0.913   0.451
 3129SOL     OW10285   0.096   4.329   4.976
 3129SOL    HW110286   0.038   4.261   5.021
 3129SOL    HW210287   0.048   4.366   4.896
 3130SOL     OW10288   2.343   4.757   2.624
 3130SOL    HW110289   2.381   4.674   2.584
 3130SOL    HW210290   2.301   4.735   2.712
 3131SOL     OW10291   0.467   3.348   2.747
 3131SOL    HW110292   0.429   3.363   2.838
 3131SOL    HW210293   0.477   3.250   2.731
 3132SOL     OW10294   5.415   5.769   5.809
 3132SOL    HW110295   5.359   5.852   5.817
 3132SOL    HW210296   5.478   5.779   5.732
 3133SOL     OW10297   2.205   1.609   3.897
 3133SOL    HW110298   2.191   1.604   3.996
 3133SOL    HW210299   2.129   1.564   3.850
 3134SOL     OW10300   4.916   2.978   1.596
 3134SOL    HW110301   4.979   3.031   1.653
 3134SOL    HW210302   4.922   3.008   1.501
 3135SOL     OW10303   4.182   2.007   3.711
 3135SOL    HW110304   4.254   2.046   3.768
 3135SOL    HW210305   4.160   1.915   3.743
 3136SOL     OW10306   6.007   5.674   5.956
 3136SOL    HW110307   5.989   5.586   5.912
 3136SOL    HW210308   6.017   5.659   6.055
 3137SOL     OW10309   5.072   2.174   4.036
 3137SOL    HW110310   5.063   2.192   3.938
 3137SOL    HW210311   4.982   2.156   4.076
 3138SOL     OW10312   6.224   1.795   4.373
 3138SOL    HW110313   6.297   1.855   4.406
 3138SOL    HW210314   6.217   1.715   4.432
 3139SOL     OW10315   4.915   6.006   5.393
 3139SOL    HW110316   4.910   5.922   5.448
 3139SOL    HW210317   4.844   6.005   5.324
 3140SOL     OW10318   6.753   6.633   6.706
 3140SOL    HW110319   6.788   6.625   6.800
 3140SOL    HW210320   6.656   6.655   6.709
 3141SOL     OW10321   0.884   6.226   0.190
 3141SOL    HW110322   0.959   6.224   0.257
 3141SOL    HW210323   0.920   6.253   0.101
 3142SOL     OW10324   5.039   6.479   6.984
 3142SOL    HW110325   4.958   6.424   6.961
 3142SOL    HW210326   5.122   6.430   6.958
 3143SOL     OW10327   0.089   2.075   6.655
 3143SOL    HW110328   0.153   2.046   6.727
 3143SOL    HW210329   0.101   2.172   6.636
 3144SOL     OW10330   1.915   3.974   0.267
 3144SOL    HW110331   2.000   3.961   0.217
 3144SOL    HW210332   1.851   4.027   0.211
 3145SOL     OW10333   2.783   5.396   2.848
 3145SOL    HW110334   2.811   5.394   2.944
 3145SOL    HW210335   2.688   5.365   2.841
 3146SOL     OW10336   1.608   0.372   3.489
 3146SOL    HW110337   1.674   0.350   3.417
 3146SOL    HW210338   1.518   0.337   3.463
 3147SOL     OW10339   4.487   4.131   0.364
 3147SOL    HW110340   4.549   4.186   0.421
 3147SOL    HW210341   4.408   4.105   0.418
 3148SOL     OW10342   4.090   5.094   3.903
 3148SOL    HW110343   4.054   5.171   3.956
 3148SOL    HW210344   4.049   5.095   3.812
 3149SOL     OW10345   2.923   0.419   5.632
 3149SOL    HW110346   2.940   0.425   5.534
 3149SOL    HW210347   2.996   0.465   5.681
 3150SOL     OW10348   5.221   0.232   5.005
 3150SOL    HW110349   5.172   0.245   4.918
 3150SOL    HW210350   5.204   0.139   5.039
 3151SOL     OW10351   4.936   1.632   6.493
 3151SOL    HW110352   4.881   1.642   6.410
 3151SOL    HW210353   5.028   1.602   6.469
 3152SOL     OW10354   0.286   5.847   1.473
 3152SOL    HW110355   0.248   5.908   1.543
 3152SOL    HW210356   0.378   5.818   1.499
 3153SOL     OW10357   6.189   4.230   2.010
 3153SOL    HW110358   6.264   4.264   2.066
 3153SOL    HW210359   6.173   4.133   2.031
 3154SOL     OW10360   6.365   2.437   5.777
 3154SOL    HW110361   6.447   2.426   5.833
 3154SOL    HW210362   6.370   2.376   5.698
 3155SOL     OW10363   6.295   5.234   0.648
 3155SOL    HW110364   6.276   5.240   0.746
 3155SOL    HW210365   6.240   5.160   0.609
 3156SOL     OW10366   3.759   3.668   3.394
 3156SOL    HW110367   3.806   3.705   3.474
 3156SOL    HW210368   3.682   3.727   3.370
 3157SOL     OW10369   2.008   3.729   4.698
 3157SOL    HW110370   1.979   3.765   4.609
 3157SOL    HW210371   1.996   3.630   4.699
 3158SOL     OW10372   5.022   6.355   1.657
 3158SOL    HW110373   4.934   6.329   1.698
 3158SOL    HW210374   5.007   6.381   1.561
 3159SOL     OW10375   4.733   5.823   6.807
 3159SOL    HW110376   4.662   5.801   6.741
 3159SOL    HW210377   4.691   5.844   6.895
 3160SOL     OW10378   4.954   3.892   6.191
 3160SOL    HW110379   4.937   3.810   6.136
 3160SOL    HW210380   4.884   3.960   6.171
 3161SOL     OW10381   1.625   0.624   2.883
 3161SOL    HW110382   1.560   0.662   2.816
 3161SOL    HW210383   1.684   0.557   2.838
 3162SOL     OW10384   0.598   5.364   6.356
 3162SOL    HW110385   0.534   5.359   6.432
 3162SOL    HW210386   0.671   5.296   6.370
 3163SOL     OW10387   3.690   3.001   6.833
 3163SOL    HW110388   3.632   3.048   6.899
 3163SOL    HW210389   3.652   2.910   6.813
 3164SOL     OW10390   5.158   4.223   0.319
 3164SOL    HW110391   5.059   4.235   0.320
 3164SOL    HW210392   5.184   4.164   0.242
 3165SOL     OW10393   0.699   0.629   2.060
 3165SOL    HW110394   0.628   0.582   2.007
 3165SOL    HW210395   0.689   0.607   2.157
 3166SOL     OW10396   4.563   3.599   6.157
 3166SOL    HW110397   4.601   3.674   6.212
 3166SOL    HW210398   4.473   3.626   6.123
 3167SOL     OW10399   0.122   4.167   1.247
 3167SOL    HW110400   0.152   4.077   1.279
 3167SOL    HW210401   0.201   4.228   1.244
 3168SOL     OW10402   5.519   2.756   0.580
 3168SOL    HW110403   5.492   2.750   0.484
 3168SOL    HW210404   5.607   2.711   0.594
 3169SOL     OW10405   1.090   2.343   5.114
 3169SOL    HW110406   1.183   2.350   5.152
 3169SOL    HW210407   1.068   2.247   5.097
 3170SOL     OW10408   4.277   0.794   6.488
 3170SOL    HW110409   4.293   0.866   6.557
 3170SOL    HW210410   4.284   0.834   6.397
 3171SOL     OW10411   6.492   6.736   2.415
 3171SOL    HW110412   6.442   6.823   2.416
 3171SOL    HW210413   6.443   6.670   2.358
 3172SOL     OW10414   6.092   6.791   5.404
 3172SOL    HW110415   6.134   6.724   5.466
 3172SOL    HW210416   6.090   6.753   5.311
 3173SOL     OW10417   2.412   0.250   2.017
 3173SOL    HW110418   2.365   0.291   1.939
 3173SOL    HW210419   2.498   0.208   1.987
 3174SOL     OW10420   2.914   2.611   6.361
 3174SOL    HW110421   2.972   2.645   6.287
 3174SOL    HW210422   2.884   2.689   6.417
 3175SOL     OW10423   1.241   6.562   0.528
 3175SOL    HW110424   1.282   6.622   0.596
 3175SOL    HW210425   1.303   6.553   0.449
 3176SOL     OW10426   1.589   3.794   6.884
 3176SOL    HW110427   1.626   3.755   6.968
 3176SOL    HW210428   1.539   3.878   6.906
 3177SOL     OW10429   5.502   5.377   5.809
 3177SOL    HW110430   5.508   5.463   5.860
 3177SOL    HW210431   5.586   5.324   5.824
 3178SOL     OW10432   0.516   4.453   1.769
 3178SOL    HW110433   0.467   4.380   1.723
 3178SOL    HW210434   0.452   4.527   1.792
 3179SOL     OW10435   1.504   1.945   2.247
 3179SOL    HW110436   1.601   1.965   2.265
 3179SOL    HW210437   1.497   1.861   2.193
 3180SOL     OW10438   5.707   0.133   6.079
 3180SOL    HW110439   5.724   0.135   5.980
 3180SOL    HW210440   5.610   0.121   6.096
 3181SOL     OW10441   0.989   0.419   3.779
 3181SOL    HW110442   1.087   0.406   3.789
 3181SOL    HW210443   0.968   0.455   3.688
 3182SOL     OW10444   0.568   5.786   5.565
 3182SOL    HW110445   0.582   5.704   5.509
 3182SOL    HW210446   0.480   5.780   5.612
 3183SOL     OW10447   4.474   4.706   1.240
 3183SOL    HW110448   4.547   4.756   1.287
 3183SOL    HW210449   4.511   4.623   1.198
 3184SOL     OW10450   2.575   2.032   2.375
 3184SOL    HW110451   2.629   1.957   2.335
 3184SOL    HW210452   2.620   2.119   2.357
 3185SOL     OW10453   6.718   0.011   5.340
 3185SOL    HW110454   6.780   0.035   5.415
 3185SOL    HW210455   6.714   6.935   5.330
 3186SOL     OW10456   3.423   1.206   2.725
 3186SOL    HW110457   3.464   1.292   2.695
 3186SOL    HW210458   3.427   1.201   2.825
 3187SOL     OW10459   3.420   4.922   0.153
 3187SOL    HW110460   3.328   4.943   0.121
 3187SOL    HW210461   3.420   4.830   0.193
 3188SOL     OW10462   3.912   5.948   3.685
 3188SOL    HW110463   3.861   5.863   3.673
 3188SOL    HW210464   4.008   5.934   3.661
 3189SOL     OW10465   1.856   6.932   3.459
 3189SOL    HW110466   1.838   6.980   3.373
 3189SOL    HW210467   1.882   6.999   3.529
 3190SOL     OW10468   1.825   6.229   2.435
 3190SOL    HW110469   1.766   6.172   2.378
 3190SOL    HW210470   1.879   6.290   2.376
 3191SOL     OW10471   3.791   0.429   0.752
 3191SOL    HW110472   3.692   0.436   0.764
 3191SOL    HW210473   3.827   0.358   0.813
 3192SOL     OW10474   0.254   2.684   2.153
 3192SOL    HW110475   0.250   2.730   2.064
 3192SOL    HW210476   0.347   2.652   2.170
 3193SOL     OW10477   4.384   2.525   5.648
 3193SOL    HW110478   4.414   2.527   5.744
 3193SOL    HW210479   4.285   2.514   5.644
 3194SOL     OW10480   1.168   3.179   5.990
 3194SOL    HW110481   1.080   3.194   6.034
 3194SOL    HW210482   1.164   3.094   5.936
 3195SOL     OW10483   0.802   2.594   3.575
 3195SOL    HW110484   0.802   2.496   3.554
 3195SOL    HW210485   0.741   2.612   3.652
 3196SOL     OW10486   7.016   0.026   5.022
 3196SOL    HW110487   0.047   0.045   4.941
 3196SOL    HW210488   0.051   0.023   5.102
 3197SOL     OW10489   1.179   4.461   3.663
 3197SOL    HW110490   1.124   4.412   3.730
 3197SOL    HW210491   1.240   4.397   3.616
 3198SOL     OW10492   0.480   2.338   6.006
 3198SOL    HW110493   0.500   2.259   6.065
 3198SOL    HW210494   0.502   2.315   5.911
 3199SOL     OW10495   4.497   2.126   2.233
 3199SOL    HW110496   4.426   2.181   2.189
 3199SOL    HW210497   4.577   2.121   2.173
 3200SOL     OW10498   6.528   2.182   0.073
 3200SOL    HW110499   6.535   2.094   0.120
 3200SOL    HW210500   6.481   2.168   7.009
 3201SOL     OW10501   5.118   4.520   3.647
 3201SOL    HW110502   5.112   4.428   3.685
 3201SOL    HW210503   5.037   4.572   3.672
 3202SOL     OW10504   1.864   4.534   2.065
 3202SOL    HW110505   1.803   4.610   2.087
 3202SOL    HW210506   1.876   4.476   2.146
 3203SOL     OW10507   6.473   0.705   0.931
 3203SOL    HW110508   6.548   0.641   0.939
 3203SOL    HW210509   6.501   0.794   0.968
 3204SOL     OW10510   6.876   5.720   1.689
 3204SOL    HW110511   6.888   5.770   1.774
 3204SOL    HW210512   6.956   5.661   1.673
 3205SOL     OW10513   0.564   3.840   4.436
 3205SOL    HW110514   0.485   3.890   4.401
 3205SOL    HW210515   0.539   3.745   4.454
 3206SOL     OW10516   0.987   6.708   6.256
 3206SOL    HW110517   0.988   6.760   6.341
 3206SOL    HW210518   1.060   6.640   6.258
 3207SOL     OW10519   0.492   0.830   4.844
 3207SOL    HW110520   0.504   0.791   4.753
 3207SOL    HW210521   0.575   0.816   4.897
 3208SOL     OW10522   4.700   6.174   4.835
 3208SOL    HW110523   4.754   6.140   4.912
 3208SOL    HW210524   4.625   6.230   4.869
 3209SOL     OW10525   2.540   0.537   3.985
 3209SOL    HW110526   2.597   0.455   3.978
 3209SOL    HW210527   2.506   0.546   4.079
 3210SOL     OW10528   6.569   4.551   2.573
 3210SOL    HW110529   6.636   4.526   2.503
 3210SOL    HW210530   6.601   4.632   2.623
 3211SOL     OW10531   1.836   4.481   1.801
 3211SOL    HW110532   1.842   4.492   1.900
 3211SOL    HW210533   1.749   4.438   1.778
 3212SOL     OW10534   5.685   1.865   6.956
 3212SOL    HW110535   5.785   1.870   6.956
 3212SOL    HW210536   5.656   1.782   7.004
 3213SOL     OW10537   6.028   5.970   2.287
 3213SOL    HW110538   5.950   5.953   2.227
 3213SOL    HW210539   6.001   5.952   2.382
 3214SOL     OW10540   3.685   5.720   6.658
 3214SOL    HW110541   3.772   5.671   6.671
 3214SOL    HW210542   3.700   5.802   6.604
 3215SOL     OW10543   5.925   1.940   6.741
 3215SOL    HW110544   6.019   1.938   6.776
 3215SOL    HW210545   5.918   1.878   6.662
 3216SOL     OW10546   5.856   6.899   3.130
 3216SOL    HW110547   5.919   6.826   3.103
 3216SOL    HW210548   5.905   6.986   3.133
 3217SOL     OW10549   6.669   4.279   2.203
 3217SOL    HW110550   6.695   4.183   2.212
 3217SOL    HW210551   6.749   4.333   2.178
 3218SOL     OW10552   3.552   1.224   3.914
 3218SOL    HW110553   3.473   1.163   3.919
 3218SOL    HW210554   3.626   1.187   3.970
 3219SOL     OW10555   0.021   1.166   3.569
 3219SOL    HW110556   6.961   1.202   3.528
 3219SOL    HW210557   0.065   1.104   3.505
 3220SOL     OW10558   6.946   4.482   5.439
 3220SOL    HW110559   6.970   4.577   5.424
 3220SOL    HW210560   6.892   4.449   5.361
 3221SOL     OW10561   2.951   6.883   3.539
 3221SOL    HW110562   2.964   6.856   3.444
 3221SOL    HW210563   3.038   6.908   3.580
 3222SOL     OW10564   5.874   2.754   2.997
 3222SOL    HW110565   5.781   2.791   2.994
 3222SOL    HW210566   5.871   2.659   3.031
 3223SOL     OW10567   2.236   4.715   6.045
 3223SOL    HW110568   2.200   4.659   6.119
 3223SOL    HW210569   2.323   4.678   6.013
 3224SOL     OW10570   4.160   4.868   0.417
 3224SOL    HW110571   4.069   4.838   0.446
 3224SOL    HW210572   4.229   4.807   0.457
 3225SOL     OW10573   2.319   3.741   0.329
 3225SOL    HW110574   2.376   3.762   0.409
 3225SOL    HW210575   2.367   3.676   0.270
 3226SOL     OW10576   1.317   0.577   3.864
 3226SOL    HW110577   1.271   0.577   3.775
 3226SOL    HW210578   1.416   0.573   3.851
 3227SOL     OW10579   3.714   1.363   5.661
 3227SOL    HW110580   3.733   1.461   5.657
 3227SOL    HW210581   3.688   1.330   5.570
 3228SOL     OW10582   5.857   4.127   4.340
 3228SOL    HW110583   5.870   4.140   4.242
 3228SOL    HW210584   5.809   4.042   4.357
 3229SOL     OW10585   4.169   1.586   5.237
 3229SOL    HW110586   4.137   1.599   5.331
 3229SOL    HW210587   4.217   1.669   5.207
 3230SOL     OW10588   1.041   0.111   3.999
 3230SOL    HW110589   1.086   0.200   3.985
 3230SOL    HW210590   1.075   0.045   3.932
 3231SOL     OW10591   5.741   6.319   0.917
 3231SOL    HW110592   5.746   6.418   0.927
 3231SOL    HW210593   5.800   6.276   0.986
 3232SOL     OW10594   2.868   4.765   3.997
 3232SOL    HW110595   2.854   4.702   3.921
 3232SOL    HW210596   2.783   4.773   4.049
 3233SOL     OW10597   0.668   3.879   1.522
 3233SOL    HW110598   0.608   3.860   1.445
 3233SOL    HW210599   0.631   3.956   1.574
 3234SOL     OW10600   0.521   1.672   5.935
 3234SOL    HW110601   0.452   1.732   5.893
 3234SOL    HW210602   0.541   1.704   6.027
 3235SOL     OW10603   5.403   6.789   2.876
 3235SOL    HW110604   5.489   6.794   2.929
 3235SOL    HW210605   5.367   6.696   2.880
 3236SOL     OW10606   0.273   3.083   2.137
 3236SOL    HW110607   0.255   3.074   2.235
 3236SOL    HW210608   0.298   3.178   2.117
 3237SOL     OW10609   3.213   0.094   4.479
 3237SOL    HW110610   3.204   0.193   4.484
 3237SOL    HW210611   3.249   0.059   4.565
 3238SOL     OW10612   0.166   6.101   6.186
 3238SOL    HW110613   0.122   6.178   6.233
 3238SOL    HW210614   0.174   6.121   6.089
 3239SOL     OW10615   6.203   0.021   5.453
 3239SOL    HW110616   6.197   6.951   5.418
 3239SOL    HW210617   6.183   0.020   5.551
 3240SOL     OW10618   1.593   0.367   4.383
 3240SOL    HW110619   1.601   0.375   4.283
 3240SOL    HW210620   1.553   0.278   4.406
 3241SOL     OW10621   5.081   0.866   3.594
 3241SOL    HW110622   5.082   0.801   3.517
 3241SOL    HW210623   5.132   0.827   3.671
 3242SOL     OW10624   3.721   6.734   6.807
 3242SOL    HW110625   3.707   6.805   6.876
 3242SOL    HW210626   3.736   6.646   6.852
 3243SOL     OW10627   3.677   5.029   0.686
 3243SOL    HW110628   3.635   5.049   0.598
 3243SOL    HW210629   3.716   5.113   0.724
 3244SOL     OW10630   3.291   6.138   6.441
 3244SOL    HW110631   3.237   6.055   6.455
 3244SOL    HW210632   3.376   6.132   6.494
 3245SOL     OW10633   3.614   2.386   6.614
 3245SOL    HW110634   3.573   2.320   6.678
 3245SOL    HW210635   3.710   2.363   6.599
 3246SOL     OW10636   5.637   6.131   3.100
 3246SOL    HW110637   5.594   6.063   3.041
 3246SOL    HW210638   5.607   6.223   3.074
 3247SOL     OW10639   0.963   2.714   4.237
 3247SOL    HW110640   0.921   2.680   4.321
 3247SOL    HW210641   0.958   2.814   4.237
 3248SOL     OW10642   6.432   3.375   2.026
 3248SOL    HW110643   6.395   3.372   1.933
 3248SOL    HW210644   6.452   3.470   2.051
 3249SOL     OW10645   2.222   4.657   5.232
 3249SOL    HW110646   2.270   4.610   5.306
 3249SOL    HW210647   2.262   4.630   5.144
 3250SOL     OW10648   4.885   6.721   2.362
 3250SOL    HW110649   4.949   6.788   2.323
 3250SOL    HW210650   4.876   6.643   2.300
 3251SOL     OW10651   3.406   1.297   3.219
 3251SOL    HW110652   3.471   1.321   3.291
 3251SOL    HW210653   3.449   1.237   3.153
 3252SOL     OW10654   2.482   1.615   2.281
 3252SOL    HW110655   2.408   1.642   2.220
 3252SOL    HW210656   2.545   1.553   2.233
 3253SOL     OW10657   5.175   3.131   1.097
 3253SOL    HW110658   5.238   3.054   1.088
 3253SOL    HW210659   5.081   3.097   1.100
 3254SOL     OW10660   5.113   4.030   2.781
 3254SOL    HW110661   5.119   4.071   2.872
 3254SOL    HW210662   5.205   4.005   2.750
 3255SOL     OW10663   4.558   5.675   0.214
 3255SOL    HW110664   4.649   5.717   0.214
 3255SOL    HW210665   4.565   5.582   0.250
 3256SOL     OW10666   5.602   6.538   5.387
 3256SOL    HW110667   5.648   6.534   5.299
 3256SOL    HW210668   5.515   6.488   5.381
 3257SOL     OW10669   1.807   2.807   0.943
 3257SOL    HW110670   1.831   2.712   0.920
 3257SOL    HW210671   1.865   2.838   1.019
 3258SOL     OW10672   5.586   6.596   2.119
 3258SOL    HW110673   5.531   6.661   2.066
 3258SOL    HW210674   5.541   6.577   2.206
 3259SOL     OW10675   4.486   6.855   3.950
 3259SOL    HW110676   4.468   6.942   3.905
 3259SOL    HW210677   4.580   6.853   3.983
 3260SOL     OW10678   1.476   2.251   0.254
 3260SOL    HW110679   1.437   2.227   0.165
 3260SOL    HW210680   1.496   2.168   0.306
 3261SOL     OW10681   4.221   7.006   1.461
 3261SOL    HW110682   4.252   0.064   1.509
 3261SOL    HW210683   4.264   7.003   1.371
 3262SOL     OW10684   4.090   1.642   3.448
 3262SOL    HW110685   4.013   1.702   3.426
 3262SOL    HW210686   4.117   1.591   3.365
 3263SOL     OW10687   3.838   6.537   1.264
 3263SOL    HW110688   3.933   6.563   1.244
 3263SOL    HW210689   3.799   6.600   1.330
 3264SOL     OW10690   5.454   5.022   6.617
 3264SOL    HW110691   5.389   5.007   6.543
 3264SOL    HW210692   5.455   5.119   6.642
 3265SOL     OW10693   4.728   0.660   6.342
 3265SOL    HW110694   4.676   0.612   6.271
 3265SOL    HW210695   4.682   0.745   6.365
 3266SOL     OW10696   1.239   1.198   6.289
 3266SOL    HW110697   1.159   1.254   6.311
 3266SOL    HW210698   1.323   1.250   6.309
 3267SOL     OW10699   3.225   2.391   1.015
 3267SOL    HW110700   3.182   2.472   0.974
 3267SOL    HW210701   3.176   2.365   1.098
 3268SOL     OW10702   1.003   4.106   6.406
 3268SOL    HW110703   1.065   4.148   6.340
 3268SOL    HW210704   0.909   4.116   6.374
 3269SOL     OW10705   3.907   3.896   1.422
 3269SOL    HW110706   3.838   3.896   1.350
 3269SOL    HW210707   3.991   3.937   1.387
 3270SOL     OW10708   0.849   6.173   4.603
 3270SOL    HW110709   0.890   6.086   4.629
 3270SOL    HW210710   0.913   6.247   4.622
 3271SOL     OW10711   6.052   1.850   1.105
 3271SOL    HW110712   6.108   1.927   1.073
 3271SOL    HW210713   6.014   1.871   1.195
 3272SOL     OW10714   4.868   0.229   0.260
 3272SOL    HW110715   4.968   0.233   0.255
 3272SOL    HW210716   4.840   0.203   0.352
 3273SOL     OW10717   0.200   6.839   2.452
 3273SOL    HW110718   0.103   6.864   2.451
 3273SOL    HW210719   0.221   6.789   2.536
 3274SOL     OW10720   2.919   1.946   5.742
 3274SOL    HW110721   2.992   1.986   5.687
 3274SOL    HW210722   2.871   2.018   5.792
 3275SOL     OW10723   2.586   1.221   6.149
 3275SOL    HW110724   2.562   1.156   6.076
 3275SOL    HW210725   2.554   1.312   6.124
 3276SOL     OW10726   2.945   6.521   0.073
 3276SOL    HW110727   2.983   6.556   0.159
 3276SOL    HW210728   2.848   6.502   0.085
 3277SOL     OW10729   0.519   6.352   4.927
 3277SOL    HW110730   0.525   6.274   4.865
 3277SOL    HW210731   0.599   6.352   4.988
 3278SOL     OW10732   1.223   0.623   6.168
 3278SOL    HW110733   1.206   0.526   6.188
 3278SOL    HW210734   1.246   0.671   6.252
 3279SOL     OW10735   1.365   6.904   1.246
 3279SOL    HW110736   1.322   6.986   1.283
 3279SOL    HW210737   1.442   6.931   1.188
 3280SOL     OW10738   2.129   4.079   6.266
 3280SOL    HW110739   2.091   4.122   6.184
 3280SOL    HW210740   2.227   4.094   6.270
 3281SOL     OW10741   2.200   5.530   0.956
 3281SOL    HW110742   2.281   5.499   0.906
 3281SOL    HW210743   2.144   5.452   0.982
 3282SOL     OW10744   2.090   5.346   3.093
 3282SOL    HW110745   2.060   5.437   3.063
 3282SOL    HW210746   2.164   5.355   3.159
 3283SOL     OW10747   2.195   0.807   3.368
 3283SOL    HW110748   2.215   0.724   3.318
 3283SOL    HW210749   2.178   0.785   3.465
 3284SOL     OW10750   6.970   4.425   7.022
 3284SOL    HW110751   6.949   4.335   0.035
 3284SOL    HW210752   0.038   4.452   0.028
 3285SOL     OW10753   1.089   1.337   3.735
 3285SOL    HW110754   1.081   1.248   3.781
 3285SOL    HW210755   1.086   1.410   3.803
 3286SOL     OW10756   3.548   3.516   5.103
 3286SOL    HW110757   3.622   3.583   5.101
 3286SOL    HW210758   3.473   3.551   5.159
 3287SOL     OW10759   1.368   5.518   0.943
 3287SOL    HW110760   1.440   5.586   0.932
 3287SOL    HW210761   1.407   5.432   0.973
 3288SOL     OW10762   0.034   6.262   6.409
 3288SOL    HW110763   7.018   6.345   6.371
 3288SOL    HW210764   6.985   6.197   6.431
 3289SOL     OW10765   1.743   6.273   4.346
 3289SOL    HW110766   1.733   6.297   4.443
 3289SOL    HW210767   1.808   6.335   4.303
 3290SOL     OW10768   6.613   4.880   1.444
 3290SOL    HW110769   6.548   4.950   1.471
 3290SOL    HW210770   6.655   4.840   1.527
 3291SOL     OW10771   1.949   6.346   0.893
 3291SOL    HW110772   1.985   6.426   0.941
 3291SOL    HW210773   2.025   6.284   0.870
 3292SOL     OW10774   0.374   6.372   6.224
 3292SOL    HW110775   0.371   6.279   6.187
 3292SOL    HW210776   0.395   6.369   6.322
 3293SOL     OW10777   0.042   1.277   2.252
 3293SOL    HW110778   0.036   1.204   2.320
 3293SOL    HW210779   0.121   1.335   2.274
 3294SOL     OW10780   0.556   0.794   0.399
 3294SOL    HW110781   0.637   0.736   0.386
 3294SOL    HW210782   0.481   0.759   0.342
 3295SOL     OW10783   1.318   2.845   6.940
 3295SOL    HW110784   1.329   2.941   6.914
 3295SOL    HW210785   1.223   2.817   6.926
 3296SOL     OW10786   1.344   6.679   2.640
 3296SOL    HW110787   1.317   6.773   2.661
 3296SOL    HW210788   1.310   6.618   2.711
 3297SOL     OW10789   3.094   2.564   6.577
 3297SOL    HW110790   3.165   2.506   6.536
 3297SOL    HW210791   3.020   2.576   6.511
 3298SOL     OW10792   6.364   3.308   2.914
 3298SOL    HW110793   6.411   3.280   2.998
 3298SOL    HW210794   6.414   3.275   2.835
 3299SOL     OW10795   1.913   6.656   5.383
 3299SOL    HW110796   1.850   6.579   5.382
 3299SOL    HW210797   1.951   6.670   5.291
 3300SOL     OW10798   6.742   0.115   5.061
 3300SOL    HW110799   6.747   0.107   5.160
 3300SOL    HW210800   6.823   0.072   5.021
 3301SOL     OW10801   0.513   3.646   3.342
 3301SOL    HW110802   0.571   3.701   3.282
 3301SOL    HW210803   0.549   3.648   3.435
 3302SOL     OW10804   1.164   4.259   3.999
 3302SOL    HW110805   1.218   4.177   3.980
 3302SOL    HW210806   1.179   4.286   4.095
 3303SOL     OW10807   3.875   3.913   2.799
 3303SOL    HW110808   3.959   3.939   2.751
 3303SOL    HW210809   3.802   3.978   2.777
 3304SOL     OW10810   0.139   6.499   4.612
 3304SOL    HW110811   0.069   6.491   4.682
 3304SOL    HW210812   0.158   6.596   4.594
 3305SOL     OW10813   1.760   1.013   2.435
 3305SOL    HW110814   1.702   0.957   2.494
 3305SOL    HW210815   1.702   1.073   2.379
 3306SOL     OW10816   1.320   4.494   3.340
 3306SOL    HW110817   1.402   4.440   3.319
 3306SOL    HW210818   1.346   4.576   3.391
 3307SOL     OW10819   0.429   5.800   6.613
 3307SOL    HW110820   0.402   5.824   6.520
 3307SOL    HW210821   0.346   5.786   6.668
 3308SOL     OW10822   4.782   6.104   0.367
 3308SOL    HW110823   4.706   6.124   0.305
 3308SOL    HW210824   4.770   6.155   0.452
 3309SOL     OW10825   6.886   5.163   3.171
 3309SOL    HW110826   6.898   5.066   3.191
 3309SOL    HW210827   6.921   5.217   3.247
 3310SOL     OW10828   1.321   5.612   1.907
 3310SOL    HW110829   1.222   5.606   1.894
 3310SOL    HW210830   1.353   5.702   1.878
 3311SOL     OW10831   4.623   6.477   0.906
 3311SOL    HW110832   4.641   6.391   0.859
 3311SOL    HW210833   4.645   6.553   0.845
 3312SOL     OW10834   3.402   4.141   6.893
 3312SOL    HW110835   3.304   4.149   6.910
 3312SOL    HW210836   3.453   4.181   6.969
 3313SOL     OW10837   6.675   5.773   3.711
 3313SOL    HW110838   6.600   5.711   3.690
 3313SOL    HW210839   6.733   5.733   3.781
 3314SOL     OW10840   1.313   3.377   4.943
 3314SOL    HW110841   1.236   3.407   4.886
 3314SOL    HW210842   1.374   3.454   4.959
 3315SOL     OW10843   0.301   1.899   3.711
 3315SOL    HW110844   0.226   1.929   3.769
 3315SOL    HW210845   0.337   1.812   3.744
 3316SOL     OW10846   4.714   1.356   0.287
 3316SOL    HW110847   4.652   1.350   0.208
 3316SOL    HW210848   4.691   1.284   0.353
 3317SOL     OW10849   3.893   2.769   1.115
 3317SOL    HW110850   3.900   2.859   1.159
 3317SOL    HW210851   3.845   2.778   1.028
 3318SOL     OW10852   2.093   5.688   5.560
 3318SOL    HW110853   2.102   5.775   5.511
 3318SOL    HW210854   2.099   5.612   5.496
 3319SOL     OW10855   0.850   5.340   5.270
 3319SOL    HW110856   0.895   5.273   5.211
 3319SOL    HW210857   0.872   5.432   5.239
 3320SOL     OW10858   0.198   0.806   6.205
 3320SOL    HW110859   0.164   0.732   6.147
 3320SOL    HW210860   0.218   0.886   6.148
 3321SOL     OW10861   3.178   4.077   3.310
 3321SOL    HW110862   3.277   4.069   3.323
 3321SOL    HW210863   3.156   4.070   3.213
 3322SOL     OW10864   4.238   1.716   0.760
 3322SOL    HW110865   4.296   1.649   0.715
 3322SOL    HW210866   4.265   1.808   0.733
 3323SOL     OW10867   2.416   4.944   0.121
 3323SOL    HW110868   2.352   4.879   0.081
 3323SOL    HW210869   2.495   4.955   0.061
 3324SOL     OW10870   0.432   2.079   0.969
 3324SOL    HW110871   0.399   2.174   0.962
 3324SOL    HW210872   0.530   2.077   0.953
 3325SOL     OW10873   1.750   3.175   0.633
 3325SOL    HW110874   1.758   3.269   0.667
 3325SOL    HW210875   1.705   3.119   0.702
 3326SOL     OW10876   6.081   1.571   1.210
 3326SOL    HW110877   6.103   1.656   1.163
 3326SOL    HW210878   6.160   1.542   1.265
 3327SOL     OW10879   3.435   6.757   2.550
 3327SOL    HW110880   3.387   6.709   2.476
 3327SOL    HW210881   3.497   6.825   2.510
 3328SOL     OW10882   4.801   0.990   2.741
 3328SOL    HW110883   4.756   1.065   2.692
 3328SOL    HW210884   4.794   0.906   2.686
 3329SOL     OW10885   4.757   0.392   5.540
 3329SOL    HW110886   4.810   0.354   5.464
 3329SOL    HW210887   4.817   0.447   5.598
 3330SOL     OW10888   6.810   5.429   2.410
 3330SOL    HW110889   6.893   5.385   2.443
 3330SOL    HW210890   6.808   5.524   2.443
 3331SOL     OW10891   2.170   3.686   3.084
 3331SOL    HW110892   2.176   3.587   3.077
 3331SOL    HW210893   2.168   3.727   2.993
 3332SOL     OW10894   3.970   5.493   1.334
 3332SOL    HW110895   3.903   5.567   1.329
 3332SOL    HW210896   4.050   5.516   1.279
 3333SOL     OW10897   2.969   3.310   1.681
 3333SOL    HW110898   2.977   3.236   1.747
 3333SOL    HW210899   2.900   3.376   1.713
 3334SOL     OW10900   1.871   2.572   2.775
 3334SOL    HW110901   1.828   2.490   2.737
 3334SOL    HW210902   1.831   2.591   2.865
 3335SOL     OW10903   3.998   4.447   5.257
 3335SOL    HW110904   4.083   4.486   5.221
 3335SOL    HW210905   3.991   4.468   5.354
 3336SOL     OW10906   5.043   6.033   4.075
 3336SOL    HW110907   4.971   5.981   4.029
 3336SOL    HW210908   5.098   5.971   4.131
 3337SOL     OW10909   3.554   3.504   3.320
 3337SOL    HW110910   3.639   3.541   3.357
 3337SOL    HW210911   3.498   3.469   3.395
 3338SOL     OW10912   2.715   2.235   1.332
 3338SOL    HW110913   2.667   2.309   1.379
 3338SOL    HW210914   2.742   2.266   1.241
 3339SOL     OW10915   1.677   7.013   5.990
 3339SOL    HW110916   1.629   6.936   5.949
 3339SOL    HW210917   1.699   6.991   6.085
 3340SOL     OW10918   4.064   0.872   4.141
 3340SOL    HW110919   4.024   0.962   4.121
 3340SOL    HW210920   4.057   0.814   4.060
 3341SOL     OW10921   1.647   4.108   2.888
 3341SOL    HW110922   1.689   4.198   2.904
 3341SOL    HW210923   1.625   4.099   2.791
 3342SOL     OW10924   0.033   0.491   2.435
 3342SOL    HW110925   0.067   0.407   2.477
 3342SOL    HW210926   0.006   0.472   2.341
 3343SOL     OW10927   4.918   4.963   5.796
 3343SOL    HW110928   4.866   5.029   5.741
 3343SOL    HW210929   4.862   4.934   5.874
 3344SOL     OW10930   0.448   3.076   2.894
 3344SOL    HW110931   0.423   3.159   2.945
 3344SOL    HW210932   0.501   3.016   2.954
 3345SOL     OW10933   6.457   4.434   0.176
 3345SOL    HW110934   6.437   4.514   0.232
 3345SOL    HW210935   6.506   4.366   0.232
 3346SOL     OW10936   1.894   1.170   0.147
 3346SOL    HW110937   1.816   1.141   0.091
 3346SOL    HW210938   1.978   1.165   0.092
 3347SOL     OW10939   6.940   3.342   6.553
 3347SOL    HW110940   0.003   3.324   6.599
 3347SOL    HW210941   6.944   3.308   6.459
 3348SOL     OW10942   3.892   3.533   6.311
 3348SOL    HW110943   3.873   3.610   6.372
 3348SOL    HW210944   3.890   3.564   6.216
 3349SOL     OW10945   2.004   4.800   3.828
 3349SOL    HW110946   2.030   4.892   3.799
 3349SOL    HW210947   2.065   4.769   3.900
 3350SOL     OW10948   0.627   4.275   5.087
 3350SOL    HW110949   0.706   4.263   5.027
 3350SOL    HW210950   0.566   4.344   5.048
 3351SOL     OW10951   4.731   0.856   1.123
 3351SOL    HW110952   4.769   0.768   1.094
 3351SOL    HW210953   4.756   0.874   1.218
 3352SOL     OW10954   6.135   1.733   6.644
 3352SOL    HW110955   6.202   1.696   6.708
 3352SOL    HW210956   6.080   1.658   6.607
 3353SOL     OW10957   2.760   0.424   1.220
 3353SOL    HW110958   2.829   0.418   1.149
 3353SOL    HW210959   2.670   0.407   1.180
 3354SOL     OW10960   3.347   4.047   6.378
 3354SOL    HW110961   3.294   4.111   6.434
 3354SOL    HW210962   3.290   4.011   6.304
 3355SOL     OW10963   1.933   0.774   4.573
 3355SOL    HW110964   1.936   0.815   4.665
 3355SOL    HW210965   1.838   0.761   4.546
 3356SOL     OW10966   1.851   6.954   5.737
 3356SOL    HW110967   1.802   0.009   5.774
 3356SOL    HW210968   1.892   6.902   5.813
 3357SOL     OW10969   2.923   3.031   1.822
 3357SOL    HW110970   2.968   3.070   1.903
 3357SOL    HW210971   2.974   2.951   1.790
 3358SOL     OW10972   7.022   0.911   1.514
 3358SOL    HW110973   6.982   1.000   1.492
 3358SOL    HW210974   7.012   0.850   1.436
 3359SOL     OW10975   6.626   6.333   4.001
 3359SOL    HW110976   6.551   6.380   4.046
 3359SOL    HW210977   6.627   6.357   3.904
 3360SOL     OW10978   0.715   3.499   4.962
 3360SOL    HW110979   0.712   3.591   5.002
 3360SOL    HW210980   0.633   3.449   4.990
 3361SOL     OW10981   6.793   0.585   4.582
 3361SOL    HW110982   6.841   0.671   4.564
 3361SOL    HW210983   6.764   0.583   4.677
 3362SOL     OW10984   3.630   1.032   4.135
 3362SOL    HW110985   3.688   1.113   4.131
 3362SOL    HW210986   3.567   1.040   4.212
 3363SOL     OW10987   5.447   3.400   0.282
 3363SOL    HW110988   5.520   3.443   0.335
 3363SOL    HW210989   5.485   3.366   0.196
 3364SOL     OW10990   1.696   3.448   3.810
 3364SOL    HW110991   1.706   3.530   3.867
 3364SOL    HW210992   1.620   3.393   3.844
 3365SOL     OW10993   2.150   3.821   3.873
 3365SOL    HW110994   2.167   3.918   3.890
 3365SOL    HW210995   2.158   3.803   3.775
 3366SOL     OW10996   5.975   3.829   3.977
 3366SOL    HW110997   5.956   3.926   3.965
 3366SOL    HW210998   5.976   3.783   3.888
 3367SOL     OW10999   3.437   3.209   4.018
 3367SOL    HW111000   3.381   3.226   3.936
 3367SOL    HW211001   3.485   3.293   4.043
 3368SOL     OW11002   1.621   6.220   1.625
 3368SOL    HW111003   1.644   6.282   1.550
 3368SOL    HW211004   1.634   6.267   1.712
 3369SOL     OW11005   4.680   2.919   1.032
 3369SOL    HW111006   4.653   2.896   1.126
 3369SOL    HW211007   4.611   2.979   0.991
 3370SOL     OW11008   0.944   5.966   2.758
 3370SOL    HW111009   0.863   6.007   2.800
 3370SOL    HW211010   0.962   5.877   2.800
 3371SOL     OW11011   1.678   2.851   3.300
 3371SOL    HW111012   1.757   2.846   3.238
 3371SOL    HW211013   1.597   2.876   3.247
 3372SOL     OW11014   5.976   4.161   2.236
 3372SOL    HW111015   6.049   4.200   2.292
 3372SOL    HW211016   6.015   4.097   2.170
 3373SOL     OW11017   6.283   3.008   1.296
 3373SOL    HW111018   6.306   3.065   1.217
 3373SOL    HW211019   6.362   2.953   1.323
 3374SOL     OW11020   0.334   0.470   3.903
 3374SOL    HW111021   0.272   0.450   3.827
 3374SOL    HW211022   0.383   0.555   3.884
 3375SOL     OW11023   6.343   5.187   5.752
 3375SOL    HW111024   6.334   5.134   5.837
 3375SOL    HW211025   6.264   5.169   5.694
 3376SOL     OW11026   2.995   3.957   4.859
 3376SOL    HW111027   3.026   3.958   4.764
 3376SOL    HW211028   2.958   4.047   4.884
 3377SOL     OW11029   6.379   4.827   3.251
 3377SOL    HW111030   6.436   4.744   3.250
 3377SOL    HW211031   6.351   4.849   3.157
 3378SOL     OW11032   1.291   6.223   1.124
 3378SOL    HW111033   1.266   6.297   1.187
 3378SOL    HW211034   1.240   6.233   1.039
 3379SOL     OW11035   6.615   4.351   3.430
 3379SOL    HW111036   6.679   4.347   3.507
 3379SOL    HW211037   6.655   4.304   3.351
 3380SOL     OW11038   3.222   4.888   6.508
 3380SOL    HW111039   3.175   4.976   6.510
 3380SOL    HW211040   3.320   4.901   6.527
 3381SOL     OW11041   1.573   3.257   0.045
 3381SOL    HW111042   1.535   3.349   0.041
 3381SOL    HW211043   1.670   3.260   0.021
 3382SOL     OW11044   6.719   2.671   1.042
 3382SOL    HW111045   6.722   2.656   0.943
 3382SOL    HW211046   6.628   2.646   1.076
 3383SOL     OW11047   4.993   5.456   6.898
 3383SOL    HW111048   4.931   5.425   6.970
 3383SOL    HW211049   5.063   5.387   6.881
 3384SOL     OW11050   2.476   4.327   6.830
 3384SOL    HW111051   2.426   4.312   6.916
 3384SOL    HW211052   2.469   4.423   6.804
 3385SOL     OW11053   0.426   2.195   4.344
 3385SOL    HW111054   0.511   2.156   4.308
 3385SOL    HW211055   0.411   2.162   4.437
 3386SOL     OW11056   0.244   4.126   5.681
 3386SOL    HW111057   0.168   4.159   5.624
 3386SOL    HW211058   0.319   4.191   5.677
 3387SOL     OW11059   6.512   0.469   2.790
 3387SOL    HW111060   6.498   0.483   2.692
 3387SOL    HW211061   6.586   0.528   2.822
 3388SOL     OW11062   6.784   3.536   1.059
 3388SOL    HW111063   6.851   3.462   1.047
 3388SOL    HW211064   6.788   3.571   1.152
 3389SOL     OW11065   5.642   6.220   0.690
 3389SOL    HW111066   5.570   6.154   0.712
 3389SOL    HW211067   5.708   6.224   0.765
 3390SOL     OW11068   3.714   6.821   5.757
 3390SOL    HW111069   3.690   6.911   5.793
 3390SOL    HW211070   3.756   6.766   5.829
 3391SOL     OW11071   5.902   3.256   4.218
 3391SOL    HW111072   5.873   3.177   4.273
 3391SOL    HW211073   5.980   3.300   4.261
 3392SOL     OW11074   4.487   6.293   5.556
 3392SOL    HW111075   4.509   6.247   5.642
 3392SOL    HW211076   4.468   6.390   5.574
 3393SOL     OW11077   4.792   5.689   1.260
 3393SOL    HW111078   4.821   5.683   1.164
 3393SOL    HW211079   4.850   5.630   1.316
 3394SOL     OW11080   2.932   5.627   1.364
 3394SOL    HW111081   2.922   5.663   1.271
 3394SOL    HW211082   2.846   5.637   1.413
 3395SOL     OW11083   2.642   6.940   3.768
 3395SOL    HW111084   2.560   6.886   3.752
 3395SOL    HW211085   2.682   6.967   3.680
 3396SOL     OW11086   5.021   1.710   4.526
 3396SOL    HW111087   5.086   1.778   4.559
 3396SOL    HW211088   4.937   1.754   4.495
 3397SOL     OW11089   1.993   6.510   0.023
 3397SOL    HW111090   2.000   6.589   0.084
 3397SOL    HW211091   1.983   6.426   0.076
 3398SOL     OW11092   6.968   1.767   4.492
 3398SOL    HW111093   6.952   1.860   4.527
 3398SOL    HW211094   6.907   1.749   4.415
 3399SOL     OW11095   6.467   6.125   1.820
 3399SOL    HW111096   6.503   6.136   1.727
 3399SOL    HW211097   6.381   6.075   1.817
 3400SOL     OW11098   5.204   1.807   6.432
 3400SOL    HW111099   5.159   1.896   6.427
 3400SOL    HW211100   5.195   1.760   6.344
 3401SOL     OW11101   6.499   3.418   5.526
 3401SOL    HW111102   6.489   3.324   5.559
 3401SOL    HW211103   6.413   3.467   5.538
 3402SOL     OW11104   6.094   3.367   1.546
 3402SOL    HW111105   6.044   3.349   1.462
 3402SOL    HW211106   6.034   3.351   1.625
 3403SOL     OW11107   5.242   6.756   6.631
 3403SOL    HW111108   5.171   6.807   6.582
 3403SOL    HW211109   5.332   6.795   6.610
 3404SOL     OW11110   5.221   4.104   5.265
 3404SOL    HW111111   5.167   4.188   5.278
 3404SOL    HW211112   5.168   4.025   5.296
 3405SOL     OW11113   4.970   5.902   6.148
 3405SOL    HW111114   5.028   5.984   6.146
 3405SOL    HW211115   5.019   5.826   6.105
 3406SOL     OW11116   2.468   5.035   1.634
 3406SOL    HW111117   2.566   5.056   1.634
 3406SOL    HW211118   2.456   4.936   1.633
 3407SOL     OW11119   0.988   3.537   0.187
 3407SOL    HW111120   1.049   3.477   0.136
 3407SOL    HW211121   1.041   3.595   0.249
 3408SOL     OW11122   4.947   2.128   3.401
 3408SOL    HW111123   4.871   2.193   3.399
 3408SOL    HW211124   4.911   2.035   3.410
 3409SOL     OW11125   4.355   0.204   0.766
 3409SOL    HW111126   4.309   0.232   0.682
 3409SOL    HW211127   4.288   0.193   0.839
 3410SOL     OW11128   5.850   0.545   2.834
 3410SOL    HW111129   5.925   0.539   2.769
 3410SOL    HW211130   5.815   0.453   2.854
 3411SOL     OW11131   6.022   2.284   0.329
 3411SOL    HW111132   6.016   2.188   0.358
 3411SOL    HW211133   6.080   2.291   0.248
 3412SOL     OW11134   5.982   3.036   1.925
 3412SOL    HW111135   5.987   2.944   1.888
 3412SOL    HW211136   6.074   3.072   1.941
 3413SOL     OW11137   0.006   3.054   6.155
 3413SOL    HW111138   0.071   3.059   6.080
 3413SOL    HW211139   0.037   2.986   6.222
 3414SOL     OW11140   3.114   4.687   1.053
 3414SOL    HW111141   3.111   4.613   1.120
 3414SOL    HW211142   3.120   4.775   1.101
 3415SOL     OW11143   1.613   1.988   6.015
 3415SOL    HW111144   1.683   1.979   6.087
 3415SOL    HW211145   1.599   2.084   5.994
 3416SOL     OW11146   6.238   0.046   6.932
 3416SOL    HW111147   6.227   0.131   6.985
 3416SOL    HW211148   6.191   0.056   6.845
 3417SOL     OW11149   5.875   6.619   3.415
 3417SOL    HW111150   5.877   6.707   3.367
 3417SOL    HW211151   5.787   6.575   3.399
 3418SOL     OW11152   4.924   4.864   0.862
 3418SOL    HW111153   5.022   4.881   0.856
 3418SOL    HW211154   4.906   4.766   0.861
 3419SOL     OW11155   2.440   6.045   5.603
 3419SOL    HW111156   2.485   6.007   5.683
 3419SOL    HW211157   2.430   5.974   5.533
 3420SOL     OW11158   4.272   2.342   2.656
 3420SOL    HW111159   4.301   2.379   2.744
 3420SOL    HW211160   4.351   2.333   2.596
 3421SOL     OW11161   6.649   2.610   3.273
 3421SOL    HW111162   6.565   2.559   3.256
 3421SOL    HW211163   6.726   2.565   3.229
 3422SOL     OW11164   2.285   6.422   0.788
 3422SOL    HW111165   2.228   6.481   0.732
 3422SOL    HW211166   2.376   6.415   0.747
 3423SOL     OW11167   1.782   4.120   6.244
 3423SOL    HW111168   1.687   4.103   6.270
 3423SOL    HW211169   1.833   4.153   6.323
 3424SOL     OW11170   4.492   0.756   1.900
 3424SOL    HW111171   4.482   0.675   1.842
 3424SOL    HW211172   4.462   0.734   1.993
 3425SOL     OW11173   5.445   3.623   0.517
 3425SOL    HW111174   5.356   3.613   0.473
 3425SOL    HW211175   5.517   3.587   0.457
 3426SOL     OW11176   5.649   3.032   6.759
 3426SOL    HW111177   5.633   2.935   6.773
 3426SOL    HW211178   5.721   3.044   6.691
 3427SOL     OW11179   1.540   2.414   0.823
 3427SOL    HW111180   1.561   2.468   0.904
 3427SOL    HW211181   1.589   2.452   0.744
 3428SOL     OW11182   5.040   6.369   5.689
 3428SOL    HW111183   5.021   6.396   5.595
 3428SOL    HW211184   5.008   6.276   5.704
 3429SOL     OW11185   6.028   0.298   0.985
 3429SOL    HW111186   5.955   0.231   0.968
 3429SOL    HW211187   6.062   0.333   0.897
 3430SOL     OW11188   1.954   4.352   5.394
 3430SOL    HW111189   1.968   4.417   5.318
 3430SOL    HW211190   1.940   4.403   5.479
 3431SOL     OW11191   1.480   5.236   3.245
 3431SOL    HW111192   1.476   5.165   3.315
 3431SOL    HW211193   1.540   5.310   3.274
 3432SOL     OW11194   1.404   3.853   0.377
 3432SOL    HW111195   1.468   3.782   0.404
 3432SOL    HW211196   1.329   3.813   0.324
 3433SOL     OW11197   2.408   1.886   6.899
 3433SOL    HW111198   2.397   1.805   6.956
 3433SOL    HW211199   2.497   1.928   6.917
 3434SOL     OW11200   3.199   2.638   1.334
 3434SOL    HW111201   3.170   2.548   1.301
 3434SOL    HW211202   3.257   2.627   1.415
 3435SOL     OW11203   2.130   1.236   1.060
 3435SOL    HW111204   2.195   1.234   1.135
 3435SOL    HW211205   2.176   1.268   0.977
 3436SOL     OW11206   3.286   6.630   6.524
 3436SOL    HW111207   3.207   6.640   6.463
 3436SOL    HW211208   3.259   6.579   6.605
 3437SOL     OW11209   1.077   0.448   6.372
 3437SOL    HW111210   1.065   0.516   6.444
 3437SOL    HW211211   0.989   0.427   6.330
 3438SOL     OW11212   1.320   4.051   1.457
 3438SOL    HW111213   1.324   3.957   1.421
 3438SOL    HW211214   1.232   4.064   1.504
 3439SOL     OW11215   2.735   5.182   1.697
 3439SOL    HW111216   2.806   5.251   1.709
 3439SOL    HW211217   2.777   5.091   1.696
 3440SOL     OW11218   4.069   3.650   4.858
 3440SOL    HW111219   4.091   3.561   4.899
 3440SOL    HW211220   4.113   3.658   4.769
 3441SOL     OW11221   5.599   4.715   5.816
 3441SOL    HW111222   5.628   4.639   5.758
 3441SOL    HW211223   5.500   4.726   5.810
 3442SOL     OW11224   3.453   3.292   1.617
 3442SOL    HW111225   3.462   3.199   1.581
 3442SOL    HW211226   3.396   3.347   1.555
 3443SOL     OW11227   1.010   5.962   1.948
 3443SOL    HW111228   0.926   6.006   1.979
 3443SOL    HW211229   1.087   5.993   2.005
 3444SOL     OW11230   6.330   3.871   6.872
 3444SOL    HW111231   6.395   3.889   6.799
 3444SOL    HW211232   6.377   3.823   6.947
 3445SOL     OW11233   6.164   4.536   3.263
 3445SOL    HW111234   6.113   4.502   3.342
 3445SOL    HW211235   6.189   4.632   3.278
 3446SOL     OW11236   4.865   1.002   0.925
 3446SOL    HW111237   4.812   0.946   0.989
 3446SOL    HW211238   4.883   1.092   0.965
 3447SOL     OW11239   5.539   1.192   6.823
 3447SOL    HW111240   5.556   1.124   6.752
 3447SOL    HW211241   5.448   1.232   6.809
 3448SOL     OW11242   1.586   6.135   5.109
 3448SOL    HW111243   1.538   6.221   5.123
 3448SOL    HW211244   1.598   6.118   5.012
 3449SOL     OW11245   6.634   4.551   5.705
 3449SOL    HW111246   6.712   4.488   5.694
 3449SOL    HW211247   6.587   4.560   5.617
 3450SOL     OW11248   2.468   6.804   1.763
 3450SOL    HW111249   2.563   6.832   1.749
 3450SOL    HW211250   2.439   6.830   1.855
 3451SOL     OW11251   1.962   1.326   1.670
 3451SOL    HW111252   2.002   1.417   1.658
 3451SOL    HW211253   1.873   1.334   1.714
 3452SOL     OW11254   4.701   0.863   5.180
 3452SOL    HW111255   4.706   0.835   5.276
 3452SOL    HW211256   4.788   0.840   5.135
 3453SOL     OW11257   4.426   6.307   6.058
 3453SOL    HW111258   4.442   6.258   6.144
 3453SOL    HW211259   4.408   6.403   6.078
 3454SOL     OW11260   0.647   3.167   1.400
 3454SOL    HW111261   0.664   3.229   1.324
 3454SOL    HW211262   0.697   3.081   1.385
 3455SOL     OW11263   0.863   2.993   5.328
 3455SOL    HW111264   0.886   3.040   5.413
 3455SOL    HW211265   0.910   3.037   5.252
 3456SOL     OW11266   5.429   4.839   3.286
 3456SOL    HW111267   5.384   4.806   3.202
 3456SOL    HW211268   5.446   4.937   3.278
 3457SOL     OW11269   3.852   4.654   5.829
 3457SOL    HW111270   3.767   4.631   5.781
 3457SOL    HW211271   3.894   4.570   5.865
 3458SOL     OW11272   4.147   1.082   2.237
 3458SOL    HW111273   4.153   1.111   2.332
 3458SOL    HW211274   4.216   1.130   2.183
 3459SOL     OW11275   4.529   6.518   3.269
 3459SOL    HW111276   4.566   6.549   3.182
 3459SOL    HW211277   4.503   6.598   3.324
 3460SOL     OW11278   4.289   1.685   4.766
 3460SOL    HW111279   4.360   1.699   4.835
 3460SOL    HW211280   4.205   1.653   4.810
 3461SOL     OW11281   6.015   5.735   5.181
 3461SOL    HW111282   5.987   5.641   5.199
 3461SOL    HW211283   5.935   5.789   5.153
 3462SOL     OW11284   1.643   3.239   6.334
 3462SOL    HW111285   1.604   3.194   6.415
 3462SOL    HW211286   1.584   3.222   6.255
 3463SOL     OW11287   5.846   3.836   1.375
 3463SOL    HW111288   5.848   3.746   1.418
 3463SOL    HW211289   5.806   3.902   1.439
 3464SOL     OW11290   0.283   4.610   5.837
 3464SOL    HW111291   0.310   4.541   5.770
 3464SOL    HW211292   0.190   4.642   5.816
 3465SOL     OW11293   1.497   1.204   0.748
 3465SOL    HW111294   1.454   1.155   0.671
 3465SOL    HW211295   1.427   1.252   0.800
 3466SOL     OW11296   6.522   4.006   5.805
 3466SOL    HW111297   6.458   3.957   5.864
 3466SOL    HW211298   6.559   3.944   5.737
 3467SOL     OW11299   1.768   2.011   6.895
 3467SOL    HW111300   1.706   1.932   6.893
 3467SOL    HW211301   1.838   1.997   6.965
 3468SOL     OW11302   3.368   6.876   3.858
 3468SOL    HW111303   3.404   6.825   3.936
 3468SOL    HW211304   3.436   6.943   3.827
 3469SOL     OW11305   5.228   2.727   3.118
 3469SOL    HW111306   5.140   2.726   3.165
 3469SOL    HW211307   5.236   2.811   3.065
 3470SOL     OW11308   6.955   5.116   1.134
 3470SOL    HW111309   6.942   5.191   1.200
 3470SOL    HW211310   6.954   5.154   1.042
 3471SOL     OW11311   3.812   6.501   5.040
 3471SOL    HW111312   3.890   6.443   5.063
 3471SOL    HW211313   3.739   6.444   5.003
 3472SOL     OW11314   3.411   1.191   5.194
 3472SOL    HW111315   3.489   1.186   5.256
 3472SOL    HW211316   3.328   1.213   5.246
 3473SOL     OW11317   5.109   1.009   5.648
 3473SOL    HW111318   5.108   1.033   5.745
 3473SOL    HW211319   5.029   1.047   5.603
 3474SOL     OW11320   4.606   4.822   0.717
 3474SOL    HW111321   4.522   4.846   0.764
 3474SOL    HW211322   4.681   4.817   0.783
 3475SOL     OW11323   1.541   5.859   4.803
 3475SOL    HW111324   1.572   5.949   4.834
 3475SOL    HW211325   1.610   5.820   4.742
 3476SOL     OW11326   4.956   0.822   4.425
 3476SOL    HW111327   5.015   0.849   4.350
 3476SOL    HW211328   4.887   0.757   4.393
 3477SOL     OW11329   4.392   6.199   1.457
 3477SOL    HW111330   4.351   6.111   1.433
 3477SOL    HW211331   4.489   6.186   1.477
 3478SOL     OW11332   3.921   4.401   0.117
 3478SOL    HW111333   3.995   4.458   0.082
 3478SOL    HW211334   3.941   4.305   0.099
 3479SOL     OW11335   0.936   0.504   1.994
 3479SOL    HW111336   1.014   0.556   1.959
 3479SOL    HW211337   0.866   0.567   2.028
 3480SOL     OW11338   1.151   1.090   3.453
 3480SOL    HW111339   1.164   1.069   3.550
 3480SOL    HW211340   1.224   1.048   3.399
 3481SOL     OW11341   2.220   6.840   6.879
 3481SOL    HW111342   2.213   6.906   6.804
 3481SOL    HW211343   2.220   6.747   6.841
 3482SOL     OW11344   0.192   1.910   0.465
 3482SOL    HW111345   0.280   1.875   0.499
 3482SOL    HW211346   0.143   1.838   0.417
 3483SOL     OW11347   3.194   6.915   1.078
 3483SOL    HW111348   3.258   6.984   1.111
 3483SOL    HW211349   3.208   6.901   0.980
 3484SOL     OW11350   3.494   3.792   3.756
 3484SOL    HW111351   3.558   3.736   3.704
 3484SOL    HW211352   3.432   3.840   3.694
 3485SOL     OW11353   0.885   2.151   4.589
 3485SOL    HW111354   0.880   2.230   4.651
 3485SOL    HW211355   0.864   2.068   4.640
 3486SOL     OW11356   4.459   1.744   2.505
 3486SOL    HW111357   4.387   1.808   2.532
 3486SOL    HW211358   4.495   1.770   2.415
 3487SOL     OW11359   7.000   0.650   6.679
 3487SOL    HW111360   6.987   0.551   6.693
 3487SOL    HW211361   6.952   0.678   6.596
 3488SOL     OW11362   5.841   3.652   4.115
 3488SOL    HW111363   5.899   3.719   4.068
 3488SOL    HW211364   5.850   3.563   4.069
 3489SOL     OW11365   2.730   6.971   0.924
 3489SOL    HW111366   2.758   6.916   0.846
 3489SOL    HW211367   2.778   6.939   1.006
 3490SOL     OW11368   3.753   3.419   0.401
 3490SOL    HW111369   3.818   3.491   0.374
 3490SOL    HW211370   3.792   3.366   0.476
 3491SOL     OW11371   0.553   3.009   4.718
 3491SOL    HW111372   0.637   3.061   4.701
 3491SOL    HW211373   0.480   3.073   4.744
 3492SOL     OW11374   6.021   4.946   6.751
 3492SOL    HW111375   6.077   4.873   6.712
 3492SOL    HW211376   6.078   5.004   6.809
 3493SOL     OW11377   6.477   4.902   0.377
 3493SOL    HW111378   6.532   4.931   0.298
 3493SOL    HW211379   6.381   4.919   0.359
 3494SOL     OW11380   3.313   0.382   0.578
 3494SOL    HW111381   3.232   0.439   0.563
 3494SOL    HW211382   3.336   0.333   0.494
 3495SOL     OW11383   5.044   4.835   0.278
 3495SOL    HW111384   5.117   4.769   0.259
 3495SOL    HW211385   5.016   4.878   0.192
 3496SOL     OW11386   1.746   3.718   0.811
 3496SOL    HW111387   1.727   3.799   0.755
 3496SOL    HW211388   1.842   3.691   0.800
 3497SOL     OW11389   4.973   0.111   3.336
 3497SOL    HW111390   4.878   0.110   3.307
 3497SOL    HW211391   5.029   0.155   3.267
 3498SOL     OW11392   2.172   1.478   2.249
 3498SOL    HW111393   2.162   1.524   2.338
 3498SOL    HW211394   2.177   1.547   2.177
 3499SOL     OW11395   6.873   3.138   3.880
 3499SOL    HW111396   6.846   3.231   3.905
 3499SOL    HW211397   6.820   3.073   3.934
 3500SOL     OW11398   6.435   3.483   0.747
 3500SOL    HW111399   6.455   3.499   0.843
 3500SOL    HW211400   6.521   3.462   0.699
 3501SOL     OW11401   1.081   4.552   4.043
 3501SOL    HW111402   1.048   4.458   4.042
 3501SOL    HW211403   1.168   4.556   4.092
 3502SOL     OW11404   0.864   3.564   1.856
 3502SOL    HW111405   0.850   3.537   1.951
 3502SOL    HW211406   0.780   3.546   1.804
 3503SOL     OW11407   4.662   6.666   4.408
 3503SOL    HW111408   4.645   6.636   4.314
 3503SOL    HW211409   4.608   6.610   4.471
 3504SOL     OW11410   2.075   3.361   2.206
 3504SOL    HW111411   2.128   3.410   2.136
 3504SOL    HW211412   2.014   3.296   2.161
 3505SOL     OW11413   5.315   5.469   4.778
 3505SOL    HW111414   5.277   5.548   4.827
 3505SOL    HW211415   5.278   5.385   4.817
 3506SOL     OW11416   5.237   5.222   2.848
 3506SOL    HW111417   5.260   5.318   2.832
 3506SOL    HW211418   5.209   5.209   2.943
 3507SOL     OW11419   0.990   0.355   5.985
 3507SOL    HW111420   0.945   0.425   6.040
 3507SOL    HW211421   1.010   0.275   6.042
 3508SOL     OW11422   5.853   3.018   6.568
 3508SOL    HW111423   5.853   3.069   6.482
 3508SOL    HW211424   5.939   3.034   6.616
 3509SOL     OW11425   6.556   6.367   0.862
 3509SOL    HW111426   6.617   6.330   0.792
 3509SOL    HW211427   6.606   6.375   0.949
 3510SOL     OW11428   1.712   3.292   2.632
 3510SOL    HW111429   1.694   3.387   2.605
 3510SOL    HW211430   1.670   3.230   2.566
 3511SOL     OW11431   0.642   1.120   5.630
 3511SOL    HW111432   0.708   1.187   5.663
 3511SOL    HW211433   0.644   1.116   5.530
 3512SOL     OW11434   3.172   3.804   1.354
 3512SOL    HW111435   3.080   3.811   1.392
 3512SOL    HW211436   3.239   3.803   1.428
 3513SOL     OW11437   5.753   4.811   1.173
 3513SOL    HW111438   5.684   4.756   1.220
 3513SOL    HW211439   5.709   4.864   1.100
 3514SOL     OW11440   1.109   6.178   1.666
 3514SOL    HW111441   1.207   6.178   1.687
 3514SOL    HW211442   1.092   6.118   1.588
 3515SOL     OW11443   2.900   5.954   3.599
 3515SOL    HW111444   2.992   5.952   3.561
 3515SOL    HW211445   2.846   6.025   3.553
 3516SOL     OW11446   2.899   1.134   0.713
 3516SOL    HW111447   2.811   1.115   0.757
 3516SOL    HW211448   2.911   1.233   0.703
 3517SOL     OW11449   1.356   0.966   6.425
 3517SOL    HW111450   1.339   0.972   6.524
 3517SOL    HW211451   1.334   1.054   6.382
 3518SOL     OW11452   4.384   2.886   5.838
 3518SOL    HW111453   4.409   2.887   5.935
 3518SOL    HW211454   4.293   2.925   5.827
 3519SOL     OW11455   2.190   6.188   0.885
 3519SOL    HW111456   2.218   6.279   0.854
 3519SOL    HW211457   2.271   6.135   0.910
 3520SOL     OW11458   4.269   5.842   0.914
 3520SOL    HW111459   4.188   5.836   0.973
 3520SOL    HW211460   4.351   5.856   0.971
 3521SOL     OW11461   5.742   2.512   0.713
 3521SOL    HW111462   5.772   2.589   0.657
 3521SOL    HW211463   5.766   2.426   0.667
 3522SOL     OW11464   3.119   5.035   2.319
 3522SOL    HW111465   3.150   4.973   2.247
 3522SOL    HW211466   3.150   5.001   2.408
 3523SOL     OW11467   2.473   4.653   5.894
 3523SOL    HW111468   2.468   4.564   5.848
 3523SOL    HW211469   2.524   4.717   5.837
 3524SOL     OW11470   2.478   0.413   1.193
 3524SOL    HW111471   2.445   0.322   1.220
 3524SOL    HW211472   2.453   0.479   1.264
 3525SOL     OW11473   1.098   3.046   3.007
 3525SOL    HW111474   1.181   3.102   3.004
 3525SOL    HW211475   1.043   3.065   2.926
 3526SOL     OW11476   2.309   0.795   2.624
 3526SOL    HW111477   2.261   0.727   2.568
 3526SOL    HW211478   2.249   0.828   2.696
 3527SOL     OW11479   5.112   3.200   5.727
 3527SOL    HW111480   5.208   3.228   5.730
 3527SOL    HW211481   5.102   3.111   5.772
 3528SOL     OW11482   7.024   0.099   4.737
 3528SOL    HW111483   0.059   0.133   4.663
 3528SOL    HW211484   6.973   0.019   4.705
 3529SOL     OW11485   3.749   6.518   6.388
 3529SOL    HW111486   3.707   6.429   6.370
 3529SOL    HW211487   3.714   6.585   6.322
 3530SOL     OW11488   2.223   5.877   2.576
 3530SOL    HW111489   2.177   5.866   2.664
 3530SOL    HW211490   2.268   5.791   2.551
 3531SOL     OW11491   4.246   3.695   6.946
 3531SOL    HW111492   4.274   3.611   6.991
 3531SOL    HW211493   4.316   3.724   6.881
 3532SOL     OW11494   1.984   0.093   0.538
 3532SOL    HW111495   1.920   0.149   0.590
 3532SOL    HW211496   1.936   0.047   0.463
 3533SOL     OW11497   1.337   1.140   3.208
 3533SOL    HW111498   1.257   1.195   3.187
 3533SOL    HW211499   1.417   1.199   3.219
 3534SOL     OW11500   5.313   1.307   4.433
 3534SOL    HW111501   5.216   1.295   4.412
 3534SOL    HW211502   5.366   1.304   4.349
 3535SOL     OW11503   4.777   5.946   6.362
 3535SOL    HW111504   4.823   5.911   6.280
 3535SOL    HW211505   4.843   5.949   6.437
 3536SOL     OW11506   0.925   4.440   3.522
 3536SOL    HW111507   0.918   4.472   3.428
 3536SOL    HW211508   1.021   4.431   3.548
 3537SOL     OW11509   2.233   4.928   0.583
 3537SOL    HW111510   2.330   4.941   0.606
 3537SOL    HW211511   2.185   5.015   0.595
 3538SOL     OW11512   2.662   0.814   4.903
 3538SOL    HW111513   2.634   0.864   4.822
 3538SOL    HW211514   2.694   0.878   4.973
 3539SOL     OW11515   5.366   5.869   6.188
 3539SOL    HW111516   5.411   5.916   6.112
 3539SOL    HW211517   5.430   5.863   6.265
 3540SOL     OW11518   2.934   3.766   6.639
 3540SOL    HW111519   2.966   3.817   6.560
 3540SOL    HW211520   2.895   3.829   6.706
 3541SOL     OW11521   2.488   3.027   1.284
 3541SOL    HW111522   2.533   3.048   1.198
 3541SOL    HW211523   2.529   3.083   1.357
 3542SOL     OW11524   5.462   1.832   6.227
 3542SOL    HW111525   5.512   1.904   6.178
 3542SOL    HW211526   5.424   1.870   6.311
 3543SOL     OW11527   0.463   2.164   3.226
 3543SOL    HW111528   0.498   2.232   3.290
 3543SOL    HW211529   0.364   2.154   3.237
 3544SOL     OW11530   2.727   4.223   6.352
 3544SOL    HW111531   2.665   4.301   6.339
 3544SOL    HW211532   2.677   4.147   6.393
 3545SOL     OW11533   3.344   6.437   1.537
 3545SOL    HW111534   3.375   6.532   1.535
 3545SOL    HW211535   3.320   6.407   1.445
 3546SOL     OW11536   0.261   4.264   3.325
 3546SOL    HW111537   0.320   4.345   3.319
 3546SOL    HW211538   0.200   4.261   3.246
 3547SOL     OW11539   1.182   4.089   5.255
 3547SOL    HW111540   1.221   4.028   5.324
 3547SOL    HW211541   1.149   4.172   5.300
 3548SOL     OW11542   5.355   0.602   5.446
 3548SOL    HW111543   5.350   0.638   5.353
 3548SOL    HW211544   5.448   0.570   5.465
 3549SOL     OW11545   2.476   6.593   6.794
 3549SOL    HW111546   2.459   6.667   6.728
 3549SOL    HW211547   2.399   6.587   6.857
 3550SOL     OW11548   5.328   0.893   5.317
 3550SOL    HW111549   5.246   0.921   5.268
 3550SOL    HW211550   5.343   0.954   5.395
 3551SOL     OW11551   4.532   2.052   4.119
 3551SOL    HW111552   4.520   2.113   4.198
 3551SOL    HW211553   4.487   1.965   4.137
 3552SOL     OW11554   0.533   6.990   3.025
 3552SOL    HW111555   0.537   6.937   3.110
 3552SOL    HW211556   0.600   6.956   2.960
 3553SOL     OW11557   5.473   5.644   6.949
 3553SOL    HW111558   5.375   5.629   6.955
 3553SOL    HW211559   5.504   5.697   0.004
 3554SOL     OW11560   5.322   2.881   1.054
 3554SOL    HW111561   5.340   2.788   1.086
 3554SOL    HW211562   5.381   2.900   0.975
 3555SOL     OW11563   2.939   2.107   4.979
 3555SOL    HW111564   2.889   2.118   5.065
 3555SOL    HW211565   3.016   2.171   4.977
 3556SOL     OW11566   5.377   1.097   5.574
 3556SOL    HW111567   5.291   1.058   5.607
 3556SOL    HW211568   5.386   1.190   5.608
 3557SOL     OW11569   6.100   0.830   0.890
 3557SOL    HW111570   6.094   0.757   0.822
 3557SOL    HW211571   6.166   0.898   0.860
 3558SOL     OW11572   3.765   6.346   2.148
 3558SOL    HW111573   3.667   6.353   2.167
 3558SOL    HW211574   3.798   6.432   2.109
 3559SOL     OW11575   4.804   6.386   5.880
 3559SOL    HW111576   4.826   6.416   5.787
 3559SOL    HW211577   4.887   6.383   5.935
 3560SOL     OW11578   2.170   5.111   4.163
 3560SOL    HW111579   2.077   5.115   4.128
 3560SOL    HW211580   2.203   5.203   4.181
 3561SOL     OW11581   4.753   3.685   5.354
 3561SOL    HW111582   4.740   3.634   5.269
 3561SOL    HW211583   4.668   3.734   5.376
 3562SOL     OW11584   1.640   1.637   5.878
 3562SOL    HW111585   1.547   1.671   5.862
 3562SOL    HW211586   1.687   1.625   5.791
 3563SOL     OW11587   5.981   2.792   5.239
 3563SOL    HW111588   6.015   2.706   5.278
 3563SOL    HW211589   5.894   2.775   5.193
 3564SOL     OW11590   6.130   3.976   2.082
 3564SOL    HW111591   6.165   3.920   2.157
 3564SOL    HW211592   6.084   3.916   2.015
 3565SOL     OW11593   3.804   5.965   3.201
 3565SOL    HW111594   3.886   5.915   3.227
 3565SOL    HW211595   3.773   6.022   3.277
 3566SOL     OW11596   1.140   0.092   5.365
 3566SOL    HW111597   1.174   0.176   5.407
 3566SOL    HW211598   1.099   0.034   5.435
 3567SOL     OW11599   6.797   3.572   6.550
 3567SOL    HW111600   6.817   3.474   6.550
 3567SOL    HW211601   6.766   3.600   6.640
 3568SOL     OW11602   5.881   3.861   5.881
 3568SOL    HW111603   5.923   3.886   5.793
 3568SOL    HW211604   5.788   3.828   5.866
 3569SOL     OW11605   1.922   0.962   4.799
 3569SOL    HW111606   2.013   0.973   4.839
 3569SOL    HW211607   1.853   0.991   4.866
 3570SOL     OW11608   6.588   1.703   3.408
 3570SOL    HW111609   6.555   1.714   3.502
 3570SOL    HW211610   6.621   1.791   3.373
 3571SOL     OW11611   6.589   6.439   5.820
 3571SOL    HW111612   6.666   6.376   5.808
 3571SOL    HW211613   6.544   6.420   5.908
 3572SOL     OW11614   6.111   5.800   4.583
 3572SOL    HW111615   6.078   5.724   4.641
 3572SOL    HW211616   6.065   5.884   4.611
 3573SOL     OW11617   0.912   2.628   3.308
 3573SOL    HW111618   0.900   2.570   3.388
 3573SOL    HW211619   0.904   2.573   3.225
 3574SOL     OW11620   6.527   3.807   0.854
 3574SOL    HW111621   6.438   3.847   0.874
 3574SOL    HW211622   6.576   3.864   0.788
 3575SOL     OW11623   6.186   4.951   2.187
 3575SOL    HW111624   6.236   4.872   2.152
 3575SOL    HW211625   6.250   5.026   2.204
 3576SOL     OW11626   0.768   1.786   5.853
 3576SOL    HW111627   0.811   1.847   5.920
 3576SOL    HW211628   0.685   1.746   5.892
 3577SOL     OW11629   1.309   3.187   6.967
 3577SOL    HW111630   1.401   3.200   7.004
 3577SOL    HW211631   1.302   3.230   6.877
 3578SOL     OW11632   3.759   5.281   0.818
 3578SOL    HW111633   3.845   5.330   0.830
 3578SOL    HW211634   3.695   5.340   0.768
 3579SOL     OW11635   0.297   4.666   4.664
 3579SOL    HW111636   0.245   4.614   4.732
 3579SOL    HW211637   0.293   4.763   4.686
 3580SOL     OW11638   6.176   2.399   2.430
 3580SOL    HW111639   6.086   2.359   2.446
 3580SOL    HW211640   6.247   2.337   2.464
 3581SOL     OW11641   0.152   0.417   2.756
 3581SOL    HW111642   0.165   0.405   2.854
 3581SOL    HW211643   0.082   0.487   2.741
 3582SOL     OW11644   1.335   0.706   6.398
 3582SOL    HW111645   1.347   0.803   6.379
 3582SOL    HW211646   1.342   0.690   6.497
 3583SOL     OW11647   1.608   5.322   0.298
 3583SOL    HW111648   1.602   5.387   0.222
 3583SOL    HW211649   1.641   5.370   0.379
 3584SOL     OW11650   4.584   6.088   6.243
 3584SOL    HW111651   4.528   6.037   6.178
 3584SOL    HW211652   4.646   6.025   6.291
 3585SOL     OW11653   3.052   4.976   3.979
 3585SOL    HW111654   2.980   4.906   3.985
 3585SOL    HW211655   3.140   4.934   3.998
 3586SOL     OW11656   6.761   3.129   6.121
 3586SOL    HW111657   6.724   3.191   6.052
 3586SOL    HW211658   6.859   3.117   6.105
 3587SOL     OW11659   4.215   7.008   6.579
 3587SOL    HW111660   4.118   7.008   6.554
 3587SOL    HW211661   4.256   0.072   6.555
 3588SOL     OW11662   1.442   1.878   5.476
 3588SOL    HW111663   1.365   1.883   5.413
 3588SOL    HW211664   1.439   1.955   5.539
 3589SOL     OW11665   3.262   0.901   5.215
 3589SOL    HW111666   3.350   0.874   5.256
 3589SOL    HW211667   3.233   0.988   5.256
 3590SOL     OW11668   2.122   5.422   6.940
 3590SOL    HW111669   2.091   5.331   6.967
 3590SOL    HW211670   2.199   5.449   6.998
 3591SOL     OW11671   5.081   2.333   5.925
 3591SOL    HW111672   5.173   2.361   5.951
 3591SOL    HW211673   5.074   2.327   5.825
 3592SOL     OW11674   4.807   2.816   2.288
 3592SOL    HW111675   4.863   2.874   2.228
 3592SOL    HW211676   4.726   2.785   2.238
 3593SOL     OW11677   1.607   6.011   3.782
 3593SOL    HW111678   1.568   6.048   3.866
 3593SOL    HW211679   1.582   6.070   3.704
 3594SOL     OW11680   2.972   1.305   4.148
 3594SOL    HW111681   2.958   1.296   4.050
 3594SOL    HW211682   2.947   1.220   4.194
 3595SOL     OW11683   2.869   6.102   5.772
 3595SOL    HW111684   2.818   6.125   5.690
 3595SOL    HW211685   2.967   6.097   5.750
 3596SOL     OW11686   6.624   2.295   2.830
 3596SOL    HW111687   6.714   2.270   2.796
 3596SOL    HW211688   6.629   2.383   2.878
 3597SOL     OW11689   3.739   5.703   3.971
 3597SOL    HW111690   3.816   5.762   3.991
 3597SOL    HW211691   3.768   5.630   3.909
 3598SOL     OW11692   1.251   0.266   6.926
 3598SOL    HW111693   1.337   0.298   6.886
 3598SOL    HW211694   1.176   0.287   6.864
 3599SOL     OW11695   0.305   1.349   4.479
 3599SOL    HW111696   0.207   1.351   4.463
 3599SOL    HW211697   0.343   1.266   4.438
 3600SOL     OW11698   6.055   1.962   0.638
 3600SOL    HW111699   6.073   1.871   0.676
 3600SOL    HW211700   5.964   1.993   0.666
 3601SOL     OW11701   6.870   3.771   6.311
 3601SOL    HW111702   6.959   3.763   6.267
 3601SOL    HW211703   6.862   3.705   6.385
 3602SOL     OW11704   1.874   0.872   0.202
 3602SOL    HW111705   1.968   0.902   0.214
 3602SOL    HW211706   1.812   0.940   0.243
 3603SOL     OW11707   4.043   4.809   4.153
 3603SOL    HW111708   4.012   4.803   4.058
 3603SOL    HW211709   4.005   4.891   4.195
 3604SOL     OW11710   0.361   2.540   2.894
 3604SOL    HW111711   0.407   2.581   2.973
 3604SOL    HW211712   0.265   2.521   2.918
 3605SOL     OW11713   5.397   3.534   6.649
 3605SOL    HW111714   5.409   3.631   6.626
 3605SOL    HW211715   5.338   3.526   6.729
 3606SOL     OW11716   0.940   4.405   5.325
 3606SOL    HW111717   0.964   4.337   5.394
 3606SOL    HW211718   0.982   4.381   5.237
 3607SOL     OW11719   5.436   6.742   0.256
 3607SOL    HW111720   5.533   6.765   0.264
 3607SOL    HW211721   5.416   6.659   0.308
 3608SOL     OW11722   0.639   2.236   2.311
 3608SOL    HW111723   0.543   2.234   2.282
 3608SOL    HW211724   0.677   2.144   2.308
 3609SOL     OW11725   6.546   0.503   4.252
 3609SOL    HW111726   6.509   0.422   4.208
 3609SOL    HW211727   6.522   0.584   4.199
 3610SOL     OW11728   1.442   6.578   5.974
 3610SOL    HW111729   1.410   6.633   6.051
 3610SOL    HW211730   1.419   6.482   5.990
 3611SOL     OW11731   3.570   5.390   5.425
 3611SOL    HW111732   3.559   5.391   5.525
 3611SOL    HW211733   3.661   5.357   5.401
 3612SOL     OW11734   1.213   7.007   1.023
 3612SOL    HW111735   1.230   0.082   1.023
 3612SOL    HW211736   1.233   6.970   1.113
 3613SOL     OW11737   5.855   5.383   6.618
 3613SOL    HW111738   5.863   5.379   6.519
 3613SOL    HW211739   5.851   5.290   6.655
 3614SOL     OW11740   3.828   3.195   3.210
 3614SOL    HW111741   3.834   3.134   3.289
 3614SOL    HW211742   3.826   3.141   3.126
 3615SOL     OW11743   6.249   5.985   6.101
 3615SOL    HW111744   6.296   6.039   6.171
 3615SOL    HW211745   6.271   5.888   6.113
 3616SOL     OW11746   0.196   2.369   5.128
 3616SOL    HW111747   0.170   2.325   5.043
 3616SOL    HW211748   0.264   2.440   5.109
 3617SOL     OW11749   0.071   1.534   6.350
 3617SOL    HW111750   0.062   1.498   6.258
 3617SOL    HW211751   0.159   1.580   6.360
 3618SOL     OW11752   2.027   1.963   6.659
 3618SOL    HW111753   2.125   1.969   6.680
 3618SOL    HW211754   1.994   1.872   6.683
 3619SOL     OW11755   5.869   2.185   4.252
 3619SOL    HW111756   5.866   2.100   4.199
 3619SOL    HW211757   5.934   2.248   4.211
 3620SOL     OW11758   6.002   0.123   4.894
 3620SOL    HW111759   5.970   0.124   4.988
 3620SOL    HW211760   5.990   0.213   4.854
 3621SOL     OW11761   2.543   3.368   5.906
 3621SOL    HW111762   2.481   3.427   5.854
 3621SOL    HW211763   2.516   3.272   5.894
 3622SOL     OW11764   0.864   2.293   1.814
 3622SOL    HW111765   0.780   2.329   1.773
 3622SOL    HW211766   0.937   2.360   1.805
 3623SOL     OW11767   5.200   5.110   3.465
 3623SOL    HW111768   5.107   5.081   3.439
 3623SOL    HW211769   5.197   5.205   3.495
 3624SOL     OW11770   2.401   6.559   2.801
 3624SOL    HW111771   2.472   6.539   2.734
 3624SOL    HW211772   2.426   6.518   2.889
 3625SOL     OW11773   6.105   3.201   5.090
 3625SOL    HW111774   6.184   3.159   5.136
 3625SOL    HW211775   6.049   3.129   5.049
 3626SOL     OW11776   2.083   3.851   5.092
 3626SOL    HW111777   2.148   3.916   5.053
 3626SOL    HW211778   2.128   3.796   5.163
 3627SOL     OW11779   2.913   3.544   3.646
 3627SOL    HW111780   2.956   3.543   3.737
 3627SOL    HW211781   2.815   3.559   3.656
 3628SOL     OW11782   2.621   5.285   2.241
 3628SOL    HW111783   2.584   5.230   2.166
 3628SOL    HW211784   2.643   5.225   2.318
 3629SOL     OW11785   6.209   1.382   5.164
 3629SOL    HW111786   6.259   1.302   5.131
 3629SOL    HW211787   6.132   1.352   5.220
 3630SOL     OW11788   6.364   2.118   4.747
 3630SOL    HW111789   6.373   2.160   4.657
 3630SOL    HW211790   6.353   2.190   4.816
 3631SOL     OW11791   2.473   0.610   4.902
 3631SOL    HW111792   2.473   0.590   5.000
 3631SOL    HW211793   2.534   0.686   4.883
 3632SOL     OW11794   5.034   0.577   0.525
 3632SOL    HW111795   4.994   0.603   0.437
 3632SOL    HW211796   5.069   0.659   0.570
 3633SOL     OW11797   2.766   2.433   5.896
 3633SOL    HW111798   2.789   2.402   5.988
 3633SOL    HW211799   2.846   2.426   5.836
 3634SOL     OW11800   1.880   5.817   5.058
 3634SOL    HW111801   1.893   5.879   5.135
 3634SOL    HW211802   1.875   5.870   4.973
 3635SOL     OW11803   2.684   1.604   5.587
 3635SOL    HW111804   2.586   1.607   5.566
 3635SOL    HW211805   2.706   1.516   5.630
 3636SOL     OW11806   0.617   5.335   5.988
 3636SOL    HW111807   0.649   5.255   6.040
 3636SOL    HW211808   0.603   5.309   5.892
 3637SOL     OW11809   5.233   0.829   1.527
 3637SOL    HW111810   5.225   0.925   1.499
 3637SOL    HW211811   5.263   0.825   1.622
 3638SOL     OW11812   0.016   4.536   3.789
 3638SOL    HW111813   0.049   4.631   3.788
 3638SOL    HW211814   0.057   4.486   3.712
 3639SOL     OW11815   2.061   4.925   1.315
 3639SOL    HW111816   2.112   4.841   1.298
 3639SOL    HW211817   1.999   4.943   1.238
 3640SOL     OW11818   3.524   5.679   1.313
 3640SOL    HW111819   3.513   5.753   1.379
 3640SOL    HW211820   3.545   5.594   1.362
 3641SOL     OW11821   2.953   1.188   4.956
 3641SOL    HW111822   2.936   1.275   5.003
 3641SOL    HW211823   2.952   1.113   5.022
 3642SOL     OW11824   5.240   0.752   4.340
 3642SOL    HW111825   5.231   0.793   4.431
 3642SOL    HW211826   5.252   0.653   4.348
 3643SOL     OW11827   2.194   5.120   5.125
 3643SOL    HW111828   2.220   5.069   5.043
 3643SOL    HW211829   2.257   5.097   5.200
 3644SOL     OW11830   6.865   1.576   0.893
 3644SOL    HW111831   6.870   1.634   0.975
 3644SOL    HW211832   6.804   1.618   0.826
 3645SOL     OW11833   4.568   1.775   3.578
 3645SOL    HW111834   4.582   1.687   3.623
 3645SOL    HW211835   4.471   1.790   3.563
 3646SOL     OW11836   0.217   4.895   5.530
 3646SOL    HW111837   0.119   4.913   5.543
 3646SOL    HW211838   0.269   4.941   5.602
 3647SOL     OW11839   1.644   2.974   0.808
 3647SOL    HW111840   1.576   2.941   0.742
 3647SOL    HW211841   1.679   2.897   0.862
 3648SOL     OW11842   3.813   5.566   2.048
 3648SOL    HW111843   3.837   5.525   1.960
 3648SOL    HW211844   3.855   5.512   2.122
 3649SOL     OW11845   4.466   3.497   1.061
 3649SOL    HW111846   4.474   3.422   1.127
 3649SOL    HW211847   4.376   3.495   1.017
 3650SOL     OW11848   0.503   6.069   1.162
 3650SOL    HW111849   0.445   6.004   1.114
 3650SOL    HW211850   0.590   6.079   1.112
 3651SOL     OW11851   0.466   5.767   2.242
 3651SOL    HW111852   0.493   5.767   2.338
 3651SOL    HW211853   0.468   5.861   2.206
 3652SOL     OW11854   4.626   6.318   3.644
 3652SOL    HW111855   4.664   6.314   3.737
 3652SOL    HW211856   4.589   6.228   3.620
 3653SOL     OW11857   6.480   1.551   2.987
 3653SOL    HW111858   6.446   1.457   2.981
 3653SOL    HW211859   6.455   1.590   3.075
 3654SOL     OW11860   1.659   6.391   0.979
 3654SOL    HW111861   1.617   6.308   1.016
 3654SOL    HW211862   1.757   6.374   0.964
 3655SOL     OW11863   1.917   0.114   4.473
 3655SOL    HW111864   1.833   0.062   4.492
 3655SOL    HW211865   1.893   0.209   4.453
 3656SOL     OW11866   1.599   2.762   2.263
 3656SOL    HW111867   1.547   2.778   2.347
 3656SOL    HW211868   1.548   2.698   2.205
 3657SOL     OW11869   3.547   5.605   1.063
 3657SOL    HW111870   3.619   5.537   1.049
 3657SOL    HW211871   3.539   5.625   1.160
 3658SOL     OW11872   1.079   6.027   5.366
 3658SOL    HW111873   1.049   5.939   5.403
 3658SOL    HW211874   1.166   6.015   5.318
 3659SOL     OW11875   2.693   4.723   0.201
 3659SOL    HW111876   2.693   4.803   0.261
 3659SOL    HW211877   2.609   4.671   0.213
 3660SOL     OW11878   4.930   5.784   2.011
 3660SOL    HW111879   4.902   5.748   2.100
 3660SOL    HW211880   5.024   5.818   2.017
 3661SOL     OW11881   4.831   1.293   0.692
 3661SOL    HW111882   4.737   1.259   0.696
 3661SOL    HW211883   4.843   1.348   0.609
 3662SOL     OW11884   3.416   0.576   5.324
 3662SOL    HW111885   3.415   0.519   5.406
 3662SOL    HW211886   3.464   0.661   5.343
 3663SOL     OW11887   1.403   2.030   0.094
 3663SOL    HW111888   1.361   2.011   0.183
 3663SOL    HW211889   1.479   1.968   0.078
 3664SOL     OW11890   5.389   1.708   0.720
 3664SOL    HW111891   5.338   1.622   0.717
 3664SOL    HW211892   5.394   1.741   0.815
 3665SOL     OW11893   0.845   6.897   5.429
 3665SOL    HW111894   0.784   6.931   5.358
 3665SOL    HW211895   0.802   6.820   5.475
 3666SOL     OW11896   1.665   3.792   4.235
 3666SOL    HW111897   1.595   3.851   4.275
 3666SOL    HW211898   1.731   3.848   4.185
 3667SOL     OW11899   6.630   0.690   6.191
 3667SOL    HW111900   6.559   0.724   6.130
 3667SOL    HW211901   6.617   0.727   6.283
 3668SOL     OW11902   1.691   0.018   2.812
 3668SOL    HW111903   1.592   0.012   2.823
 3668SOL    HW211904   1.712   0.080   2.736
 3669SOL     OW11905   6.523   1.801   4.087
 3669SOL    HW111906   6.552   1.890   4.053
 3669SOL    HW211907   6.544   1.794   4.185
 3670SOL     OW11908   2.464   5.795   6.098
 3670SOL    HW111909   2.398   5.765   6.166
 3670SOL    HW211910   2.548   5.741   6.106
 3671SOL     OW11911   0.950   0.348   3.233
 3671SOL    HW111912   0.862   0.372   3.275
 3671SOL    HW211913   0.988   0.428   3.187
 3672SOL     OW11914   6.500   1.497   0.096
 3672SOL    HW111915   6.503   1.427   0.167
 3672SOL    HW211916   6.516   1.587   0.136
 3673SOL     OW11917   4.917   1.350   6.777
 3673SOL    HW111918   4.887   1.395   6.861
 3673SOL    HW211919   4.872   1.393   6.698
 3674SOL     OW11920   0.618   6.822   0.072
 3674SOL    HW111921   0.637   6.845   0.168
 3674SOL    HW211922   0.660   6.734   0.051
 3675SOL     OW11923   1.768   2.575   5.271
 3675SOL    HW111924   1.865   2.577   5.245
 3675SOL    HW211925   1.719   2.512   5.212
 3676SOL     OW11926   3.532   5.222   4.445
 3676SOL    HW111927   3.559   5.312   4.410
 3676SOL    HW211928   3.432   5.213   4.441
 3677SOL     OW11929   6.938   6.436   3.250
 3677SOL    HW111930   6.843   6.418   3.225
 3677SOL    HW211931   6.942   6.465   3.346
 3678SOL     OW11932   1.306   2.298   4.148
 3678SOL    HW111933   1.274   2.338   4.062
 3678SOL    HW211934   1.276   2.354   4.225
 3679SOL     OW11935   0.525   1.218   1.739
 3679SOL    HW111936   0.559   1.286   1.805
 3679SOL    HW211937   0.426   1.223   1.735
 3680SOL     OW11938   6.561   3.122   3.672
 3680SOL    HW111939   6.594   3.205   3.629
 3680SOL    HW211940   6.494   3.077   3.613
 3681SOL     OW11941   0.624   6.798   5.850
 3681SOL    HW111942   0.563   6.853   5.792
 3681SOL    HW211943   0.570   6.748   5.918
 3682SOL     OW11944   6.831   2.063   5.895
 3682SOL    HW111945   6.790   1.972   5.907
 3682SOL    HW211946   6.884   2.065   5.810
 3683SOL     OW11947   6.257   6.450   4.961
 3683SOL    HW111948   6.207   6.415   5.040
 3683SOL    HW211949   6.193   6.499   4.901
 3684SOL     OW11950   1.677   3.230   2.349
 3684SOL    HW111951   1.654   3.162   2.279
 3684SOL    HW211952   1.738   3.299   2.310
 3685SOL     OW11953   6.401   6.089   6.308
 3685SOL    HW111954   6.437   6.022   6.372
 3685SOL    HW211955   6.470   6.108   6.238
 3686SOL     OW11956   6.343   4.700   1.653
 3686SOL    HW111957   6.440   4.723   1.662
 3686SOL    HW211958   6.329   4.647   1.570
 3687SOL     OW11959   2.784   0.022   6.408
 3687SOL    HW111960   2.745   0.108   6.442
 3687SOL    HW211961   2.867   0.000   6.460
 3688SOL     OW11962   1.180   3.533   6.698
 3688SOL    HW111963   1.246   3.609   6.690
 3688SOL    HW211964   1.103   3.549   6.637
 3689SOL     OW11965   2.011   1.189   4.978
 3689SOL    HW111966   2.009   1.128   5.058
 3689SOL    HW211967   2.094   1.244   4.982
 3690SOL     OW11968   5.678   0.394   6.104
 3690SOL    HW111969   5.683   0.294   6.104
 3690SOL    HW211970   5.598   0.423   6.157
 3691SOL     OW11971   2.973   3.816   0.128
 3691SOL    HW111972   2.935   3.850   0.043
 3691SOL    HW211973   2.945   3.721   0.142
 3692SOL     OW11974   1.222   6.372   4.949
 3692SOL    HW111975   1.144   6.387   5.010
 3692SOL    HW211976   1.253   6.460   4.912
 3693SOL     OW11977   3.074   2.059   3.397
 3693SOL    HW111978   3.138   2.032   3.469
 3693SOL    HW211979   3.017   2.135   3.428
 3694SOL     OW11980   1.160   6.473   3.635
 3694SOL    HW111981   1.098   6.415   3.582
 3694SOL    HW211982   1.176   6.431   3.724
 3695SOL     OW11983   1.819   1.572   2.557
 3695SOL    HW111984   1.899   1.612   2.512
 3695SOL    HW211985   1.810   1.476   2.531
 3696SOL     OW11986   4.585   6.797   5.785
 3696SOL    HW111987   4.614   6.769   5.693
 3696SOL    HW211988   4.574   6.897   5.787
 3697SOL     OW11989   0.137   6.910   3.211
 3697SOL    HW111990   0.106   6.941   3.301
 3697SOL    HW211991   0.100   6.819   3.192
 3698SOL     OW11992   2.983   0.221   5.982
 3698SOL    HW111993   3.069   0.269   5.996
 3698SOL    HW211994   2.996   0.146   5.917
 3699SOL     OW11995   6.520   3.733   3.006
 3699SOL    HW111996   6.427   3.758   2.978
 3699SOL    HW211997   6.583   3.749   2.930
 3700SOL     OW11998   6.014   0.677   4.388
 3700SOL    HW111999   6.041   0.641   4.298
 3700SOL    HW212000   6.094   0.681   4.448
 3701SOL     OW12001   0.076   1.016   4.461
 3701SOL    HW112002   0.055   1.053   4.552
 3701SOL    HW212003   0.169   1.043   4.435
 3702SOL     OW12004   3.686   0.338   1.072
 3702SOL    HW112005   3.586   0.350   1.068
 3702SOL    HW212006   3.712   0.309   1.164
 3703SOL     OW12007   3.893   4.927   5.888
 3703SOL    HW112008   3.902   4.834   5.852
 3703SOL    HW212009   3.871   4.923   5.986
 3704SOL     OW12010   2.593   1.211   2.564
 3704SOL    HW112011   2.610   1.113   2.560
 3704SOL    HW212012   2.610   1.251   2.473
 3705SOL     OW12013   4.864   0.396   3.245
 3705SOL    HW112014   4.850   0.488   3.207
 3705SOL    HW212015   4.848   0.398   3.343
 3706SOL     OW12016   1.914   2.751   4.366
 3706SOL    HW112017   1.981   2.704   4.424
 3706SOL    HW212018   1.957   2.830   4.323
 3707SOL     OW12019   4.609   2.200   6.039
 3707SOL    HW112020   4.702   2.206   6.075
 3707SOL    HW212021   4.613   2.171   5.943
 3708SOL     OW12022   6.037   0.567   6.330
 3708SOL    HW112023   6.117   0.626   6.317
 3708SOL    HW212024   6.018   0.557   6.427
 3709SOL     OW12025   3.816   1.080   5.974
 3709SOL    HW112026   3.727   1.079   6.019
 3709SOL    HW212027   3.838   0.988   5.942
 3710SOL     OW12028   6.734   5.194   0.367
 3710SOL    HW112029   6.700   5.288   0.361
 3710SOL    HW212030   6.766   5.176   0.460
 3711SOL     OW12031   0.163   6.014   1.984
 3711SOL    HW112032   0.253   5.983   2.015
 3711SOL    HW212033   0.174   6.095   1.925
 3712SOL     OW12034   0.621   6.601   6.886
 3712SOL    HW112035   0.589   6.567   6.975
 3712SOL    HW212036   0.625   6.526   6.821
 3713SOL     OW12037   3.211   5.910   5.173
 3713SOL    HW112038   3.212   5.837   5.241
 3713SOL    HW212039   3.117   5.940   5.157
 3714SOL     OW12040   4.481   0.160   4.838
 3714SOL    HW112041   4.473   0.061   4.833
 3714SOL    HW212042   4.460   0.191   4.931
 3715SOL     OW12043   5.039   5.260   4.204
 3715SOL    HW112044   5.020   5.185   4.267
 3715SOL    HW212045   5.105   5.230   4.135
 3716SOL     OW12046   6.749   0.187   4.463
 3716SOL    HW112047   6.733   0.118   4.533
 3716SOL    HW212048   6.815   0.254   4.496
 3717SOL     OW12049   6.229   5.760   0.699
 3717SOL    HW112050   6.173   5.765   0.616
 3717SOL    HW212051   6.267   5.668   0.707
 3718SOL     OW12052   1.039   6.363   6.982
 3718SOL    HW112053   1.129   6.374   0.001
 3718SOL    HW212054   0.990   6.450   6.986
 3719SOL     OW12055   4.244   5.173   0.364
 3719SOL    HW112056   4.214   5.078   0.358
 3719SOL    HW212057   4.231   5.219   0.276
 3720SOL     OW12058   6.539   1.644   6.364
 3720SOL    HW112059   6.631   1.665   6.398
 3720SOL    HW212060   6.471   1.681   6.426
 3721SOL     OW12061   5.162   5.093   0.403
 3721SOL    HW112062   5.191   5.187   0.424
 3721SOL    HW212063   5.239   5.044   0.361
 3722SOL     OW12064   0.076   6.140   2.737
 3722SOL    HW112065   0.160   6.140   2.683
 3722SOL    HW212066   7.021   6.142   2.675
 3723SOL     OW12067   5.329   6.900   1.716
 3723SOL    HW112068   5.338   6.996   1.743
 3723SOL    HW212069   5.407   6.874   1.660
 3724SOL     OW12070   1.009   5.640   0.533
 3724SOL    HW112071   1.089   5.586   0.558
 3724SOL    HW212072   0.926   5.595   0.567
 3725SOL     OW12073   0.163   5.869   6.738
 3725SOL    HW112074   0.168   5.921   6.823
 3725SOL    HW212075   0.174   5.931   6.661
 3726SOL     OW12076   5.572   3.893   2.008
 3726SOL    HW112077   5.553   3.853   2.098
 3726SOL    HW212078   5.620   3.980   2.019
 3727SOL     OW12079   1.535   2.785   5.158
 3727SOL    HW112080   1.576   2.865   5.203
 3727SOL    HW212081   1.600   2.748   5.092
 3728SOL     OW12082   2.464   3.057   0.020
 3728SOL    HW112083   2.537   3.125   0.007
 3728SOL    HW212084   2.376   3.104   0.018
 3729SOL     OW12085   0.760   1.750   3.506
 3729SOL    HW112086   0.849   1.797   3.512
 3729SOL    HW212087   0.710   1.784   3.427
 3730SOL     OW12088   2.806   1.304   6.689
 3730SOL    HW112089   2.716   1.261   6.697
 3730SOL    HW212090   2.840   1.328   6.780
 3731SOL     OW12091   4.437   0.715   0.946
 3731SOL    HW112092   4.455   0.762   0.860
 3731SOL    HW212093   4.338   0.705   0.958
 3732SOL     OW12094   2.084   3.353   5.643
 3732SOL    HW112095   2.076   3.395   5.733
 3732SOL    HW212096   2.001   3.301   5.623
 3733SOL     OW12097   2.588   3.991   1.445
 3733SOL    HW112098   2.533   3.962   1.367
 3733SOL    HW212099   2.543   3.961   1.530
 3734SOL     OW12100   4.415   1.223   2.549
 3734SOL    HW112101   4.431   1.287   2.473
 3734SOL    HW212102   4.502   1.205   2.595
 3735SOL     OW12103   2.237   2.435   2.700
 3735SOL    HW112104   2.172   2.489   2.647
 3735SOL    HW212105   2.318   2.490   2.721
 3736SOL     OW12106   6.222   2.546   0.678
 3736SOL    HW112107   6.140   2.493   0.702
 3736SOL    HW212108   6.209   2.589   0.589
 3737SOL     OW12109   5.160   0.164   3.128
 3737SOL    HW112110   5.105   0.153   3.046
 3737SOL    HW212111   5.234   0.229   3.110
 3738SOL     OW12112   6.206   6.345   3.633
 3738SOL    HW112113   6.210   6.427   3.577
 3738SOL    HW212114   6.111   6.316   3.645
 3739SOL     OW12115   0.749   4.061   2.631
 3739SOL    HW112116   0.789   3.975   2.663
 3739SOL    HW212117   0.785   4.083   2.541
 3740SOL     OW12118   5.305   1.247   6.706
 3740SOL    HW112119   5.289   1.335   6.661
 3740SOL    HW212120   5.222   1.191   6.699
 3741SOL     OW12121   4.817   3.295   1.148
 3741SOL    HW112122   4.833   3.392   1.166
 3741SOL    HW212123   4.718   3.278   1.142
 3742SOL     OW12124   3.844   2.276   5.913
 3742SOL    HW112125   3.793   2.288   5.828
 3742SOL    HW212126   3.901   2.195   5.906
 3743SOL     OW12127   6.985   4.956   6.841
 3743SOL    HW112128   7.000   4.881   6.906
 3743SOL    HW212129   6.915   4.929   6.775
 3744SOL     OW12130   0.103   4.968   3.935
 3744SOL    HW112131   0.118   5.065   3.914
 3744SOL    HW212132   0.145   4.911   3.864
 3745SOL     OW12133   3.871   5.623   2.495
 3745SOL    HW112134   3.873   5.698   2.429
 3745SOL    HW212135   3.891   5.659   2.586
 3746SOL     OW12136   4.646   2.117   1.683
 3746SOL    HW112137   4.632   2.020   1.704
 3746SOL    HW212138   4.740   2.132   1.651
 3747SOL     OW12139   3.296   0.093   6.899
 3747SOL    HW112140   3.289   0.140   6.812
 3747SOL    HW212141   3.392   0.079   6.923
 3748SOL     OW12142   5.846   0.526   1.565
 3748SOL    HW112143   5.828   0.511   1.468
 3748SOL    HW212144   5.886   0.443   1.604
 3749SOL     OW12145   1.521   6.622   4.517
 3749SOL    HW112146   1.621   6.620   4.510
 3749SOL    HW212147   1.482   6.636   4.426
 3750SOL     OW12148   0.242   3.672   0.607
 3750SOL    HW112149   0.156   3.705   0.567
 3750SOL    HW212150   0.222   3.625   0.694
 3751SOL     OW12151   0.529   4.523   2.748
 3751SOL    HW112152   0.492   4.454   2.687
 3751SOL    HW212153   0.544   4.484   2.839
 3752SOL     OW12154   6.437   0.988   5.759
 3752SOL    HW112155   6.405   0.995   5.665
 3752SOL    HW212156   6.527   1.031   5.766
 3753SOL     OW12157   6.450   0.827   3.699
 3753SOL    HW112158   6.501   0.906   3.666
 3753SOL    HW212159   6.514   0.755   3.727
 3754SOL     OW12160   1.773   1.762   1.489
 3754SOL    HW112161   1.836   1.771   1.412
 3754SOL    HW212162   1.705   1.835   1.485
 3755SOL     OW12163   2.897   4.852   4.514
 3755SOL    HW112164   2.987   4.847   4.558
 3755SOL    HW212165   2.828   4.810   4.575
 3756SOL     OW12166   2.754   6.320   6.434
 3756SOL    HW112167   2.703   6.337   6.518
 3756SOL    HW212168   2.778   6.406   6.391
 3757SOL     OW12169   6.167   4.422   1.269
 3757SOL    HW112170   6.106   4.344   1.278
 3757SOL    HW212171   6.137   4.479   1.192
 3758SOL     OW12172   2.180   0.047   3.226
 3758SOL    HW112173   2.120   7.018   3.166
 3758SOL    HW212174   2.271   0.051   3.186
 3759SOL     OW12175   5.288   0.465   4.277
 3759SOL    HW112176   5.355   0.392   4.284
 3759SOL    HW212177   5.214   0.437   4.216
 3760SOL     OW12178   6.873   0.798   3.530
 3760SOL    HW112179   6.949   0.752   3.484
 3760SOL    HW212180   6.900   0.823   3.623
 3761SOL     OW12181   5.483   1.252   4.179
 3761SOL    HW112182   5.504   1.318   4.107
 3761SOL    HW212183   5.549   1.261   4.254
 3762SOL     OW12184   0.618   3.890   2.942
 3762SOL    HW112185   0.667   3.936   2.868
 3762SOL    HW212186   0.586   3.801   2.910
 3763SOL     OW12187   0.061   4.704   0.120
 3763SOL    HW112188   7.001   4.722   0.067
 3763SOL    HW212189   0.051   4.743   0.211
 3764SOL     OW12190   1.896   6.790   2.769
 3764SOL    HW112191   1.849   6.868   2.809
 3764SOL    HW212192   1.994   6.799   2.783
 3765SOL     OW12193   6.111   2.088   2.011
 3765SOL    HW112194   6.154   2.053   1.927
 3765SOL    HW212195   6.034   2.147   1.987
 3766SOL     OW12196   1.212   4.227   3.296
 3766SOL    HW112197   1.234   4.172   3.377
 3766SOL    HW212198   1.209   4.324   3.322
 3767SOL     OW12199   2.396   5.002   5.910
 3767SOL    HW112200   2.457   4.958   5.975
 3767SOL    HW212201   2.303   5.003   5.946
 3768SOL     OW12202   1.589   0.230   4.847
 3768SOL    HW112203   1.610   0.243   4.944
 3768SOL    HW212204   1.604   0.316   4.798
 3769SOL     OW12205   5.164   6.276   4.514
 3769SOL    HW112206   5.124   6.282   4.605
 3769SOL    HW212207   5.114   6.208   4.460
 3770SOL     OW12208   0.937   0.791   0.451
 3770SOL    HW112209   0.950   0.818   0.546
 3770SOL    HW212210   1.019   0.814   0.398
 3771SOL     OW12211   0.780   4.941   0.273
 3771SOL    HW112212   0.743   4.849   0.283
 3771SOL    HW212213   0.709   5.002   0.238
 3772SOL     OW12214   1.747   5.931   0.577
 3772SOL    HW112215   1.786   5.925   0.669
 3772SOL    HW212216   1.812   5.976   0.516
 3773SOL     OW12217   5.781   3.121   5.718
 3773SOL    HW112218   5.752   3.171   5.799
 3773SOL    HW212219   5.750   3.169   5.636
 3774SOL     OW12220   5.261   5.894   1.391
 3774SOL    HW112221   5.328   5.899   1.316
 3774SOL    HW212222   5.310   5.890   1.478
 3775SOL     OW12223   4.507   5.244   3.573
 3775SOL    HW112224   4.550   5.285   3.493
 3775SOL    HW212225   4.515   5.305   3.651
 3776SOL     OW12226   3.459   2.597   6.627
 3776SOL    HW112227   3.525   2.523   6.616
 3776SOL    HW212228   3.426   2.626   6.538
 3777SOL     OW12229   2.669   6.095   4.263
 3777SOL    HW112230   2.679   5.997   4.244
 3777SOL    HW212231   2.716   6.147   4.192
 3778SOL     OW12232   2.842   5.762   4.779
 3778SOL    HW112233   2.807   5.832   4.717
 3778SOL    HW212234   2.935   5.787   4.808
 3779SOL     OW12235   0.207   5.166   6.716
 3779SOL    HW112236   0.270   5.102   6.760
 3779SOL    HW212237   0.188   5.242   6.779
 3780SOL     OW12238   6.289   3.929   1.405
 3780SOL    HW112239   6.287   4.016   1.454
 3780SOL    HW212240   6.349   3.865   1.453
 3781SOL     OW12241   2.218   6.044   5.153
 3781SOL    HW112242   2.279   5.968   5.132
 3781SOL    HW212243   2.230   6.116   5.085
 3782SOL     OW12244   5.224   5.790   1.784
 3782SOL    HW112245   5.222   5.788   1.884
 3782SOL    HW212246   5.314   5.760   1.752
 3783SOL     OW12247   5.259   5.212   5.187
 3783SOL    HW112248   5.182   5.173   5.238
 3783SOL    HW212249   5.310   5.275   5.246
 3784SOL     OW12250   5.910   2.770   3.933
 3784SOL    HW112251   5.866   2.782   3.844
 3784SOL    HW212252   5.869   2.693   3.981
 3785SOL     OW12253   1.357   3.876   4.418
 3785SOL    HW112254   1.286   3.885   4.348
 3785SOL    HW212255   1.371   3.779   4.440
 3786SOL     OW12256   2.576   2.473   4.557
 3786SOL    HW112257   2.524   2.557   4.542
 3786SOL    HW212258   2.600   2.433   4.468
 3787SOL     OW12259   4.488   6.768   2.964
 3787SOL    HW112260   4.421   6.822   3.015
 3787SOL    HW212261   4.493   6.676   3.004
 3788SOL     OW12262   6.955   2.849   5.663
 3788SOL    HW112263   6.944   2.824   5.567
 3788SOL    HW212264   6.886   2.918   5.688
 3789SOL     OW12265   1.832   3.163   2.828
 3789SOL    HW112266   1.780   3.208   2.756
 3789SOL    HW212267   1.927   3.152   2.799
 3790SOL     OW12268   0.312   6.421   0.921
 3790SOL    HW112269   0.257   6.498   0.888
 3790SOL    HW212270   0.392   6.410   0.863
 3791SOL     OW12271   5.687   1.335   6.125
 3791SOL    HW112272   5.637   1.421   6.130
 3791SOL    HW212273   5.646   1.277   6.054
 3792SOL     OW12274   0.891   0.644   3.869
 3792SOL    HW112275   0.930   0.566   3.821
 3792SOL    HW212276   0.837   0.699   3.805
 3793SOL     OW12277   5.902   5.843   0.375
 3793SOL    HW112278   5.991   5.826   0.332
 3793SOL    HW212279   5.853   5.757   0.386
 3794SOL     OW12280   2.021   3.828   6.947
 3794SOL    HW112281   1.964   3.885   6.889
 3794SOL    HW212282   2.113   3.866   6.952
 3795SOL     OW12283   2.952   6.013   1.430
 3795SOL    HW112284   2.892   6.080   1.472
 3795SOL    HW212285   3.004   6.056   1.356
 3796SOL     OW12286   3.873   2.338   6.562
 3796SOL    HW112287   3.904   2.414   6.505
 3796SOL    HW212288   3.941   2.265   6.559
 3797SOL     OW12289   1.159   4.622   3.109
 3797SOL    HW112290   1.218   4.592   3.184
 3797SOL    HW212291   1.208   4.689   3.053
 3798SOL     OW12292   1.914   6.502   2.893
 3798SOL    HW112293   1.885   6.570   2.961
 3798SOL    HW212294   2.012   6.511   2.877
 3799SOL     OW12295   0.076   2.110   2.930
 3799SOL    HW112296   0.031   2.077   3.013
 3799SOL    HW212297   0.007   2.125   2.859
 3800SOL     OW12298   6.042   2.106   2.723
 3800SOL    HW112299   5.945   2.113   2.748
 3800SOL    HW212300   6.086   2.195   2.734
 3801SOL     OW12301   5.608   0.219   1.717
 3801SOL    HW112302   5.657   0.283   1.777
 3801SOL    HW212303   5.538   0.171   1.770
 3802SOL     OW12304   6.144   2.027   2.262
 3802SOL    HW112305   6.239   2.040   2.290
 3802SOL    HW212306   6.133   2.053   2.166
 3803SOL     OW12307   2.976   3.894   4.400
 3803SOL    HW112308   2.938   3.834   4.471
 3803SOL    HW212309   2.924   3.881   4.315
 3804SOL     OW12310   3.288   6.783   4.403
 3804SOL    HW112311   3.326   6.737   4.323
 3804SOL    HW212312   3.358   6.842   4.445
 3805SOL     OW12313   2.379   2.713   0.415
 3805SOL    HW112314   2.339   2.804   0.413
 3805SOL    HW212315   2.334   2.658   0.485
 3806SOL     OW12316   3.524   4.267   0.077
 3806SOL    HW112317   3.460   4.239   0.149
 3806SOL    HW212318   3.614   4.227   0.094
 3807SOL     OW12319   1.560   4.601   4.343
 3807SOL    HW112320   1.551   4.680   4.283
 3807SOL    HW212321   1.647   4.606   4.392
 3808SOL     OW12322   3.960   6.995   6.242
 3808SOL    HW112323   3.997   6.982   6.334
 3808SOL    HW212324   3.861   7.007   6.247
 3809SOL     OW12325   5.167   2.278   1.512
 3809SOL    HW112326   5.125   2.266   1.602
 3809SOL    HW212327   5.104   2.246   1.441
 3810SOL     OW12328   6.544   2.453   2.221
 3810SOL    HW112329   6.445   2.443   2.215
 3810SOL    HW212330   6.587   2.412   2.140
 3811SOL     OW12331   7.007   5.845   4.608
 3811SOL    HW112332   6.916   5.857   4.649
 3811SOL    HW212333   7.013   5.900   4.524
 3812SOL     OW12334   4.183   6.533   6.833
 3812SOL    HW112335   4.132   6.485   6.904
 3812SOL    HW212336   4.280   6.534   6.856
 3813SOL     OW12337   6.164   4.011   0.433
 3813SOL    HW112338   6.118   4.096   0.407
 3813SOL    HW212339   6.175   3.952   0.353
 3814SOL     OW12340   6.533   6.955   4.267
 3814SOL    HW112341   6.615   7.002   4.299
 3814SOL    HW212342   6.452   7.006   4.297
 3815SOL     OW12343   5.047   3.547   0.094
 3815SOL    HW112344   5.100   3.520   0.174
 3815SOL    HW212345   4.953   3.512   0.103
 3816SOL     OW12346   0.849   5.742   6.108
 3816SOL    HW112347   0.832   5.656   6.156
 3816SOL    HW212348   0.762   5.792   6.099
 3817SOL     OW12349   4.896   3.149   2.283
 3817SOL    HW112350   4.847   3.165   2.369
 3817SOL    HW212351   4.833   3.115   2.214
 3818SOL     OW12352   0.230   0.982   1.969
 3818SOL    HW112353   0.192   0.896   1.935
 3818SOL    HW212354   0.323   0.994   1.934
 3819SOL     OW12355   6.625   4.590   4.049
 3819SOL    HW112356   6.649   4.503   4.091
 3819SOL    HW212357   6.525   4.597   4.042
 3820SOL     OW12358   5.377   0.204   4.248
 3820SOL    HW112359   5.406   0.110   4.264
 3820SOL    HW212360   5.285   0.204   4.209
 3821SOL     OW12361   1.086   0.153   0.090
 3821SOL    HW112362   1.090   0.198   0.180
 3821SOL    HW212363   1.146   0.201   0.026
 3822SOL     OW12364   4.243   1.016   0.269
 3822SOL    HW112365   4.177   1.086   0.241
 3822SOL    HW212366   4.213   0.926   0.235
 3823SOL     OW12367   5.045   4.653   5.851
 3823SOL    HW112368   4.948   4.632   5.855
 3823SOL    HW212369   5.066   4.702   5.767
 3824SOL     OW12370   2.004   3.324   0.173
 3824SOL    HW112371   1.946   3.382   0.115
 3824SOL    HW212372   1.948   3.284   0.245
 3825SOL     OW12373   1.729   3.480   6.188
 3825SOL    HW112374   1.691   3.417   6.255
 3825SOL    HW212375   1.745   3.569   6.230
 3826SOL     OW12376   5.567   4.231   2.513
 3826SOL    HW112377   5.541   4.135   2.524
 3826SOL    HW212378   5.606   4.244   2.421
 3827SOL     OW12379   1.474   1.357   1.538
 3827SOL    HW112380   1.510   1.439   1.493
 3827SOL    HW212381   1.430   1.299   1.470
 3828SOL     OW12382   4.000   3.925   4.592
 3828SOL    HW112383   3.979   3.976   4.675
 3828SOL    HW212384   4.046   3.839   4.616
 3829SOL     OW12385   0.445   4.071   2.757
 3829SOL    HW112386   0.408   4.065   2.850
 3829SOL    HW212387   0.397   4.142   2.706
 3830SOL     OW12388   0.466   0.445   4.787
 3830SOL    HW112389   0.440   0.482   4.698
 3830SOL    HW212390   0.391   0.392   4.825
 3831SOL     OW12391   4.584   1.682   3.326
 3831SOL    HW112392   4.561   1.727   3.413
 3831SOL    HW212393   4.512   1.701   3.259
 3832SOL     OW12394   0.680   0.406   2.260
 3832SOL    HW112395   0.592   0.442   2.229
 3832SOL    HW212396   0.677   0.393   2.359
 3833SOL     OW12397   0.973   0.188   6.758
 3833SOL    HW112398   1.024   0.262   6.714
 3833SOL    HW212399   1.028   0.104   6.755
 3834SOL     OW12400   4.760   4.070   1.142
 3834SOL    HW112401   4.686   4.075   1.075
 3834SOL    HW212402   4.725   4.093   1.232
 3835SOL     OW12403   4.065   5.879   5.456
 3835SOL    HW112404   4.054   5.865   5.358
 3835SOL    HW212405   4.162   5.887   5.478
 3836SOL     OW12406   0.154   5.246   6.345
 3836SOL    HW112407   0.071   5.200   6.313
 3836SOL    HW212408   0.232   5.216   6.291
 3837SOL     OW12409   4.223   4.818   4.925
 3837SOL    HW112410   4.167   4.861   4.995
 3837SOL    HW212411   4.166   4.792   4.847
 3838SOL     OW12412   2.027   1.269   3.150
 3838SOL    HW112413   2.068   1.234   3.066
 3838SOL    HW212414   1.946   1.324   3.127
 3839SOL     OW12415   4.347   0.454   2.980
 3839SOL    HW112416   4.264   0.404   3.005
 3839SOL    HW212417   4.417   0.388   2.952
 3840SOL     OW12418   2.372   0.693   0.302
 3840SOL    HW112419   2.368   0.632   0.381
 3840SOL    HW212420   2.373   0.638   0.218
 3841SOL     OW12421   6.423   4.808   3.908
 3841SOL    HW112422   6.391   4.841   3.996
 3841SOL    HW212423   6.365   4.843   3.835
 3842SOL     OW12424   2.230   2.819   5.219
 3842SOL    HW112425   2.244   2.842   5.315
 3842SOL    HW212426   2.291   2.874   5.162
 3843SOL     OW12427   5.082   2.578   0.719
 3843SOL    HW112428   5.121   2.554   0.808
 3843SOL    HW212429   5.112   2.669   0.693
 3844SOL     OW12430   1.508   5.021   0.083
 3844SOL    HW112431   1.416   5.060   0.089
 3844SOL    HW212432   1.569   5.086   0.039
 3845SOL     OW12433   2.271   6.541   0.259
 3845SOL    HW112434   2.256   6.455   0.307
 3845SOL    HW212435   2.188   6.597   0.265
 3846SOL     OW12436   0.959   3.365   3.771
 3846SOL    HW112437   1.037   3.428   3.772
 3846SOL    HW212438   0.988   3.275   3.805
 3847SOL     OW12439   6.266   1.214   5.420
 3847SOL    HW112440   6.185   1.202   5.362
 3847SOL    HW212441   6.346   1.234   5.363
 3848SOL     OW12442   5.246   3.441   2.262
 3848SOL    HW112443   5.146   3.448   2.262
 3848SOL    HW212444   5.274   3.352   2.298
 3849SOL     OW12445   0.244   5.839   6.370
 3849SOL    HW112446   0.218   5.900   6.295
 3849SOL    HW212447   0.229   5.744   6.341
 3850SOL     OW12448   2.737   1.950   1.182
 3850SOL    HW112449   2.667   2.016   1.158
 3850SOL    HW212450   2.700   1.884   1.247
 3851SOL     OW12451   6.914   5.446   3.691
 3851SOL    HW112452   6.917   5.501   3.607
 3851SOL    HW212453   6.982   5.373   3.685
 3852SOL     OW12454   2.925   6.640   4.402
 3852SOL    HW112455   2.966   6.722   4.443
 3852SOL    HW212456   2.868   6.667   4.325
 3853SOL     OW12457   2.059   1.267   3.654
 3853SOL    HW112458   2.114   1.260   3.737
 3853SOL    HW212459   2.081   1.191   3.593
 3854SOL     OW12460   1.274   2.480   2.788
 3854SOL    HW112461   1.354   2.536   2.766
 3854SOL    HW212462   1.292   2.427   2.871
 3855SOL     OW12463   4.325   6.698   0.197
 3855SOL    HW112464   4.400   6.723   0.136
 3855SOL    HW212465   4.305   6.774   0.259
 3856SOL     OW12466   0.152   2.227   6.197
 3856SOL    HW112467   0.154   2.309   6.253
 3856SOL    HW212468   0.064   2.180   6.209
 3857SOL     OW12469   1.996   0.688   5.880
 3857SOL    HW112470   1.978   0.782   5.851
 3857SOL    HW212471   2.071   0.688   5.947
 3858SOL     OW12472   3.332   1.620   5.190
 3858SOL    HW112473   3.398   1.694   5.178
 3858SOL    HW212474   3.267   1.620   5.114
 3859SOL     OW12475   5.390   0.496   1.181
 3859SOL    HW112476   5.367   0.499   1.278
 3859SOL    HW212477   5.331   0.559   1.131
 3860SOL     OW12478   1.943   0.367   4.413
 3860SOL    HW112479   1.936   0.457   4.370
 3860SOL    HW212480   2.009   0.371   4.488
 3861SOL     OW12481   4.410   5.222   2.487
 3861SOL    HW112482   4.348   5.279   2.434
 3861SOL    HW212483   4.490   5.199   2.432
 3862SOL     OW12484   0.292   6.797   4.229
 3862SOL    HW112485   0.255   6.705   4.216
 3862SOL    HW212486   0.387   6.791   4.261
 3863SOL     OW12487   4.427   0.794   0.422
 3863SOL    HW112488   4.362   0.719   0.410
 3863SOL    HW212489   4.486   0.801   0.342
 3864SOL     OW12490   2.204   0.683   4.802
 3864SOL    HW112491   2.295   0.649   4.827
 3864SOL    HW212492   2.212   0.749   4.727
 3865SOL     OW12493   4.437   0.711   0.023
 3865SOL    HW112494   4.457   0.637   6.983
 3865SOL    HW212495   4.441   0.799   6.999
 3866SOL     OW12496   3.284   2.247   6.932
 3866SOL    HW112497   3.286   2.328   6.991
 3866SOL    HW212498   3.225   2.177   6.974
 3867SOL     OW12499   1.456   4.387   2.952
 3867SOL    HW112500   1.444   4.425   2.860
 3867SOL    HW212501   1.395   4.309   2.964
 3868SOL     OW12502   3.226   0.512   6.481
 3868SOL    HW112503   3.149   0.500   6.543
 3868SOL    HW212504   3.299   0.449   6.505
 3869SOL     OW12505   0.087   3.624   3.593
 3869SOL    HW112506   0.063   3.703   3.649
 3869SOL    HW212507   0.125   3.553   3.651
 3870SOL     OW12508   6.609   0.047   3.141
 3870SOL    HW112509   6.552   0.124   3.111
 3870SOL    HW212510   6.569   0.007   3.224
 3871SOL     OW12511   3.300   6.064   3.731
 3871SOL    HW112512   3.282   6.133   3.661
 3871SOL    HW212513   3.270   5.975   3.698
 3872SOL     OW12514   3.495   3.364   4.353
 3872SOL    HW112515   3.511   3.460   4.374
 3872SOL    HW212516   3.462   3.355   4.259
 3873SOL     OW12517   5.202   3.494   0.315
 3873SOL    HW112518   5.148   3.432   0.371
 3873SOL    HW212519   5.293   3.454   0.300
 3874SOL     OW12520   4.124   6.949   0.378
 3874SOL    HW112521   4.088   7.018   0.441
 3874SOL    HW212522   4.050   6.913   0.321
 3875SOL     OW12523   2.066   2.605   4.524
 3875SOL    HW112524   2.094   2.512   4.497
 3875SOL    HW212525   2.135   2.644   4.585
 3876SOL     OW12526   4.067   6.516   0.427
 3876SOL    HW112527   4.154   6.498   0.380
 3876SOL    HW212528   4.082   6.577   0.504
 3877SOL     OW12529   6.570   2.237   0.614
 3877SOL    HW112530   6.535   2.177   0.686
 3877SOL    HW212531   6.506   2.239   0.537
 3878SOL     OW12532   4.870   0.124   4.231
 3878SOL    HW112533   4.782   0.079   4.247
 3878SOL    HW212534   4.943   0.073   4.277
 3879SOL     OW12535   5.684   5.007   6.910
 3879SOL    HW112536   5.752   4.952   6.958
 3879SOL    HW212537   5.593   4.969   6.928
 3880SOL     OW12538   5.325   4.541   5.257
 3880SOL    HW112539   5.381   4.569   5.334
 3880SOL    HW212540   5.256   4.476   5.288
 3881SOL     OW12541   1.041   3.420   0.957
 3881SOL    HW112542   1.093   3.470   1.026
 3881SOL    HW212543   0.956   3.469   0.938
 3882SOL     OW12544   1.312   1.050   0.278
 3882SOL    HW112545   1.411   1.047   0.295
 3882SOL    HW212546   1.273   1.131   0.323
 3883SOL     OW12547   5.037   0.396   2.859
 3883SOL    HW112548   5.054   0.474   2.800
 3883SOL    HW212549   5.105   0.325   2.842
 3884SOL     OW12550   0.645   5.972   3.217
 3884SOL    HW112551   0.730   6.012   3.250
 3884SOL    HW212552   0.577   5.970   3.291
 3885SOL     OW12553   5.916   6.593   3.073
 3885SOL    HW112554   5.854   6.545   3.135
 3885SOL    HW212555   5.867   6.619   2.989
 3886SOL     OW12556   4.723   6.004   5.923
 3886SOL    HW112557   4.720   6.079   5.989
 3886SOL    HW212558   4.694   6.037   5.833
 3887SOL     OW12559   0.974   6.523   0.622
 3887SOL    HW112560   0.913   6.554   0.549
 3887SOL    HW212561   1.064   6.502   0.584
 3888SOL     OW12562   5.408   6.592   4.624
 3888SOL    HW112563   5.321   6.618   4.582
 3888SOL    HW212564   5.477   6.660   4.603
 3889SOL     OW12565   6.019   2.423   6.559
 3889SOL    HW112566   6.025   2.512   6.603
 3889SOL    HW212567   5.969   2.360   6.618
 3890SOL     OW12568   5.720   4.535   4.346
 3890SOL    HW112569   5.678   4.611   4.396
 3890SOL    HW212570   5.765   4.474   4.410
 3891SOL     OW12571   5.011   4.365   3.438
 3891SOL    HW112572   5.066   4.433   3.487
 3891SOL    HW212573   4.956   4.314   3.504
 3892SOL     OW12574   0.390   3.136   1.539
 3892SOL    HW112575   0.378   3.185   1.625
 3892SOL    HW212576   0.488   3.132   1.516
 3893SOL     OW12577   4.429   3.285   1.417
 3893SOL    HW112578   4.468   3.236   1.495
 3893SOL    HW212579   4.390   3.372   1.448
 3894SOL     OW12580   5.312   0.724   6.563
 3894SOL    HW112581   5.403   0.755   6.590
 3894SOL    HW212582   5.293   0.636   6.606
 3895SOL     OW12583   1.797   0.244   5.047
 3895SOL    HW112584   1.856   0.288   4.979
 3895SOL    HW212585   1.826   0.270   5.139
 3896SOL     OW12586   0.698   1.019   6.631
 3896SOL    HW112587   0.656   0.936   6.667
 3896SOL    HW212588   0.725   1.078   6.707
 3897SOL     OW12589   4.328   5.792   2.638
 3897SOL    HW112590   4.264   5.852   2.590
 3897SOL    HW212591   4.304   5.697   2.621
 3898SOL     OW12592   3.844   2.689   0.165
 3898SOL    HW112593   3.785   2.768   0.175
 3898SOL    HW212594   3.816   2.617   0.228
 3899SOL     OW12595   4.638   6.902   6.304
 3899SOL    HW112596   4.603   6.811   6.328
 3899SOL    HW212597   4.569   6.952   6.252
 3900SOL     OW12598   5.481   3.384   3.958
 3900SOL    HW112599   5.522   3.321   4.023
 3900SOL    HW212600   5.515   3.365   3.866
 3901SOL     OW12601   3.464   0.712   6.165
 3901SOL    HW112602   3.426   0.621   6.180
 3901SOL    HW212603   3.390   0.778   6.149
 3902SOL     OW12604   6.104   3.229   2.161
 3902SOL    HW112605   6.123   3.181   2.246
 3902SOL    HW212606   6.145   3.179   2.085
 3903SOL     OW12607   3.808   6.557   0.542
 3903SOL    HW112608   3.892   6.517   0.505
 3903SOL    HW212609   3.760   6.607   0.470
 3904SOL     OW12610   1.731   0.219   6.585
 3904SOL    HW112611   1.825   0.249   6.565
 3904SOL    HW212612   1.721   0.205   6.683
 3905SOL     OW12613   6.672   6.879   6.243
 3905SOL    HW112614   6.645   6.928   6.160
 3905SOL    HW212615   6.736   6.935   6.296
 3906SOL     OW12616   5.631   6.785   5.510
 3906SOL    HW112617   5.553   6.811   5.568
 3906SOL    HW212618   5.597   6.736   5.430
 3907SOL     OW12619   5.961   1.094   3.871
 3907SOL    HW112620   5.983   1.029   3.798
 3907SOL    HW212621   5.915   1.046   3.946
 3908SOL     OW12622   0.629   2.484   6.956
 3908SOL    HW112623   0.622   2.444   0.024
 3908SOL    HW212624   0.636   2.583   6.963
 3909SOL     OW12625   5.500   6.262   4.621
 3909SOL    HW112626   5.470   6.356   4.608
 3909SOL    HW212627   5.536   6.226   4.535
 3910SOL     OW12628   3.263   4.041   2.443
 3910SOL    HW112629   3.282   4.085   2.530
 3910SOL    HW212630   3.319   4.082   2.371
 3911SOL     OW12631   6.090   1.766   5.250
 3911SOL    HW112632   6.141   1.694   5.202
 3911SOL    HW212633   6.014   1.796   5.193
 3912SOL     OW12634   5.598   1.171   4.757
 3912SOL    HW112635   5.659   1.092   4.761
 3912SOL    HW212636   5.508   1.142   4.724
 3913SOL     OW12637   2.077   6.898   6.298
 3913SOL    HW112638   2.025   6.977   6.330
 3913SOL    HW212639   2.160   6.929   6.250
 3914SOL     OW12640   3.027   0.704   1.158
 3914SOL    HW112641   3.063   0.617   1.192
 3914SOL    HW212642   2.928   0.696   1.146
 3915SOL     OW12643   5.373   6.090   1.030
 3915SOL    HW112644   5.304   6.140   1.082
 3915SOL    HW212645   5.376   5.995   1.062
 3916SOL     OW12646   1.302   6.707   3.303
 3916SOL    HW112647   1.387   6.736   3.258
 3916SOL    HW212648   1.323   6.637   3.372
 3917SOL     OW12649   0.292   6.537   0.034
 3917SOL    HW112650   0.344   6.558   0.117
 3917SOL    HW212651   0.303   6.440   0.012
 3918SOL     OW12652   5.680   5.707   2.038
 3918SOL    HW112653   5.618   5.630   2.058
 3918SOL    HW212654   5.659   5.744   1.948
 3919SOL     OW12655   4.407   7.015   0.397
 3919SOL    HW112656   4.307   7.023   0.398
 3919SOL    HW212657   4.447   0.073   0.355
 3920SOL     OW12658   2.681   3.913   0.838
 3920SOL    HW112659   2.708   3.931   0.743
 3920SOL    HW212660   2.713   3.821   0.864
 3921SOL     OW12661   0.047   3.678   1.306
 3921SOL    HW112662   0.087   3.598   1.262
 3921SOL    HW212663   6.976   3.658   1.332
 3922SOL     OW12664   0.004   3.921   1.856
 3922SOL    HW112665   6.957   3.856   1.881
 3922SOL    HW212666   7.005   3.965   1.769
 3923SOL     OW12667   6.864   0.567   0.264
 3923SOL    HW112668   6.887   0.528   0.174
 3923SOL    HW212669   6.774   0.611   0.259
 3924SOL     OW12670   5.416   5.163   3.913
 3924SOL    HW112671   5.345   5.110   3.866
 3924SOL    HW212672   5.471   5.212   3.845
 3925SOL     OW12673   1.565   5.035   1.373
 3925SOL    HW112674   1.534   5.026   1.278
 3925SOL    HW212675   1.563   4.946   1.418
 3926SOL     OW12676   5.041   4.470   2.512
 3926SOL    HW112677   5.076   4.545   2.455
 3926SOL    HW212678   5.066   4.382   2.470
 3927SOL     OW12679   6.345   2.754   5.213
 3927SOL    HW112680   6.335   2.721   5.120
 3927SOL    HW212681   6.441   2.770   5.233
 3928SOL     OW12682   4.116   6.096   6.901
 3928SOL    HW112683   4.152   6.171   6.846
 3928SOL    HW212684   4.033   6.127   6.948
 3929SOL     OW12685   0.410   0.422   4.443
 3929SOL    HW112686   0.312   0.402   4.455
 3929SOL    HW212687   0.434   0.504   4.495
 3930SOL     OW12688   2.516   1.959   4.726
 3930SOL    HW112689   2.592   1.955   4.661
 3930SOL    HW212690   2.517   2.047   4.773
 3931SOL     OW12691   1.525   1.911   1.454
 3931SOL    HW112692   1.504   1.832   1.512
 3931SOL    HW212693   1.488   1.896   1.363
 3932SOL     OW12694   1.051   4.142   3.707
 3932SOL    HW112695   1.045   4.047   3.676
 3932SOL    HW212696   0.968   4.192   3.681
 3933SOL     OW12697   1.737   6.945   6.245
 3933SOL    HW112698   1.786   6.858   6.243
 3933SOL    HW212699   1.726   6.976   6.339
 3934SOL     OW12700   6.664   0.522   6.624
 3934SOL    HW112701   6.732   0.572   6.570
 3934SOL    HW212702   6.582   0.507   6.568
 3935SOL     OW12703   3.142   6.912   6.799
 3935SOL    HW112704   3.193   6.988   6.839
 3935SOL    HW212705   3.143   6.835   6.863
 3936SOL     OW12706   6.558   5.181   5.253
 3936SOL    HW112707   6.596   5.126   5.178
 3936SOL    HW212708   6.490   5.127   5.303
 3937SOL     OW12709   0.263   1.243   2.870
 3937SOL    HW112710   0.187   1.308   2.882
 3937SOL    HW212711   0.294   1.244   2.776
 3938SOL     OW12712   0.952   2.025   3.246
 3938SOL    HW112713   0.942   1.927   3.226
 3938SOL    HW212714   0.886   2.052   3.315
 3939SOL     OW12715   2.058   2.702   2.942
 3939SOL    HW112716   2.158   2.690   2.944
 3939SOL    HW212717   2.021   2.663   2.858
 3940SOL     OW12718   4.529   4.403   0.843
 3940SOL    HW112719   4.590   4.444   0.911
 3940SOL    HW212720   4.464   4.342   0.888
 3941SOL     OW12721   5.306   3.318   5.355
 3941SOL    HW112722   5.216   3.303   5.314
 3941SOL    HW212723   5.334   3.413   5.338
 3942SOL     OW12724   0.589   6.476   0.118
 3942SOL    HW112725   0.689   6.480   0.112
 3942SOL    HW212726   0.562   6.452   0.211
 3943SOL     OW12727   0.062   2.625   3.876
 3943SOL    HW112728   0.050   2.527   3.893
 3943SOL    HW212729   0.037   2.646   3.782
 3944SOL     OW12730   4.698   2.803   4.945
 3944SOL    HW112731   4.647   2.753   4.875
 3944SOL    HW212732   4.646   2.805   5.030
 3945SOL     OW12733   6.812   2.018   6.918
 3945SOL    HW112734   6.758   2.010   6.833
 3945SOL    HW212735   6.863   2.104   6.916
 3946SOL     OW12736   5.538   4.170   4.734
 3946SOL    HW112737   5.546   4.188   4.636
 3946SOL    HW212738   5.510   4.254   4.781
 3947SOL     OW12739   5.128   6.171   6.776
 3947SOL    HW112740   5.105   6.161   6.873
 3947SOL    HW212741   5.224   6.146   6.762
 3948SOL     OW12742   0.130   4.716   1.887
 3948SOL    HW112743   0.096   4.804   1.922
 3948SOL    HW212744   0.225   4.705   1.916
 3949SOL     OW12745   5.395   6.472   3.346
 3949SOL    HW112746   5.363   6.553   3.296
 3949SOL    HW212747   5.316   6.417   3.373
 3950SOL     OW12748   1.586   4.399   0.756
 3950SOL    HW112749   1.662   4.447   0.799
 3950SOL    HW212750   1.513   4.464   0.734
 3951SOL     OW12751   4.793   6.985   1.342
 3951SOL    HW112752   4.720   6.942   1.290
 3951SOL    HW212753   4.839   0.030   1.286
 3952SOL     OW12754   6.833   2.596   1.912
 3952SOL    HW112755   6.802   2.510   1.873
 3952SOL    HW212756   6.880   2.650   1.843
 3953SOL     OW12757   4.025   4.613   1.058
 3953SOL    HW112758   4.011   4.568   0.970
 3953SOL    HW212759   4.102   4.570   1.105
 3954SOL     OW12760   4.048   5.325   5.883
 3954SOL    HW112761   3.954   5.342   5.910
 3954SOL    HW212762   4.090   5.411   5.852
 3955SOL     OW12763   2.891   0.690   6.232
 3955SOL    HW112764   2.809   0.702   6.175
 3955SOL    HW212765   2.889   0.599   6.274
 3956SOL     OW12766   1.227   0.807   2.354
 3956SOL    HW112767   1.174   0.882   2.392
 3956SOL    HW212768   1.319   0.839   2.331
 3957SOL     OW12769   4.263   6.956   4.183
 3957SOL    HW112770   4.294   6.868   4.147
 3957SOL    HW212771   4.340   7.004   4.225
 3958SOL     OW12772   5.723   1.530   4.371
 3958SOL    HW112773   5.743   1.565   4.280
 3958SOL    HW212774   5.711   1.431   4.368
 3959SOL     OW12775   5.353   6.002   0.134
 3959SOL    HW112776   5.276   5.939   0.150
 3959SOL    HW212777   5.438   5.951   0.133
 3960SOL     OW12778   5.189   1.054   6.348
 3960SOL    HW112779   5.102   1.004   6.347
 3960SOL    HW212780   5.258   1.003   6.297
 3961SOL     OW12781   4.666   1.016   2.980
 3961SOL    HW112782   4.711   1.021   2.891
 3961SOL    HW212783   4.636   0.922   2.997
 3962SOL     OW12784   2.338   5.005   6.381
 3962SOL    HW112785   2.294   5.064   6.448
 3962SOL    HW212786   2.309   4.911   6.395
 3963SOL     OW12787   4.656   5.163   2.379
 3963SOL    HW112788   4.698   5.129   2.295
 3963SOL    HW212789   4.655   5.090   2.448
 3964SOL     OW12790   4.896   4.705   3.693
 3964SOL    HW112791   4.836   4.631   3.724
 3964SOL    HW212792   4.842   4.774   3.645
 3965SOL     OW12793   5.021   3.280   4.321
 3965SOL    HW112794   4.959   3.203   4.329
 3965SOL    HW212795   5.115   3.249   4.331
 3966SOL     OW12796   4.415   6.176   6.570
 3966SOL    HW112797   4.380   6.094   6.526
 3966SOL    HW212798   4.510   6.191   6.543
 3967SOL     OW12799   2.234   3.913   2.007
 3967SOL    HW112800   2.173   3.843   1.970
 3967SOL    HW212801   2.299   3.870   2.069
 3968SOL     OW12802   4.175   0.660   0.968
 3968SOL    HW112803   4.174   0.671   0.869
 3968SOL    HW212804   4.081   0.651   1.002
 3969SOL     OW12805   1.358   5.061   2.474
 3969SOL    HW112806   1.313   5.071   2.563
 3969SOL    HW212807   1.331   5.137   2.415
 3970SOL     OW12808   4.648   5.908   3.288
 3970SOL    HW112809   4.668   5.810   3.289
 3970SOL    HW212810   4.633   5.939   3.194
 3971SOL     OW12811   3.369   5.401   4.116
 3971SOL    HW112812   3.455   5.449   4.103
 3971SOL    HW212813   3.315   5.404   4.031
 3972SOL     OW12814   1.707   3.992   0.058
 3972SOL    HW112815   1.618   4.035   0.071
 3972SOL    HW212816   1.766   4.053   0.004
 3973SOL     OW12817   1.108   5.669   0.196
 3973SOL    HW112818   1.040   5.597   0.184
 3973SOL    HW212819   1.062   5.756   0.213
 3974SOL     OW12820   2.054   6.612   5.957
 3974SOL    HW112821   2.014   6.630   5.868
 3974SOL    HW212822   2.142   6.565   5.945
 3975SOL     OW12823   5.498   1.481   6.437
 3975SOL    HW112824   5.439   1.499   6.516
 3975SOL    HW212825   5.454   1.412   6.379
 3976SOL     OW12826   2.298   5.972   2.838
 3976SOL    HW112827   2.373   5.910   2.860
 3976SOL    HW212828   2.332   6.046   2.780
 3977SOL     OW12829   1.712   2.565   6.752
 3977SOL    HW112830   1.802   2.580   6.710
 3977SOL    HW212831   1.670   2.653   6.772
 3978SOL     OW12832   5.550   5.292   3.691
 3978SOL    HW112833   5.505   5.259   3.608
 3978SOL    HW212834   5.616   5.363   3.667
 3979SOL     OW12835   3.475   0.817   6.424
 3979SOL    HW112836   3.480   0.781   6.331
 3979SOL    HW212837   3.381   0.813   6.457
 3980SOL     OW12838   5.436   6.924   6.472
 3980SOL    HW112839   5.488   7.006   6.498
 3980SOL    HW212840   5.363   6.949   6.409
 3981SOL     OW12841   4.317   6.145   0.473
 3981SOL    HW112842   4.384   6.165   0.402
 3981SOL    HW212843   4.307   6.046   0.483
 3982SOL     OW12844   2.392   6.483   3.266
 3982SOL    HW112845   2.380   6.435   3.178
 3982SOL    HW212846   2.307   6.530   3.290
 3983SOL     OW12847   4.858   5.141   3.954
 3983SOL    HW112848   4.863   5.057   3.900
 3983SOL    HW212849   4.922   5.209   3.917
 3984SOL     OW12850   6.382   0.842   1.775
 3984SOL    HW112851   6.373   0.772   1.846
 3984SOL    HW212852   6.477   0.844   1.743
 3985SOL     OW12853   3.122   5.621   6.975
 3985SOL    HW112854   3.027   5.592   6.972
 3985SOL    HW212855   3.166   5.602   6.887
 3986SOL     OW12856   5.020   1.702   2.552
 3986SOL    HW112857   5.080   1.778   2.576
 3986SOL    HW212858   5.071   1.616   2.558
 3987SOL     OW12859   3.580   4.990   4.280
 3987SOL    HW112860   3.513   4.925   4.315
 3987SOL    HW212861   3.546   5.084   4.293
 3988SOL     OW12862   3.367   5.080   6.815
 3988SOL    HW112863   3.367   5.092   6.716
 3988SOL    HW212864   3.328   5.161   6.858
 3989SOL     OW12865   7.004   2.232   6.987
 3989SOL    HW112866   7.000   2.264   0.057
 3989SOL    HW212867   0.061   2.175   6.975
 3990SOL     OW12868   4.890   2.577   2.503
 3990SOL    HW112869   4.932   2.624   2.425
 3990SOL    HW212870   4.924   2.617   2.588
 3991SOL     OW12871   0.037   1.382   1.393
 3991SOL    HW112872   0.127   1.417   1.364
 3991SOL    HW212873   7.000   1.378   1.313
 3992SOL     OW12874   2.873   2.465   0.667
 3992SOL    HW112875   2.959   2.472   0.617
 3992SOL    HW212876   2.824   2.552   0.664
 3993SOL     OW12877   1.410   2.727   2.974
 3993SOL    HW112878   1.450   2.663   2.908
 3993SOL    HW212879   1.312   2.710   2.981
 3994SOL     OW12880   2.590   0.262   5.962
 3994SOL    HW112881   2.651   0.243   6.040
 3994SOL    HW212882   2.641   0.308   5.890
 3995SOL     OW12883   2.058   3.490   5.882
 3995SOL    HW112884   2.075   3.589   5.878
 3995SOL    HW212885   2.036   3.464   5.976
 3996SOL     OW12886   0.049   6.434   5.336
 3996SOL    HW112887   0.071   6.512   5.394
 3996SOL    HW212888   0.112   6.431   5.259
 3997SOL     OW12889   5.567   1.934   3.472
 3997SOL    HW112890   5.585   1.838   3.449
 3997SOL    HW212891   5.492   1.969   3.416
 3998SOL     OW12892   3.693   0.930   4.433
 3998SOL    HW112893   3.696   0.899   4.337
 3998SOL    HW212894   3.606   0.901   4.474
 3999SOL     OW12895   6.090   1.817   4.061
 3999SOL    HW112896   6.148   1.898   4.075
 3999SOL    HW212897   6.147   1.735   4.060
 4000SOL     OW12898   2.835   6.319   4.166
 4000SOL    HW112899   2.905   6.385   4.140
 4000SOL    HW212900   2.772   6.361   4.232
 4001SOL     OW12901   2.724   2.033   4.531
 4001SOL    HW112902   2.757   2.111   4.584
 4001SOL    HW212903   2.802   1.979   4.499
 4002SOL     OW12904   3.099   3.576   1.607
 4002SOL    HW112905   3.128   3.649   1.670
 4002SOL    HW212906   3.036   3.515   1.655
 4003SOL     OW12907   3.309   0.227   3.988
 4003SOL    HW112908   3.323   0.185   3.899
 4003SOL    HW212909   3.295   0.156   4.057
 4004SOL     OW12910   6.391   2.262   4.499
 4004SOL    HW112911   6.314   2.216   4.453
 4004SOL    HW212912   6.452   2.300   4.430
 4005SOL     OW12913   4.588   5.465   5.907
 4005SOL    HW112914   4.526   5.394   5.938
 4005SOL    HW212915   4.635   5.435   5.824
 4006SOL     OW12916   4.048   5.104   1.956
 4006SOL    HW112917   3.979   5.032   1.964
 4006SOL    HW212918   4.025   5.164   1.880
 4007SOL     OW12919   0.032   2.783   0.061
 4007SOL    HW112920   0.033   2.705   7.023
 4007SOL    HW212921   0.050   2.867   0.008
 4008SOL     OW12922   2.672   2.344   5.104
 4008SOL    HW112923   2.761   2.322   5.144
 4008SOL    HW212924   2.683   2.360   5.006
 4009SOL     OW12925   4.055   3.237   2.053
 4009SOL    HW112926   4.135   3.226   1.994
 4009SOL    HW212927   3.976   3.264   1.999
 4010SOL     OW12928   2.599   3.218   1.436
 4010SOL    HW112929   2.567   3.300   1.484
 4010SOL    HW212930   2.688   3.190   1.473
 4011SOL     OW12931   1.173   2.405   2.337
 4011SOL    HW112932   1.198   2.311   2.315
 4011SOL    HW212933   1.154   2.413   2.434
 4012SOL     OW12934   6.676   4.231   2.488
 4012SOL    HW112935   6.655   4.273   2.400
 4012SOL    HW212936   6.773   4.243   2.509
 4013SOL     OW12937   3.712   2.130   4.796
 4013SOL    HW112938   3.792   2.084   4.757
 4013SOL    HW212939   3.666   2.183   4.724
 4014SOL     OW12940   6.349   6.524   2.300
 4014SOL    HW112941   6.262   6.560   2.267
 4014SOL    HW212942   6.349   6.425   2.293
 4015SOL     OW12943   4.531   4.331   6.159
 4015SOL    HW112944   4.599   4.398   6.188
 4015SOL    HW212945   4.510   4.270   6.235
 4016SOL     OW12946   2.333   5.841   5.859
 4016SOL    HW112947   2.270   5.912   5.892
 4016SOL    HW212948   2.372   5.792   5.937
 4017SOL     OW12949   6.962   5.520   0.423
 4017SOL    HW112950   6.883   5.539   0.365
 4017SOL    HW212951   6.968   5.589   0.495
 4018SOL     OW12952   4.560   5.820   2.091
 4018SOL    HW112953   4.479   5.813   2.149
 4018SOL    HW212954   4.593   5.728   2.071
 4019SOL     OW12955   5.041   4.211   2.444
 4019SOL    HW112956   4.950   4.167   2.440
 4019SOL    HW212957   5.110   4.145   2.415
 4020SOL     OW12958   4.601   2.725   5.190
 4020SOL    HW112959   4.588   2.740   5.288
 4020SOL    HW212960   4.542   2.650   5.160
 4021SOL     OW12961   3.245   5.331   6.244
 4021SOL    HW112962   3.260   5.352   6.148
 4021SOL    HW212963   3.305   5.256   6.271
 4022SOL     OW12964   5.171   1.379   0.507
 4022SOL    HW112965   5.206   1.408   0.596
 4022SOL    HW212966   5.092   1.435   0.482
 4023SOL     OW12967   6.541   2.311   5.158
 4023SOL    HW112968   6.612   2.245   5.180
 4023SOL    HW212969   6.515   2.361   5.240
 4024SOL     OW12970   4.042   5.633   4.066
 4024SOL    HW112971   4.107   5.637   3.991
 4024SOL    HW212972   3.986   5.715   4.066
 4025SOL     OW12973   0.567   3.289   3.683
 4025SOL    HW112974   0.651   3.259   3.639
 4025SOL    HW212975   0.557   3.243   3.771
 4026SOL     OW12976   4.721   6.363   3.892
 4026SOL    HW112977   4.647   6.340   3.955
 4026SOL    HW212978   4.784   6.427   3.936
 4027SOL     OW12979   3.966   4.531   1.718
 4027SOL    HW112980   3.973   4.431   1.717
 4027SOL    HW212981   4.047   4.570   1.673
 4028SOL     OW12982   2.217   1.714   3.569
 4028SOL    HW112983   2.207   1.727   3.471
 4028SOL    HW212984   2.309   1.741   3.597
 4029SOL     OW12985   1.700   4.061   5.872
 4029SOL    HW112986   1.703   4.142   5.931
 4029SOL    HW212987   1.793   4.025   5.861
 4030SOL     OW12988   0.853   1.843   5.096
 4030SOL    HW112989   0.913   1.766   5.075
 4030SOL    HW212990   0.815   1.832   5.188
 4031SOL     OW12991   4.154   5.811   4.331
 4031SOL    HW112992   4.121   5.716   4.331
 4031SOL    HW212993   4.227   5.820   4.399
 4032SOL     OW12994   5.496   0.301   3.929
 4032SOL    HW112995   5.564   0.300   3.856
 4032SOL    HW212996   5.442   0.217   3.926
 4033SOL     OW12997   2.981   3.473   4.717
 4033SOL    HW112998   2.969   3.531   4.798
 4033SOL    HW212999   3.076   3.481   4.684
 4034SOL     OW13000   6.791   1.957   4.091
 4034SOL    HW113001   6.887   1.931   4.083
 4034SOL    HW213002   6.770   1.976   4.187
 4035SOL     OW13003   0.922   4.106   0.077
 4035SOL    HW113004   0.959   4.129   0.167
 4035SOL    HW213005   0.824   4.124   0.076
 4036SOL     OW13006   6.311   6.948   2.941
 4036SOL    HW113007   6.306   6.899   3.029
 4036SOL    HW213008   6.298   6.883   2.866
 4037SOL     OW13009   0.755   3.314   6.965
 4037SOL    HW113010   0.774   3.320   0.039
 4037SOL    HW213011   0.674   3.367   6.943
 4038SOL     OW13012   5.035   4.801   3.426
 4038SOL    HW113013   5.077   4.751   3.501
 4038SOL    HW213014   4.945   4.764   3.407
 4039SOL     OW13015   5.605   6.450   6.966
 4039SOL    HW113016   5.567   6.386   0.009
 4039SOL    HW213017   5.661   6.400   6.900
 4040SOL     OW13018   3.353   6.716   1.445
 4040SOL    HW113019   3.415   6.791   1.466
 4040SOL    HW213020   3.313   6.730   1.354
 4041SOL     OW13021   1.260   6.333   3.841
 4041SOL    HW113022   1.355   6.356   3.822
 4041SOL    HW213023   1.251   6.234   3.853
 4042SOL     OW13024   6.167   4.974   1.864
 4042SOL    HW113025   6.235   4.927   1.920
 4042SOL    HW213026   6.199   4.977   1.769
 4043SOL     OW13027   6.028   2.382   0.745
 4043SOL    HW113028   5.994   2.413   0.833
 4043SOL    HW213029   5.961   2.321   0.702
 4044SOL     OW13030   5.646   0.303   3.421
 4044SOL    HW113031   5.565   0.291   3.477
 4044SOL    HW213032   5.689   0.391   3.441
 4045SOL     OW13033   2.272   5.713   6.259
 4045SOL    HW113034   2.207   5.788   6.268
 4045SOL    HW213035   2.245   5.655   6.182
 4046SOL     OW13036   1.079   2.986   1.716
 4046SOL    HW113037   1.014   2.925   1.671
 4046SOL    HW213038   1.036   3.076   1.729
 4047SOL     OW13039   2.688   3.688   1.545
 4047SOL    HW113040   2.759   3.637   1.496
 4047SOL    HW213041   2.727   3.774   1.578
 4048SOL     OW13042   4.951   0.152   0.809
 4048SOL    HW113043   4.932   0.247   0.783
 4048SOL    HW213044   4.872   0.114   0.855
 4049SOL     OW13045   5.166   0.107   4.693
 4049SOL    HW113046   5.086   0.059   4.730
 4049SOL    HW213047   5.201   0.057   4.614
 4050SOL     OW13048   2.261   6.973   0.667
 4050SOL    HW113049   2.351   7.009   0.694
 4050SOL    HW213050   2.200   0.026   0.647
 4051SOL     OW13051   3.466   4.184   1.717
 4051SOL    HW113052   3.447   4.283   1.715
 4051SOL    HW213053   3.514   4.158   1.634
 4052SOL     OW13054   0.539   0.374   0.793
 4052SOL    HW113055   0.635   0.404   0.792
 4052SOL    HW213056   0.490   0.418   0.718
 4053SOL     OW13057   3.711   4.923   3.469
 4053SOL    HW113058   3.665   4.864   3.403
 4053SOL    HW213059   3.732   5.011   3.427
 4054SOL     OW13060   3.977   2.611   1.332
 4054SOL    HW113061   4.073   2.627   1.353
 4054SOL    HW213062   3.950   2.668   1.255
 4055SOL     OW13063   4.027   1.592   6.144
 4055SOL    HW113064   3.989   1.513   6.097
 4055SOL    HW213065   3.954   1.658   6.163
 4056SOL     OW13066   3.698   3.592   0.865
 4056SOL    HW113067   3.746   3.678   0.885
 4056SOL    HW213068   3.602   3.601   0.892
 4057SOL     OW13069   5.083   2.534   6.817
 4057SOL    HW113070   5.160   2.526   6.880
 4057SOL    HW213071   5.001   2.498   6.860
 4058SOL     OW13072   1.596   1.145   5.584
 4058SOL    HW113073   1.549   1.086   5.650
 4058SOL    HW213074   1.591   1.240   5.615
 4059SOL     OW13075   0.460   1.577   4.596
 4059SOL    HW113076   0.511   1.613   4.518
 4059SOL    HW213077   0.420   1.489   4.572
 4060SOL     OW13078   4.286   5.160   4.240
 4060SOL    HW113079   4.363   5.222   4.254
 4060SOL    HW213080   4.291   5.121   4.148
 4061SOL     OW13081   3.472   2.742   1.891
 4061SOL    HW113082   3.395   2.805   1.896
 4061SOL    HW213083   3.472   2.684   1.973
 4062SOL     OW13084   2.612   0.620   3.231
 4062SOL    HW113085   2.578   0.527   3.246
 4062SOL    HW213086   2.709   0.617   3.209
 4063SOL     OW13087   3.000   5.071   6.205
 4063SOL    HW113088   2.952   4.998   6.253
 4063SOL    HW213089   3.063   5.031   6.138
 4064SOL     OW13090   6.655   0.641   3.727
 4064SOL    HW113091   6.588   0.567   3.732
 4064SOL    HW213092   6.737   0.608   3.679
 4065SOL     OW13093   6.072   5.764   0.179
 4065SOL    HW113094   6.029   5.718   0.101
 4065SOL    HW213095   6.151   5.817   0.147
 4066SOL     OW13096   5.980   4.088   1.527
 4066SOL    HW113097   5.920   4.029   1.581
 4066SOL    HW213098   6.062   4.109   1.579
 4067SOL     OW13099   6.053   0.926   1.946
 4067SOL    HW113100   6.030   0.943   1.850
 4067SOL    HW213101   6.065   0.828   1.961
 4068SOL     OW13102   6.480   0.341   3.751
 4068SOL    HW113103   6.464   0.318   3.655
 4068SOL    HW213104   6.577   0.357   3.766
 4069SOL     OW13105   6.226   5.237   0.930
 4069SOL    HW113106   6.308   5.291   0.952
 4069SOL    HW213107   6.148   5.299   0.917
 4070SOL     OW13108   1.305   3.474   2.955
 4070SOL    HW113109   1.240   3.427   2.894
 4070SOL    HW213110   1.281   3.571   2.962
 4071SOL     OW13111   1.474   6.482   4.076
 4071SOL    HW113112   1.460   6.384   4.089
 4071SOL    HW213113   1.552   6.512   4.130
 4072SOL     OW13114   1.464   6.950   4.623
 4072SOL    HW113115   1.448   7.023   4.689
 4072SOL    HW213116   1.474   6.990   4.532
 4073SOL     OW13117   2.201   5.435   6.663
 4073SOL    HW113118   2.131   5.482   6.609
 4073SOL    HW213119   2.180   5.444   6.761
 4074SOL     OW13120   1.619   3.642   0.454
 4074SOL    HW113121   1.709   3.686   0.456
 4074SOL    HW213122   1.611   3.579   0.531
 4075SOL     OW13123   4.714   1.479   3.449
 4075SOL    HW113124   4.690   1.550   3.383
 4075SOL    HW213125   4.677   1.502   3.539
 4076SOL     OW13126   1.574   3.235   3.917
 4076SOL    HW113127   1.493   3.178   3.907
 4076SOL    HW213128   1.656   3.178   3.914
 4077SOL     OW13129   3.174   1.509   0.413
 4077SOL    HW113130   3.203   1.413   0.406
 4077SOL    HW213131   3.161   1.547   0.322
 4078SOL     OW13132   6.045   3.808   1.839
 4078SOL    HW113133   5.947   3.812   1.856
 4078SOL    HW213134   6.062   3.780   1.744
 4079SOL     OW13135   0.532   0.637   3.842
 4079SOL    HW113136   0.451   0.696   3.835
 4079SOL    HW213137   0.584   0.660   3.924
 4080SOL     OW13138   2.844   3.099   1.558
 4080SOL    HW113139   2.907   3.176   1.546
 4080SOL    HW213140   2.837   3.076   1.655
 4081SOL     OW13141   2.085   2.134   6.098
 4081SOL    HW113142   2.165   2.085   6.134
 4081SOL    HW213143   2.090   2.230   6.125
 4082SOL     OW13144   1.366   2.548   4.283
 4082SOL    HW113145   1.355   2.481   4.357
 4082SOL    HW213146   1.435   2.514   4.219
 4083SOL     OW13147   5.741   5.103   3.101
 4083SOL    HW113148   5.770   5.121   3.007
 4083SOL    HW213149   5.657   5.155   3.120
 4084SOL     OW13150   4.882   0.675   3.701
 4084SOL    HW113151   4.973   0.713   3.683
 4084SOL    HW213152   4.860   0.685   3.798
 4085SOL     OW13153   3.748   4.848   2.492
 4085SOL    HW113154   3.708   4.774   2.546
 4085SOL    HW213155   3.675   4.901   2.447
 4086SOL     OW13156   6.151   5.496   5.759
 4086SOL    HW113157   6.065   5.450   5.737
 4086SOL    HW213158   6.183   5.549   5.681
 4087SOL     OW13159   2.696   6.721   2.968
 4087SOL    HW113160   2.729   6.809   2.935
 4087SOL    HW213161   2.757   6.689   3.042
 4088SOL     OW13162   0.743   1.852   5.578
 4088SOL    HW113163   0.765   1.836   5.674
 4088SOL    HW213164   0.645   1.836   5.563
 4089SOL     OW13165   0.748   0.448   3.390
 4089SOL    HW113166   0.676   0.480   3.328
 4089SOL    HW213167   0.706   0.406   3.470
 4090SOL     OW13168   2.946   1.372   6.161
 4090SOL    HW113169   3.035   1.334   6.187
 4090SOL    HW213170   2.878   1.298   6.159
 4091SOL     OW13171   2.854   6.145   2.316
 4091SOL    HW113172   2.797   6.088   2.256
 4091SOL    HW213173   2.949   6.115   2.311
 4092SOL     OW13174   5.587   3.230   4.150
 4092SOL    HW113175   5.682   3.200   4.140
 4092SOL    HW213176   5.526   3.153   4.134
 4093SOL     OW13177   4.638   4.802   3.173
 4093SOL    HW113178   4.693   4.849   3.104
 4093SOL    HW213179   4.604   4.716   3.135
 4094SOL     OW13180   6.898   5.432   6.690
 4094SOL    HW113181   6.897   5.364   6.763
 4094SOL    HW213182   6.958   5.508   6.716
 4095SOL     OW13183   0.845   5.007   7.018
 4095SOL    HW113184   0.853   4.965   0.085
 4095SOL    HW213185   0.787   4.949   6.960
 4096SOL     OW13186   1.237   1.206   6.923
 4096SOL    HW113187   1.187   1.122   6.943
 4096SOL    HW213188   1.177   1.271   6.878
 4097SOL     OW13189   0.047   4.756   5.356
 4097SOL    HW113190   0.116   4.769   5.427
 4097SOL    HW213191   0.025   4.844   5.314
 4098SOL     OW13192   2.426   4.589   3.442
 4098SOL    HW113193   2.363   4.610   3.517
 4098SOL    HW213194   2.374   4.551   3.365
 4099SOL     OW13195   4.554   4.580   5.632
 4099SOL    HW113196   4.499   4.525   5.695
 4099SOL    HW213197   4.496   4.613   5.558
 4100SOL     OW13198   1.971   6.695   3.746
 4100SOL    HW113199   1.956   6.786   3.708
 4100SOL    HW213200   1.932   6.626   3.684
 4101SOL     OW13201   6.317   6.451   7.007
 4101SOL    HW113202   6.362   6.398   0.055
 4101SOL    HW213203   6.376   6.528   6.981
 4102SOL     OW13204   1.367   0.711   0.453
 4102SOL    HW113205   1.365   0.788   0.389
 4102SOL    HW213206   1.402   0.743   0.541
 4103SOL     OW13207   1.268   6.452   2.797
 4103SOL    HW113208   1.190   6.472   2.739
 4103SOL    HW213209   1.282   6.353   2.802
 4104SOL     OW13210   1.283   5.781   4.430
 4104SOL    HW113211   1.209   5.798   4.364
 4104SOL    HW213212   1.248   5.795   4.523
 4105SOL     OW13213   4.869   1.301   0.973
 4105SOL    HW113214   4.863   1.379   1.035
 4105SOL    HW213215   4.839   1.328   0.881
 4106SOL     OW13216   0.849   1.763   3.176
 4106SOL    HW113217   0.849   1.666   3.201
 4106SOL    HW213218   0.760   1.803   3.199
 4107SOL     OW13219   0.672   6.130   0.043
 4107SOL    HW113220   0.715   6.140   6.977
 4107SOL    HW213221   0.741   6.134   0.114
 4108SOL     OW13222   6.688   6.265   4.606
 4108SOL    HW113223   6.634   6.246   4.689
 4108SOL    HW213224   6.639   6.229   4.527
 4109SOL     OW13225   6.520   6.606   3.128
 4109SOL    HW113226   6.463   6.688   3.142
 4109SOL    HW213227   6.577   6.618   3.047
 4110SOL     OW13228   4.610   2.915   0.574
 4110SOL    HW113229   4.648   3.005   0.594
 4110SOL    HW213230   4.551   2.922   0.493
 4111SOL     OW13231   6.853   4.095   4.319
 4111SOL    HW113232   6.784   4.040   4.365
 4111SOL    HW213233   6.810   4.174   4.275
 4112SOL     OW13234   4.630   6.729   5.513
 4112SOL    HW113235   4.704   6.662   5.506
 4112SOL    HW213236   4.542   6.682   5.507
 4113SOL     OW13237   4.424   5.434   5.196
 4113SOL    HW113238   4.378   5.429   5.285
 4113SOL    HW213239   4.415   5.347   5.149
 4114SOL     OW13240   0.336   2.005   2.223
 4114SOL    HW113241   0.398   1.970   2.152
 4114SOL    HW213242   0.259   2.052   2.179
 4115SOL     OW13243   4.693   6.064   4.010
 4115SOL    HW113244   4.666   6.022   3.923
 4115SOL    HW213245   4.779   6.113   3.998
 4116SOL     OW13246   5.407   3.271   3.559
 4116SOL    HW113247   5.461   3.329   3.620
 4116SOL    HW213248   5.324   3.240   3.606
 4117SOL     OW13249   1.176   2.134   3.077
 4117SOL    HW113250   1.226   2.053   3.106
 4117SOL    HW213251   1.088   2.139   3.124
 4118SOL     OW13252   0.592   5.877   6.118
 4118SOL    HW113253   0.578   5.908   6.025
 4118SOL    HW213254   0.624   5.953   6.175
 4119SOL     OW13255   1.203   1.025   3.713
 4119SOL    HW113256   1.300   1.003   3.711
 4119SOL    HW213257   1.166   1.005   3.803
 4120SOL     OW13258   1.700   1.336   6.464
 4120SOL    HW113259   1.644   1.387   6.530
 4120SOL    HW213260   1.788   1.383   6.453
 4121SOL     OW13261   6.276   6.468   1.839
 4121SOL    HW113262   6.243   6.561   1.823
 4121SOL    HW213263   6.205   6.414   1.883
 4122SOL     OW13264   6.512   4.542   3.250
 4122SOL    HW113265   6.554   4.520   3.338
 4122SOL    HW213266   6.448   4.470   3.225
 4123SOL     OW13267   4.163   5.061   1.570
 4123SOL    HW113268   4.170   5.029   1.664
 4123SOL    HW213269   4.245   5.033   1.520
 4124SOL     OW13270   6.312   5.688   0.350
 4124SOL    HW113271   6.288   5.625   0.424
 4124SOL    HW213272   6.228   5.717   0.304
 4125SOL     OW13273   5.844   1.785   1.663
 4125SOL    HW113274   5.936   1.804   1.698
 4125SOL    HW213275   5.806   1.869   1.623
 4126SOL     OW13276   1.630   3.036   2.170
 4126SOL    HW113277   1.687   2.973   2.117
 4126SOL    HW213278   1.537   2.999   2.176
 4127SOL     OW13279   3.809   1.525   4.239
 4127SOL    HW113280   3.885   1.501   4.300
 4127SOL    HW213281   3.787   1.622   4.249
 4128SOL     OW13282   0.459   3.206   0.609
 4128SOL    HW113283   0.391   3.143   0.571
 4128SOL    HW213284   0.522   3.155   0.668
 4129SOL     OW13285   2.125   2.764   0.775
 4129SOL    HW113286   2.045   2.819   0.752
 4129SOL    HW213287   2.106   2.711   0.858
 4130SOL     OW13288   5.275   2.762   0.702
 4130SOL    HW113289   5.311   2.737   0.792
 4130SOL    HW213290   5.350   2.767   0.636
 4131SOL     OW13291   4.722   6.872   2.849
 4131SOL    HW113292   4.625   6.871   2.873
 4131SOL    HW213293   4.742   6.954   2.795
 4132SOL     OW13294   0.599   5.153   4.089
 4132SOL    HW113295   0.693   5.183   4.072
 4132SOL    HW213296   0.552   5.140   4.002
 4133SOL     OW13297   5.820   0.254   2.864
 4133SOL    HW113298   5.842   0.225   2.771
 4133SOL    HW213299   5.731   0.218   2.891
 4134SOL     OW13300   1.530   3.254   1.389
 4134SOL    HW113301   1.540   3.159   1.358
 4134SOL    HW213302   1.514   3.312   1.309
 4135SOL     OW13303   0.433   1.360   2.195
 4135SOL    HW113304   0.378   1.301   2.136
 4135SOL    HW213305   0.404   1.455   2.185
 4136SOL     OW13306   1.275   4.562   1.650
 4136SOL    HW113307   1.346   4.608   1.702
 4136SOL    HW213308   1.248   4.618   1.571
 4137SOL     OW13309   1.172   2.387   0.321
 4137SOL    HW113310   1.094   2.448   0.310
 4137SOL    HW213311   1.254   2.432   0.287
 4138SOL     OW13312   4.993   6.983   0.500
 4138SOL    HW113313   4.931   6.921   0.450
 4138SOL    HW213314   4.939   0.028   0.548
 4139SOL     OW13315   1.703   3.547   2.483
 4139SOL    HW113316   1.787   3.576   2.529
 4139SOL    HW213317   1.726   3.500   2.398
 4140SOL     OW13318   1.943   1.663   5.718
 4140SOL    HW113319   1.979   1.737   5.775
 4140SOL    HW213320   1.979   1.575   5.750
 4141SOL     OW13321   4.561   0.332   6.455
 4141SOL    HW113322   4.617   0.380   6.522
 4141SOL    HW213323   4.616   0.309   6.375
 4142SOL     OW13324   6.648   4.253   3.134
 4142SOL    HW113325   6.557   4.286   3.108
 4142SOL    HW213326   6.717   4.322   3.112
 4143SOL     OW13327   5.517   3.298   0.574
 4143SOL    HW113328   5.520   3.293   0.475
 4143SOL    HW213329   5.506   3.207   0.613
 4144SOL     OW13330   6.107   1.515   0.273
 4144SOL    HW113331   6.173   1.475   0.337
 4144SOL    HW213332   6.034   1.450   0.255
 4145SOL     OW13333   0.062   6.894   1.323
 4145SOL    HW113334   0.052   6.835   1.242
 4145SOL    HW213335   7.002   6.945   1.339
 4146SOL     OW13336   4.452   6.529   3.618
 4146SOL    HW113337   4.384   6.484   3.561
 4146SOL    HW213338   4.516   6.460   3.655
 4147SOL     OW13339   4.804   4.363   5.629
 4147SOL    HW113340   4.738   4.384   5.557
 4147SOL    HW213341   4.765   4.384   5.718
 4148SOL     OW13342   2.143   1.800   6.083
 4148SOL    HW113343   2.085   1.760   6.154
 4148SOL    HW213344   2.222   1.845   6.125
 4149SOL     OW13345   2.593   2.780   6.690
 4149SOL    HW113346   2.550   2.690   6.695
 4149SOL    HW213347   2.524   2.851   6.703
 4150SOL     OW13348   5.640   1.944   6.009
 4150SOL    HW113349   5.657   1.872   5.941
 4150SOL    HW213350   5.680   2.030   5.977
 4151SOL     OW13351   2.429   6.509   4.334
 4151SOL    HW113352   2.523   6.475   4.330
 4151SOL    HW213353   2.429   6.604   4.365
 4152SOL     OW13354   3.071   5.321   0.979
 4152SOL    HW113355   3.124   5.392   1.027
 4152SOL    HW213356   2.998   5.288   1.040
 4153SOL     OW13357   6.950   5.330   1.318
 4153SOL    HW113358   6.947   5.294   1.412
 4153SOL    HW213359   6.923   5.426   1.319
 4154SOL     OW13360   0.942   6.315   3.788
 4154SOL    HW113361   0.921   6.343   3.881
 4154SOL    HW213362   0.878   6.359   3.725
 4155SOL     OW13363   0.434   1.392   1.037
 4155SOL    HW113364   0.393   1.301   1.046
 4155SOL    HW213365   0.363   1.459   1.018
 4156SOL     OW13366   6.768   5.813   6.010
 4156SOL    HW113367   6.704   5.737   6.023
 4156SOL    HW213368   6.861   5.777   6.001
 4157SOL     OW13369   6.866   6.072   2.011
 4157SOL    HW113370   6.871   5.978   1.977
 4157SOL    HW213371   6.894   6.135   1.940
 4158SOL     OW13372   1.356   2.981   2.158
 4158SOL    HW113373   1.294   2.929   2.100
 4158SOL    HW213374   1.335   3.079   2.151
 4159SOL     OW13375   3.195   1.489   3.811
 4159SOL    HW113376   3.242   1.498   3.899
 4159SOL    HW213377   3.176   1.393   3.794
 4160SOL     OW13378   6.206   6.357   6.761
 4160SOL    HW113379   6.223   6.378   6.858
 4160SOL    HW213380   6.274   6.404   6.705
 4161SOL     OW13381   3.428   2.814   1.178
 4161SOL    HW113382   3.459   2.731   1.224
 4161SOL    HW213383   3.372   2.868   1.240
 4162SOL     OW13384   5.218   5.828   2.073
 4162SOL    HW113385   5.186   5.923   2.079
 4162SOL    HW213386   5.222   5.788   2.165
 4163SOL     OW13387   3.807   6.816   1.169
 4163SOL    HW113388   3.864   6.892   1.200
 4163SOL    HW213389   3.857   6.730   1.181
 4164SOL     OW13390   6.537   0.446   4.959
 4164SOL    HW113391   6.605   0.511   4.925
 4164SOL    HW213392   6.566   0.353   4.938
 4165SOL     OW13393   4.461   1.260   5.257
 4165SOL    HW113394   4.413   1.298   5.179
 4165SOL    HW213395   4.419   1.174   5.284
 4166SOL     OW13396   5.823   0.711   1.776
 4166SOL    HW113397   5.806   0.801   1.737
 4166SOL    HW213398   5.841   0.646   1.702
 4167SOL     OW13399   4.073   4.991   5.127
 4167SOL    HW113400   3.993   4.996   5.186
 4167SOL    HW213401   4.057   5.044   5.043
 4168SOL     OW13402   4.789   4.433   6.928
 4168SOL    HW113403   4.721   4.461   6.861
 4168SOL    HW213404   4.800   4.506   6.997
 4169SOL     OW13405   4.976   3.607   4.838
 4169SOL    HW113406   4.922   3.621   4.755
 4169SOL    HW213407   4.922   3.633   4.918
 4170SOL     OW13408   6.606   3.495   3.999
 4170SOL    HW113409   6.582   3.404   4.033
 4170SOL    HW213410   6.703   3.496   3.974
 4171SOL     OW13411   0.799   3.242   1.154
 4171SOL    HW113412   0.751   3.271   1.071
 4171SOL    HW213413   0.883   3.195   1.128
 4172SOL     OW13414   2.696   4.826   0.496
 4172SOL    HW113415   2.737   4.737   0.514
 4172SOL    HW213416   2.738   4.895   0.556
 4173SOL     OW13417   4.980   2.851   4.901
 4173SOL    HW113418   4.986   2.827   4.997
 4173SOL    HW213419   4.886   2.837   4.869
 4174SOL     OW13420   4.215   0.280   5.051
 4174SOL    HW113421   4.147   0.353   5.062
 4174SOL    HW213422   4.190   0.224   4.971
 4175SOL     OW13423   1.632   4.185   6.675
 4175SOL    HW113424   1.690   4.265   6.660
 4175SOL    HW213425   1.611   4.142   6.588
 4176SOL     OW13426   4.962   0.139   6.166
 4176SOL    HW113427   4.993   0.077   6.093
 4176SOL    HW213428   5.025   0.133   6.243
 4177SOL     OW13429   4.526   4.495   3.391
 4177SOL    HW113430   4.479   4.583   3.400
 4177SOL    HW213431   4.573   4.491   3.303
 4178SOL     OW13432   4.582   5.532   2.018
 4178SOL    HW113433   4.633   5.507   2.100
 4178SOL    HW213434   4.484   5.530   2.038
 4179SOL     OW13435   5.256   3.304   4.666
 4179SOL    HW113436   5.249   3.392   4.619
 4179SOL    HW213437   5.247   3.318   4.765
 4180SOL     OW13438   5.034   3.976   6.857
 4180SOL    HW113439   5.029   3.923   6.941
 4180SOL    HW213440   4.996   4.067   6.873
 4181SOL     OW13441   4.502   0.431   5.449
 4181SOL    HW113442   4.593   0.426   5.491
 4181SOL    HW213443   4.446   0.356   5.484
 4182SOL     OW13444   6.860   6.727   3.907
 4182SOL    HW113445   6.925   6.651   3.908
 4182SOL    HW213446   6.781   6.702   3.851
 4183SOL     OW13447   3.498   1.872   1.537
 4183SOL    HW113448   3.546   1.942   1.591
 4183SOL    HW213449   3.410   1.909   1.507
 4184SOL     OW13450   3.330   5.164   3.259
 4184SOL    HW113451   3.392   5.238   3.236
 4184SOL    HW213452   3.370   5.108   3.333
 4185SOL     OW13453   6.606   3.801   2.602
 4185SOL    HW113454   6.633   3.814   2.697
 4185SOL    HW213455   6.531   3.734   2.597
 4186SOL     OW13456   1.971   6.443   0.375
 4186SOL    HW113457   1.970   6.516   0.307
 4186SOL    HW213458   1.898   6.378   0.356
 4187SOL     OW13459   1.624   3.511   6.785
 4187SOL    HW113460   1.595   3.521   6.880
 4187SOL    HW213461   1.717   3.547   6.775
 4188SOL     OW13462   4.925   6.976   6.891
 4188SOL    HW113463   4.892   6.970   6.985
 4188SOL    HW213464   4.903   0.042   6.853
 4189SOL     OW13465   4.963   5.045   2.964
 4189SOL    HW113466   4.904   5.078   2.890
 4189SOL    HW213467   4.934   4.954   2.993
 4190SOL     OW13468   0.193   6.179   1.044
 4190SOL    HW113469   0.261   6.233   0.995
 4190SOL    HW213470   0.106   6.229   1.047
 4191SOL     OW13471   4.166   4.881   5.693
 4191SOL    HW113472   4.215   4.862   5.778
 4191SOL    HW213473   4.117   4.969   5.702
 4192SOL     OW13474   1.210   2.879   1.943
 4192SOL    HW113475   1.180   2.789   1.976
 4192SOL    HW213476   1.161   2.902   1.859
 4193SOL     OW13477   6.731   0.346   0.398
 4193SOL    HW113478   6.717   0.265   0.454
 4193SOL    HW213479   6.767   0.320   0.308
 4194SOL     OW13480   4.291   0.711   5.095
 4194SOL    HW113481   4.366   0.690   5.034
 4194SOL    HW213482   4.325   0.720   5.189
 4195SOL     OW13483   4.226   5.551   1.233
 4195SOL    HW113484   4.243   5.616   1.307
 4195SOL    HW213485   4.307   5.495   1.218
 4196SOL     OW13486   6.835   2.174   3.178
 4196SOL    HW113487   6.918   2.135   3.216
 4196SOL    HW213488   6.819   2.137   3.087
 4197SOL     OW13489   3.638   6.456   5.934
 4197SOL    HW113490   3.574   6.457   5.857
 4197SOL    HW213491   3.726   6.492   5.904
 4198SOL     OW13492   6.012   1.170   2.380
 4198SOL    HW113493   5.992   1.079   2.343
 4198SOL    HW213494   6.063   1.223   2.312
 4199SOL     OW13495   0.785   3.571   6.313
 4199SOL    HW113496   0.857   3.531   6.370
 4199SOL    HW213497   0.811   3.564   6.217
 4200SOL     OW13498   4.727   1.149   3.947
 4200SOL    HW113499   4.793   1.158   3.873
 4200SOL    HW213500   4.704   1.239   3.982
 4201SOL     OW13501   5.505   0.233   3.165
 4201SOL    HW113502   5.438   0.302   3.138
 4201SOL    HW213503   5.576   0.275   3.223
 4202SOL     OW13504   4.100   5.252   0.585
 4202SOL    HW113505   4.165   5.276   0.513
 4202SOL    HW213506   4.149   5.216   0.664
 4203SOL     OW13507   6.027   5.432   6.808
 4203SOL    HW113508   5.947   5.429   6.748
 4203SOL    HW213509   6.108   5.404   6.756
 4204SOL     OW13510   3.097   3.457   5.949
 4204SOL    HW113511   3.072   3.516   6.026
 4204SOL    HW213512   3.055   3.367   5.961
 4205SOL     OW13513   3.833   5.651   5.425
 4205SOL    HW113514   3.911   5.707   5.454
 4205SOL    HW213515   3.766   5.709   5.378
 4206SOL     OW13516   1.643   2.099   4.366
 4206SOL    HW113517   1.634   2.167   4.439
 4206SOL    HW213518   1.577   2.120   4.294
 4207SOL     OW13519   1.711   2.980   1.759
 4207SOL    HW113520   1.614   2.978   1.783
 4207SOL    HW213521   1.766   2.951   1.838
 4208SOL     OW13522   2.115   3.541   5.017
 4208SOL    HW113523   2.166   3.551   5.103
 4208SOL    HW213524   2.068   3.627   4.997
 4209SOL     OW13525   0.083   6.309   2.933
 4209SOL    HW113526   0.071   6.231   2.872
 4209SOL    HW213527   7.018   6.354   2.948
 4210SOL     OW13528   4.160   3.376   4.948
 4210SOL    HW113529   4.256   3.367   4.922
 4210SOL    HW213530   4.153   3.373   5.048
 4211SOL     OW13531   4.098   2.309   5.331
 4211SOL    HW113532   4.124   2.382   5.268
 4211SOL    HW213533   4.036   2.346   5.400
 4212SOL     OW13534   0.367   1.889   3.429
 4212SOL    HW113535   0.367   1.790   3.443
 4212SOL    HW213536   0.344   1.935   3.515
 4213SOL     OW13537   3.624   0.714   2.842
 4213SOL    HW113538   3.705   0.659   2.861
 4213SOL    HW213539   3.618   0.733   2.744
 4214SOL     OW13540   0.808   4.995   4.452
 4214SOL    HW113541   0.903   4.995   4.483
 4214SOL    HW213542   0.757   4.923   4.499
 4215SOL     OW13543   4.724   6.315   5.407
 4215SOL    HW113544   4.760   6.260   5.332
 4215SOL    HW213545   4.624   6.306   5.410
 4216SOL     OW13546   2.636   6.243   2.848
 4216SOL    HW113547   2.685   6.156   2.854
 4216SOL    HW213548   2.565   6.237   2.778
 4217SOL     OW13549   1.396   0.619   2.060
 4217SOL    HW113550   1.482   0.670   2.062
 4217SOL    HW213551   1.404   0.542   1.997
 4218SOL     OW13552   2.901   1.140   1.785
 4218SOL    HW113553   2.902   1.108   1.880
 4218SOL    HW213554   2.851   1.075   1.728
 4219SOL     OW13555   3.672   6.469   3.896
 4219SOL    HW113556   3.733   6.537   3.937
 4219SOL    HW213557   3.672   6.479   3.796
 4220SOL     OW13558   4.698   1.759   1.579
 4220SOL    HW113559   4.622   1.759   1.513
 4220SOL    HW213560   4.780   1.724   1.535
 4221SOL     OW13561   0.228   5.505   6.387
 4221SOL    HW113562   0.298   5.488   6.457
 4221SOL    HW213563   0.173   5.423   6.375
 4222SOL     OW13564   4.793   1.896   3.156
 4222SOL    HW113565   4.728   1.936   3.091
 4222SOL    HW213566   4.753   1.896   3.247
 4223SOL     OW13567   4.133   3.622   1.724
 4223SOL    HW113568   4.199   3.683   1.679
 4223SOL    HW213569   4.041   3.647   1.697
 4224SOL     OW13570   4.937   3.729   4.573
 4224SOL    HW113571   4.946   3.783   4.489
 4224SOL    HW213572   4.915   3.635   4.549
 4225SOL     OW13573   0.203   2.983   5.135
 4225SOL    HW113574   0.203   2.994   5.235
 4225SOL    HW213575   0.190   3.072   5.092
 4226SOL     OW13576   0.654   5.396   4.753
 4226SOL    HW113577   0.679   5.357   4.665
 4226SOL    HW213578   0.581   5.341   4.794
 4227SOL     OW13579   5.484   5.432   1.888
 4227SOL    HW113580   5.497   5.448   1.790
 4227SOL    HW213581   5.408   5.369   1.901
 4228SOL     OW13582   1.124   5.434   4.116
 4228SOL    HW113583   1.042   5.409   4.065
 4228SOL    HW213584   1.192   5.473   4.054
 4229SOL     OW13585   5.785   4.878   5.667
 4229SOL    HW113586   5.699   4.929   5.660
 4229SOL    HW213587   5.773   4.787   5.629
 4230SOL     OW13588   1.469   0.941   2.207
 4230SOL    HW113589   1.464   0.989   2.120
 4230SOL    HW213590   1.499   0.847   2.192
 4231SOL     OW13591   5.399   1.360   5.650
 4231SOL    HW113592   5.334   1.425   5.692
 4231SOL    HW213593   5.491   1.398   5.653
 4232SOL     OW13594   2.402   5.318   3.932
 4232SOL    HW113595   2.440   5.227   3.945
 4232SOL    HW213596   2.411   5.370   4.017
 4233SOL     OW13597   5.628   6.507   4.093
 4233SOL    HW113598   5.602   6.421   4.050
 4233SOL    HW213599   5.724   6.528   4.071
 4234SOL     OW13600   1.653   5.288   5.992
 4234SOL    HW113601   1.691   5.270   6.083
 4234SOL    HW213602   1.720   5.340   5.938
 4235SOL     OW13603   6.846   4.751   6.073
 4235SOL    HW113604   6.914   4.805   6.024
 4235SOL    HW213605   6.830   4.665   6.024
 4236SOL     OW13606   0.707   5.334   1.285
 4236SOL    HW113607   0.635   5.393   1.249
 4236SOL    HW213608   0.704   5.336   1.385
 4237SOL     OW13609   6.555   4.067   3.840
 4237SOL    HW113610   6.529   4.125   3.763
 4237SOL    HW213611   6.649   4.087   3.867
 4238SOL     OW13612   2.231   0.681   2.943
 4238SOL    HW113613   2.142   0.636   2.926
 4238SOL    HW213614   2.217   0.760   3.002
 4239SOL     OW13615   3.812   1.196   2.517
 4239SOL    HW113616   3.764   1.118   2.556
 4239SOL    HW213617   3.837   1.260   2.589
 4240SOL     OW13618   1.189   5.469   0.712
 4240SOL    HW113619   1.184   5.477   0.811
 4240SOL    HW213620   1.167   5.375   0.684
 4241SOL     OW13621   6.636   1.968   6.722
 4241SOL    HW113622   6.638   1.872   6.694
 4241SOL    HW213623   6.591   2.023   6.651
 4242SOL     OW13624   2.146   2.187   4.095
 4242SOL    HW113625   2.057   2.212   4.057
 4242SOL    HW213626   2.194   2.269   4.125
 4243SOL     OW13627   5.515   1.001   2.916
 4243SOL    HW113628   5.582   0.926   2.923
 4243SOL    HW213629   5.434   0.977   2.969
 4244SOL     OW13630   3.591   3.745   2.543
 4244SOL    HW113631   3.612   3.754   2.640
 4244SOL    HW213632   3.634   3.820   2.492
 4245SOL     OW13633   6.311   2.584   5.429
 4245SOL    HW113634   6.401   2.543   5.444
 4245SOL    HW213635   6.316   2.648   5.352
 4246SOL     OW13636   0.126   4.159   2.485
 4246SOL    HW113637   0.215   4.179   2.445
 4246SOL    HW213638   0.093   4.071   2.452
 4247SOL     OW13639   6.630   6.188   5.339
 4247SOL    HW113640   6.572   6.266   5.317
 4247SOL    HW213641   6.721   6.220   5.365
 4248SOL     OW13642   1.141   2.645   5.805
 4248SOL    HW113643   1.112   2.551   5.823
 4248SOL    HW213644   1.226   2.644   5.753
 4249SOL     OW13645   5.698   2.673   5.531
 4249SOL    HW113646   5.737   2.595   5.482
 4249SOL    HW213647   5.769   2.742   5.545
 4250SOL     OW13648   6.494   5.184   4.018
 4250SOL    HW113649   6.488   5.274   4.059
 4250SOL    HW213650   6.573   5.180   3.956
 4251SOL     OW13651   5.829   4.117   0.359
 4251SOL    HW113652   5.844   4.035   0.414
 4251SOL    HW213653   5.745   4.108   0.306
 4252SOL     OW13654   7.009   5.686   5.092
 4252SOL    HW113655   0.041   5.724   5.019
 4252SOL    HW213656   0.039   5.620   5.145
 4253SOL     OW13657   4.514   0.698   1.455
 4253SOL    HW113658   4.478   0.791   1.465
 4253SOL    HW213659   4.516   0.674   1.358
 4254SOL     OW13660   1.666   3.575   1.337
 4254SOL    HW113661   1.681   3.536   1.246
 4254SOL    HW213662   1.622   3.664   1.328
 4255SOL     OW13663   6.205   3.127   4.198
 4255SOL    HW113664   6.172   3.032   4.199
 4255SOL    HW213665   6.134   3.187   4.235
 4256SOL     OW13666   1.963   6.778   1.275
 4256SOL    HW113667   2.029   6.705   1.288
 4256SOL    HW213668   1.875   6.752   1.314
 4257SOL     OW13669   3.545   1.830   5.089
 4257SOL    HW113670   3.550   1.897   5.015
 4257SOL    HW213671   3.597   1.864   5.168
 4258SOL     OW13672   5.909   6.423   1.836
 4258SOL    HW113673   5.879   6.517   1.850
 4258SOL    HW213674   5.966   6.394   1.912
 4259SOL     OW13675   2.660   2.042   6.972
 4259SOL    HW113676   2.724   2.094   0.004
 4259SOL    HW213677   2.686   1.945   6.975
 4260SOL     OW13678   4.290   6.225   3.734
 4260SOL    HW113679   4.200   6.208   3.775
 4260SOL    HW213680   4.333   6.137   3.711
 4261SOL     OW13681   2.492   6.198   2.103
 4261SOL    HW113682   2.506   6.295   2.125
 4261SOL    HW213683   2.409   6.188   2.049
 4262SOL     OW13684   1.988   4.950   6.794
 4262SOL    HW113685   2.003   4.999   6.708
 4262SOL    HW213686   1.992   5.015   6.870
 4263SOL     OW13687   2.360   5.096   5.363
 4263SOL    HW113688   2.395   5.187   5.385
 4263SOL    HW213689   2.389   5.032   5.435
 4264SOL     OW13690   0.154   1.552   6.897
 4264SOL    HW113691   0.173   1.476   6.958
 4264SOL    HW213692   0.238   1.604   6.880
 4265SOL     OW13693   6.742   1.949   0.141
 4265SOL    HW113694   6.753   1.975   0.045
 4265SOL    HW213695   6.769   2.026   0.199
 4266SOL     OW13696   2.557   5.573   0.494
 4266SOL    HW113697   2.585   5.649   0.436
 4266SOL    HW213698   2.600   5.581   0.583
 4267SOL     OW13699   2.226   3.704   5.253
 4267SOL    HW113700   2.316   3.746   5.266
 4267SOL    HW213701   2.203   3.649   5.334
 4268SOL     OW13702   1.752   0.678   0.354
 4268SOL    HW113703   1.795   0.765   0.329
 4268SOL    HW213704   1.788   0.647   0.442
 4269SOL     OW13705   3.158   3.006   0.304
 4269SOL    HW113706   3.169   3.000   0.403
 4269SOL    HW213707   3.197   2.925   0.261
 4270SOL     OW13708   3.690   2.800   5.115
 4270SOL    HW113709   3.758   2.737   5.079
 4270SOL    HW213710   3.725   2.894   5.109
 4271SOL     OW13711   0.516   6.489   5.761
 4271SOL    HW113712   0.494   6.545   5.681
 4271SOL    HW213713   0.578   6.416   5.735
 4272SOL     OW13714   6.623   4.868   5.496
 4272SOL    HW113715   6.553   4.798   5.505
 4272SOL    HW213716   6.683   4.846   5.420
 4273SOL     OW13717   4.704   0.062   5.191
 4273SOL    HW113718   4.742   0.154   5.199
 4273SOL    HW213719   4.605   0.067   5.183
 4274SOL     OW13720   1.887   6.540   3.525
 4274SOL    HW113721   1.959   6.599   3.488
 4274SOL    HW213722   1.798   6.584   3.515
 4275SOL     OW13723   0.156   0.775   5.209
 4275SOL    HW113724   0.110   0.754   5.296
 4275SOL    HW213725   0.248   0.810   5.229
 4276SOL     OW13726   2.421   4.755   3.055
 4276SOL    HW113727   2.474   4.679   3.093
 4276SOL    HW213728   2.376   4.726   2.970
 4277SOL     OW13729   6.828   5.244   3.518
 4277SOL    HW113730   6.916   5.197   3.515
 4277SOL    HW213731   6.840   5.333   3.562
 4278SOL     OW13732   6.631   6.341   4.985
 4278SOL    HW113733   6.692   6.376   5.055
 4278SOL    HW213734   6.555   6.405   4.971
 4279SOL     OW13735   3.152   6.668   5.465
 4279SOL    HW113736   3.092   6.747   5.476
 4279SOL    HW213737   3.125   6.617   5.383
 4280SOL     OW13738   6.880   2.180   5.471
 4280SOL    HW113739   6.950   2.229   5.419
 4280SOL    HW213740   6.925   2.113   5.532
 4281SOL     OW13741   1.812   4.836   5.501
 4281SOL    HW113742   1.767   4.926   5.496
 4281SOL    HW213743   1.892   4.835   5.441
 4282SOL     OW13744   2.473   3.107   0.650
 4282SOL    HW113745   2.453   3.017   0.691
 4282SOL    HW213746   2.472   3.177   0.722
 4283SOL     OW13747   2.134   0.082   4.306
 4283SOL    HW113748   2.050   0.091   4.360
 4283SOL    HW213749   2.173   7.015   4.320
 4284SOL     OW13750   5.598   1.140   1.866
 4284SOL    HW113751   5.507   1.109   1.893
 4284SOL    HW213752   5.667   1.095   1.923
 4285SOL     OW13753   0.357   6.910   5.824
 4285SOL    HW113754   0.352   6.991   5.765
 4285SOL    HW213755   0.345   6.939   5.920
 4286SOL     OW13756   4.847   5.719   0.090
 4286SOL    HW113757   4.811   5.637   0.044
 4286SOL    HW213758   4.835   5.710   0.189
 4287SOL     OW13759   5.495   0.229   4.977
 4287SOL    HW113760   5.401   0.197   4.992
 4287SOL    HW213761   5.546   0.158   4.929
 4288SOL     OW13762   1.023   6.751   3.376
 4288SOL    HW113763   1.123   6.750   3.370
 4288SOL    HW213764   0.986   6.815   3.308
 4289SOL     OW13765   5.564   2.619   1.574
 4289SOL    HW113766   5.559   2.527   1.536
 4289SOL    HW213767   5.654   2.659   1.554
 4290SOL     OW13768   2.154   0.447   2.490
 4290SOL    HW113769   2.158   0.401   2.401
 4290SOL    HW213770   2.154   0.546   2.476
 4291SOL     OW13771   5.216   3.074   0.630
 4291SOL    HW113772   5.236   3.170   0.610
 4291SOL    HW213773   5.302   3.023   0.637
 4292SOL     OW13774   6.267   4.370   5.696
 4292SOL    HW113775   6.229   4.450   5.650
 4292SOL    HW213776   6.332   4.325   5.636
 4293SOL     OW13777   6.455   3.613   6.566
 4293SOL    HW113778   6.495   3.605   6.475
 4293SOL    HW213779   6.491   3.541   6.625
 4294SOL     OW13780   4.158   2.540   6.048
 4294SOL    HW113781   4.128   2.602   5.976
 4294SOL    HW213782   4.084   2.524   6.113
 4295SOL     OW13783   3.359   6.937   4.661
 4295SOL    HW113784   3.385   6.976   4.749
 4295SOL    HW213785   3.438   6.936   4.600
 4296SOL     OW13786   2.407   1.639   0.776
 4296SOL    HW113787   2.384   1.672   0.685
 4296SOL    HW213788   2.330   1.652   0.838
 4297SOL     OW13789   4.981   6.943   5.020
 4297SOL    HW113790   5.006   6.996   5.101
 4297SOL    HW213791   4.905   6.882   5.041
 4298SOL     OW13792   2.165   5.892   1.261
 4298SOL    HW113793   2.133   5.962   1.196
 4298SOL    HW213794   2.209   5.936   1.338
 4299SOL     OW13795   0.534   3.554   6.350
 4299SOL    HW113796   0.527   3.515   6.442
 4299SOL    HW213797   0.627   3.587   6.334
 4300SOL     OW13798   2.881   1.093   6.506
 4300SOL    HW113799   2.855   1.165   6.570
 4300SOL    HW213800   2.815   1.018   6.512
 4301SOL     OW13801   2.060   1.805   0.459
 4301SOL    HW113802   2.051   1.866   0.538
 4301SOL    HW213803   2.126   1.733   0.480
 4302SOL     OW13804   1.194   6.070   6.727
 4302SOL    HW113805   1.136   6.120   6.663
 4302SOL    HW213806   1.280   6.120   6.741
 4303SOL     OW13807   6.823   4.024   3.136
 4303SOL    HW113808   6.751   3.960   3.162
 4303SOL    HW213809   6.797   4.116   3.166
 4304SOL     OW13810   3.318   3.660   3.962
 4304SOL    HW113811   3.368   3.574   3.967
 4304SOL    HW213812   3.379   3.732   3.927
 4305SOL     OW13813   6.249   1.110   3.349
 4305SOL    HW113814   6.278   1.025   3.393
 4305SOL    HW213815   6.327   1.149   3.300
 4306SOL     OW13816   7.001   3.995   6.146
 4306SOL    HW113817   0.060   3.943   6.168
 4306SOL    HW213818   6.943   4.002   6.227
 4307SOL     OW13819   4.642   4.114   5.656
 4307SOL    HW113820   4.693   4.181   5.602
 4307SOL    HW213821   4.545   4.135   5.652
 4308SOL     OW13822   5.505   6.315   5.245
 4308SOL    HW113823   5.589   6.353   5.286
 4308SOL    HW213824   5.529   6.266   5.161
 4309SOL     OW13825   1.602   0.983   0.369
 4309SOL    HW113826   1.613   1.082   0.371
 4309SOL    HW213827   1.670   0.941   0.429
 4310SOL     OW13828   1.764   2.303   3.135
 4310SOL    HW113829   1.722   2.213   3.151
 4310SOL    HW213830   1.731   2.341   3.049
 4311SOL     OW13831   1.079   6.109   3.675
 4311SOL    HW113832   1.151   6.154   3.622
 4311SOL    HW213833   1.022   6.178   3.719
 4312SOL     OW13834   2.009   6.186   1.927
 4312SOL    HW113835   1.964   6.167   1.839
 4312SOL    HW213836   1.941   6.197   1.998
 4313SOL     OW13837   5.374   0.951   1.760
 4313SOL    HW113838   5.415   1.024   1.705
 4313SOL    HW213839   5.442   0.916   1.825
 4314SOL     OW13840   4.791   2.959   3.085
 4314SOL    HW113841   4.853   3.026   3.043
 4314SOL    HW213842   4.756   2.898   3.014
 4315SOL     OW13843   2.539   0.432   2.225
 4315SOL    HW113844   2.538   0.351   2.165
 4315SOL    HW213845   2.604   0.418   2.299
 4316SOL     OW13846   5.339   0.231   1.030
 4316SOL    HW113847   5.370   0.141   1.059
 4316SOL    HW213848   5.361   0.299   1.100
 4317SOL     OW13849   3.852   1.343   4.687
 4317SOL    HW113850   3.868   1.441   4.691
 4317SOL    HW213851   3.759   1.324   4.655
 4318SOL     OW13852   1.009   3.808   3.891
 4318SOL    HW113853   0.972   3.754   3.966
 4318SOL    HW213854   0.947   3.882   3.868
 4319SOL     OW13855   2.685   3.201   6.624
 4319SOL    HW113856   2.773   3.225   6.664
 4319SOL    HW213857   2.612   3.223   6.689
 4320SOL     OW13858   0.934   6.779   2.687
 4320SOL    HW113859   0.973   6.854   2.634
 4320SOL    HW213860   0.977   6.776   2.777
 4321SOL     OW13861   6.298   0.910   4.991
 4321SOL    HW113862   6.223   0.910   5.057
 4321SOL    HW213863   6.299   0.823   4.942
 4322SOL     OW13864   6.775   0.867   6.622
 4322SOL    HW113865   6.785   0.959   6.583
 4322SOL    HW213866   6.741   0.875   6.715
 4323SOL     OW13867   5.613   2.892   2.689
 4323SOL    HW113868   5.540   2.846   2.638
 4323SOL    HW213869   5.691   2.908   2.628
 4324SOL     OW13870   5.636   3.904   6.468
 4324SOL    HW113871   5.689   3.959   6.533
 4324SOL    HW213872   5.678   3.814   6.458
 4325SOL     OW13873   2.102   1.011   6.981
 4325SOL    HW113874   2.065   1.099   6.955
 4325SOL    HW213875   2.102   0.949   6.902
 4326SOL     OW13876   6.064   3.399   5.273
 4326SOL    HW113877   6.059   3.324   5.208
 4326SOL    HW213878   6.158   3.434   5.276
 4327SOL     OW13879   5.364   5.594   2.618
 4327SOL    HW113880   5.322   5.620   2.705
 4327SOL    HW213881   5.417   5.510   2.630
 4328SOL     OW13882   4.755   4.642   5.811
 4328SOL    HW113883   4.771   4.552   5.851
 4328SOL    HW213884   4.684   4.635   5.741
 4329SOL     OW13885   3.892   1.825   5.336
 4329SOL    HW113886   3.955   1.843   5.261
 4329SOL    HW213887   3.816   1.890   5.332
 4330SOL     OW13888   2.326   0.628   5.897
 4330SOL    HW113889   2.314   0.717   5.853
 4330SOL    HW213890   2.284   0.557   5.841
 4331SOL     OW13891   5.067   2.993   0.394
 4331SOL    HW113892   5.130   2.998   0.471
 4331SOL    HW213893   5.010   3.075   0.392
 4332SOL     OW13894   4.974   3.166   1.990
 4332SOL    HW113895   4.899   3.110   2.025
 4332SOL    HW213896   5.057   3.148   2.043
 4333SOL     OW13897   5.924   1.927   4.858
 4333SOL    HW113898   5.877   1.894   4.940
 4333SOL    HW213899   6.009   1.972   4.883
 4334SOL     OW13900   3.001   2.090   1.895
 4334SOL    HW113901   2.975   2.151   1.819
 4334SOL    HW213902   3.020   2.144   1.976
 4335SOL     OW13903   2.889   3.673   4.531
 4335SOL    HW113904   2.925   3.687   4.623
 4335SOL    HW213905   2.865   3.576   4.519
 4336SOL     OW13906   1.513   5.904   5.513
 4336SOL    HW113907   1.429   5.959   5.521
 4336SOL    HW213908   1.522   5.872   5.419
 4337SOL     OW13909   0.621   4.918   6.627
 4337SOL    HW113910   0.618   4.913   6.527
 4337SOL    HW213911   0.547   4.976   6.660
 4338SOL     OW13912   5.884   6.092   4.509
 4338SOL    HW113913   5.964   6.122   4.561
 4338SOL    HW213914   5.880   6.142   4.422
 4339SOL     OW13915   6.749   2.824   5.039
 4339SOL    HW113916   6.800   2.819   5.124
 4339SOL    HW213917   6.708   2.734   5.019
 4340SOL     OW13918   6.106   3.653   2.118
 4340SOL    HW113919   6.172   3.597   2.168
 4340SOL    HW213920   6.056   3.596   2.053
 4341SOL     OW13921   1.813   3.721   1.925
 4341SOL    HW113922   1.751   3.645   1.902
 4341SOL    HW213923   1.769   3.780   1.992
 4342SOL     OW13924   0.349   2.840   3.200
 4342SOL    HW113925   0.352   2.908   3.273
 4342SOL    HW213926   0.432   2.848   3.144
 4343SOL     OW13927   3.468   0.866   0.290
 4343SOL    HW113928   3.444   0.845   0.195
 4343SOL    HW213929   3.391   0.843   0.349
 4344SOL     OW13930   1.737   4.240   3.280
 4344SOL    HW113931   1.755   4.311   3.349
 4344SOL    HW213932   1.663   4.181   3.312
 4345SOL     OW13933   1.758   2.796   5.441
 4345SOL    HW113934   1.774   2.704   5.404
 4345SOL    HW213935   1.711   2.851   5.373
 4346SOL     OW13936   2.409   3.091   1.626
 4346SOL    HW113937   2.494   3.142   1.612
 4346SOL    HW213938   2.335   3.154   1.647
 4347SOL     OW13939   6.763   7.019   1.845
 4347SOL    HW113940   6.795   0.024   1.935
 4347SOL    HW213941   6.728   6.925   1.850
 4348SOL     OW13942   1.192   3.876   1.802
 4348SOL    HW113943   1.174   3.964   1.757
 4348SOL    HW213944   1.107   3.840   1.839
 4349SOL     OW13945   0.289   1.014   3.653
 4349SOL    HW113946   0.369   0.993   3.709
 4349SOL    HW213947   0.206   1.007   3.709
 4350SOL     OW13948   5.126   2.238   5.037
 4350SOL    HW113949   5.075   2.258   5.121
 4350SOL    HW213950   5.111   2.312   4.971
 4351SOL     OW13951   3.087   5.992   2.321
 4351SOL    HW113952   3.079   5.923   2.393
 4351SOL    HW213953   3.075   5.948   2.232
 4352SOL     OW13954   0.689   1.959   2.283
 4352SOL    HW113955   0.670   1.933   2.189
 4352SOL    HW213956   0.765   1.904   2.319
 4353SOL     OW13957   2.440   5.882   6.757
 4353SOL    HW113958   2.376   5.827   6.703
 4353SOL    HW213959   2.476   5.827   6.832
 4354SOL     OW13960   2.097   0.275   6.862
 4354SOL    HW113961   2.196   0.273   6.845
 4354SOL    HW213962   2.065   0.370   6.855
 4355SOL     OW13963   3.842   1.102   1.302
 4355SOL    HW113964   3.874   1.143   1.217
 4355SOL    HW213965   3.826   1.173   1.370
 4356SOL     OW13966   4.521   4.264   1.095
 4356SOL    HW113967   4.454   4.190   1.093
 4356SOL    HW213968   4.540   4.290   1.189
 4357SOL     OW13969   6.234   0.502   0.425
 4357SOL    HW113970   6.135   0.514   0.413
 4357SOL    HW213971   6.262   0.415   0.386
 4358SOL     OW13972   0.514   6.071   1.434
 4358SOL    HW113973   0.524   6.158   1.483
 4358SOL    HW213974   0.484   6.089   1.340
 4359SOL     OW13975   0.815   2.101   4.348
 4359SOL    HW113976   0.897   2.123   4.295
 4359SOL    HW213977   0.824   2.138   4.441
 4360SOL     OW13978   0.897   3.718   1.573
 4360SOL    HW113979   0.913   3.734   1.670
 4360SOL    HW213980   0.801   3.731   1.551
 4361SOL     OW13981   4.570   2.573   1.845
 4361SOL    HW113982   4.563   2.636   1.768
 4361SOL    HW213983   4.507   2.496   1.830
 4362SOL     OW13984   6.394   3.917   5.536
 4362SOL    HW113985   6.446   4.000   5.558
 4362SOL    HW213986   6.301   3.925   5.572
 4363SOL     OW13987   5.252   2.571   5.344
 4363SOL    HW113988   5.249   2.536   5.250
 4363SOL    HW213989   5.310   2.652   5.347
 4364SOL     OW13990   3.627   4.103   4.535
 4364SOL    HW113991   3.669   4.033   4.593
 4364SOL    HW213992   3.670   4.103   4.445
 4365SOL     OW13993   3.903   2.164   2.547
 4365SOL    HW113994   3.999   2.179   2.528
 4365SOL    HW213995   3.852   2.154   2.461
 4366SOL     OW13996   6.462   6.590   1.471
 4366SOL    HW113997   6.434   6.675   1.515
 4366SOL    HW213998   6.404   6.515   1.503
 4367SOL     OW13999   1.093   5.368   5.831
 4367SOL    HW114000   1.107   5.392   5.734
 4367SOL    HW214001   1.074   5.452   5.883
 4368SOL     OW14002   5.374   4.576   1.518
 4368SOL    HW114003   5.286   4.612   1.485
 4368SOL    HW214004   5.429   4.651   1.554
 4369SOL     OW14005   4.568   4.506   2.122
 4369SOL    HW114006   4.555   4.442   2.047
 4369SOL    HW214007   4.586   4.597   2.086
 4370SOL     OW14008   6.090   4.571   3.829
 4370SOL    HW114009   6.107   4.670   3.826
 4370SOL    HW214010   5.992   4.554   3.824
 4371SOL     OW14011   6.182   0.261   1.854
 4371SOL    HW114012   6.194   0.179   1.910
 4371SOL    HW214013   6.271   0.299   1.830
 4372SOL     OW14014   4.977   1.339   2.822
 4372SOL    HW114015   4.910   1.397   2.868
 4372SOL    HW214016   4.972   1.247   2.860
 4373SOL     OW14017   6.682   2.300   6.578
 4373SOL    HW114018   6.586   2.271   6.573
 4373SOL    HW214019   6.715   2.288   6.672
 4374SOL     OW14020   1.757   2.194   2.379
 4374SOL    HW114021   1.820   2.117   2.373
 4374SOL    HW214022   1.733   2.225   2.287
 4375SOL     OW14023   2.586   6.152   4.523
 4375SOL    HW114024   2.614   6.128   4.430
 4375SOL    HW214025   2.579   6.251   4.530
 4376SOL     OW14026   6.444   0.484   2.513
 4376SOL    HW114027   6.495   0.544   2.451
 4376SOL    HW214028   6.347   0.486   2.490
 4377SOL     OW14029   5.909   3.786   6.913
 4377SOL    HW114030   5.968   3.859   6.878
 4377SOL    HW214031   5.831   3.773   6.852
 4378SOL     OW14032   2.336   0.544   3.726
 4378SOL    HW114033   2.297   0.469   3.779
 4378SOL    HW214034   2.262   0.594   3.679
 4379SOL     OW14035   2.476   1.185   4.942
 4379SOL    HW114036   2.448   1.147   5.030
 4379SOL    HW214037   2.447   1.281   4.937
 4380SOL     OW14038   1.322   1.650   1.400
 4380SOL    HW114039   1.313   1.629   1.497
 4380SOL    HW214040   1.345   1.567   1.350
 4381SOL     OW14041   1.521   5.884   5.207
 4381SOL    HW114042   1.502   5.826   5.128
 4381SOL    HW214043   1.529   5.979   5.176
 4382SOL     OW14044   6.735   3.636   5.185
 4382SOL    HW114045   6.832   3.631   5.163
 4382SOL    HW214046   6.723   3.636   5.284
 4383SOL     OW14047   5.313   2.486   5.909
 4383SOL    HW114048   5.317   2.579   5.872
 4383SOL    HW214049   5.382   2.430   5.863
 4384SOL     OW14050   0.325   0.080   3.194
 4384SOL    HW114051   0.239   0.029   3.206
 4384SOL    HW214052   0.391   0.022   3.146
 4385SOL     OW14053   5.716   1.914   4.414
 4385SOL    HW114054   5.801   1.865   4.392
 4385SOL    HW214055   5.639   1.866   4.372
 4386SOL     OW14056   1.267   3.754   5.940
 4386SOL    HW114057   1.239   3.658   5.941
 4386SOL    HW214058   1.188   3.812   5.927
 4387SOL     OW14059   6.990   2.642   0.727
 4387SOL    HW114060   6.913   2.585   0.755
 4387SOL    HW214061   6.956   2.722   0.678
 4388SOL     OW14062   4.940   2.038   6.219
 4388SOL    HW114063   4.885   2.045   6.302
 4388SOL    HW214064   5.036   2.022   6.243
 4389SOL     OW14065   0.130   3.659   1.678
 4389SOL    HW114066   0.195   3.607   1.622
 4389SOL    HW214067   0.180   3.718   1.741
 4390SOL     OW14068   5.596   0.415   1.052
 4390SOL    HW114069   5.530   0.471   1.101
 4390SOL    HW214070   5.634   0.467   0.975
 4391SOL     OW14071   1.622   5.289   6.423
 4391SOL    HW114072   1.547   5.352   6.440
 4391SOL    HW214073   1.655   5.251   6.509
 4392SOL     OW14074   1.405   1.343   4.134
 4392SOL    HW114075   1.480   1.381   4.081
 4392SOL    HW214076   1.368   1.263   4.087
 4393SOL     OW14077   5.539   6.875   1.552
 4393SOL    HW114078   5.617   6.818   1.574
 4393SOL    HW214079   5.523   6.873   1.453
 4394SOL     OW14080   1.721   0.154   1.570
 4394SOL    HW114081   1.758   0.083   1.629
 4394SOL    HW214082   1.623   0.138   1.555
 4395SOL     OW14083   2.634   6.289   1.861
 4395SOL    HW114084   2.598   6.216   1.804
 4395SOL    HW214085   2.559   6.333   1.911
 4396SOL     OW14086   1.352   0.661   3.219
 4396SOL    HW114087   1.436   0.608   3.206
 4396SOL    HW214088   1.313   0.683   3.130
 4397SOL     OW14089   2.654   2.022   3.710
 4397SOL    HW114090   2.629   2.117   3.691
 4397SOL    HW214091   2.676   2.012   3.807
 4398SOL     OW14092   1.914   3.193   6.025
 4398SOL    HW114093   1.958   3.269   6.073
 4398SOL    HW214094   1.984   3.126   5.997
 4399SOL     OW14095   2.747   6.145   2.566
 4399SOL    HW114096   2.781   6.145   2.472
 4399SOL    HW214097   2.776   6.061   2.611
 4400SOL     OW14098   2.165   6.560   4.246
 4400SOL    HW114099   2.261   6.545   4.266
 4400SOL    HW214100   2.151   6.557   4.147
 4401SOL     OW14101   3.414   6.465   5.604
 4401SOL    HW114102   3.491   6.401   5.600
 4401SOL    HW214103   3.365   6.453   5.690
 4402SOL     OW14104   1.462   0.317   3.024
 4402SOL    HW114105   1.518   0.373   3.085
 4402SOL    HW214106   1.377   0.365   3.002
 4403SOL     OW14107   1.024   5.370   1.522
 4403SOL    HW114108   1.002   5.388   1.618
 4403SOL    HW214109   1.095   5.299   1.517
 4404SOL     OW14110   1.096   5.909   6.480
 4404SOL    HW114111   1.164   5.958   6.535
 4404SOL    HW214112   1.077   5.962   6.397
 4405SOL     OW14113   2.661   4.693   3.494
 4405SOL    HW114114   2.565   4.674   3.472
 4405SOL    HW214115   2.676   4.792   3.490
 4406SOL     OW14116   6.282   3.793   2.396
 4406SOL    HW114117   6.216   3.844   2.451
 4406SOL    HW214118   6.352   3.855   2.361
 4407SOL     OW14119   6.920   6.310   2.157
 4407SOL    HW114120   6.879   6.232   2.110
 4407SOL    HW214121   6.959   6.373   2.090
 4408SOL     OW14122   3.678   7.023   0.393
 4408SOL    HW114123   3.616   0.049   0.332
 4408SOL    HW214124   3.725   0.063   0.453
 4409SOL     OW14125   4.049   0.824   2.472
 4409SOL    HW114126   4.058   0.923   2.485
 4409SOL    HW214127   4.039   0.805   2.374
 4410SOL     OW14128   0.788   5.755   1.001
 4410SOL    HW114129   0.827   5.758   0.910
 4410SOL    HW214130   0.768   5.660   1.026
 4411SOL     OW14131   3.300   4.576   5.582
 4411SOL    HW114132   3.321   4.567   5.484
 4411SOL    HW214133   3.309   4.487   5.626
 4412SOL     OW14134   4.410   6.994   3.460
 4412SOL    HW114135   4.436   6.898   3.459
 4412SOL    HW214136   4.398   0.000   3.555
 4413SOL     OW14137   3.400   0.108   4.247
 4413SOL    HW114138   3.361   0.090   4.338
 4413SOL    HW214139   3.487   0.155   4.257
 4414SOL     OW14140   4.911   4.530   1.902
 4414SOL    HW114141   4.838   4.464   1.890
 4414SOL    HW214142   4.961   4.541   1.816
 4415SOL     OW14143   3.318   3.884   1.660
 4415SOL    HW114144   3.366   3.822   1.722
 4415SOL    HW214145   3.374   3.901   1.579
 4416SOL     OW14146   4.079   2.140   4.226
 4416SOL    HW114147   4.088   2.041   4.213
 4416SOL    HW214148   3.984   2.166   4.215
 4417SOL     OW14149   0.390   3.668   3.648
 4417SOL    HW114150   0.348   3.581   3.676
 4417SOL    HW214151   0.488   3.654   3.633
 4418SOL     OW14152   6.263   0.518   0.919
 4418SOL    HW114153   6.343   0.576   0.902
 4418SOL    HW214154   6.284   0.424   0.894
 4419SOL     OW14155   6.604   5.601   6.133
 4419SOL    HW114156   6.504   5.609   6.134
 4419SOL    HW214157   6.639   5.610   6.227
 4420SOL     OW14158   3.432   2.299   0.894
 4420SOL    HW114159   3.507   2.361   0.915
 4420SOL    HW214160   3.349   2.331   0.941
 4421SOL     OW14161   1.407   2.896   4.405
 4421SOL    HW114162   1.325   2.843   4.428
 4421SOL    HW214163   1.428   2.959   4.479
 4422SOL     OW14164   0.480   4.602   6.756
 4422SOL    HW114165   0.558   4.633   6.702
 4422SOL    HW214166   0.415   4.677   6.766
 4423SOL     OW14167   5.606   3.982   5.769
 4423SOL    HW114168   5.591   3.997   5.867
 4423SOL    HW214169   5.569   4.059   5.718
 4424SOL     OW14170   4.763   6.004   4.419
 4424SOL    HW114171   4.690   6.071   4.430
 4424SOL    HW214172   4.772   5.950   4.503
 4425SOL     OW14173   2.023   5.685   1.386
 4425SOL    HW114174   1.943   5.684   1.326
 4425SOL    HW214175   2.089   5.752   1.351
 4426SOL     OW14176   0.961   6.942   3.780
 4426SOL    HW114177   0.876   6.941   3.832
 4426SOL    HW214178   0.994   6.849   3.768
 4427SOL     OW14179   3.565   5.955   3.024
 4427SOL    HW114180   3.545   5.858   3.009
 4427SOL    HW214181   3.657   5.964   3.061
 4428SOL     OW14182   5.668   1.063   3.599
 4428SOL    HW114183   5.694   0.998   3.670
 4428SOL    HW214184   5.690   1.025   3.509
 4429SOL     OW14185   3.143   5.932   3.462
 4429SOL    HW114186   3.179   6.005   3.405
 4429SOL    HW214187   3.143   5.846   3.410
 4430SOL     OW14188   5.348   4.877   4.563
 4430SOL    HW114189   5.262   4.828   4.548
 4430SOL    HW214190   5.333   4.975   4.548
 4431SOL     OW14191   3.551   0.750   3.703
 4431SOL    HW114192   3.538   0.803   3.619
 4431SOL    HW214193   3.478   0.773   3.768
 4432SOL     OW14194   1.425   3.253   6.078
 4432SOL    HW114195   1.512   3.223   6.039
 4432SOL    HW214196   1.350   3.207   6.031
 4433SOL     OW14197   1.313   0.887   4.621
 4433SOL    HW114198   1.248   0.812   4.632
 4433SOL    HW214199   1.264   0.972   4.602
 4434SOL     OW14200   6.681   1.651   1.573
 4434SOL    HW114201   6.773   1.690   1.583
 4434SOL    HW214202   6.653   1.609   1.659
 4435SOL     OW14203   2.609   3.820   0.251
 4435SOL    HW114204   2.683   3.794   0.313
 4435SOL    HW214205   2.568   3.906   0.281
 4436SOL     OW14206   4.467   1.779   1.431
 4436SOL    HW114207   4.427   1.865   1.461
 4436SOL    HW214208   4.398   1.725   1.382
 4437SOL     OW14209   0.471   3.683   1.954
 4437SOL    HW114210   0.421   3.744   1.893
 4437SOL    HW214211   0.414   3.662   2.034
 4438SOL     OW14212   4.309   6.860   6.057
 4438SOL    HW114213   4.266   6.852   6.147
 4438SOL    HW214214   4.354   6.950   6.049
 4439SOL     OW14215   2.388   6.623   2.479
 4439SOL    HW114216   2.427   6.572   2.556
 4439SOL    HW214217   2.417   6.718   2.484
 4440SOL     OW14218   1.700   4.753   0.662
 4440SOL    HW114219   1.795   4.782   0.653
 4440SOL    HW214220   1.646   4.829   0.698
 4441SOL     OW14221   0.692   1.536   0.058
 4441SOL    HW114222   0.717   1.502   6.991
 4441SOL    HW214223   0.769   1.523   0.120
 4442SOL     OW14224   1.837   4.679   6.547
 4442SOL    HW114225   1.870   4.721   6.462
 4442SOL    HW214226   1.850   4.580   6.543
 4443SOL     OW14227   0.403   5.019   6.807
 4443SOL    HW114228   0.448   5.099   6.846
 4443SOL    HW214229   0.402   4.945   6.875
 4444SOL     OW14230   4.993   3.864   0.319
 4444SOL    HW114231   5.070   3.892   0.375
 4444SOL    HW214232   4.951   3.782   0.359
 4445SOL     OW14233   0.455   5.518   6.898
 4445SOL    HW114234   0.367   5.566   6.890
 4445SOL    HW214235   0.525   5.568   6.847
 4446SOL     OW14236   5.031   1.122   0.650
 4446SOL    HW114237   4.971   1.197   0.679
 4446SOL    HW214238   5.076   1.083   0.729
 4447SOL     OW14239   5.426   4.903   5.396
 4447SOL    HW114240   5.370   4.830   5.435
 4447SOL    HW214241   5.413   4.907   5.297
 4448SOL     OW14242   3.299   6.629   2.373
 4448SOL    HW114243   3.231   6.577   2.424
 4448SOL    HW214244   3.258   6.662   2.288
 4449SOL     OW14245   3.588   1.205   6.374
 4449SOL    HW114246   3.500   1.199   6.420
 4449SOL    HW214247   3.620   1.300   6.376
 4450SOL     OW14248   3.522   0.530   0.051
 4450SOL    HW114249   3.490   0.483   6.993
 4450SOL    HW214250   3.587   0.472   0.100
 4451SOL     OW14251   4.823   4.471   3.862
 4451SOL    HW114252   4.908   4.456   3.912
 4451SOL    HW214253   4.760   4.525   3.918
 4452SOL     OW14254   4.882   6.333   4.229
 4452SOL    HW114255   4.783   6.321   4.218
 4452SOL    HW214256   4.902   6.354   4.324
 4453SOL     OW14257   0.189   3.203   1.304
 4453SOL    HW114258   0.285   3.178   1.314
 4453SOL    HW214259   0.169   3.219   1.207
 4454SOL     OW14260   0.888   2.256   0.473
 4454SOL    HW114261   0.839   2.267   0.559
 4454SOL    HW214262   0.821   2.239   0.400
 4455SOL     OW14263   6.886   6.011   5.061
 4455SOL    HW114264   6.833   5.929   5.039
 4455SOL    HW214265   6.848   6.053   5.144
 4456SOL     OW14266   1.797   6.893   4.135
 4456SOL    HW114267   1.855   6.962   4.092
 4456SOL    HW214268   1.706   6.895   4.093
 4457SOL     OW14269   1.340   1.790   4.598
 4457SOL    HW114270   1.334   1.833   4.688
 4457SOL    HW214271   1.429   1.809   4.558
 4458SOL     OW14272   1.945   3.738   1.386
 4458SOL    HW114273   2.044   3.749   1.398
 4458SOL    HW214274   1.926   3.645   1.353
 4459SOL     OW14275   1.765   2.655   4.076
 4459SOL    HW114276   1.717   2.719   4.135
 4459SOL    HW214277   1.760   2.686   3.981
 4460SOL     OW14278   0.306   3.663   4.026
 4460SOL    HW114279   0.235   3.707   3.971
 4460SOL    HW214280   0.378   3.729   4.046
 4461SOL     OW14281   2.501   1.082   1.556
 4461SOL    HW114282   2.563   1.090   1.477
 4461SOL    HW214283   2.534   1.009   1.616
 4462SOL     OW14284   6.229   4.350   1.754
 4462SOL    HW114285   6.247   4.448   1.768
 4462SOL    HW214286   6.189   4.311   1.836
 4463SOL     OW14287   6.003   2.179   1.423
 4463SOL    HW114288   5.989   2.081   1.406
 4463SOL    HW214289   5.915   2.226   1.418
 4464SOL     OW14290   0.508   5.499   0.632
 4464SOL    HW114291   0.470   5.429   0.571
 4464SOL    HW214292   0.600   5.524   0.601
 4465SOL     OW14293   2.447   5.818   0.180
 4465SOL    HW114294   2.373   5.788   0.240
 4465SOL    HW214295   2.449   5.759   0.098
 4466SOL     OW14296   1.817   2.022   3.675
 4466SOL    HW114297   1.721   2.024   3.647
 4466SOL    HW214298   1.852   1.929   3.668
 4467SOL     OW14299   3.531   5.682   3.004
 4467SOL    HW114300   3.606   5.652   2.947
 4467SOL    HW214301   3.556   5.672   3.101
 4468SOL     OW14302   1.338   3.249   2.155
 4468SOL    HW114303   1.246   3.282   2.132
 4468SOL    HW214304   1.389   3.322   2.200
 4469SOL     OW14305   2.568   0.208   1.429
 4469SOL    HW114306   2.543   0.224   1.334
 4469SOL    HW214307   2.511   0.135   1.467
 4470SOL     OW14308   1.546   0.181   2.117
 4470SOL    HW114309   1.640   0.207   2.097
 4470SOL    HW214310   1.486   0.215   2.043
 4471SOL     OW14311   1.733   1.730   6.117
 4471SOL    HW114312   1.782   1.816   6.127
 4471SOL    HW214313   1.683   1.729   6.030
 4472SOL     OW14314   1.720   3.163   1.113
 4472SOL    HW114315   1.639   3.106   1.102
 4472SOL    HW214316   1.779   3.125   1.184
 4473SOL     OW14317   0.082   3.323   4.464
 4473SOL    HW114318   0.061   3.348   4.558
 4473SOL    HW214319   0.175   3.288   4.459
 4474SOL     OW14320   3.071   0.553   1.518
 4474SOL    HW114321   3.129   0.532   1.440
 4474SOL    HW214322   3.097   0.642   1.556
 4475SOL     OW14323   0.948   3.813   1.892
 4475SOL    HW114324   0.955   3.715   1.908
 4475SOL    HW214325   0.870   3.850   1.942
 4476SOL     OW14326   5.169   1.683   3.853
 4476SOL    HW114327   5.254   1.718   3.813
 4476SOL    HW214328   5.096   1.749   3.840
 4477SOL     OW14329   2.150   0.238   5.883
 4477SOL    HW114330   2.056   0.236   5.916
 4477SOL    HW214331   2.212   0.253   5.960
 4478SOL     OW14332   1.596   0.318   0.516
 4478SOL    HW114333   1.515   0.262   0.532
 4478SOL    HW214334   1.635   0.295   0.427
 4479SOL     OW14335   0.637   3.045   0.733
 4479SOL    HW114336   0.651   3.023   0.829
 4479SOL    HW214337   0.722   3.083   0.695
 4480SOL     OW14338   6.987   6.415   4.287
 4480SOL    HW114339   6.916   6.474   4.324
 4480SOL    HW214340   7.016   6.349   4.356
 4481SOL     OW14341   2.848   4.775   5.992
 4481SOL    HW114342   2.796   4.741   6.070
 4481SOL    HW214343   2.820   4.869   5.972
 4482SOL     OW14344   2.881   5.393   6.581
 4482SOL    HW114345   2.829   5.316   6.619
 4482SOL    HW214346   2.946   5.358   6.513
 4483SOL     OW14347   0.661   2.823   1.908
 4483SOL    HW114348   0.625   2.848   1.998
 4483SOL    HW214349   0.757   2.852   1.901
 4484SOL     OW14350   2.453   2.541   6.670
 4484SOL    HW114351   2.457   2.468   6.602
 4484SOL    HW214352   2.413   2.507   6.754
 4485SOL     OW14353   5.328   2.646   4.549
 4485SOL    HW114354   5.331   2.568   4.487
 4485SOL    HW214355   5.384   2.627   4.630
 4486SOL     OW14356   4.645   5.092   5.158
 4486SOL    HW114357   4.598   5.019   5.109
 4486SOL    HW214358   4.612   5.181   5.125
 4487SOL     OW14359   1.305   2.477   7.012
 4487SOL    HW114360   1.361   2.538   0.045
 4487SOL    HW214361   1.361   2.402   6.977
 4488SOL     OW14362   0.547   4.280   4.429
 4488SOL    HW114363   0.468   4.309   4.485
 4488SOL    HW214364   0.515   4.220   4.356
 4489SOL     OW14365   4.537   5.344   5.540
 4489SOL    HW114366   4.580   5.355   5.629
 4489SOL    HW214367   4.608   5.337   5.469
 4490SOL     OW14368   5.056   1.753   1.021
 4490SOL    HW114369   5.050   1.686   1.095
 4490SOL    HW214370   5.061   1.845   1.060
 4491SOL     OW14371   1.182   2.690   3.413
 4491SOL    HW114372   1.248   2.637   3.359
 4491SOL    HW214373   1.103   2.713   3.356
 4492SOL     OW14374   5.717   0.434   1.876
 4492SOL    HW114375   5.694   0.456   1.971
 4492SOL    HW214376   5.813   0.454   1.859
 4493SOL     OW14377   5.104   0.969   5.167
 4493SOL    HW114378   5.024   0.909   5.173
 4493SOL    HW214379   5.140   0.967   5.074
 4494SOL     OW14380   0.384   0.644   0.262
 4494SOL    HW114381   0.426   0.591   0.188
 4494SOL    HW214382   0.286   0.652   0.245
 4495SOL     OW14383   4.200   6.039   2.115
 4495SOL    HW114384   4.104   6.064   2.100
 4495SOL    HW214385   4.247   6.034   2.027
 4496SOL     OW14386   3.752   5.911   6.503
 4496SOL    HW114387   3.762   5.843   6.430
 4496SOL    HW214388   3.828   5.976   6.499
 4497SOL     OW14389   3.885   1.814   6.190
 4497SOL    HW114390   3.797   1.861   6.186
 4497SOL    HW214391   3.958   1.881   6.205
 4498SOL     OW14392   0.537   5.222   5.723
 4498SOL    HW114393   0.603   5.170   5.668
 4498SOL    HW214394   0.450   5.174   5.725
 4499SOL     OW14395   6.004   1.965   2.471
 4499SOL    HW114396   6.034   1.990   2.378
 4499SOL    HW214397   6.058   2.017   2.538
 4500SOL     OW14398   3.434   5.665   6.969
 4500SOL    HW114399   3.517   5.675   0.001
 4500SOL    HW214400   3.376   5.745   6.980
 4501SOL     OW14401   5.343   1.410   1.942
 4501SOL    HW114402   5.347   1.311   1.958
 4501SOL    HW214403   5.344   1.429   1.844
 4502SOL     OW14404   0.369   3.290   6.859
 4502SOL    HW114405   0.394   3.228   6.933
 4502SOL    HW214406   0.384   3.384   6.888
 4503SOL     OW14407   2.967   0.029   2.190
 4503SOL    HW114408   2.970   6.981   2.260
 4503SOL    HW214409   3.040   0.094   2.206
 4504SOL     OW14410   0.605   1.858   3.282
 4504SOL    HW114411   0.529   1.903   3.329
 4504SOL    HW214412   0.598   1.877   3.184
 4505SOL     OW14413   5.623   3.574   2.764
 4505SOL    HW114414   5.569   3.615   2.690
 4505SOL    HW214415   5.611   3.475   2.763
 4506SOL     OW14416   4.858   3.099   4.522
 4506SOL    HW114417   4.819   3.008   4.511
 4506SOL    HW214418   4.834   3.136   4.611
 4507SOL     OW14419   6.470   3.185   3.148
 4507SOL    HW114420   6.463   3.269   3.201
 4507SOL    HW214421   6.556   3.139   3.170
 4508SOL     OW14422   1.078   5.219   0.588
 4508SOL    HW114423   0.987   5.182   0.569
 4508SOL    HW214424   1.136   5.209   0.507
 4509SOL     OW14425   4.578   2.359   2.807
 4509SOL    HW114426   4.667   2.315   2.817
 4509SOL    HW214427   4.544   2.345   2.714
 4510SOL     OW14428   4.673   1.373   4.538
 4510SOL    HW114429   4.585   1.394   4.581
 4510SOL    HW214430   4.738   1.342   4.607
 4511SOL     OW14431   0.678   4.620   0.982
 4511SOL    HW114432   0.590   4.649   0.944
 4511SOL    HW214433   0.744   4.695   0.974
 4512SOL     OW14434   3.458   2.506   6.038
 4512SOL    HW114435   3.439   2.460   5.951
 4512SOL    HW214436   3.489   2.439   6.105
 4513SOL     OW14437   1.413   6.576   0.302
 4513SOL    HW114438   1.394   6.478   0.307
 4513SOL    HW214439   1.506   6.594   0.334
 4514SOL     OW14440   3.110   3.675   6.828
 4514SOL    HW114441   3.062   3.672   6.741
 4514SOL    HW214442   3.147   3.767   6.843
 4515SOL     OW14443   4.627   0.056   5.875
 4515SOL    HW114444   4.683   7.017   5.930
 4515SOL    HW214445   4.680   0.087   5.796
 4516SOL     OW14446   3.804   1.566   5.272
 4516SOL    HW114447   3.840   1.535   5.184
 4516SOL    HW214448   3.828   1.663   5.285
 4517SOL     OW14449   4.010   0.866   5.979
 4517SOL    HW114450   4.077   0.796   6.003
 4517SOL    HW214451   3.954   0.833   5.904
 4518SOL     OW14452   1.733   0.225   0.960
 4518SOL    HW114453   1.756   0.145   1.014
 4518SOL    HW214454   1.701   0.298   1.020
 4519SOL     OW14455   5.591   6.704   6.371
 4519SOL    HW114456   5.634   6.666   6.453
 4519SOL    HW214457   5.536   6.783   6.397
 4520SOL     OW14458   3.966   6.643   5.234
 4520SOL    HW114459   4.001   6.700   5.159
 4520SOL    HW214460   3.887   6.592   5.203
 4521SOL     OW14461   4.812   3.051   4.781
 4521SOL    HW114462   4.761   2.978   4.825
 4521SOL    HW214463   4.864   3.102   4.850
 4522SOL     OW14464   4.926   4.007   3.103
 4522SOL    HW114465   4.841   4.058   3.119
 4522SOL    HW214466   4.997   4.041   3.165
 4523SOL     OW14467   0.261   3.489   6.599
 4523SOL    HW114468   0.346   3.451   6.563
 4523SOL    HW214469   0.196   3.416   6.619
 4524SOL     OW14470   0.352   3.304   2.977
 4524SOL    HW114471   0.350   3.370   3.052
 4524SOL    HW214472   0.260   3.266   2.963
 4525SOL     OW14473   2.168   2.170   5.289
 4525SOL    HW114474   2.118   2.128   5.364
 4525SOL    HW214475   2.229   2.241   5.324
 4526SOL     OW14476   0.870   6.935   5.870
 4526SOL    HW114477   0.958   6.886   5.870
 4526SOL    HW214478   0.806   6.889   5.931
 4527SOL     OW14479   6.062   7.001   3.528
 4527SOL    HW114480   6.022   7.017   3.618
 4527SOL    HW214481   6.019   0.037   3.461
 4528SOL     OW14482   3.575   0.871   5.712
 4528SOL    HW114483   3.620   0.942   5.658
 4528SOL    HW214484   3.496   0.910   5.760
 4529SOL     OW14485   2.852   1.189   5.432
 4529SOL    HW114486   2.866   1.136   5.515
 4529SOL    HW214487   2.871   1.285   5.449
 4530SOL     OW14488   2.730   5.930   5.121
 4530SOL    HW114489   2.776   5.856   5.169
 4530SOL    HW214490   2.662   5.892   5.058
 4531SOL     OW14491   0.939   5.102   6.032
 4531SOL    HW114492   1.033   5.131   6.044
 4531SOL    HW214493   0.908   5.125   5.940
 4532SOL     OW14494   5.678   0.772   2.877
 4532SOL    HW114495   5.713   0.679   2.864
 4532SOL    HW214496   5.754   0.837   2.875
 4533SOL     OW14497   2.458   0.718   2.283
 4533SOL    HW114498   2.484   0.809   2.252
 4533SOL    HW214499   2.496   0.649   2.221
 4534SOL     OW14500   4.654   1.832   3.871
 4534SOL    HW114501   4.733   1.808   3.815
 4534SOL    HW214502   4.574   1.847   3.813
 4535SOL     OW14503   2.866   1.688   0.377
 4535SOL    HW114504   2.834   1.625   0.306
 4535SOL    HW214505   2.953   1.655   0.414
 4536SOL     OW14506   2.977   1.541   5.959
 4536SOL    HW114507   3.030   1.500   5.885
 4536SOL    HW214508   2.966   1.475   6.033
 4537SOL     OW14509   3.863   3.912   4.139
 4537SOL    HW114510   3.779   3.862   4.118
 4537SOL    HW214511   3.847   3.971   4.218
 4538SOL     OW14512   6.744   2.503   0.783
 4538SOL    HW114513   6.747   2.404   0.769
 4538SOL    HW214514   6.651   2.536   0.770
 4539SOL     OW14515   1.039   5.600   5.945
 4539SOL    HW114516   0.962   5.625   6.004
 4539SOL    HW214517   1.051   5.670   5.874
 4540SOL     OW14518   0.347   1.139   0.521
 4540SOL    HW114519   0.340   1.073   0.446
 4540SOL    HW214520   0.428   1.119   0.576
 4541SOL     OW14521   4.294   2.183   5.769
 4541SOL    HW114522   4.313   2.242   5.848
 4541SOL    HW214523   4.367   2.194   5.701
 4542SOL     OW14524   0.128   2.778   1.530
 4542SOL    HW114525   0.161   2.739   1.444
 4542SOL    HW214526   0.110   2.876   1.518
 4543SOL     OW14527   3.512   2.204   6.813
 4543SOL    HW114528   3.557   2.205   6.902
 4543SOL    HW214529   3.414   2.219   6.824
 4544SOL     OW14530   6.020   5.397   0.759
 4544SOL    HW114531   5.935   5.450   0.758
 4544SOL    HW214532   6.002   5.305   0.725
 4545SOL     OW14533   1.902   3.102   5.272
 4545SOL    HW114534   1.943   3.070   5.186
 4545SOL    HW214535   1.969   3.093   5.346
 4546SOL     OW14536   2.399   1.461   6.764
 4546SOL    HW114537   2.311   1.488   6.724
 4546SOL    HW214538   2.465   1.444   6.691
 4547SOL     OW14539   6.461   0.323   0.325
 4547SOL    HW114540   6.485   0.251   0.259
 4547SOL    HW214541   6.520   0.402   0.309
 4548SOL     OW14542   2.167   3.189   3.100
 4548SOL    HW114543   2.220   3.183   3.185
 4548SOL    HW214544   2.071   3.168   3.119
 4549SOL     OW14545   6.052   3.776   3.209
 4549SOL    HW114546   6.022   3.705   3.274
 4549SOL    HW214547   5.984   3.848   3.204
 4550SOL     OW14548   0.799   4.580   2.938
 4550SOL    HW114549   0.718   4.535   2.901
 4550SOL    HW214550   0.871   4.513   2.952
 4551SOL     OW14551   1.122   3.437   4.745
 4551SOL    HW114552   1.176   3.473   4.668
 4551SOL    HW214553   1.026   3.427   4.717
 4552SOL     OW14554   5.591   1.063   1.062
 4552SOL    HW114555   5.592   0.970   1.100
 4552SOL    HW214556   5.626   1.060   0.968
 4553SOL     OW14557   5.968   5.313   5.915
 4553SOL    HW114558   5.879   5.271   5.934
 4553SOL    HW214559   6.020   5.322   5.999
 4554SOL     OW14560   0.808   6.188   2.034
 4554SOL    HW114561   0.853   6.260   2.087
 4554SOL    HW214562   0.718   6.220   2.004
 4555SOL     OW14563   0.718   1.188   6.857
 4555SOL    HW114564   0.626   1.213   6.827
 4555SOL    HW214565   0.779   1.267   6.845
 4556SOL     OW14566   5.937   3.539   5.726
 4556SOL    HW114567   5.985   3.496   5.649
 4556SOL    HW214568   6.004   3.581   5.787
 4557SOL     OW14569   6.264   4.943   3.009
 4557SOL    HW114570   6.248   5.033   3.050
 4557SOL    HW214571   6.177   4.894   3.002
 4558SOL     OW14572   7.024   3.252   5.322
 4558SOL    HW114573   6.935   3.210   5.342
 4558SOL    HW214574   0.073   3.196   5.360
 4559SOL     OW14575   0.092   2.786   2.608
 4559SOL    HW114576   0.008   2.785   2.553
 4559SOL    HW214577   0.089   2.862   2.673
 4560SOL     OW14578   5.856   4.582   2.752
 4560SOL    HW114579   5.949   4.556   2.779
 4560SOL    HW214580   5.859   4.645   2.675
 4561SOL     OW14581   3.556   2.141   4.539
 4561SOL    HW114582   3.470   2.158   4.489
 4561SOL    HW214583   3.622   2.100   4.476
 4562SOL     OW14584   2.466   1.143   1.058
 4562SOL    HW114585   2.515   1.143   1.145
 4562SOL    HW214586   2.426   1.053   1.043
 4563SOL     OW14587   0.217   3.256   1.755
 4563SOL    HW114588   0.123   3.244   1.724
 4563SOL    HW214589   0.222   3.245   1.854
 4564SOL     OW14590   0.227   4.261   2.025
 4564SOL    HW114591   0.227   4.297   2.118
 4564SOL    HW214592   0.146   4.202   2.012
 4565SOL     OW14593   1.916   6.302   5.186
 4565SOL    HW114594   1.952   6.317   5.278
 4565SOL    HW214595   1.819   6.327   5.184
 4566SOL     OW14596   6.554   4.338   1.901
 4566SOL    HW114597   6.468   4.315   1.946
 4566SOL    HW214598   6.624   4.270   1.925
 4567SOL     OW14599   0.559   0.417   6.453
 4567SOL    HW114600   0.518   0.402   6.363
 4567SOL    HW214601   0.509   0.490   6.500
 4568SOL     OW14602   0.590   5.367   3.688
 4568SOL    HW114603   0.628   5.298   3.627
 4568SOL    HW214604   0.610   5.459   3.652
 4569SOL     OW14605   2.785   1.117   3.238
 4569SOL    HW114606   2.692   1.143   3.261
 4569SOL    HW214607   2.792   1.102   3.139
 4570SOL     OW14608   6.256   5.548   1.621
 4570SOL    HW114609   6.191   5.551   1.546
 4570SOL    HW214610   6.222   5.603   1.697
 4571SOL     OW14611   3.673   3.108   6.565
 4571SOL    HW114612   3.666   3.078   6.661
 4571SOL    HW214613   3.738   3.183   6.559
 4572SOL     OW14614   2.865   3.041   1.291
 4572SOL    HW114615   2.837   3.052   1.387
 4572SOL    HW214616   2.925   2.962   1.282
 4573SOL     OW14617   1.698   6.150   1.331
 4573SOL    HW114618   1.668   6.122   1.240
 4573SOL    HW214619   1.687   6.074   1.394
 4574SOL     OW14620   5.792   2.237   1.102
 4574SOL    HW114621   5.737   2.284   1.172
 4574SOL    HW214622   5.737   2.167   1.057
 4575SOL     OW14623   6.476   0.271   4.129
 4575SOL    HW114624   6.573   0.254   4.146
 4575SOL    HW214625   6.446   0.215   4.052
 4576SOL     OW14626   2.549   4.949   5.157
 4576SOL    HW114627   2.464   4.990   5.189
 4576SOL    HW214628   2.619   4.959   5.227
 4577SOL     OW14629   1.850   1.458   3.037
 4577SOL    HW114630   1.871   1.527   2.968
 4577SOL    HW214631   1.815   1.376   2.992
 4578SOL     OW14632   1.207   1.076   1.911
 4578SOL    HW114633   1.191   1.014   1.834
 4578SOL    HW214634   1.301   1.066   1.942
 4579SOL     OW14635   3.444   0.699   2.306
 4579SOL    HW114636   3.493   0.728   2.388
 4579SOL    HW214637   3.510   0.669   2.237
 4580SOL     OW14638   6.722   2.948   0.358
 4580SOL    HW114639   6.754   2.894   0.436
 4580SOL    HW214640   6.753   3.042   0.368
 4581SOL     OW14641   3.533   7.008   1.712
 4581SOL    HW114642   3.475   0.065   1.701
 4581SOL    HW214643   3.615   0.009   1.764
 4582SOL     OW14644   5.892   0.968   2.852
 4582SOL    HW114645   5.885   1.067   2.838
 4582SOL    HW214646   5.958   0.950   2.925
 4583SOL     OW14647   1.902   6.819   6.698
 4583SOL    HW114648   1.862   6.873   6.624
 4583SOL    HW214649   1.956   6.744   6.659
 4584SOL     OW14650   1.298   0.565   5.721
 4584SOL    HW114651   1.219   0.572   5.659
 4584SOL    HW214652   1.279   0.495   5.790
 4585SOL     OW14653   1.115   3.782   3.015
 4585SOL    HW114654   1.058   3.711   2.972
 4585SOL    HW214655   1.125   3.859   2.951
 4586SOL     OW14656   5.298   4.706   6.629
 4586SOL    HW114657   5.282   4.760   6.547
 4586SOL    HW214658   5.214   4.659   6.655
 4587SOL     OW14659   3.174   4.057   4.246
 4587SOL    HW114660   3.162   4.147   4.288
 4587SOL    HW214661   3.113   3.992   4.290
 4588SOL     OW14662   2.499   3.981   5.845
 4588SOL    HW114663   2.577   4.036   5.814
 4588SOL    HW214664   2.532   3.893   5.879
 4589SOL     OW14665   5.328   6.809   2.514
 4589SOL    HW114666   5.401   6.812   2.582
 4589SOL    HW214667   5.244   6.778   2.556
 4590SOL     OW14668   3.440   5.359   1.786
 4590SOL    HW114669   3.475   5.447   1.754
 4590SOL    HW214670   3.509   5.316   1.845
 4591SOL     OW14671   2.198   0.395   5.050
 4591SOL    HW114672   2.102   0.407   5.025
 4591SOL    HW214673   2.204   0.366   5.146
 4592SOL     OW14674   2.639   1.474   4.559
 4592SOL    HW114675   2.623   1.565   4.598
 4592SOL    HW214676   2.571   1.410   4.595
 4593SOL     OW14677   0.876   5.795   4.326
 4593SOL    HW114678   0.803   5.813   4.393
 4593SOL    HW214679   0.836   5.787   4.235
 4594SOL     OW14680   1.976   0.307   2.671
 4594SOL    HW114681   2.060   0.337   2.625
 4594SOL    HW214682   2.000   0.255   2.753
 4595SOL     OW14683   4.865   1.875   6.004
 4595SOL    HW114684   4.873   1.777   6.024
 4595SOL    HW214685   4.892   1.927   6.086
 4596SOL     OW14686   1.139   1.054   2.183
 4596SOL    HW114687   1.213   1.090   2.239
 4596SOL    HW214688   1.160   1.066   2.086
 4597SOL     OW14689   3.002   5.931   6.953
 4597SOL    HW114690   3.095   5.922   6.990
 4597SOL    HW214691   2.975   6.028   6.955
 4598SOL     OW14692   2.037   5.774   6.873
 4598SOL    HW114693   2.003   5.860   6.836
 4598SOL    HW214694   1.971   5.738   6.939
 4599SOL     OW14695   1.653   5.097   2.810
 4599SOL    HW114696   1.747   5.108   2.842
 4599SOL    HW214697   1.617   5.009   2.841
 4600SOL     OW14698   6.823   6.304   5.835
 4600SOL    HW114699   6.907   6.347   5.802
 4600SOL    HW214700   6.825   6.300   5.935
 4601SOL     OW14701   1.139   1.087   4.558
 4601SOL    HW114702   1.058   1.030   4.547
 4601SOL    HW214703   1.115   1.171   4.606
 4602SOL     OW14704   2.854   1.374   6.952
 4602SOL    HW114705   2.858   1.328   0.017
 4602SOL    HW214706   2.770   1.429   6.947
 4603SOL     OW14707   4.632   6.004   0.949
 4603SOL    HW114708   4.707   5.993   0.883
 4603SOL    HW214709   4.565   6.069   0.913
 4604SOL     OW14710   5.188   0.431   6.192
 4604SOL    HW114711   5.110   0.493   6.186
 4604SOL    HW214712   5.184   0.364   6.118
 4605SOL     OW14713   3.215   0.149   2.213
 4605SOL    HW114714   3.222   0.188   2.121
 4605SOL    HW214715   3.291   0.086   2.228
 4606SOL     OW14716   6.552   6.728   3.363
 4606SOL    HW114717   6.557   6.671   3.281
 4606SOL    HW214718   6.643   6.766   3.382
 4607SOL     OW14719   1.782   2.868   2.463
 4607SOL    HW114720   1.855   2.884   2.529
 4607SOL    HW214721   1.783   2.939   2.393
 4608SOL     OW14722   0.072   3.637   4.728
 4608SOL    HW114723   0.168   3.638   4.700
 4608SOL    HW214724   0.028   3.723   4.699
 4609SOL     OW14725   4.819   6.278   6.988
 4609SOL    HW114726   4.739   6.337   6.981
 4609SOL    HW214727   4.837   6.234   6.900
 4610SOL     OW14728   5.182   2.567   0.977
 4610SOL    HW114729   5.092   2.579   1.019
 4610SOL    HW214730   5.253   2.583   1.045
 4611SOL     OW14731   1.006   0.506   5.734
 4611SOL    HW114732   1.013   0.598   5.772
 4611SOL    HW214733   0.992   0.440   5.807
 4612SOL     OW14734   1.598   6.834   2.077
 4612SOL    HW114735   1.550   6.752   2.044
 4612SOL    HW214736   1.531   6.899   2.114
 4613SOL     OW14737   1.531   5.071   1.799
 4613SOL    HW114738   1.532   5.166   1.831
 4613SOL    HW214739   1.436   5.039   1.792
 4614SOL     OW14740   6.747   3.794   4.963
 4614SOL    HW114741   6.836   3.837   4.975
 4614SOL    HW214742   6.723   3.742   5.046
 4615SOL     OW14743   0.738   2.671   1.252
 4615SOL    HW114744   0.811   2.615   1.212
 4615SOL    HW214745   0.694   2.620   1.326
 4616SOL     OW14746   6.221   3.088   4.725
 4616SOL    HW114747   6.137   3.138   4.748
 4616SOL    HW214748   6.275   3.141   4.659
 4617SOL     OW14749   0.428   2.176   2.698
 4617SOL    HW114750   0.516   2.129   2.693
 4617SOL    HW214751   0.364   2.135   2.632
 4618SOL     OW14752   2.670   4.187   5.714
 4618SOL    HW114753   2.607   4.238   5.656
 4618SOL    HW214754   2.755   4.171   5.664
 4619SOL     OW14755   3.451   5.965   5.275
 4619SOL    HW114756   3.425   6.050   5.321
 4619SOL    HW214757   3.373   5.929   5.224
 4620SOL     OW14758   0.822   5.784   2.596
 4620SOL    HW114759   0.868   5.872   2.591
 4620SOL    HW214760   0.834   5.735   2.510
 4621SOL     OW14761   5.107   0.445   2.460
 4621SOL    HW114762   5.044   0.503   2.409
 4621SOL    HW214763   5.189   0.498   2.484
 4622SOL     OW14764   4.567   5.821   1.114
 4622SOL    HW114765   4.614   5.882   1.051
 4622SOL    HW214766   4.620   5.812   1.198
 4623SOL     OW14767   2.878   5.184   1.126
 4623SOL    HW114768   2.918   5.093   1.112
 4623SOL    HW214769   2.802   5.177   1.191
 4624SOL     OW14770   4.002   1.209   2.817
 4624SOL    HW114771   3.937   1.196   2.892
 4624SOL    HW214772   4.035   1.121   2.785
 4625SOL     OW14773   2.106   5.362   1.825
 4625SOL    HW114774   2.098   5.399   1.917
 4625SOL    HW214775   2.181   5.407   1.777
 4626SOL     OW14776   3.855   3.720   1.655
 4626SOL    HW114777   3.847   3.624   1.626
 4626SOL    HW214778   3.863   3.778   1.574
 4627SOL     OW14779   6.358   6.852   5.026
 4627SOL    HW114780   6.330   6.942   4.992
 4627SOL    HW214781   6.442   6.824   4.981
 4628SOL     OW14782   5.275   5.476   3.820
 4628SOL    HW114783   5.363   5.497   3.861
 4628SOL    HW214784   5.230   5.403   3.872
 4629SOL     OW14785   1.908   5.989   6.774
 4629SOL    HW114786   1.868   5.996   6.682
 4629SOL    HW214787   1.963   6.070   6.793
 4630SOL     OW14788   1.732   3.928   2.091
 4630SOL    HW114789   1.794   4.005   2.072
 4630SOL    HW214790   1.669   3.954   2.164
 4631SOL     OW14791   0.325   0.570   3.590
 4631SOL    HW114792   0.229   0.550   3.605
 4631SOL    HW214793   0.340   0.593   3.494
 4632SOL     OW14794   3.433   4.904   2.553
 4632SOL    HW114795   3.465   4.947   2.468
 4632SOL    HW214796   3.336   4.883   2.545
 4633SOL     OW14797   5.060   1.234   4.328
 4633SOL    HW114798   4.979   1.181   4.353
 4633SOL    HW214799   5.041   1.332   4.342
 4634SOL     OW14800   3.225   3.612   5.089
 4634SOL    HW114801   3.214   3.679   5.015
 4634SOL    HW214802   3.199   3.521   5.056
 4635SOL     OW14803   5.163   5.595   0.752
 4635SOL    HW114804   5.255   5.559   0.766
 4635SOL    HW214805   5.122   5.550   0.673
 4636SOL     OW14806   2.018   5.799   0.215
 4636SOL    HW114807   2.073   5.752   0.284
 4636SOL    HW214808   1.941   5.741   0.189
 4637SOL     OW14809   1.761   6.983   2.376
 4637SOL    HW114810   1.775   7.008   2.280
 4637SOL    HW214811   1.663   6.970   2.393
 4638SOL     OW14812   3.455   5.345   0.195
 4638SOL    HW114813   3.492   5.368   0.105
 4638SOL    HW214814   3.356   5.343   0.191
 4639SOL     OW14815   2.135   2.369   0.860
 4639SOL    HW114816   2.128   2.463   0.893
 4639SOL    HW214817   2.074   2.311   0.913
 4640SOL     OW14818   6.606   2.994   5.532
 4640SOL    HW114819   6.533   3.061   5.545
 4640SOL    HW214820   6.565   2.905   5.510
 4641SOL     OW14821   0.612   5.426   4.344
 4641SOL    HW114822   0.688   5.395   4.288
 4641SOL    HW214823   0.555   5.347   4.370
 4642SOL     OW14824   0.799   1.474   3.579
 4642SOL    HW114825   0.885   1.454   3.626
 4642SOL    HW214826   0.783   1.573   3.579
 4643SOL     OW14827   0.208   1.953   6.854
 4643SOL    HW114828   0.263   2.010   6.916
 4643SOL    HW214829   0.262   1.872   6.828
 4644SOL     OW14830   1.510   0.821   0.694
 4644SOL    HW114831   1.453   0.901   0.677
 4644SOL    HW214832   1.588   0.847   0.751
 4645SOL     OW14833   1.710   1.054   3.534
 4645SOL    HW114834   1.791   1.020   3.485
 4645SOL    HW214835   1.740   1.109   3.612
 4646SOL     OW14836   2.086   5.068   3.745
 4646SOL    HW114837   2.011   5.078   3.681
 4646SOL    HW214838   2.098   5.152   3.797
 4647SOL     OW14839   1.396   6.590   3.041
 4647SOL    HW114840   1.386   6.549   2.951
 4647SOL    HW214841   1.306   6.608   3.080
 4648SOL     OW14842   2.898   1.372   4.600
 4648SOL    HW114843   2.809   1.403   4.568
 4648SOL    HW214844   2.904   1.273   4.592
 4649SOL     OW14845   5.876   0.333   0.439
 4649SOL    HW114846   5.849   0.428   0.456
 4649SOL    HW214847   5.810   0.271   0.481
 4650SOL     OW14848   5.406   6.502   1.485
 4650SOL    HW114849   5.435   6.537   1.396
 4650SOL    HW214850   5.342   6.566   1.527
 4651SOL     OW14851   5.927   2.688   5.821
 4651SOL    HW114852   5.911   2.754   5.747
 4651SOL    HW214853   6.019   2.650   5.812
 4652SOL     OW14854   0.189   6.549   4.211
 4652SOL    HW114855   0.244   6.506   4.283
 4652SOL    HW214856   0.095   6.516   4.217
 4653SOL     OW14857   5.480   5.712   0.964
 4653SOL    HW114858   5.505   5.755   0.877
 4653SOL    HW214859   5.381   5.696   0.966
 4654SOL     OW14860   0.422   6.480   5.242
 4654SOL    HW114861   0.401   6.398   5.296
 4654SOL    HW214862   0.505   6.464   5.188
 4655SOL     OW14863   4.571   2.617   1.229
 4655SOL    HW114864   4.510   2.555   1.181
 4655SOL    HW214865   4.596   2.577   1.317
 4656SOL     OW14866   0.803   1.392   1.291
 4656SOL    HW114867   0.818   1.387   1.390
 4656SOL    HW214868   0.763   1.306   1.259
 4657SOL     OW14869   5.251   6.455   2.187
 4657SOL    HW114870   5.169   6.447   2.130
 4657SOL    HW214871   5.331   6.429   2.133
 4658SOL     OW14872   2.998   2.411   5.772
 4658SOL    HW114873   3.017   2.508   5.760
 4658SOL    HW214874   3.070   2.370   5.829
 4659SOL     OW14875   3.759   4.772   0.777
 4659SOL    HW114876   3.817   4.723   0.711
 4659SOL    HW214877   3.740   4.864   0.742
 4660SOL     OW14878   1.047   6.598   4.238
 4660SOL    HW114879   0.999   6.654   4.170
 4660SOL    HW214880   1.047   6.503   4.207
 4661SOL     OW14881   1.615   3.395   5.717
 4661SOL    HW114882   1.518   3.396   5.741
 4661SOL    HW214883   1.640   3.481   5.673
 4662SOL     OW14884   2.558   6.434   4.857
 4662SOL    HW114885   2.592   6.344   4.885
 4662SOL    HW214886   2.504   6.473   4.931
 4663SOL     OW14887   1.151   6.693   6.944
 4663SOL    HW114888   1.115   6.748   7.018
 4663SOL    HW214889   1.245   6.665   6.965
 4664SOL     OW14890   6.174   6.408   0.357
 4664SOL    HW114891   6.231   6.490   0.366
 4664SOL    HW214892   6.214   6.334   0.411
 4665SOL     OW14893   2.497   0.646   4.505
 4665SOL    HW114894   2.572   0.596   4.462
 4665SOL    HW214895   2.410   0.617   4.465
 4666SOL     OW14896   2.018   2.025   5.489
 4666SOL    HW114897   2.063   1.939   5.511
 4666SOL    HW214898   1.978   2.064   5.572
 4667SOL     OW14899   6.900   3.990   1.613
 4667SOL    HW114900   6.800   3.990   1.620
 4667SOL    HW214901   6.928   4.048   1.536
 4668SOL     OW14902   4.452   2.414   4.638
 4668SOL    HW114903   4.428   2.338   4.699
 4668SOL    HW214904   4.400   2.407   4.553
 4669SOL     OW14905   5.591   6.986   7.013
 4669SOL    HW114906   5.516   7.023   0.044
 4669SOL    HW214907   5.556   6.916   6.951
 4670SOL     OW14908   0.689   3.373   0.959
 4670SOL    HW114909   0.750   3.452   0.964
 4670SOL    HW214910   0.691   3.335   0.866
 4671SOL     OW14911   0.148   3.848   0.115
 4671SOL    HW114912   0.073   3.887   0.168
 4671SOL    HW214913   0.204   3.923   0.078
 4672SOL     OW14914   3.233   3.939   5.797
 4672SOL    HW114915   3.233   3.884   5.714
 4672SOL    HW214916   3.149   3.993   5.801
 4673SOL     OW14917   6.166   0.260   0.051
 4673SOL    HW114918   6.138   0.262   0.146
 4673SOL    HW214919   6.236   0.330   0.036
 4674SOL     OW14920   0.566   2.018   0.339
 4674SOL    HW114921   0.623   2.091   0.301
 4674SOL    HW214922   0.542   2.040   0.433
 4675SOL     OW14923   2.675   6.493   6.971
 4675SOL    HW114924   2.672   6.396   6.996
 4675SOL    HW214925   2.595   6.517   6.916
 4676SOL     OW14926   0.894   5.955   3.480
 4676SOL    HW114927   0.938   5.989   3.563
 4676SOL    HW214928   0.879   6.030   3.416
 4677SOL     OW14929   4.305   0.543   6.293
 4677SOL    HW114930   4.352   0.629   6.316
 4677SOL    HW214931   4.259   0.508   6.374
 4678SOL     OW14932   1.965   4.813   0.351
 4678SOL    HW114933   1.929   4.785   0.262
 4678SOL    HW214934   2.059   4.847   0.340
 4679SOL     OW14935   2.656   0.741   6.103
 4679SOL    HW114936   2.673   0.685   6.021
 4679SOL    HW214937   2.625   0.832   6.075
 4680SOL     OW14938   1.629   5.020   0.748
 4680SOL    HW114939   1.555   5.084   0.770
 4680SOL    HW214940   1.705   5.069   0.707
 4681SOL     OW14941   0.163   5.218   5.522
 4681SOL    HW114942   0.216   5.196   5.604
 4681SOL    HW214943   0.226   5.239   5.447
 4682SOL     OW14944   3.736   6.679   0.768
 4682SOL    HW114945   3.749   6.647   0.674
 4682SOL    HW214946   3.812   6.648   0.825
 4683SOL     OW14947   5.790   4.039   2.453
 4683SOL    HW114948   5.846   4.109   2.496
 4683SOL    HW214949   5.849   3.979   2.398
 4684SOL     OW14950   1.553   1.871   4.479
 4684SOL    HW114951   1.566   1.966   4.451
 4684SOL    HW214952   1.643   1.826   4.489
 4685SOL     OW14953   5.020   5.506   4.534
 4685SOL    HW114954   4.964   5.479   4.456
 4685SOL    HW214955   5.114   5.474   4.520
 4686SOL     OW14956   4.868   5.150   6.148
 4686SOL    HW114957   4.966   5.139   6.163
 4686SOL    HW214958   4.851   5.237   6.100
 4687SOL     OW14959   5.870   4.702   4.876
 4687SOL    HW114960   5.853   4.750   4.962
 4687SOL    HW214961   5.790   4.648   4.851
 4688SOL     OW14962   0.640   3.056   6.866
 4688SOL    HW114963   0.640   3.018   6.773
 4688SOL    HW214964   0.703   3.133   6.870
 4689SOL     OW14965   6.949   6.240   4.844
 4689SOL    HW114966   0.022   6.254   4.864
 4689SOL    HW214967   6.908   6.183   4.915
 4690SOL     OW14968   1.647   1.396   0.084
 4690SOL    HW114969   1.712   1.395   0.008
 4690SOL    HW214970   1.561   1.437   0.054
 4691SOL     OW14971   2.715   4.851   1.194
 4691SOL    HW114972   2.740   4.938   1.238
 4691SOL    HW214973   2.761   4.845   1.105
 4692SOL     OW14974   0.007   5.348   3.312
 4692SOL    HW114975   0.011   5.404   3.395
 4692SOL    HW214976   0.040   5.401   3.234
 4693SOL     OW14977   0.659   0.985   4.301
 4693SOL    HW114978   0.616   0.956   4.387
 4693SOL    HW214979   0.589   1.006   4.233
 4694SOL     OW14980   1.788   1.518   0.273
 4694SOL    HW114981   1.731   1.477   0.202
 4694SOL    HW214982   1.838   1.447   0.322
 4695SOL     OW14983   4.055   3.098   2.318
 4695SOL    HW114984   4.124   3.030   2.292
 4695SOL    HW214985   4.042   3.162   2.243
 4696SOL     OW14986   6.954   3.274   6.296
 4696SOL    HW114987   6.976   3.191   6.245
 4696SOL    HW214988   6.857   3.296   6.282
 4697SOL     OW14989   0.984   4.715   6.970
 4697SOL    HW114990   0.894   4.676   6.990
 4697SOL    HW214991   1.035   4.653   6.911
 4698SOL     OW14992   5.379   3.755   1.059
 4698SOL    HW114993   5.413   3.695   1.131
 4698SOL    HW214994   5.428   3.735   0.974
 4699SOL     OW14995   0.006   0.769   2.425
 4699SOL    HW114996   0.016   0.671   2.410
 4699SOL    HW214997   6.936   0.797   2.406
 4700SOL     OW14998   4.660   1.183   1.096
 4700SOL    HW114999   4.606   1.115   1.046
 4700SOL    HW215000   4.732   1.219   1.036
 4701SOL     OW15001   0.511   1.323   0.377
 4701SOL    HW115002   0.611   1.323   0.370
 4701SOL    HW215003   0.474   1.247   0.324
 4702SOL     OW15004   3.436   3.776   0.366
 4702SOL    HW115005   3.340   3.791   0.391
 4702SOL    HW215006   3.494   3.797   0.445
 4703SOL     OW15007   1.469   0.745   2.693
 4703SOL    HW115008   1.432   0.829   2.654
 4703SOL    HW215009   1.432   0.666   2.643
 4704SOL     OW15010   6.648   6.749   0.736
 4704SOL    HW115011   6.571   6.707   0.784
 4704SOL    HW215012   6.712   6.787   0.802
 4705SOL     OW15013   3.552   3.479   4.046
 4705SOL    HW115014   3.558   3.576   4.072
 4705SOL    HW215015   3.613   3.461   3.969
 4706SOL     OW15016   4.464   6.512   6.747
 4706SOL    HW115017   4.523   6.470   6.815
 4706SOL    HW215018   4.504   6.500   6.656
 4707SOL     OW15019   2.240   5.175   1.138
 4707SOL    HW115020   2.251   5.179   1.237
 4707SOL    HW215021   2.259   5.083   1.106
 4708SOL     OW15022   2.541   2.720   1.217
 4708SOL    HW115023   2.540   2.792   1.286
 4708SOL    HW215024   2.579   2.756   1.131
 4709SOL     OW15025   4.261   5.192   5.294
 4709SOL    HW115026   4.212   5.138   5.225
 4709SOL    HW215027   4.196   5.233   5.357
 4710SOL     OW15028   4.543   1.402   6.773
 4710SOL    HW115029   4.588   1.338   6.710
 4710SOL    HW215030   4.597   1.486   6.778
 4711SOL     OW15031   3.630   6.911   2.369
 4711SOL    HW115032   3.665   6.821   2.344
 4711SOL    HW215033   3.668   6.938   2.458
 4712SOL     OW15034   2.141   4.682   0.770
 4712SOL    HW115035   2.218   4.655   0.713
 4712SOL    HW215036   2.120   4.607   0.834
 4713SOL     OW15037   1.787   5.181   1.026
 4713SOL    HW115038   1.817   5.093   1.062
 4713SOL    HW215039   1.693   5.199   1.055
 4714SOL     OW15040   3.236   2.048   1.235
 4714SOL    HW115041   3.246   1.985   1.311
 4714SOL    HW215042   3.278   2.136   1.258
 4715SOL     OW15043   0.084   2.502   3.181
 4715SOL    HW115044   0.144   2.502   3.261
 4715SOL    HW215045   0.074   2.596   3.147
 4716SOL     OW15046   3.665   5.953   0.136
 4716SOL    HW115047   3.594   5.992   0.077
 4716SOL    HW215048   3.731   5.904   0.079
 4717SOL     OW15049   1.265   6.185   3.499
 4717SOL    HW115050   1.264   6.102   3.444
 4717SOL    HW215051   1.241   6.264   3.442
 4718SOL     OW15052   5.912   1.131   6.199
 4718SOL    HW115053   5.973   1.159   6.273
 4718SOL    HW215054   5.830   1.189   6.201
 4719SOL     OW15055   4.898   3.573   1.587
 4719SOL    HW115056   4.936   3.577   1.679
 4719SOL    HW215057   4.917   3.659   1.539
 4720SOL     OW15058   2.178   0.233   5.604
 4720SOL    HW115059   2.178   0.248   5.702
 4720SOL    HW215060   2.134   0.145   5.584
 4721SOL     OW15061   1.972   1.822   1.332
 4721SOL    HW115062   1.939   1.910   1.366
 4721SOL    HW215063   2.071   1.817   1.346
 4722SOL     OW15064   1.917   7.008   0.297
 4722SOL    HW115065   1.971   6.994   0.215
 4722SOL    HW215066   1.820   7.008   0.274
 4723SOL     OW15067   2.975   6.680   6.701
 4723SOL    HW115068   2.970   6.588   6.740
 4723SOL    HW215069   3.049   6.731   6.745
 4724SOL     OW15070   3.923   6.523   1.840
 4724SOL    HW115071   3.992   6.487   1.902
 4724SOL    HW215072   3.872   6.447   1.799
 4725SOL     OW15073   5.368   6.617   3.816
 4725SOL    HW115074   5.426   6.677   3.761
 4725SOL    HW215075   5.425   6.565   3.880
 4726SOL     OW15076   1.071   4.129   6.854
 4726SOL    HW115077   1.031   4.108   6.944
 4726SOL    HW215078   1.114   4.047   6.817
 4727SOL     OW15079   6.836   5.771   0.089
 4727SOL    HW115080   6.926   5.810   0.112
 4727SOL    HW215081   6.836   5.674   0.113
 4728SOL     OW15082   0.309   0.956   6.508
 4728SOL    HW115083   0.296   0.863   6.473
 4728SOL    HW215084   0.301   0.955   6.608
 4729SOL     OW15085   3.525   0.204   2.128
 4729SOL    HW115086   3.521   0.106   2.146
 4729SOL    HW215087   3.493   0.254   2.208
 4730SOL     OW15088   1.722   6.117   5.703
 4730SOL    HW115089   1.754   6.070   5.620
 4730SOL    HW215090   1.675   6.051   5.762
 4731SOL     OW15091   6.140   1.474   4.904
 4731SOL    HW115092   6.071   1.546   4.890
 4731SOL    HW215093   6.130   1.436   4.996
 4732SOL     OW15094   0.071   3.061   0.184
 4732SOL    HW115095   0.060   2.969   0.220
 4732SOL    HW215096   0.074   3.126   0.260
 4733SOL     OW15097   6.964   4.120   3.632
 4733SOL    HW115098   6.969   4.044   3.568
 4733SOL    HW215099   0.011   4.110   3.702
 4734SOL     OW15100   4.370   3.851   6.424
 4734SOL    HW115101   4.273   3.874   6.421
 4734SOL    HW215102   4.416   3.905   6.495
 4735SOL     OW15103   1.214   5.031   3.566
 4735SOL    HW115104   1.222   4.933   3.582
 4735SOL    HW215105   1.165   5.073   3.643
 4736SOL     OW15106   0.886   0.930   0.105
 4736SOL    HW115107   0.863   0.847   0.056
 4736SOL    HW215108   0.802   0.980   0.129
 4737SOL     OW15109   2.345   5.054   1.858
 4737SOL    HW115110   2.343   4.963   1.901
 4737SOL    HW215111   2.395   5.048   1.772
 4738SOL     OW15112   0.279   6.863   2.202
 4738SOL    HW115113   0.243   6.860   2.295
 4738SOL    HW215114   0.340   6.784   2.188
 4739SOL     OW15115   4.845   0.337   2.160
 4739SOL    HW115116   4.928   0.292   2.191
 4739SOL    HW215117   4.785   0.356   2.238
 4740SOL     OW15118   1.216   1.878   2.550
 4740SOL    HW115119   1.221   1.841   2.643
 4740SOL    HW215120   1.291   1.843   2.495
 4741SOL     OW15121   4.555   3.413   1.718
 4741SOL    HW115122   4.635   3.357   1.698
 4741SOL    HW215123   4.574   3.508   1.693
 4742SOL     OW15124   2.825   6.826   0.659
 4742SOL    HW115125   2.763   6.861   0.588
 4742SOL    HW215126   2.782   6.749   0.705
 4743SOL     OW15127   2.269   5.077   1.402
 4743SOL    HW115128   2.193   5.012   1.394
 4743SOL    HW215129   2.329   5.049   1.477
 4744SOL     OW15130   1.804   6.654   0.824
 4744SOL    HW115131   1.722   6.659   0.881
 4744SOL    HW215132   1.829   6.559   0.810
 4745SOL     OW15133   1.697   4.265   0.330
 4745SOL    HW115134   1.749   4.311   0.258
 4745SOL    HW215135   1.605   4.244   0.297
 4746SOL     OW15136   4.769   5.921   4.664
 4746SOL    HW115137   4.713   5.868   4.728
 4746SOL    HW215138   4.787   6.011   4.702
 4747SOL     OW15139   1.404   2.157   0.875
 4747SOL    HW115140   1.456   2.239   0.850
 4747SOL    HW215141   1.391   2.155   0.974
 4748SOL     OW15142   1.830   6.653   3.138
 4748SOL    HW115143   1.761   6.692   3.077
 4748SOL    HW215144   1.911   6.712   3.138
 4749SOL     OW15145   2.214   0.087   0.361
 4749SOL    HW115146   2.259   0.174   0.342
 4749SOL    HW215147   2.128   0.104   0.409
 4750SOL     OW15148   5.289   3.017   5.364
 4750SOL    HW115149   5.191   3.002   5.348
 4750SOL    HW215150   5.307   3.114   5.375
 4751SOL     OW15151   4.788   0.643   3.181
 4751SOL    HW115152   4.833   0.702   3.114
 4751SOL    HW215153   4.774   0.695   3.266
 4752SOL     OW15154   4.610   1.885   0.226
 4752SOL    HW115155   4.524   1.877   0.176
 4752SOL    HW215156   4.637   1.981   0.232
 4753SOL     OW15157   3.030   6.205   5.321
 4753SOL    HW115158   3.046   6.122   5.267
 4753SOL    HW215159   2.993   6.180   5.410
 4754SOL     OW15160   4.683   4.831   5.999
 4754SOL    HW115161   4.713   4.765   5.929
 4754SOL    HW215162   4.656   4.916   5.954
 4755SOL     OW15163   1.363   1.162   1.377
 4755SOL    HW115164   1.277   1.128   1.416
 4755SOL    HW215165   1.439   1.106   1.410
 4756SOL     OW15166   6.041   3.860   6.537
 4756SOL    HW115167   6.059   3.859   6.635
 4756SOL    HW215168   5.982   3.938   6.514
 4757SOL     OW15169   1.819   3.580   1.646
 4757SOL    HW115170   1.830   3.548   1.740
 4757SOL    HW215171   1.892   3.645   1.623
 4758SOL     OW15172   2.135   6.561   3.203
 4758SOL    HW115173   2.095   6.615   3.278
 4758SOL    HW215174   2.105   6.467   3.210
 4759SOL     OW15175   1.025   4.936   1.198
 4759SOL    HW115176   1.075   4.862   1.154
 4759SOL    HW215177   0.927   4.918   1.193
 4760SOL     OW15178   1.805   6.425   0.676
 4760SOL    HW115179   1.871   6.372   0.729
 4760SOL    HW215180   1.847   6.455   0.591
 4761SOL     OW15181   6.559   6.833   1.330
 4761SOL    HW115182   6.581   6.768   1.257
 4761SOL    HW215183   6.636   6.839   1.394
 4762SOL     OW15184   2.190   6.178   2.241
 4762SOL    HW115185   2.198   6.121   2.159
 4762SOL    HW215186   2.251   6.145   2.312
 4763SOL     OW15187   4.963   5.336   2.272
 4763SOL    HW115188   5.052   5.367   2.239
 4763SOL    HW215189   4.969   5.240   2.298
 4764SOL     OW15190   3.971   3.881   6.088
 4764SOL    HW115191   4.047   3.873   6.024
 4764SOL    HW215192   3.986   3.960   6.148
 4765SOL     OW15193   3.446   1.594   4.891
 4765SOL    HW115194   3.487   1.657   4.957
 4765SOL    HW215195   3.410   1.514   4.939
 4766SOL     OW15196   0.156   7.022   4.126
 4766SOL    HW115197   0.210   0.073   4.088
 4766SOL    HW215198   0.217   6.960   4.176
 4767SOL     OW15199   1.921   4.569   5.220
 4767SOL    HW115200   1.948   4.643   5.282
 4767SOL    HW215201   1.972   4.577   5.135
 4768SOL     OW15202   4.238   2.148   0.563
 4768SOL    HW115203   4.295   2.132   0.482
 4768SOL    HW215204   4.239   2.245   0.587
 4769SOL     OW15205   3.152   5.588   1.538
 4769SOL    HW115206   3.099   5.559   1.618
 4769SOL    HW215207   3.090   5.605   1.462
 4770SOL     OW15208   0.276   1.141   5.490
 4770SOL    HW115209   0.334   1.111   5.566
 4770SOL    HW215210   0.181   1.120   5.511
 4771SOL     OW15211   2.412   6.731   5.438
 4771SOL    HW115212   2.364   6.807   5.482
 4771SOL    HW215213   2.350   6.682   5.378
 4772SOL     OW15214   2.580   5.778   2.065
 4772SOL    HW115215   2.520   5.812   2.137
 4772SOL    HW215216   2.542   5.693   2.027
 4773SOL     OW15217   2.036   4.846   5.311
 4773SOL    HW115218   1.977   4.866   5.233
 4773SOL    HW215219   2.106   4.780   5.284
 4774SOL     OW15220   1.448   4.078   0.213
 4774SOL    HW115221   1.410   4.017   0.143
 4774SOL    HW215222   1.439   4.035   0.303
 4775SOL     OW15223   5.926   6.679   4.943
 4775SOL    HW115224   5.839   6.726   4.957
 4775SOL    HW215225   5.940   6.663   4.845
 4776SOL     OW15226   0.923   1.118   5.941
 4776SOL    HW115227   0.878   1.050   5.883
 4776SOL    HW215228   1.017   1.133   5.909
 4777SOL     OW15229   0.921   6.365   1.672
 4777SOL    HW115230   0.988   6.290   1.675
 4777SOL    HW215231   0.951   6.438   1.733
 4778SOL     OW15232   1.360   2.587   5.606
 4778SOL    HW115233   1.334   2.680   5.580
 4778SOL    HW215234   1.334   2.524   5.532
 4779SOL     OW15235   5.270   1.200   3.506
 4779SOL    HW115236   5.215   1.207   3.589
 4779SOL    HW215237   5.332   1.278   3.500
 4780SOL     OW15238   6.375   2.972   4.914
 4780SOL    HW115239   6.333   3.020   4.837
 4780SOL    HW215240   6.343   3.013   5.000
 4781SOL     OW15241   2.396   6.256   3.055
 4781SOL    HW115242   2.451   6.339   3.043
 4781SOL    HW215243   2.435   6.182   3.001
 4782SOL     OW15244   6.422   5.805   4.335
 4782SOL    HW115245   6.513   5.762   4.329
 4782SOL    HW215246   6.377   5.798   4.246
 4783SOL     OW15247   6.344   3.176   1.107
 4783SOL    HW115248   6.335   3.275   1.115
 4783SOL    HW215249   6.274   3.141   1.045
 4784SOL     OW15250   4.995   2.350   6.358
 4784SOL    HW115251   4.963   2.324   6.267
 4784SOL    HW215252   4.962   2.442   6.379
 4785SOL     OW15253   0.831   5.702   4.068
 4785SOL    HW115254   0.881   5.690   3.983
 4785SOL    HW215255   0.810   5.612   4.107
 4786SOL     OW15256   1.987   6.247   0.113
 4786SOL    HW115257   1.912   6.182   0.106
 4786SOL    HW215258   2.073   6.201   0.089
 4787SOL     OW15259   3.459   0.860   4.545
 4787SOL    HW115260   3.445   0.896   4.637
 4787SOL    HW215261   3.384   0.890   4.486
 4788SOL     OW15262   5.662   6.138   6.500
 4788SOL    HW115263   5.677   6.195   6.420
 4788SOL    HW215264   5.750   6.114   6.541
 4789SOL     OW15265   5.399   0.703   2.812
 4789SOL    HW115266   5.492   0.737   2.803
 4789SOL    HW215267   5.400   0.603   2.809
 4790SOL     OW15268   6.336   2.264   4.959
 4790SOL    HW115269   6.416   2.259   5.019
 4790SOL    HW215270   6.350   2.336   4.891
 4791SOL     OW15271   0.003   1.768   6.994
 4791SOL    HW115272   0.032   1.843   6.935
 4791SOL    HW215273   0.043   1.683   6.962
 4792SOL     OW15274   1.964   3.431   3.323
 4792SOL    HW115275   1.884   3.372   3.311
 4792SOL    HW215276   2.042   3.375   3.352
 4793SOL     OW15277   0.383   3.481   5.569
 4793SOL    HW115278   0.452   3.506   5.637
 4793SOL    HW215279   0.362   3.560   5.512
 4794SOL     OW15280   4.530   0.716   3.818
 4794SOL    HW115281   4.511   0.798   3.764
 4794SOL    HW215282   4.462   0.645   3.797
 4795SOL     OW15283   0.608   0.744   5.545
 4795SOL    HW115284   0.648   0.655   5.520
 4795SOL    HW215285   0.550   0.733   5.625
 4796SOL     OW15286   3.927   1.420   5.069
 4796SOL    HW115287   3.936   1.367   5.153
 4796SOL    HW215288   3.849   1.385   5.016
 4797SOL     OW15289   0.966   5.670   4.713
 4797SOL    HW115290   0.983   5.588   4.660
 4797SOL    HW215291   0.875   5.665   4.754
 4798SOL     OW15292   4.431   4.627   6.394
 4798SOL    HW115293   4.430   4.684   6.476
 4798SOL    HW215294   4.504   4.659   6.333
 4799SOL     OW15295   3.674   3.019   6.304
 4799SOL    HW115296   3.654   3.026   6.402
 4799SOL    HW215297   3.744   2.949   6.289
 4800SOL     OW15298   0.867   5.057   0.508
 4800SOL    HW115299   0.869   5.019   0.415
 4800SOL    HW215300   0.841   4.986   0.573
 4801SOL     OW15301   4.860   2.599   1.831
 4801SOL    HW115302   4.760   2.591   1.840
 4801SOL    HW215303   4.889   2.690   1.861
 4802SOL     OW15304   6.798   6.855   3.048
 4802SOL    HW115305   6.744   6.926   3.093
 4802SOL    HW215306   6.869   6.823   3.111
 4803SOL     OW15307   5.361   3.552   6.113
 4803SOL    HW115308   5.313   3.633   6.078
 4803SOL    HW215309   5.339   3.541   6.210
 4804SOL     OW15310   5.334   1.297   0.782
 4804SOL    HW115311   5.419   1.331   0.742
 4804SOL    HW215312   5.318   1.203   0.752
 4805SOL     OW15313   6.144   2.088   0.988
 4805SOL    HW115314   6.178   2.142   0.911
 4805SOL    HW215315   6.086   2.144   1.046
 4806SOL     OW15316   0.938   0.932   3.092
 4806SOL    HW115317   0.929   0.888   3.003
 4806SOL    HW215318   0.933   1.031   3.082
 4807SOL     OW15319   0.745   3.112   6.202
 4807SOL    HW115320   0.659   3.062   6.202
 4807SOL    HW215321   0.821   3.048   6.186
 4808SOL     OW15322   3.883   5.948   0.522
 4808SOL    HW115323   3.963   5.951   0.582
 4808SOL    HW215324   3.831   5.865   0.541
 4809SOL     OW15325   3.753   4.903   1.577
 4809SOL    HW115326   3.692   4.869   1.505
 4809SOL    HW215327   3.845   4.913   1.540
 4810SOL     OW15328   0.588   4.133   3.604
 4810SOL    HW115329   0.491   4.122   3.584
 4810SOL    HW215330   0.642   4.099   3.527
 4811SOL     OW15331   3.140   3.954   4.611
 4811SOL    HW115332   3.074   3.942   4.537
 4811SOL    HW215333   3.208   4.021   4.584
 4812SOL     OW15334   0.167   0.231   2.531
 4812SOL    HW115335   0.178   0.286   2.613
 4812SOL    HW215336   0.253   0.230   2.480
 4813SOL     OW15337   6.173   1.637   5.797
 4813SOL    HW115338   6.092   1.643   5.739
 4813SOL    HW215339   6.232   1.562   5.765
 4814SOL     OW15340   6.606   4.045   1.666
 4814SOL    HW115341   6.584   3.995   1.749
 4814SOL    HW215342   6.605   4.144   1.685
 4815SOL     OW15343   5.145   5.212   3.092
 4815SOL    HW115344   5.206   5.165   3.156
 4815SOL    HW215345   5.077   5.148   3.057
 4816SOL     OW15346   1.731   0.506   2.091
 4816SOL    HW115347   1.830   0.502   2.078
 4816SOL    HW215348   1.687   0.436   2.034
 4817SOL     OW15349   4.305   1.586   1.012
 4817SOL    HW115350   4.274   1.634   0.930
 4817SOL    HW215351   4.244   1.509   1.031
 4818SOL     OW15352   3.344   0.059   5.185
 4818SOL    HW115353   3.413   0.074   5.255
 4818SOL    HW215354   3.337   0.140   5.127
 4819SOL     OW15355   2.639   0.627   0.854
 4819SOL    HW115356   2.639   0.672   0.944
 4819SOL    HW215357   2.583   0.544   0.858
 4820SOL     OW15358   6.432   4.163   2.116
 4820SOL    HW115359   6.421   4.121   2.207
 4820SOL    HW215360   6.506   4.230   2.119
 4821SOL     OW15361   6.611   4.549   1.362
 4821SOL    HW115362   6.616   4.648   1.379
 4821SOL    HW215363   6.697   4.507   1.389
 4822SOL     OW15364   1.960   4.082   3.273
 4822SOL    HW115365   1.950   4.000   3.218
 4822SOL    HW215366   1.873   4.132   3.275
 4823SOL     OW15367   0.949   0.430   4.702
 4823SOL    HW115368   0.875   0.365   4.722
 4823SOL    HW215369   0.912   0.507   4.650
 4824SOL     OW15370   5.182   2.760   2.679
 4824SOL    HW115371   5.104   2.698   2.690
 4824SOL    HW215372   5.261   2.708   2.648
 4825SOL     OW15373   0.848   3.794   2.726
 4825SOL    HW115374   0.849   3.743   2.639
 4825SOL    HW215375   0.896   3.741   2.796
 4826SOL     OW15376   6.955   5.952   0.680
 4826SOL    HW115377   6.996   6.034   0.641
 4826SOL    HW215378   6.865   5.936   0.639
 4827SOL     OW15379   4.768   0.590   1.072
 4827SOL    HW115380   4.774   0.582   0.973
 4827SOL    HW215381   4.778   0.500   1.114
 4828SOL     OW15382   5.167   3.914   1.159
 4828SOL    HW115383   5.237   3.855   1.119
 4828SOL    HW215384   5.161   3.999   1.107
 4829SOL     OW15385   3.166   1.238   6.023
 4829SOL    HW115386   3.212   1.326   6.017
 4829SOL    HW215387   3.220   1.169   5.974
 4830SOL     OW15388   4.467   6.886   4.458
 4830SOL    HW115389   4.487   6.946   4.381
 4830SOL    HW215390   4.545   6.884   4.521
 4831SOL     OW15391   6.214   4.579   5.539
 4831SOL    HW115392   6.175   4.504   5.487
 4831SOL    HW215393   6.169   4.665   5.513
 4832SOL     OW15394   2.461   3.113   5.908
 4832SOL    HW115395   2.549   3.075   5.878
 4832SOL    HW215396   2.425   3.057   5.982
 4833SOL     OW15397   3.894   1.426   2.706
 4833SOL    HW115398   3.962   1.492   2.675
 4833SOL    HW215399   3.939   1.354   2.758
 4834SOL     OW15400   5.031   1.552   2.136
 4834SOL    HW115401   5.042   1.456   2.159
 4834SOL    HW215402   4.975   1.561   2.054
 4835SOL     OW15403   1.932   0.018   6.877
 4835SOL    HW115404   1.958   6.965   6.819
 4835SOL    HW215405   2.002   0.089   6.873
 4836SOL     OW15406   4.967   1.927   4.289
 4836SOL    HW115407   5.021   1.977   4.357
 4836SOL    HW215408   5.024   1.908   4.209
 4837SOL     OW15409   2.555   2.979   0.264
 4837SOL    HW115410   2.472   3.001   0.315
 4837SOL    HW215411   2.542   3.004   0.168
 4838SOL     OW15412   3.733   5.136   2.152
 4838SOL    HW115413   3.779   5.187   2.224
 4838SOL    HW215414   3.714   5.196   2.075
 4839SOL     OW15415   0.188   5.231   5.996
 4839SOL    HW115416   0.261   5.199   6.056
 4839SOL    HW215417   0.102   5.187   6.022
 4840SOL     OW15418   6.777   6.151   0.020
 4840SOL    HW115419   6.777   6.250   0.035
 4840SOL    HW215420   6.844   6.128   6.973
 4841SOL     OW15421   3.005   5.281   2.089
 4841SOL    HW115422   3.087   5.336   2.107
 4841SOL    HW215423   2.960   5.260   2.176
 4842SOL     OW15424   4.997   5.900   1.252
 4842SOL    HW115425   4.917   5.863   1.300
 4842SOL    HW215426   5.077   5.893   1.313
 4843SOL     OW15427   6.381   3.621   0.335
 4843SOL    HW115428   6.478   3.601   0.348
 4843SOL    HW215429   6.343   3.656   0.421
 4844SOL     OW15430   5.856   2.153   6.209
 4844SOL    HW115431   5.918   2.231   6.220
 4844SOL    HW215432   5.783   2.159   6.277
 4845SOL     OW15433   5.695   5.104   3.964
 4845SOL    HW115434   5.741   5.149   3.888
 4845SOL    HW215435   5.597   5.124   3.961
 4846SOL     OW15436   1.420   3.086   0.957
 4846SOL    HW115437   1.383   3.157   0.896
 4846SOL    HW215438   1.495   3.040   0.911
 4847SOL     OW15439   3.495   2.067   4.950
 4847SOL    HW115440   3.582   2.098   4.909
 4847SOL    HW215441   3.419   2.113   4.904
 4848SOL     OW15442   2.447   1.957   2.590
 4848SOL    HW115443   2.359   2.004   2.594
 4848SOL    HW215444   2.504   2.001   2.520
 4849SOL     OW15445   0.795   0.298   0.136
 4849SOL    HW115446   0.822   0.226   0.199
 4849SOL    HW215447   0.862   0.305   0.062
 4850SOL     OW15448   4.179   0.470   1.649
 4850SOL    HW115449   4.217   0.491   1.739
 4850SOL    HW215450   4.179   0.552   1.592
 4851SOL     OW15451   4.252   6.449   5.066
 4851SOL    HW115452   4.337   6.439   5.116
 4851SOL    HW215453   4.226   6.546   5.063
 4852SOL     OW15454   2.014   0.901   6.738
 4852SOL    HW115455   2.014   0.869   6.643
 4852SOL    HW215456   1.921   0.923   6.765
 4853SOL     OW15457   3.526   1.447   2.170
 4853SOL    HW115458   3.600   1.420   2.231
 4853SOL    HW215459   3.554   1.525   2.115
 4854SOL     OW15460   5.428   6.609   2.347
 4854SOL    HW115461   5.366   6.542   2.307
 4854SOL    HW215462   5.374   6.685   2.386
 4855SOL     OW15463   6.133   1.569   2.577
 4855SOL    HW115464   6.037   1.589   2.593
 4855SOL    HW215465   6.170   1.633   2.509
 4856SOL     OW15466   2.697   4.963   3.592
 4856SOL    HW115467   2.650   4.956   3.680
 4856SOL    HW215468   2.795   4.946   3.605
 4857SOL     OW15469   0.194   2.172   5.688
 4857SOL    HW115470   0.265   2.193   5.621
 4857SOL    HW215471   0.236   2.141   5.773
 4858SOL     OW15472   1.921   2.115   4.377
 4858SOL    HW115473   1.907   2.178   4.453
 4858SOL    HW215474   1.832   2.088   4.339
 4859SOL     OW15475   1.883   6.035   4.830
 4859SOL    HW115476   1.784   6.039   4.847
 4859SOL    HW215477   1.900   6.039   4.732
 4860SOL     OW15478   4.824   4.726   1.566
 4860SOL    HW115479   4.832   4.815   1.610
 4860SOL    HW215480   4.909   4.705   1.518
 4861SOL     OW15481   4.907   4.146   5.268
 4861SOL    HW115482   4.815   4.109   5.253
 4861SOL    HW215483   4.908   4.198   5.354
 4862SOL     OW15484   2.134   5.850   2.172
 4862SOL    HW115485   2.070   5.910   2.218
 4862SOL    HW215486   2.130   5.759   2.213
 4863SOL     OW15487   5.686   4.152   0.092
 4863SOL    HW115488   5.722   4.245   0.102
 4863SOL    HW215489   5.688   4.126   7.020
 4864SOL     OW15490   3.014   1.205   3.332
 4864SOL    HW115491   2.935   1.157   3.295
 4864SOL    HW215492   2.995   1.235   3.426
 4865SOL     OW15493   2.577   5.789   4.906
 4865SOL    HW115494   2.543   5.717   4.846
 4865SOL    HW215495   2.677   5.786   4.910
 4866SOL     OW15496   6.623   4.103   1.058
 4866SOL    HW115497   6.654   4.197   1.073
 4866SOL    HW215498   6.598   4.062   1.145
 4867SOL     OW15499   4.729   6.515   3.040
 4867SOL    HW115500   4.708   6.581   2.967
 4867SOL    HW215501   4.822   6.532   3.073
 4868SOL     OW15502   6.752   4.475   1.718
 4868SOL    HW115503   6.835   4.420   1.720
 4868SOL    HW215504   6.686   4.437   1.783
 4869SOL     OW15505   0.655   1.488   6.103
 4869SOL    HW115506   0.732   1.551   6.116
 4869SOL    HW215507   0.623   1.494   6.008
 4870SOL     OW15508   0.966   5.710   1.785
 4870SOL    HW115509   0.988   5.765   1.866
 4870SOL    HW215510   0.878   5.738   1.749
 4871SOL     OW15511   1.527   0.701   4.048
 4871SOL    HW115512   1.445   0.715   4.104
 4871SOL    HW215513   1.544   0.603   4.039
 4872SOL     OW15514   6.441   6.991   3.364
 4872SOL    HW115515   6.484   6.905   3.391
 4872SOL    HW215516   6.419   0.022   3.445
 4873SOL     OW15517   0.197   6.433   5.104
 4873SOL    HW115518   0.270   6.430   5.172
 4873SOL    HW215519   0.189   6.344   5.059
 4874SOL     OW15520   4.759   2.954   3.376
 4874SOL    HW115521   4.767   3.037   3.431
 4874SOL    HW215522   4.769   2.977   3.279
 4875SOL     OW15523   5.600   6.582   6.665
 4875SOL    HW115524   5.686   6.563   6.617
 4875SOL    HW215525   5.553   6.496   6.684
 4876SOL     OW15526   1.494   1.532   3.024
 4876SOL    HW115527   1.491   1.618   2.973
 4876SOL    HW215528   1.560   1.470   2.980
 4877SOL     OW15529   1.094   0.758   4.286
 4877SOL    HW115530   1.086   0.726   4.191
 4877SOL    HW215531   1.004   0.753   4.330
 4878SOL     OW15532   6.722   1.501   2.533
 4878SOL    HW115533   6.649   1.520   2.599
 4878SOL    HW215534   6.747   1.585   2.486
 4879SOL     OW15535   4.711   1.404   2.963
 4879SOL    HW115536   4.678   1.496   2.943
 4879SOL    HW215537   4.638   1.352   3.008
 4880SOL     OW15538   6.045   3.026   6.194
 4880SOL    HW115539   5.979   2.970   6.143
 4880SOL    HW215540   6.138   3.001   6.165
 4881SOL     OW15541   1.841   2.878   1.979
 4881SOL    HW115542   1.809   2.791   2.016
 4881SOL    HW215543   1.920   2.910   2.031
 4882SOL     OW15544   4.451   2.465   4.954
 4882SOL    HW115545   4.357   2.453   4.986
 4882SOL    HW215546   4.456   2.546   4.895
 4883SOL     OW15547   5.448   3.472   0.931
 4883SOL    HW115548   5.495   3.516   0.854
 4883SOL    HW215549   5.514   3.420   0.985
 4884SOL     OW15550   1.888   6.064   1.716
 4884SOL    HW115551   1.885   5.969   1.686
 4884SOL    HW215552   1.846   6.122   1.647
 4885SOL     OW15553   1.662   4.857   0.988
 4885SOL    HW115554   1.595   4.850   1.062
 4885SOL    HW215555   1.641   4.936   0.931
 4886SOL     OW15556   3.751   0.942   2.137
 4886SOL    HW115557   3.733   0.915   2.043
 4886SOL    HW215558   3.664   0.954   2.186
 4887SOL     OW15559   0.923   6.780   1.615
 4887SOL    HW115560   0.824   6.778   1.631
 4887SOL    HW215561   0.967   6.714   1.676
 4888SOL     OW15562   3.126   6.731   2.884
 4888SOL    HW115563   3.175   6.744   2.970
 4888SOL    HW215564   3.053   6.799   2.876
 4889SOL     OW15565   6.580   2.305   4.061
 4889SOL    HW115566   6.507   2.342   4.119
 4889SOL    HW215567   6.621   2.379   4.007
 4890SOL     OW15568   0.708   0.450   5.151
 4890SOL    HW115569   0.622   0.424   5.194
 4890SOL    HW215570   0.780   0.456   5.220
 4891SOL     OW15571   2.444   5.370   6.144
 4891SOL    HW115572   2.415   5.283   6.103
 4891SOL    HW215573   2.367   5.434   6.143
 4892SOL     OW15574   5.876   6.629   2.419
 4892SOL    HW115575   5.868   6.574   2.336
 4892SOL    HW215576   5.967   6.617   2.459
 4893SOL     OW15577   0.266   3.846   1.821
 4893SOL    HW115578   0.169   3.866   1.834
 4893SOL    HW215579   0.316   3.932   1.812
 4894SOL     OW15580   4.074   6.665   2.161
 4894SOL    HW115581   4.099   6.578   2.118
 4894SOL    HW215582   3.976   6.680   2.151
 4895SOL     OW15583   0.037   4.973   3.613
 4895SOL    HW115584   0.067   5.068   3.628
 4895SOL    HW215585   6.962   4.967   3.628
 4896SOL     OW15586   1.699   4.997   3.968
 4896SOL    HW115587   1.687   5.096   3.962
 4896SOL    HW215588   1.783   4.971   3.920
 4897SOL     OW15589   1.786   6.016   5.455
 4897SOL    HW115590   1.706   5.958   5.440
 4897SOL    HW215591   1.848   6.008   5.377
 4898SOL     OW15592   3.475   2.134   4.101
 4898SOL    HW115593   3.473   2.034   4.110
 4898SOL    HW215594   3.447   2.159   4.008
 4899SOL     OW15595   6.964   5.192   1.916
 4899SOL    HW115596   0.021   5.249   1.900
 4899SOL    HW215597   6.990   5.110   1.967
 4900SOL     OW15598   4.300   6.040   5.735
 4900SOL    HW115599   4.395   6.056   5.759
 4900SOL    HW215600   4.256   5.985   5.806
 4901SOL     OW15601   0.726   1.344   5.862
 4901SOL    HW115602   0.739   1.339   5.961
 4901SOL    HW215603   0.788   1.281   5.817
 4902SOL     OW15604   2.233   0.668   6.367
 4902SOL    HW115605   2.192   0.580   6.391
 4902SOL    HW215606   2.330   0.655   6.347
 4903SOL     OW15607   5.504   5.273   1.419
 4903SOL    HW115608   5.518   5.329   1.338
 4903SOL    HW215609   5.446   5.321   1.484
 4904SOL     OW15610   1.115   0.832   0.256
 4904SOL    HW115611   1.192   0.897   0.254
 4904SOL    HW215612   1.051   0.854   0.183
 4905SOL     OW15613   3.413   6.753   3.267
 4905SOL    HW115614   3.498   6.797   3.237
 4905SOL    HW215615   3.396   6.776   3.363
 4906SOL     OW15616   5.260   2.912   4.878
 4906SOL    HW115617   5.164   2.904   4.908
 4906SOL    HW215618   5.263   2.953   4.787
 4907SOL     OW15619   4.804   1.472   6.995
 4907SOL    HW115620   4.756   1.397   0.016
 4907SOL    HW215621   4.814   1.548   0.035
 4908SOL     OW15622   5.051   0.359   6.933
 4908SOL    HW115623   4.991   0.308   6.872
 4908SOL    HW215624   4.997   0.405   7.003
 4909SOL     OW15625   5.829   4.226   3.325
 4909SOL    HW115626   5.779   4.268   3.401
 4909SOL    HW215627   5.927   4.235   3.341
 4910SOL     OW15628   4.667   1.016   6.173
 4910SOL    HW115629   4.590   1.056   6.125
 4910SOL    HW215630   4.642   0.999   6.269
 4911SOL     OW15631   1.425   2.318   2.036
 4911SOL    HW115632   1.440   2.271   1.949
 4911SOL    HW215633   1.327   2.331   2.051
 4912SOL     OW15634   6.182   2.234   5.234
 4912SOL    HW115635   6.121   2.292   5.181
 4912SOL    HW215636   6.274   2.237   5.194
 4913SOL     OW15637   6.006   2.856   4.573
 4913SOL    HW115638   6.034   2.948   4.602
 4913SOL    HW215639   6.087   2.801   4.554
 4914SOL     OW15640   4.765   0.963   4.126
 4914SOL    HW115641   4.746   1.047   4.075
 4914SOL    HW215642   4.863   0.955   4.142
 4915SOL     OW15643   3.500   5.718   5.695
 4915SOL    HW115644   3.509   5.797   5.636
 4915SOL    HW215645   3.424   5.661   5.663
 4916SOL     OW15646   6.068   1.301   3.774
 4916SOL    HW115647   6.025   1.220   3.814
 4916SOL    HW215648   6.162   1.278   3.748
 4917SOL     OW15649   4.202   6.313   0.686
 4917SOL    HW115650   4.107   6.316   0.718
 4917SOL    HW215651   4.207   6.259   0.602
 4918SOL     OW15652   6.682   5.560   1.812
 4918SOL    HW115653   6.756   5.614   1.770
 4918SOL    HW215654   6.637   5.615   1.882
 4919SOL     OW15655   4.172   3.356   1.830
 4919SOL    HW115656   4.125   3.417   1.767
 4919SOL    HW215657   4.222   3.410   1.898
 4920SOL     OW15658   6.174   1.282   4.674
 4920SOL    HW115659   6.135   1.350   4.735
 4920SOL    HW215660   6.239   1.224   4.724
 4921SOL     OW15661   0.368   0.147   1.597
 4921SOL    HW115662   0.389   0.143   1.694
 4921SOL    HW215663   0.365   0.055   1.559
 4922SOL     OW15664   3.993   2.004   5.546
 4922SOL    HW115665   3.954   1.920   5.508
 4922SOL    HW215666   4.086   2.015   5.512
 4923SOL     OW15667   3.688   1.758   3.097
 4923SOL    HW115668   3.772   1.751   3.044
 4923SOL    HW215669   3.674   1.673   3.148
 4924SOL     OW15670   2.655   1.761   6.079
 4924SOL    HW115671   2.739   1.769   6.026
 4924SOL    HW215672   2.662   1.681   6.140
 4925SOL     OW15673   4.719   0.056   3.273
 4925SOL    HW115674   4.666   0.025   3.194
 4925SOL    HW215675   4.656   0.089   3.343
 4926SOL     OW15676   5.551   2.347   1.960
 4926SOL    HW115677   5.619   2.300   1.905
 4926SOL    HW215678   5.466   2.294   1.961
 4927SOL     OW15679   3.627   1.471   6.759
 4927SOL    HW115680   3.695   1.496   6.827
 4927SOL    HW215681   3.644   1.377   6.728
 4928SOL     OW15682   0.917   2.554   1.089
 4928SOL    HW115683   0.934   2.536   0.992
 4928SOL    HW215684   0.918   2.467   1.140
 4929SOL     OW15685   6.673   0.053   3.851
 4929SOL    HW115686   6.761   0.007   3.858
 4929SOL    HW215687   6.687   0.151   3.838
 4930SOL     OW15688   5.806   6.695   1.950
 4930SOL    HW115689   5.737   6.657   2.012
 4930SOL    HW215690   5.761   6.748   1.878
 4931SOL     OW15691   6.178   6.144   1.688
 4931SOL    HW115692   6.146   6.126   1.595
 4931SOL    HW215693   6.214   6.238   1.693
 4932SOL     OW15694   2.845   3.450   2.267
 4932SOL    HW115695   2.861   3.546   2.289
 4932SOL    HW215696   2.775   3.443   2.196
 4933SOL     OW15697   3.135   5.871   4.741
 4933SOL    HW115698   3.136   5.910   4.648
 4933SOL    HW215699   3.204   5.917   4.797
 4934SOL     OW15700   3.788   5.416   3.426
 4934SOL    HW115701   3.820   5.370   3.343
 4934SOL    HW215702   3.855   5.485   3.454
 4935SOL     OW15703   0.597   1.803   6.725
 4935SOL    HW115704   0.666   1.803   6.798
 4935SOL    HW215705   0.642   1.815   6.636
 4936SOL     OW15706   2.622   4.170   0.918
 4936SOL    HW115707   2.608   4.166   1.018
 4936SOL    HW215708   2.655   4.081   0.886
 4937SOL     OW15709   5.188   3.435   4.891
 4937SOL    HW115710   5.275   3.468   4.926
 4937SOL    HW215711   5.128   3.513   4.871
 4938SOL     OW15712   3.847   5.838   6.129
 4938SOL    HW115713   3.792   5.791   6.199
 4938SOL    HW215714   3.832   5.937   6.136
 4939SOL     OW15715   4.747   3.164   5.683
 4939SOL    HW115716   4.729   3.199   5.590
 4939SOL    HW215717   4.846   3.162   5.699
 4940SOL     OW15718   2.220   6.210   4.916
 4940SOL    HW115719   2.138   6.178   4.870
 4940SOL    HW215720   2.300   6.195   4.857
 4941SOL     OW15721   5.022   1.165   0.307
 4941SOL    HW115722   5.032   1.250   0.255
 4941SOL    HW215723   5.087   1.165   0.383
 4942SOL     OW15724   5.024   3.600   5.242
 4942SOL    HW115725   5.054   3.505   5.238
 4942SOL    HW215726   4.940   3.611   5.190
 4943SOL     OW15727   3.893   2.340   0.963
 4943SOL    HW115728   3.947   2.308   1.041
 4943SOL    HW215729   3.845   2.263   0.922
 4944SOL     OW15730   2.092   4.693   2.457
 4944SOL    HW115731   2.173   4.635   2.455
 4944SOL    HW215732   2.090   4.751   2.376
 4945SOL     OW15733   0.215   6.189   3.876
 4945SOL    HW115734   0.122   6.207   3.843
 4945SOL    HW215735   0.211   6.154   3.969
 4946SOL     OW15736   1.463   3.761   2.490
 4946SOL    HW115737   1.527   3.695   2.527
 4946SOL    HW215738   1.418   3.810   2.565
 4947SOL     OW15739   0.612   6.663   0.881
 4947SOL    HW115740   0.678   6.617   0.939
 4947SOL    HW215741   0.562   6.596   0.826
 4948SOL     OW15742   2.407   1.284   2.219
 4948SOL    HW115743   2.349   1.325   2.289
 4948SOL    HW215744   2.390   1.186   2.215
 4949SOL     OW15745   5.572   1.374   4.944
 4949SOL    HW115746   5.606   1.329   4.861
 4949SOL    HW215747   5.473   1.360   4.952
 4950SOL     OW15748   3.160   5.596   4.819
 4950SOL    HW115749   3.157   5.577   4.917
 4950SOL    HW215750   3.143   5.693   4.803
 4951SOL     OW15751   3.979   2.022   4.584
 4951SOL    HW115752   4.043   1.949   4.562
 4951SOL    HW215753   3.896   2.011   4.530
 4952SOL     OW15754   0.136   6.552   5.611
 4952SOL    HW115755   0.054   6.605   5.631
 4952SOL    HW215756   0.217   6.610   5.622
 4953SOL     OW15757   1.907   5.651   1.841
 4953SOL    HW115758   1.876   5.627   1.933
 4953SOL    HW215759   1.993   5.701   1.846
 4954SOL     OW15760   5.462   5.561   6.683
 4954SOL    HW115761   5.412   5.619   6.747
 4954SOL    HW215762   5.559   5.587   6.683
 4955SOL     OW15763   1.566   6.819   1.667
 4955SOL    HW115764   1.530   6.896   1.719
 4955SOL    HW215765   1.494   6.783   1.606
 4956SOL     OW15766   4.145   6.759   5.005
 4956SOL    HW115767   4.230   6.789   5.049
 4956SOL    HW215768   4.119   6.827   4.936
 4957SOL     OW15769   0.763   0.309   3.870
 4957SOL    HW115770   0.726   0.340   3.957
 4957SOL    HW215771   0.858   0.337   3.862
 4958SOL     OW15772   0.741   5.729   7.019
 4958SOL    HW115773   0.723   5.794   0.069
 4958SOL    HW215774   0.718   5.771   6.932
 4959SOL     OW15775   0.965   1.140   1.563
 4959SOL    HW115776   1.017   1.154   1.647
 4959SOL    HW215777   0.894   1.211   1.555
 4960SOL     OW15778   3.817   6.555   4.628
 4960SOL    HW115779   3.722   6.538   4.601
 4960SOL    HW215780   3.875   6.483   4.591
 4961SOL     OW15781   5.032   0.791   4.689
 4961SOL    HW115782   4.998   0.801   4.596
 4961SOL    HW215783   5.090   0.870   4.712
 4962SOL     OW15784   6.694   2.362   1.149
 4962SOL    HW115785   6.770   2.320   1.099
 4962SOL    HW215786   6.717   2.457   1.172
 4963SOL     OW15787   0.481   5.137   1.578
 4963SOL    HW115788   0.395   5.187   1.582
 4963SOL    HW215789   0.469   5.055   1.521
 4964SOL     OW15790   3.139   6.576   3.266
 4964SOL    HW115791   3.132   6.481   3.298
 4964SOL    HW215792   3.232   6.609   3.282
 4965SOL     OW15793   6.503   0.519   4.512
 4965SOL    HW115794   6.514   0.531   4.414
 4965SOL    HW215795   6.580   0.560   4.560
 4966SOL     OW15796   3.138   4.924   4.628
 4966SOL    HW115797   3.151   4.944   4.725
 4966SOL    HW215798   3.150   5.008   4.575
 4967SOL     OW15799   3.776   2.550   5.998
 4967SOL    HW115800   3.816   2.462   5.972
 4967SOL    HW215801   3.677   2.540   6.007
 4968SOL     OW15802   6.072   3.414   5.533
 4968SOL    HW115803   6.097   3.319   5.548
 4968SOL    HW215804   6.036   3.425   5.440
 4969SOL     OW15805   1.478   1.066   1.930
 4969SOL    HW115806   1.521   1.156   1.939
 4969SOL    HW215807   1.514   1.020   1.849
 4970SOL     OW15808   0.956   2.100   5.060
 4970SOL    HW115809   0.908   2.012   5.068
 4970SOL    HW215810   1.014   2.099   4.978
 4971SOL     OW15811   5.573   6.764   3.701
 4971SOL    HW115812   5.553   6.785   3.605
 4971SOL    HW215813   5.592   6.849   3.750
 4972SOL     OW15814   1.851   3.458   0.021
 4972SOL    HW115815   1.892   3.471   6.954
 4972SOL    HW215816   1.822   3.546   0.058
 4973SOL     OW15817   6.058   6.017   2.616
 4973SOL    HW115818   6.154   6.045   2.614
 4973SOL    HW215819   6.010   6.070   2.686
 4974SOL     OW15820   5.883   6.472   2.203
 4974SOL    HW115821   5.835   6.386   2.223
 4974SOL    HW215822   5.820   6.536   2.160
 4975SOL     OW15823   6.113   5.545   0.513
 4975SOL    HW115824   6.045   5.485   0.470
 4975SOL    HW215825   6.116   5.527   0.611
 4976SOL     OW15826   3.741   0.428   5.364
 4976SOL    HW115827   3.660   0.406   5.309
 4976SOL    HW215828   3.729   0.519   5.405
 4977SOL     OW15829   3.289   3.228   1.023
 4977SOL    HW115830   3.223   3.162   0.987
 4977SOL    HW215831   3.277   3.316   0.976
 4978SOL     OW15832   5.262   2.958   6.199
 4978SOL    HW115833   5.239   3.052   6.171
 4978SOL    HW215834   5.326   2.962   6.277
 4979SOL     OW15835   1.194   0.133   5.753
 4979SOL    HW115836   1.273   0.148   5.692
 4979SOL    HW215837   1.135   0.063   5.713
 4980SOL     OW15838   3.524   5.393   2.184
 4980SOL    HW115839   3.607   5.399   2.239
 4980SOL    HW215840   3.548   5.376   2.088
 4981SOL     OW15841   4.244   6.334   5.357
 4981SOL    HW115842   4.214   6.291   5.442
 4981SOL    HW215843   4.240   6.434   5.367
 4982SOL     OW15844   2.706   3.001   0.497
 4982SOL    HW115845   2.632   3.014   0.563
 4982SOL    HW215846   2.668   2.991   0.405
 4983SOL     OW15847   5.311   3.170   4.337
 4983SOL    HW115848   5.368   3.164   4.419
 4983SOL    HW215849   5.229   3.113   4.349
 4984SOL     OW15850   4.992   3.931   3.463
 4984SOL    HW115851   5.040   4.007   3.419
 4984SOL    HW215852   5.018   3.846   3.419
 4985SOL     OW15853   5.541   4.905   2.381
 4985SOL    HW115854   5.492   4.901   2.468
 4985SOL    HW215855   5.475   4.909   2.306
 4986SOL     OW15856   5.150   4.360   2.761
 4986SOL    HW115857   5.065   4.359   2.814
 4986SOL    HW215858   5.135   4.314   2.673
 4987SOL     OW15859   6.970   3.209   1.697
 4987SOL    HW115860   6.879   3.251   1.694
 4987SOL    HW215861   6.981   3.147   1.619
 4988SOL     OW15862   0.910   1.147   4.260
 4988SOL    HW115863   0.823   1.098   4.258
 4988SOL    HW215864   0.984   1.081   4.271
 4989SOL     OW15865   0.184   1.353   0.496
 4989SOL    HW115866   0.182   1.407   0.580
 4989SOL    HW215867   0.257   1.285   0.500
 4990SOL     OW15868   1.429   2.448   5.322
 4990SOL    HW115869   1.386   2.505   5.252
 4990SOL    HW215870   1.500   2.392   5.281
 4991SOL     OW15871   1.070   3.095   3.786
 4991SOL    HW115872   1.034   3.020   3.841
 4991SOL    HW215873   1.162   3.118   3.817
 4992SOL     OW15874   3.549   0.810   5.320
 4992SOL    HW115875   3.619   0.841   5.384
 4992SOL    HW215876   3.576   0.833   5.227
 4993SOL     OW15877   2.943   6.241   3.866
 4993SOL    HW115878   2.885   6.313   3.829
 4993SOL    HW215879   2.916   6.153   3.829
 4994SOL     OW15880   0.391   0.283   2.395
 4994SOL    HW115881   0.476   0.232   2.408
 4994SOL    HW215882   0.374   0.295   2.298
 4995SOL     OW15883   5.980   2.419   6.263
 4995SOL    HW115884   5.982   2.406   6.362
 4995SOL    HW215885   6.066   2.387   6.223
 4996SOL     OW15886   1.137   1.328   3.102
 4996SOL    HW115887   1.139   1.415   3.152
 4996SOL    HW215888   1.053   1.279   3.124
 4997SOL     OW15889   0.261   2.901   3.689
 4997SOL    HW115890   0.295   2.851   3.768
 4997SOL    HW215891   0.203   2.841   3.634
 4998SOL     OW15892   1.439   5.544   4.695
 4998SOL    HW115893   1.488   5.461   4.722
 4998SOL    HW215894   1.350   5.520   4.656
 4999SOL     OW15895   5.931   5.519   1.115
 4999SOL    HW115896   5.838   5.530   1.079
 4999SOL    HW215897   5.989   5.592   1.080
 5000SOL     OW15898   6.926   6.879   4.751
 5000SOL    HW115899   6.925   6.913   4.845
 5000SOL    HW215900   6.998   6.811   4.741
 5001SOL     OW15901   3.293   4.257   5.215
 5001SOL    HW115902   3.357   4.333   5.229
 5001SOL    HW215903   3.211   4.272   5.270
 5002SOL     OW15904   1.816   0.982   2.053
 5002SOL    HW115905   1.827   1.081   2.062
 5002SOL    HW215906   1.843   0.938   2.138
 5003SOL     OW15907   6.530   6.055   2.819
 5003SOL    HW115908   6.590   5.982   2.853
 5003SOL    HW215909   6.546   6.138   2.872
 5004SOL     OW15910   2.956   6.442   6.847
 5004SOL    HW115911   2.940   6.344   6.845
 5004SOL    HW215912   2.948   6.476   6.941
 5005SOL     OW15913   4.657   2.930   0.107
 5005SOL    HW115914   4.744   2.979   0.118
 5005SOL    HW215915   4.675   2.835   0.083
 5006SOL     OW15916   5.077   6.025   4.683
 5006SOL    HW115917   5.167   6.040   4.641
 5006SOL    HW215918   5.053   5.928   4.675
 5007SOL     OW15919   3.963   1.206   5.278
 5007SOL    HW115920   4.037   1.206   5.211
 5007SOL    HW215921   4.002   1.210   5.370
 5008SOL     OW15922   5.999   0.840   3.688
 5008SOL    HW115923   6.026   0.788   3.607
 5008SOL    HW215924   6.058   0.817   3.764
 5009SOL     OW15925   0.975   6.300   2.846
 5009SOL    HW115926   0.936   6.341   2.763
 5009SOL    HW215927   1.019   6.213   2.822
 5010SOL     OW15928   4.124   3.712   4.248
 5010SOL    HW115929   4.165   3.793   4.205
 5010SOL    HW215930   4.025   3.723   4.253
 5011SOL     OW15931   0.839   2.779   3.031
 5011SOL    HW115932   0.826   2.757   2.934
 5011SOL    HW215933   0.930   2.750   3.059
 5012SOL     OW15934   6.908   2.623   6.621
 5012SOL    HW115935   6.836   2.691   6.635
 5012SOL    HW215936   6.894   2.546   6.683
 5013SOL     OW15937   4.280   1.565   6.236
 5013SOL    HW115938   4.188   1.568   6.197
 5013SOL    HW215939   4.278   1.604   6.328
 5014SOL     OW15940   5.744   6.324   0.463
 5014SOL    HW115941   5.824   6.280   0.422
 5014SOL    HW215942   5.709   6.268   0.537
 5015SOL     OW15943   4.420   2.371   3.892
 5015SOL    HW115944   4.437   2.403   3.799
 5015SOL    HW215945   4.473   2.427   3.956
 5016SOL     OW15946   2.457   0.065   3.103
 5016SOL    HW115947   2.530   0.112   3.152
 5016SOL    HW215948   2.451   0.101   3.010
 5017SOL     OW15949   2.446   2.607   0.885
 5017SOL    HW115950   2.467   2.516   0.850
 5017SOL    HW215951   2.350   2.611   0.913
 5018SOL     OW15952   6.126   5.239   3.684
 5018SOL    HW115953   6.137   5.339   3.689
 5018SOL    HW215954   6.186   5.203   3.612
 5019SOL     OW15955   2.131   4.289   6.862
 5019SOL    HW115956   2.200   4.217   6.852
 5019SOL    HW215957   2.140   4.331   6.952
 5020SOL     OW15958   5.356   4.837   6.366
 5020SOL    HW115959   5.422   4.786   6.311
 5020SOL    HW215960   5.263   4.808   6.342
 5021SOL     OW15961   1.984   4.280   6.401
 5021SOL    HW115962   2.056   4.223   6.362
 5021SOL    HW215963   1.969   4.360   6.343
 5022SOL     OW15964   1.508   6.084   0.456
 5022SOL    HW115965   1.532   5.996   0.496
 5022SOL    HW215966   1.514   6.155   0.525
 5023SOL     OW15967   6.241   3.087   1.958
 5023SOL    HW115968   6.311   3.141   1.911
 5023SOL    HW215969   6.280   3.000   1.987
 5024SOL     OW15970   6.307   3.975   4.481
 5024SOL    HW115971   6.250   4.057   4.479
 5024SOL    HW215972   6.340   3.958   4.574
 5025SOL     OW15973   5.469   1.365   3.406
 5025SOL    HW115974   5.559   1.358   3.362
 5025SOL    HW215975   5.423   1.448   3.375
 5026SOL     OW15976   0.126   6.795   3.758
 5026SOL    HW115977   0.205   6.842   3.716
 5026SOL    HW215978   0.159   6.730   3.827
 5027SOL     OW15979   0.792   6.718   3.528
 5027SOL    HW115980   0.764   6.804   3.571
 5027SOL    HW215981   0.880   6.730   3.482
 5028SOL     OW15982   0.234   0.868   3.135
 5028SOL    HW115983   0.256   0.814   3.053
 5028SOL    HW215984   0.314   0.921   3.162
 5029SOL     OW15985   0.122   1.948   1.175
 5029SOL    HW115986   0.149   1.892   1.097
 5029SOL    HW215987   0.190   2.019   1.191
 5030SOL     OW15988   0.979   6.945   0.052
 5030SOL    HW115989   1.002   0.018   0.062
 5030SOL    HW215990   0.908   6.935   7.006
 5031SOL     OW15991   5.765   0.765   4.289
 5031SOL    HW115992   5.687   0.703   4.301
 5031SOL    HW215993   5.848   0.721   4.324
 5032SOL     OW15994   2.013   5.358   1.048
 5032SOL    HW115995   2.075   5.318   1.116
 5032SOL    HW215996   1.926   5.310   1.051
 5033SOL     OW15997   2.428   3.927   5.582
 5033SOL    HW115998   2.483   3.846   5.563
 5033SOL    HW215999   2.417   3.938   5.680
 5034SOL     OW16000   6.632   3.074   1.062
 5034SOL    HW116001   6.549   3.125   1.086
 5034SOL    HW216002   6.608   2.979   1.044
 5035SOL     OW16003   4.943   4.669   0.486
 5035SOL    HW116004   4.967   4.680   0.390
 5035SOL    HW216005   4.994   4.737   0.540
 5036SOL     OW16006   1.040   0.157   1.247
 5036SOL    HW116007   1.011   0.096   1.322
 5036SOL    HW216008   0.964   0.168   1.183
 5037SOL     OW16009   4.216   2.319   4.425
 5037SOL    HW116010   4.271   2.240   4.452
 5037SOL    HW216011   4.148   2.290   4.357
 5038SOL     OW16012   1.536   6.417   5.718
 5038SOL    HW116013   1.489   6.332   5.695
 5038SOL    HW216014   1.593   6.402   5.800
 5039SOL     OW16015   2.007   2.308   5.089
 5039SOL    HW116016   2.059   2.274   5.168
 5039SOL    HW216017   2.005   2.407   5.091
 5040SOL     OW16018   3.196   3.996   5.464
 5040SOL    HW116019   3.139   3.956   5.393
 5040SOL    HW216020   3.196   4.095   5.456
 5041SOL     OW16021   1.329   3.797   1.394
 5041SOL    HW116022   1.344   3.819   1.297
 5041SOL    HW216023   1.256   3.729   1.402
 5042SOL     OW16024   5.387   2.498   6.179
 5042SOL    HW116025   5.399   2.489   6.080
 5042SOL    HW216026   5.342   2.584   6.200
 5043SOL     OW16027   3.490   0.896   3.443
 5043SOL    HW116028   3.471   0.992   3.462
 5043SOL    HW216029   3.427   0.863   3.373
 5044SOL     OW16030   6.045   5.005   3.495
 5044SOL    HW116031   6.004   5.014   3.404
 5044SOL    HW216032   6.143   5.024   3.489
 5045SOL     OW16033   6.264   2.345   6.481
 5045SOL    HW116034   6.311   2.431   6.497
 5045SOL    HW216035   6.175   2.346   6.527
 5046SOL     OW16036   3.355   3.074   5.182
 5046SOL    HW116037   3.398   3.009   5.119
 5046SOL    HW216038   3.380   3.050   5.276
 5047SOL     OW16039   0.960   0.862   2.142
 5047SOL    HW116040   1.023   0.928   2.183
 5047SOL    HW216041   1.011   0.802   2.079
 5048SOL     OW16042   6.494   2.590   1.149
 5048SOL    HW116043   6.428   2.527   1.107
 5048SOL    HW216044   6.470   2.604   1.245
 5049SOL     OW16045   0.913   2.445   2.672
 5049SOL    HW116046   0.984   2.390   2.630
 5049SOL    HW216047   0.825   2.426   2.628
 5050SOL     OW16048   0.867   3.522   2.133
 5050SOL    HW116049   0.899   3.571   2.214
 5050SOL    HW216050   0.870   3.424   2.149
 5051SOL     OW16051   2.929   5.368   0.601
 5051SOL    HW116052   2.840   5.326   0.582
 5051SOL    HW216053   2.917   5.447   0.660
 5052SOL     OW16054   5.570   4.685   1.313
 5052SOL    HW116055   5.474   4.673   1.289
 5052SOL    HW216056   5.579   4.696   1.412
 5053SOL     OW16057   2.444   4.500   0.631
 5053SOL    HW116058   2.370   4.451   0.677
 5053SOL    HW216059   2.497   4.552   0.699
 5054SOL     OW16060   3.648   5.600   4.676
 5054SOL    HW116061   3.548   5.605   4.679
 5054SOL    HW216062   3.685   5.680   4.629
 5055SOL     OW16063   1.126   1.365   4.954
 5055SOL    HW116064   1.178   1.280   4.959
 5055SOL    HW216065   1.186   1.439   4.922
 5056SOL     OW16066   1.003   2.825   4.945
 5056SOL    HW116067   1.046   2.838   5.035
 5056SOL    HW216068   1.046   2.887   4.879
 5057SOL     OW16069   0.090   5.533   3.124
 5057SOL    HW116070   0.047   5.534   3.034
 5057SOL    HW216071   0.095   5.626   3.160
 5058SOL     OW16072   4.565   4.506   6.756
 5058SOL    HW116073   4.493   4.438   6.741
 5058SOL    HW216074   4.525   4.598   6.753
 5059SOL     OW16075   3.520   1.859   3.719
 5059SOL    HW116076   3.521   1.928   3.647
 5059SOL    HW216077   3.464   1.781   3.691
 5060SOL     OW16078   0.589   3.298   5.375
 5060SOL    HW116079   0.557   3.338   5.289
 5060SOL    HW216080   0.683   3.327   5.392
 5061SOL     OW16081   3.593   2.830   5.374
 5061SOL    HW116082   3.674   2.857   5.426
 5061SOL    HW216083   3.622   2.794   5.285
 5062SOL     OW16084   5.223   1.143   2.674
 5062SOL    HW116085   5.202   1.047   2.694
 5062SOL    HW216086   5.268   1.185   2.753
 5063SOL     OW16087   0.944   6.982   2.410
 5063SOL    HW116088   0.875   6.950   2.346
 5063SOL    HW216089   0.914   0.043   2.453
 5064SOL     OW16090   4.468   5.592   0.988
 5064SOL    HW116091   4.378   5.621   0.953
 5064SOL    HW216092   4.519   5.672   1.020
 5065SOL     OW16093   2.493   6.836   3.201
 5065SOL    HW116094   2.477   6.933   3.182
 5065SOL    HW216095   2.531   6.793   3.119
 5066SOL     OW16096   2.241   4.498   1.739
 5066SOL    HW116097   2.214   4.455   1.653
 5066SOL    HW216098   2.333   4.470   1.764
 5067SOL     OW16099   4.005   3.286   1.549
 5067SOL    HW116100   4.027   3.266   1.454
 5067SOL    HW216101   4.082   3.261   1.608
 5068SOL     OW16102   2.852   6.392   0.460
 5068SOL    HW116103   2.934   6.366   0.511
 5068SOL    HW216104   2.826   6.318   0.399
 5069SOL     OW16105   3.325   5.073   5.859
 5069SOL    HW116106   3.424   5.068   5.863
 5069SOL    HW216107   3.294   5.162   5.892
 5070SOL     OW16108   6.331   3.299   3.745
 5070SOL    HW116109   6.428   3.275   3.737
 5070SOL    HW216110   6.275   3.220   3.717
 5071SOL     OW16111   3.113   0.870   3.904
 5071SOL    HW116112   3.058   0.947   3.938
 5071SOL    HW216113   3.070   0.784   3.933
 5072SOL     OW16114   1.452   1.446   0.491
 5072SOL    HW116115   1.536   1.449   0.545
 5072SOL    HW216116   1.440   1.533   0.444
 5073SOL     OW16117   2.711   6.603   2.714
 5073SOL    HW116118   2.687   6.639   2.804
 5073SOL    HW216119   2.724   6.679   2.650
 5074SOL     OW16120   3.443   2.318   1.699
 5074SOL    HW116121   3.383   2.247   1.737
 5074SOL    HW216122   3.516   2.339   1.764
 5075SOL     OW16123   0.976   3.199   6.814
 5075SOL    HW116124   0.922   3.278   6.845
 5075SOL    HW216125   0.986   3.134   6.889
 5076SOL     OW16126   5.670   0.210   6.827
 5076SOL    HW116127   5.629   0.149   6.895
 5076SOL    HW216128   5.763   0.179   6.807
 5077SOL     OW16129   0.895   4.260   3.939
 5077SOL    HW116130   0.995   4.260   3.946
 5077SOL    HW216131   0.869   4.265   3.843
 5078SOL     OW16132   0.675   1.261   3.996
 5078SOL    HW116133   0.713   1.169   3.986
 5078SOL    HW216134   0.631   1.289   3.911
 5079SOL     OW16135   1.370   2.652   6.286
 5079SOL    HW116136   1.337   2.567   6.245
 5079SOL    HW216137   1.464   2.670   6.256
 5080SOL     OW16138   6.070   5.337   6.193
 5080SOL    HW116139   6.099   5.426   6.158
 5080SOL    HW216140   5.989   5.348   6.250
 5081SOL     OW16141   3.223   5.657   5.291
 5081SOL    HW116142   3.318   5.666   5.321
 5081SOL    HW216143   3.170   5.611   5.362
 5082SOL     OW16144   5.735   5.982   1.776
 5082SOL    HW116145   5.735   6.079   1.752
 5082SOL    HW216146   5.646   5.958   1.815
 5083SOL     OW16147   2.272   6.863   3.399
 5083SOL    HW116148   2.328   6.827   3.324
 5083SOL    HW216149   2.234   6.952   3.371
 5084SOL     OW16150   1.401   4.877   5.510
 5084SOL    HW116151   1.395   4.977   5.509
 5084SOL    HW216152   1.396   4.844   5.604
 5085SOL     OW16153   0.084   3.683   6.201
 5085SOL    HW116154   0.104   3.595   6.243
 5085SOL    HW216155   0.145   3.753   6.238
 5086SOL     OW16156   2.051   4.875   1.986
 5086SOL    HW116157   2.131   4.931   2.010
 5086SOL    HW216158   2.082   4.785   1.954
 5087SOL     OW16159   6.404   4.927   2.480
 5087SOL    HW116160   6.384   4.833   2.451
 5087SOL    HW216161   6.360   4.944   2.568
 5088SOL     OW16162   4.729   6.320   2.090
 5088SOL    HW116163   4.643   6.368   2.110
 5088SOL    HW216164   4.716   6.222   2.104
 5089SOL     OW16165   5.783   5.099   4.516
 5089SOL    HW116166   5.815   5.066   4.427
 5089SOL    HW216167   5.721   5.176   4.503
 5090SOL     OW16168   2.997   0.204   5.001
 5090SOL    HW116169   3.032   0.173   4.912
 5090SOL    HW216170   2.915   0.152   5.024
 5091SOL     OW16171   6.310   6.991   0.301
 5091SOL    HW116172   6.284   0.013   0.386
 5091SOL    HW216173   6.243   7.012   0.230
 5092SOL     OW16174   2.998   3.600   4.950
 5092SOL    HW116175   2.924   3.646   5.000
 5092SOL    HW216176   3.023   3.516   4.999
 5093SOL     OW16177   1.876   1.950   2.318
 5093SOL    HW116178   1.834   1.939   2.227
 5093SOL    HW216179   1.973   1.973   2.307
 5094SOL     OW16180   2.609   5.938   6.316
 5094SOL    HW116181   2.701   5.974   6.330
 5094SOL    HW216182   2.598   5.908   6.221
 5095SOL     OW16183   0.243   0.716   2.901
 5095SOL    HW116184   0.314   0.655   2.866
 5095SOL    HW216185   0.166   0.718   2.837
 5096SOL     OW16186   4.969   2.563   6.053
 5096SOL    HW116187   5.030   2.489   6.026
 5096SOL    HW216188   5.019   2.630   6.107
 5097SOL     OW16189   0.606   5.838   6.813
 5097SOL    HW116190   0.644   5.929   6.800
 5097SOL    HW216191   0.557   5.809   6.731
 5098SOL     OW16192   3.866   2.286   1.696
 5098SOL    HW116193   3.925   2.366   1.689
 5098SOL    HW216194   3.782   2.309   1.745
 5099SOL     OW16195   1.262   6.497   1.838
 5099SOL    HW116196   1.343   6.498   1.779
 5099SOL    HW216197   1.230   6.404   1.850
 5100SOL     OW16198   5.034   3.574   2.559
 5100SOL    HW116199   5.122   3.534   2.585
 5100SOL    HW216200   4.990   3.518   2.490
 5101SOL     OW16201   3.957   6.835   5.648
 5101SOL    HW116202   4.029   6.834   5.717
 5101SOL    HW216203   3.868   6.824   5.693
 5102SOL     OW16204   5.029   5.070   4.392
 5102SOL    HW116205   5.087   5.129   4.448
 5102SOL    HW216206   5.068   4.978   4.389
 5103SOL     OW16207   1.257   0.347   5.910
 5103SOL    HW116208   1.252   0.270   5.847
 5103SOL    HW216209   1.170   0.356   5.960
 5104SOL     OW16210   3.695   4.570   1.535
 5104SOL    HW116211   3.730   4.549   1.443
 5104SOL    HW216212   3.599   4.597   1.528
 5105SOL     OW16213   3.921   2.472   6.826
 5105SOL    HW116214   3.835   2.517   6.852
 5105SOL    HW216215   3.909   2.428   6.737
 5106SOL     OW16216   4.321   3.012   1.224
 5106SOL    HW116217   4.334   2.941   1.155
 5106SOL    HW216218   4.301   2.968   1.312
 5107SOL     OW16219   5.124   3.557   1.061
 5107SOL    HW116220   5.200   3.613   1.027
 5107SOL    HW216221   5.130   3.465   1.023
 5108SOL     OW16222   4.652   3.884   6.312
 5108SOL    HW116223   4.562   3.868   6.351
 5108SOL    HW216224   4.684   3.975   6.340
 5109SOL     OW16225   1.942   2.494   1.157
 5109SOL    HW116226   1.988   2.413   1.195
 5109SOL    HW216227   1.872   2.464   1.091
 5110SOL     OW16228   5.812   0.300   6.494
 5110SOL    HW116229   5.873   0.371   6.528
 5110SOL    HW216230   5.826   0.288   6.396
 5111SOL     OW16231   0.838   6.123   5.164
 5111SOL    HW116232   0.818   6.070   5.081
 5111SOL    HW216233   0.898   6.069   5.224
 5112SOL     OW16234   0.473   0.497   3.207
 5112SOL    HW116235   0.510   0.576   3.258
 5112SOL    HW216236   0.479   0.515   3.109
 5113SOL     OW16237   1.946   4.836   0.609
 5113SOL    HW116238   2.041   4.810   0.629
 5113SOL    HW216239   1.928   4.824   0.511
 5114SOL     OW16240   4.353   6.097   1.072
 5114SOL    HW116241   4.350   6.030   1.145
 5114SOL    HW216242   4.392   6.182   1.107
 5115SOL     OW16243   1.695   3.456   1.098
 5115SOL    HW116244   1.668   3.360   1.102
 5115SOL    HW216245   1.635   3.505   1.035
 5116SOL     OW16246   1.994   6.564   6.588
 5116SOL    HW116247   2.039   6.567   6.499
 5116SOL    HW216248   1.934   6.484   6.593
 5117SOL     OW16249   1.634   2.837   4.271
 5117SOL    HW116250   1.567   2.836   4.345
 5117SOL    HW216251   1.725   2.820   4.309
 5118SOL     OW16252   5.711   5.894   6.908
 5118SOL    HW116253   5.636   5.959   6.899
 5118SOL    HW216254   5.703   5.844   6.994
 5119SOL     OW16255   4.858   1.467   0.491
 5119SOL    HW116256   4.808   1.424   0.416
 5119SOL    HW216257   4.850   1.567   0.483
 5120SOL     OW16258   4.791   0.292   5.269
 5120SOL    HW116259   4.885   0.285   5.237
 5120SOL    HW216260   4.749   0.375   5.230
 5121SOL     OW16261   2.694   3.995   6.727
 5121SOL    HW116262   2.676   3.977   6.631
 5121SOL    HW216263   2.707   4.093   6.742
 5122SOL     OW16264   4.834   5.373   3.727
 5122SOL    HW116265   4.821   5.472   3.721
 5122SOL    HW216266   4.747   5.330   3.753
 5123SOL     OW16267   4.684   2.546   2.301
 5123SOL    HW116268   4.776   2.569   2.334
 5123SOL    HW216269   4.655   2.614   2.233
 5124SOL     OW16270   2.386   6.574   3.904
 5124SOL    HW116271   2.288   6.565   3.921
 5124SOL    HW216272   2.427   6.632   3.974
 5125SOL     OW16273   0.507   1.920   3.935
 5125SOL    HW116274   0.463   2.004   3.903
 5125SOL    HW216275   0.556   1.877   3.859
 5126SOL     OW16276   2.171   6.907   1.125
 5126SOL    HW116277   2.222   6.833   1.081
 5126SOL    HW216278   2.101   6.868   1.185
 5127SOL     OW16279   2.011   5.555   0.428
 5127SOL    HW116280   1.920   5.562   0.386
 5127SOL    HW216281   2.002   5.517   0.520
 5128SOL     OW16282   6.393   6.008   1.368
 5128SOL    HW116283   6.306   5.971   1.336
 5128SOL    HW216284   6.458   5.933   1.384
 5129SOL     OW16285   5.648   6.991   0.873
 5129SOL    HW116286   5.620   0.014   0.790
 5129SOL    HW216287   5.668   6.895   0.853
 5130SOL     OW16288   6.294   5.103   3.514
 5130SOL    HW116289   6.343   5.167   3.456
 5130SOL    HW216290   6.359   5.048   3.566
 5131SOL     OW16291   2.117   2.437   3.646
 5131SOL    HW116292   2.143   2.497   3.571
 5131SOL    HW216293   2.091   2.492   3.726
 5132SOL     OW16294   3.099   5.160   5.758
 5132SOL    HW116295   3.077   5.223   5.833
 5132SOL    HW216296   3.147   5.080   5.794
 5133SOL     OW16297   3.798   6.089   6.256
 5133SOL    HW116298   3.846   6.081   6.343
 5133SOL    HW216299   3.721   6.151   6.265
 5134SOL     OW16300   0.468   3.578   1.193
 5134SOL    HW116301   0.481   3.543   1.286
 5134SOL    HW216302   0.373   3.565   1.165
 5135SOL     OW16303   0.084   1.678   4.737
 5135SOL    HW116304   0.050   1.722   4.653
 5135SOL    HW216305   0.041   1.720   4.817
 5136SOL     OW16306   4.982   1.404   3.968
 5136SOL    HW116307   5.049   1.449   4.027
 5136SOL    HW216308   4.943   1.326   4.015
 5137SOL     OW16309   4.260   4.729   6.155
 5137SOL    HW116310   4.345   4.693   6.192
 5137SOL    HW216311   4.183   4.674   6.187
 5138SOL     OW16312   2.390   3.560   5.765
 5138SOL    HW116313   2.334   3.589   5.687
 5138SOL    HW216314   2.478   3.607   5.763
 5139SOL     OW16315   1.348   6.645   3.906
 5139SOL    HW116316   1.394   6.610   3.988
 5139SOL    HW216317   1.350   6.576   3.835
 5140SOL     OW16318   3.300   2.969   0.595
 5140SOL    HW116319   3.384   3.011   0.628
 5140SOL    HW216320   3.310   2.869   0.595
 5141SOL     OW16321   5.641   3.025   0.115
 5141SOL    HW116322   5.582   2.947   0.138
 5141SOL    HW216323   5.718   2.993   0.059
 5142SOL     OW16324   5.705   4.008   4.892
 5142SOL    HW116325   5.646   4.045   4.820
 5142SOL    HW216326   5.650   3.989   4.973
 5143SOL     OW16327   6.555   5.482   4.580
 5143SOL    HW116328   6.644   5.504   4.540
 5143SOL    HW216329   6.484   5.534   4.533
 5144SOL     OW16330   1.417   0.824   5.630
 5144SOL    HW116331   1.421   0.865   5.539
 5144SOL    HW216332   1.371   0.735   5.625
 5145SOL     OW16333   1.997   5.342   6.016
 5145SOL    HW116334   1.947   5.415   5.969
 5145SOL    HW216335   1.942   5.306   6.091
 5146SOL     OW16336   3.329   4.691   6.847
 5146SOL    HW116337   3.410   4.734   6.887
 5146SOL    HW216338   3.253   4.696   6.912
 5147SOL     OW16339   6.324   4.189   6.999
 5147SOL    HW116340   6.397   4.217   0.037
 5147SOL    HW216341   6.280   4.107   0.011
 5148SOL     OW16342   6.976   6.149   1.493
 5148SOL    HW116343   7.006   6.118   1.583
 5148SOL    HW216344   0.026   6.138   1.427
 5149SOL     OW16345   6.450   1.449   3.753
 5149SOL    HW116346   6.419   1.409   3.839
 5149SOL    HW216347   6.495   1.536   3.771
 5150SOL     OW16348   1.631   5.301   4.011
 5150SOL    HW116349   1.667   5.331   4.099
 5150SOL    HW216350   1.628   5.378   3.947
 5151SOL     OW16351   4.974   1.255   6.388
 5151SOL    HW116352   5.046   1.323   6.380
 5151SOL    HW216353   5.013   1.163   6.388
 5152SOL     OW16354   1.127   3.933   0.252
 5152SOL    HW116355   1.168   3.921   0.162
 5152SOL    HW216356   1.165   4.015   0.295
 5153SOL     OW16357   1.504   2.091   0.601
 5153SOL    HW116358   1.470   2.090   0.695
 5153SOL    HW216359   1.433   2.127   0.541
 5154SOL     OW16360   1.494   3.039   5.723
 5154SOL    HW116361   1.479   3.016   5.819
 5154SOL    HW216362   1.582   3.002   5.693
 5155SOL     OW16363   3.757   0.013   1.885
 5155SOL    HW116364   3.835   0.053   1.837
 5155SOL    HW216365   3.780   0.000   1.981
 5156SOL     OW16366   6.585   2.493   5.431
 5156SOL    HW116367   6.604   2.415   5.489
 5156SOL    HW216368   6.666   2.515   5.376
 5157SOL     OW16369   4.833   3.173   3.595
 5157SOL    HW116370   4.928   3.177   3.565
 5157SOL    HW216371   4.800   3.265   3.613
 5158SOL     OW16372   4.164   1.073   1.143
 5158SOL    HW116373   4.076   1.120   1.153
 5158SOL    HW216374   4.238   1.138   1.155
 5159SOL     OW16375   1.326   3.580   4.311
 5159SOL    HW116376   1.256   3.614   4.248
 5159SOL    HW216377   1.389   3.520   4.262
 5160SOL     OW16378   1.928   4.160   4.461
 5160SOL    HW116379   2.025   4.159   4.485
 5160SOL    HW216380   1.878   4.224   4.519
 5161SOL     OW16381   1.306   2.940   5.281
 5161SOL    HW116382   1.368   2.951   5.204
 5161SOL    HW216383   1.275   3.029   5.312
 5162SOL     OW16384   6.562   6.451   3.516
 5162SOL    HW116385   6.535   6.534   3.466
 5162SOL    HW216386   6.522   6.371   3.472
 5163SOL     OW16387   5.550   4.771   1.587
 5163SOL    HW116388   5.630   4.714   1.607
 5163SOL    HW216389   5.526   4.824   1.668
 5164SOL     OW16390   5.722   3.524   5.551
 5164SOL    HW116391   5.805   3.545   5.604
 5164SOL    HW216392   5.731   3.434   5.509
 5165SOL     OW16393   6.357   4.727   4.282
 5165SOL    HW116394   6.345   4.810   4.227
 5165SOL    HW216395   6.305   4.652   4.241
 5166SOL     OW16396   1.982   5.378   2.116
 5166SOL    HW116397   1.990   5.278   2.117
 5166SOL    HW216398   1.896   5.404   2.072
 5167SOL     OW16399   0.260   6.519   5.976
 5167SOL    HW116400   0.322   6.516   5.898
 5167SOL    HW216401   0.292   6.457   6.047
 5168SOL     OW16402   4.124   2.229   3.043
 5168SOL    HW116403   4.121   2.213   2.944
 5168SOL    HW216404   4.137   2.327   3.060
 5169SOL     OW16405   3.432   3.840   5.949
 5169SOL    HW116406   3.368   3.902   5.903
 5169SOL    HW216407   3.422   3.748   5.911
 5170SOL     OW16408   6.164   4.513   4.796
 5170SOL    HW116409   6.162   4.579   4.720
 5170SOL    HW216410   6.101   4.438   4.776
 5171SOL     OW16411   1.784   4.953   4.786
 5171SOL    HW116412   1.854   5.024   4.796
 5171SOL    HW216413   1.714   4.984   4.722
 5172SOL     OW16414   0.684   4.828   2.324
 5172SOL    HW116415   0.588   4.844   2.350
 5172SOL    HW216416   0.733   4.788   2.401
 5173SOL     OW16417   5.192   2.712   6.637
 5173SOL    HW116418   5.151   2.650   6.704
 5173SOL    HW216419   5.159   2.805   6.653
 5174SOL     OW16420   1.456   4.792   6.183
 5174SOL    HW116421   1.483   4.856   6.254
 5174SOL    HW216422   1.503   4.815   6.098
 5175SOL     OW16423   1.145   4.298   0.915
 5175SOL    HW116424   1.139   4.382   0.861
 5175SOL    HW216425   1.070   4.295   0.980
 5176SOL     OW16426   4.038   3.687   0.733
 5176SOL    HW116427   4.023   3.664   0.829
 5176SOL    HW216428   3.952   3.720   0.693
 5177SOL     OW16429   5.057   6.825   6.204
 5177SOL    HW116430   5.004   6.765   6.145
 5177SOL    HW216431   5.042   6.800   6.299
 5178SOL     OW16432   2.680   2.688   1.607
 5178SOL    HW116433   2.676   2.615   1.675
 5178SOL    HW216434   2.611   2.757   1.628
 5179SOL     OW16435   3.380   6.209   5.395
 5179SOL    HW116436   3.291   6.254   5.397
 5179SOL    HW216437   3.406   6.184   5.489
 5180SOL     OW16438   2.996   2.799   1.239
 5180SOL    HW116439   3.066   2.744   1.285
 5180SOL    HW216440   2.927   2.738   1.199
 5181SOL     OW16441   4.454   0.130   3.042
 5181SOL    HW116442   4.446   0.138   2.942
 5181SOL    HW216443   4.539   0.173   3.072
 5182SOL     OW16444   5.935   4.397   2.017
 5182SOL    HW116445   5.877   4.362   1.943
 5182SOL    HW216446   5.985   4.321   2.058
 5183SOL     OW16447   4.378   6.764   1.489
 5183SOL    HW116448   4.473   6.794   1.482
 5183SOL    HW216449   4.322   6.838   1.526
 5184SOL     OW16450   1.036   0.598   3.119
 5184SOL    HW116451   0.986   0.652   3.188
 5184SOL    HW216452   1.115   0.650   3.088
 5185SOL     OW16453   3.311   0.305   1.973
 5185SOL    HW116454   3.321   0.375   1.902
 5185SOL    HW216455   3.401   0.284   2.012
 5186SOL     OW16456   6.577   4.644   0.373
 5186SOL    HW116457   6.543   4.738   0.377
 5186SOL    HW216458   6.677   4.645   0.381
 5187SOL     OW16459   6.274   1.963   3.213
 5187SOL    HW116460   6.374   1.956   3.204
 5187SOL    HW216461   6.239   1.879   3.255
 5188SOL     OW16462   0.729   3.996   5.843
 5188SOL    HW116463   0.804   4.061   5.857
 5188SOL    HW216464   0.655   4.017   5.906
 5189SOL     OW16465   4.600   4.921   6.432
 5189SOL    HW116466   4.634   5.003   6.387
 5189SOL    HW216467   4.580   4.851   6.362
 5190SOL     OW16468   1.219   2.459   3.934
 5190SOL    HW116469   1.297   2.522   3.936
 5190SOL    HW216470   1.149   2.494   3.872
 5191SOL     OW16471   3.218   1.302   1.501
 5191SOL    HW116472   3.255   1.392   1.525
 5191SOL    HW216473   3.187   1.303   1.406
 5192SOL     OW16474   5.817   5.761   2.667
 5192SOL    HW116475   5.917   5.767   2.673
 5192SOL    HW216476   5.788   5.668   2.691
 5193SOL     OW16477   4.881   4.018   3.864
 5193SOL    HW116478   4.871   3.925   3.827
 5193SOL    HW216479   4.949   4.017   3.938
 5194SOL     OW16480   5.238   0.733   5.658
 5194SOL    HW116481   5.236   0.826   5.622
 5194SOL    HW216482   5.294   0.676   5.599
 5195SOL     OW16483   6.134   6.438   5.203
 5195SOL    HW116484   6.126   6.537   5.198
 5195SOL    HW216485   6.139   6.410   5.299
 5196SOL     OW16486   0.128   4.136   1.557
 5196SOL    HW116487   0.129   4.072   1.480
 5196SOL    HW216488   0.061   4.106   1.625
 5197SOL     OW16489   2.677   5.468   5.190
 5197SOL    HW116490   2.642   5.405   5.260
 5197SOL    HW216491   2.699   5.416   5.107
 5198SOL     OW16492   3.593   6.301   5.219
 5198SOL    HW116493   3.684   6.322   5.254
 5198SOL    HW216494   3.540   6.253   5.289
 5199SOL     OW16495   2.182   5.457   1.479
 5199SOL    HW116496   2.118   5.382   1.495
 5199SOL    HW216497   2.131   5.539   1.452
 5200SOL     OW16498   0.434   1.397   5.163
 5200SOL    HW116499   0.351   1.450   5.144
 5200SOL    HW216500   0.432   1.363   5.257
 5201SOL     OW16501   5.910   4.944   3.962
 5201SOL    HW116502   5.924   4.909   3.869
 5201SOL    HW216503   5.823   4.992   3.967
 5202SOL     OW16504   3.791   2.754   6.562
 5202SOL    HW116505   3.710   2.750   6.621
 5202SOL    HW216506   3.843   2.837   6.584
 5203SOL     OW16507   2.000   0.383   0.373
 5203SOL    HW116508   1.970   0.290   0.351
 5203SOL    HW216509   2.070   0.412   0.308
 5204SOL     OW16510   3.390   0.754   0.035
 5204SOL    HW116511   3.401   0.785   6.965
 5204SOL    HW216512   3.431   0.663   0.045
 5205SOL     OW16513   0.620   5.534   0.989
 5205SOL    HW116514   0.593   5.592   0.913
 5205SOL    HW216515   0.554   5.459   0.999
 5206SOL     OW16516   0.808   4.637   5.174
 5206SOL    HW116517   0.773   4.569   5.238
 5206SOL    HW216518   0.908   4.635   5.174
 5207SOL     OW16519   0.164   0.737   4.081
 5207SOL    HW116520   0.068   0.765   4.084
 5207SOL    HW216521   0.182   0.668   4.151
 5208SOL     OW16522   4.873   2.169   0.541
 5208SOL    HW116523   4.788   2.154   0.592
 5208SOL    HW216524   4.885   2.267   0.525
 5209SOL     OW16525   4.927   5.549   2.823
 5209SOL    HW116526   4.839   5.512   2.793
 5209SOL    HW216527   4.997   5.529   2.754
 5210SOL     OW16528   5.365   4.391   0.372
 5210SOL    HW116529   5.399   4.393   0.466
 5210SOL    HW216530   5.281   4.336   0.368
 5211SOL     OW16531   4.813   2.826   4.461
 5211SOL    HW116532   4.894   2.777   4.494
 5211SOL    HW216533   4.734   2.766   4.464
 5212SOL     OW16534   1.163   3.282   1.537
 5212SOL    HW116535   1.202   3.267   1.446
 5212SOL    HW216536   1.065   3.300   1.528
 5213SOL     OW16537   3.940   3.709   2.432
 5213SOL    HW116538   3.899   3.619   2.446
 5213SOL    HW216539   3.968   3.718   2.337
 5214SOL     OW16540   5.380   3.273   5.630
 5214SOL    HW116541   5.347   3.274   5.536
 5214SOL    HW216542   5.372   3.364   5.670
 5215SOL     OW16543   0.310   3.795   4.712
 5215SOL    HW116544   0.351   3.800   4.803
 5215SOL    HW216545   0.247   3.872   4.699
 5216SOL     OW16546   5.221   5.527   0.261
 5216SOL    HW116547   5.263   5.616   0.281
 5216SOL    HW216548   5.176   5.531   0.172
 5217SOL     OW16549   4.107   6.482   4.009
 5217SOL    HW116550   4.160   6.533   4.077
 5217SOL    HW216551   4.165   6.462   3.930
 5218SOL     OW16552   0.345   6.854   0.780
 5218SOL    HW116553   0.390   6.896   0.858
 5218SOL    HW216554   0.291   6.775   0.810
 5219SOL     OW16555   2.344   1.802   5.278
 5219SOL    HW116556   2.262   1.847   5.244
 5219SOL    HW216557   2.400   1.867   5.329
 5220SOL     OW16558   1.897   4.614   4.186
 5220SOL    HW116559   1.800   4.620   4.164
 5220SOL    HW216560   1.950   4.665   4.118
 5221SOL     OW16561   6.813   6.997   1.314
 5221SOL    HW116562   6.808   0.062   1.360
 5221SOL    HW216563   6.786   6.925   1.379
 5222SOL     OW16564   4.722   4.536   0.983
 5222SOL    HW116565   4.718   4.546   1.083
 5222SOL    HW216566   4.762   4.619   0.943
 5223SOL     OW16567   0.811   2.942   1.378
 5223SOL    HW116568   0.810   2.868   1.312
 5223SOL    HW216569   0.893   2.998   1.364
 5224SOL     OW16570   0.343   2.748   5.066
 5224SOL    HW116571   0.293   2.832   5.086
 5224SOL    HW216572   0.411   2.766   4.995
 5225SOL     OW16573   0.350   1.803   4.737
 5225SOL    HW116574   0.258   1.779   4.709
 5225SOL    HW216575   0.416   1.740   4.696
 5226SOL     OW16576   0.280   6.626   3.927
 5226SOL    HW116577   0.361   6.570   3.908
 5226SOL    HW216578   0.229   6.586   4.004
 5227SOL     OW16579   6.959   2.852   5.230
 5227SOL    HW116580   7.005   2.795   5.298
 5227SOL    HW216581   0.003   2.900   5.174
 5228SOL     OW16582   1.604   2.491   5.683
 5228SOL    HW116583   1.657   2.474   5.600
 5228SOL    HW216584   1.509   2.511   5.658
 5229SOL     OW16585   4.443   0.830   6.168
 5229SOL    HW116586   4.393   0.902   6.218
 5229SOL    HW216587   4.531   0.866   6.137
 5230SOL     OW16588   7.012   6.747   1.996
 5230SOL    HW116589   6.917   6.779   1.992
 5230SOL    HW216590   0.021   6.752   2.090
 5231SOL     OW16591   6.540   1.933   2.726
 5231SOL    HW116592   6.592   2.016   2.704
 5231SOL    HW216593   6.444   1.947   2.703
 5232SOL     OW16594   2.168   2.639   5.629
 5232SOL    HW116595   2.239   2.656   5.561
 5232SOL    HW216596   2.096   2.708   5.620
 5233SOL     OW16597   3.208   0.228   2.716
 5233SOL    HW116598   3.303   0.229   2.747
 5233SOL    HW216599   3.165   0.316   2.738
 5234SOL     OW16600   2.371   2.014   0.565
 5234SOL    HW116601   2.468   2.010   0.589
 5234SOL    HW216602   2.340   2.109   0.570
 5235SOL     OW16603   2.494   1.593   1.228
 5235SOL    HW116604   2.555   1.670   1.248
 5235SOL    HW216605   2.543   1.507   1.241
 5236SOL     OW16606   3.785   5.623   1.614
 5236SOL    HW116607   3.756   5.671   1.531
 5236SOL    HW216608   3.871   5.662   1.646
 5237SOL     OW16609   1.944   2.262   3.537
 5237SOL    HW116610   2.021   2.312   3.577
 5237SOL    HW216611   1.924   2.181   3.593
 5238SOL     OW16612   1.085   6.469   2.591
 5238SOL    HW116613   1.150   6.438   2.521
 5238SOL    HW216614   1.007   6.513   2.548
 5239SOL     OW16615   2.413   3.900   1.267
 5239SOL    HW116616   2.335   3.858   1.314
 5239SOL    HW216617   2.487   3.834   1.259
 5240SOL     OW16618   2.227   3.589   5.546
 5240SOL    HW116619   2.201   3.494   5.560
 5240SOL    HW216620   2.158   3.649   5.587
 5241SOL     OW16621   0.866   5.623   2.363
 5241SOL    HW116622   0.823   5.565   2.294
 5241SOL    HW216623   0.965   5.612   2.359
 5242SOL     OW16624   4.968   0.600   6.216
 5242SOL    HW116625   4.909   0.649   6.280
 5242SOL    HW216626   4.911   0.548   6.152
 5243SOL     OW16627   2.846   6.837   2.047
 5243SOL    HW116628   2.898   6.922   2.053
 5243SOL    HW216629   2.904   6.761   2.078
 5244SOL     OW16630   4.912   3.056   1.039
 5244SOL    HW116631   4.848   2.981   1.022
 5244SOL    HW216632   4.862   3.134   1.079
 5245SOL     OW16633   4.316   3.762   1.557
 5245SOL    HW116634   4.408   3.729   1.577
 5245SOL    HW216635   4.320   3.860   1.535
 5246SOL     OW16636   5.970   3.058   1.305
 5246SOL    HW116637   6.058   3.024   1.271
 5246SOL    HW216638   5.966   3.158   1.295
 5247SOL     OW16639   3.995   2.101   6.611
 5247SOL    HW116640   4.042   2.055   6.536
 5247SOL    HW216641   3.968   2.034   6.680
 5248SOL     OW16642   6.762   1.214   3.438
 5248SOL    HW116643   6.743   1.248   3.530
 5248SOL    HW216644   6.747   1.287   3.372
 5249SOL     OW16645   0.725   4.826   6.851
 5249SOL    HW116646   0.781   4.751   6.815
 5249SOL    HW216647   0.681   4.874   6.775
 5250SOL     OW16648   2.307   5.843   0.906
 5250SOL    HW116649   2.345   5.908   0.971
 5250SOL    HW216650   2.223   5.803   0.943
 5251SOL     OW16651   0.801   4.816   0.635
 5251SOL    HW116652   0.757   4.864   0.712
 5251SOL    HW216653   0.872   4.756   0.670
 5252SOL     OW16654   3.980   0.410   2.236
 5252SOL    HW116655   3.897   0.361   2.265
 5252SOL    HW216656   3.954   0.498   2.197
 5253SOL     OW16657   6.229   5.125   4.635
 5253SOL    HW116658   6.208   5.057   4.565
 5253SOL    HW216659   6.327   5.140   4.638
 5254SOL     OW16660   5.975   0.118   3.085
 5254SOL    HW116661   6.070   0.140   3.107
 5254SOL    HW216662   5.955   0.148   2.992
 5255SOL     OW16663   6.293   1.717   4.990
 5255SOL    HW116664   6.225   1.732   4.919
 5255SOL    HW216665   6.340   1.803   5.011
 5256SOL     OW16666   6.149   1.420   2.261
 5256SOL    HW116667   6.099   1.438   2.345
 5256SOL    HW216668   6.243   1.395   2.283
 5257SOL     OW16669   4.007   0.976   6.217
 5257SOL    HW116670   3.909   0.996   6.224
 5257SOL    HW216671   4.025   0.932   6.129
 5258SOL     OW16672   4.347   1.795   3.186
 5258SOL    HW116673   4.301   1.877   3.220
 5258SOL    HW216674   4.280   1.721   3.177
 5259SOL     OW16675   5.760   5.392   2.834
 5259SOL    HW116676   5.787   5.296   2.834
 5259SOL    HW216677   5.778   5.433   2.744
 5260SOL     OW16678   2.055   1.017   0.858
 5260SOL    HW116679   2.009   1.002   0.946
 5260SOL    HW216680   2.071   1.114   0.844
 5261SOL     OW16681   6.071   4.279   0.310
 5261SOL    HW116682   6.152   4.220   0.305
 5261SOL    HW216683   5.990   4.223   0.326
 5262SOL     OW16684   1.947   0.647   2.955
 5262SOL    HW116685   1.877   0.621   2.888
 5262SOL    HW216686   1.961   0.572   3.019
 5263SOL     OW16687   2.119   0.144   2.851
 5263SOL    HW116688   2.151   0.050   2.842
 5263SOL    HW216689   2.197   0.205   2.865
 5264SOL     OW16690   6.786   2.273   1.777
 5264SOL    HW116691   6.708   2.291   1.717
 5264SOL    HW216692   6.756   2.284   1.872
 5265SOL     OW16693   6.685   4.638   4.644
 5265SOL    HW116694   6.688   4.571   4.717
 5265SOL    HW216695   6.659   4.594   4.558
 5266SOL     OW16696   2.481   0.854   0.747
 5266SOL    HW116697   2.532   0.775   0.713
 5266SOL    HW216698   2.544   0.929   0.768
 5267SOL     OW16699   5.167   2.420   4.222
 5267SOL    HW116700   5.199   2.470   4.141
 5267SOL    HW216701   5.120   2.336   4.193
 5268SOL     OW16702   5.985   0.853   6.181
 5268SOL    HW116703   5.953   0.940   6.219
 5268SOL    HW216704   5.910   0.786   6.185
 5269SOL     OW16705   0.664   6.105   3.510
 5269SOL    HW116706   0.721   6.030   3.544
 5269SOL    HW216707   0.593   6.126   3.576
 5270SOL     OW16708   0.198   2.396   6.377
 5270SOL    HW116709   0.209   2.348   6.463
 5270SOL    HW216710   0.287   2.424   6.343
 5271SOL     OW16711   6.633   5.439   3.884
 5271SOL    HW116712   6.711   5.494   3.914
 5271SOL    HW216713   6.665   5.353   3.845
 5272SOL     OW16714   5.077   0.697   0.035
 5272SOL    HW116715   5.154   0.639   0.008
 5272SOL    HW216716   5.111   0.789   0.056
 5273SOL     OW16717   0.823   2.397   3.179
 5273SOL    HW116718   0.841   2.374   3.084
 5273SOL    HW216719   0.740   2.350   3.209
 5274SOL     OW16720   4.718   5.445   2.255
 5274SOL    HW116721   4.806   5.400   2.240
 5274SOL    HW216722   4.678   5.412   2.340
 5275SOL     OW16723   4.060   1.235   6.403
 5275SOL    HW116724   4.047   1.140   6.432
 5275SOL    HW216725   4.001   1.253   6.324
 5276SOL     OW16726   3.928   6.322   2.697
 5276SOL    HW116727   4.011   6.317   2.642
 5276SOL    HW216728   3.855   6.365   2.643
 5277SOL     OW16729   2.372   2.297   1.405
 5277SOL    HW116730   2.323   2.321   1.489
 5277SOL    HW216731   2.384   2.380   1.349
 5278SOL     OW16732   4.478   4.988   1.080
 5278SOL    HW116733   4.487   5.079   1.040
 5278SOL    HW216734   4.395   4.985   1.136
 5279SOL     OW16735   3.226   5.540   1.903
 5279SOL    HW116736   3.284   5.520   1.982
 5279SOL    HW216737   3.231   5.464   1.838
 5280SOL     OW16738   4.101   6.156   4.621
 5280SOL    HW116739   4.071   6.106   4.702
 5280SOL    HW216740   4.178   6.108   4.579
 5281SOL     OW16741   0.405   1.994   1.699
 5281SOL    HW116742   0.395   2.041   1.787
 5281SOL    HW216743   0.466   1.915   1.710
 5282SOL     OW16744   3.939   1.616   3.145
 5282SOL    HW116745   3.974   1.562   3.068
 5282SOL    HW216746   4.011   1.629   3.212
 5283SOL     OW16747   5.131   4.949   6.487
 5283SOL    HW116748   5.062   4.895   6.437
 5283SOL    HW216749   5.217   4.947   6.436
 5284SOL     OW16750   5.417   2.857   3.371
 5284SOL    HW116751   5.326   2.837   3.336
 5284SOL    HW216752   5.464   2.921   3.310
 5285SOL     OW16753   3.307   5.614   2.854
 5285SOL    HW116754   3.264   5.528   2.882
 5285SOL    HW216755   3.395   5.623   2.902
 5286SOL     OW16756   2.132   4.381   1.478
 5286SOL    HW116757   2.087   4.295   1.453
 5286SOL    HW216758   2.063   4.451   1.495
 5287SOL     OW16759   1.637   2.044   1.147
 5287SOL    HW116760   1.641   1.965   1.085
 5287SOL    HW216761   1.716   2.041   1.209
 5288SOL     OW16762   3.664   0.095   0.805
 5288SOL    HW116763   3.692   0.001   0.819
 5288SOL    HW216764   3.602   0.123   0.879
 5289SOL     OW16765   1.991   5.253   1.536
 5289SOL    HW116766   2.060   5.205   1.590
 5289SOL    HW216767   1.962   5.195   1.460
 5290SOL     OW16768   4.480   6.400   0.582
 5290SOL    HW116769   4.557   6.347   0.618
 5290SOL    HW216770   4.398   6.380   0.636
 5291SOL     OW16771   2.078   4.774   6.415
 5291SOL    HW116772   2.074   4.726   6.503
 5291SOL    HW216773   2.082   4.707   6.341
 5292SOL     OW16774   4.148   2.959   6.259
 5292SOL    HW116775   4.083   3.001   6.196
 5292SOL    HW216776   4.130   2.992   6.352
 5293SOL     OW16777   0.570   0.211   4.501
 5293SOL    HW116778   0.661   0.227   4.464
 5293SOL    HW216779   0.507   0.283   4.470
 5294SOL     OW16780   5.617   1.818   5.747
 5294SOL    HW116781   5.540   1.841   5.688
 5294SOL    HW216782   5.595   1.737   5.802
 5295SOL     OW16783   6.212   1.175   1.700
 5295SOL    HW116784   6.196   1.076   1.690
 5295SOL    HW216785   6.286   1.203   1.640
 5296SOL     OW16786   0.821   4.396   0.886
 5296SOL    HW116787   0.777   4.476   0.926
 5296SOL    HW216788   0.846   4.332   0.959
 5297SOL     OW16789   2.227   2.842   1.233
 5297SOL    HW116790   2.327   2.851   1.241
 5297SOL    HW216791   2.190   2.800   1.316
 5298SOL     OW16792   0.945   5.463   1.255
 5298SOL    HW116793   0.997   5.433   1.335
 5298SOL    HW216794   0.861   5.409   1.247
 5299SOL     OW16795   2.705   0.087   2.101
 5299SOL    HW116796   2.653   0.113   2.182
 5299SOL    HW216797   2.802   0.079   2.125
 5300SOL     OW16798   6.677   5.400   3.310
 5300SOL    HW116799   6.751   5.340   3.281
 5300SOL    HW216800   6.714   5.477   3.362
 5301SOL     OW16801   4.075   1.518   0.063
 5301SOL    HW116802   3.986   1.530   0.019
 5301SOL    HW216803   4.148   1.539   7.022
 5302SOL     OW16804   6.322   4.389   3.110
 5302SOL    HW116805   6.291   4.456   3.178
 5302SOL    HW216806   6.250   4.322   3.095
 5303SOL     OW16807   0.778   4.795   3.431
 5303SOL    HW116808   0.680   4.812   3.442
 5303SOL    HW216809   0.804   4.809   3.335
 5304SOL     OW16810   5.160   1.872   5.891
 5304SOL    HW116811   5.063   1.860   5.869
 5304SOL    HW216812   5.216   1.831   5.818
 5305SOL     OW16813   2.739   1.111   2.972
 5305SOL    HW116814   2.669   1.175   3.002
 5305SOL    HW216815   2.727   1.091   2.875
 5306SOL     OW16816   2.466   0.171   5.592
 5306SOL    HW116817   2.395   0.224   5.547
 5306SOL    HW216818   2.547   0.229   5.607
 5307SOL     OW16819   5.179   0.157   6.589
 5307SOL    HW116820   5.185   0.144   6.687
 5307SOL    HW216821   5.086   0.139   6.557
 5308SOL     OW16822   0.040   0.951   2.801
 5308SOL    HW116823   0.102   0.903   2.739
 5308SOL    HW216824   0.085   0.964   2.890
 5309SOL     OW16825   3.250   3.643   3.629
 5309SOL    HW116826   3.185   3.697   3.682
 5309SOL    HW216827   3.232   3.545   3.644
 5310SOL     OW16828   4.995   2.023   1.074
 5310SOL    HW116829   4.905   2.042   1.112
 5310SOL    HW216830   5.025   2.100   1.018
 5311SOL     OW16831   1.021   5.933   0.184
 5311SOL    HW116832   0.926   5.964   0.182
 5311SOL    HW216833   1.066   5.957   0.098
 5312SOL     OW16834   0.546   3.567   2.601
 5312SOL    HW116835   0.514   3.651   2.645
 5312SOL    HW216836   0.518   3.488   2.655
 5313SOL     OW16837   1.305   5.846   1.046
 5313SOL    HW116838   1.230   5.908   1.022
 5313SOL    HW216839   1.291   5.813   1.139
 5314SOL     OW16840   3.312   5.155   0.607
 5314SOL    HW116841   3.386   5.129   0.545
 5314SOL    HW216842   3.287   5.250   0.592
 5315SOL     OW16843   5.266   2.597   2.420
 5315SOL    HW116844   5.334   2.569   2.352
 5315SOL    HW216845   5.174   2.591   2.379
 5316SOL     OW16846   6.116   5.064   4.113
 5316SOL    HW116847   6.204   5.054   4.067
 5316SOL    HW216848   6.047   5.010   4.065
 5317SOL     OW16849   5.693   6.202   2.708
 5317SOL    HW116850   5.675   6.157   2.621
 5317SOL    HW216851   5.660   6.296   2.705
 5318SOL     OW16852   0.095   2.598   4.819
 5318SOL    HW116853   0.099   2.697   4.833
 5318SOL    HW216854   0.183   2.557   4.843
 5319SOL     OW16855   4.596   0.107   0.653
 5319SOL    HW116856   4.597   0.009   0.671
 5319SOL    HW216857   4.509   0.146   0.686
 5320SOL     OW16858   5.436   2.943   5.654
 5320SOL    HW116859   5.394   2.982   5.572
 5320SOL    HW216860   5.531   2.918   5.635
 5321SOL     OW16861   1.970   5.030   6.347
 5321SOL    HW116862   1.983   5.104   6.414
 5321SOL    HW216863   2.016   4.947   6.379
 5322SOL     OW16864   3.510   6.212   0.042
 5322SOL    HW116865   3.425   6.258   0.067
 5322SOL    HW216866   3.578   6.226   0.115
 5323SOL     OW16867   5.403   2.783   0.323
 5323SOL    HW116868   5.393   2.880   0.348
 5323SOL    HW216869   5.321   2.754   0.274
 5324SOL     OW16870   3.484   3.770   1.843
 5324SOL    HW116871   3.570   3.744   1.800
 5324SOL    HW216872   3.442   3.690   1.886
 5325SOL     OW16873   4.885   5.640   3.430
 5325SOL    HW116874   4.847   5.625   3.338
 5325SOL    HW216875   4.984   5.652   3.424
 5326SOL     OW16876   6.523   6.380   1.900
 5326SOL    HW116877   6.434   6.423   1.915
 5326SOL    HW216878   6.509   6.288   1.862
 5327SOL     OW16879   6.544   0.826   4.106
 5327SOL    HW116880   6.471   0.762   4.082
 5327SOL    HW216881   6.591   0.855   4.022
 5328SOL     OW16882   3.908   4.982   1.219
 5328SOL    HW116883   3.944   4.937   1.301
 5328SOL    HW216884   3.859   4.915   1.163
 5329SOL     OW16885   6.976   5.131   6.560
 5329SOL    HW116886   0.047   5.139   6.592
 5329SOL    HW216887   6.975   5.083   6.472
 5330SOL     OW16888   4.660   4.287   0.200
 5330SOL    HW116889   4.644   4.281   0.101
 5330SOL    HW216890   4.610   4.213   0.246
 5331SOL     OW16891   4.758   2.971   6.783
 5331SOL    HW116892   4.690   2.937   6.847
 5331SOL    HW216893   4.737   3.067   6.760
 5332SOL     OW16894   5.773   2.347   0.038
 5332SOL    HW116895   5.811   2.411   6.995
 5332SOL    HW216896   5.845   2.314   0.098
 5333SOL     OW16897   1.563   1.733   3.783
 5333SOL    HW116898   1.517   1.813   3.821
 5333SOL    HW216899   1.657   1.728   3.817
 5334SOL     OW16900   4.258   5.642   1.892
 5334SOL    HW116901   4.263   5.570   1.961
 5334SOL    HW216902   4.262   5.732   1.936
 5335SOL     OW16903   6.903   4.125   1.378
 5335SOL    HW116904   6.817   4.110   1.330
 5335SOL    HW216905   6.971   4.162   1.315
 5336SOL     OW16906   1.673   3.211   4.203
 5336SOL    HW116907   1.695   3.180   4.296
 5336SOL    HW216908   1.757   3.238   4.157
 5337SOL     OW16909   5.887   4.994   0.875
 5337SOL    HW116910   5.789   5.013   0.880
 5337SOL    HW216911   5.901   4.895   0.872
 5338SOL     OW16912   6.542   3.555   0.970
 5338SOL    HW116913   6.633   3.541   1.010
 5338SOL    HW216914   6.531   3.652   0.946
 5339SOL     OW16915   5.289   3.384   3.068
 5339SOL    HW116916   5.283   3.399   3.167
 5339SOL    HW216917   5.225   3.445   3.021
 5340SOL     OW16918   5.955   3.090   2.652
 5340SOL    HW116919   5.931   3.169   2.707
 5340SOL    HW216920   6.032   3.041   2.694
 5341SOL     OW16921   4.334   5.023   3.985
 5341SOL    HW116922   4.247   5.055   3.946
 5341SOL    HW216923   4.333   4.923   3.990
 5342SOL     OW16924   5.759   0.223   4.699
 5342SOL    HW116925   5.794   0.314   4.680
 5342SOL    HW216926   5.823   0.155   4.663
 5343SOL     OW16927   3.130   3.398   6.661
 5343SOL    HW116928   3.159   3.492   6.644
 5343SOL    HW216929   3.210   3.338   6.664
 5344SOL     OW16930   1.124   1.920   6.549
 5344SOL    HW116931   1.057   1.990   6.576
 5344SOL    HW216932   1.213   1.964   6.533
 5345SOL     OW16933   4.794   1.670   0.182
 5345SOL    HW116934   4.742   1.617   0.249
 5345SOL    HW216935   4.763   1.765   0.184
 5346SOL     OW16936   3.198   6.215   3.949
 5346SOL    HW116937   3.259   6.163   3.889
 5346SOL    HW216938   3.104   6.207   3.916
 5347SOL     OW16939   6.338   1.597   4.056
 5347SOL    HW116940   6.395   1.678   4.062
 5347SOL    HW216941   6.390   1.523   4.012
 5348SOL     OW16942   5.529   2.576   3.644
 5348SOL    HW116943   5.505   2.659   3.695
 5348SOL    HW216944   5.573   2.602   3.558
 5349SOL     OW16945   0.681   3.690   2.410
 5349SOL    HW116946   0.613   3.731   2.349
 5349SOL    HW216947   0.635   3.639   2.482
 5350SOL     OW16948   1.561   6.979   0.447
 5350SOL    HW116949   1.632   6.958   0.514
 5350SOL    HW216950   1.483   7.021   0.494
 5351SOL     OW16951   6.605   6.300   2.944
 5351SOL    HW116952   6.693   6.328   2.907
 5351SOL    HW216953   6.613   6.286   3.043
 5352SOL     OW16954   1.414   3.157   5.060
 5352SOL    HW116955   1.372   3.082   5.008
 5352SOL    HW216956   1.382   3.245   5.024
 5353SOL     OW16957   4.011   5.634   3.391
 5353SOL    HW116958   4.097   5.607   3.434
 5353SOL    HW216959   4.027   5.713   3.331
 5354SOL     OW16960   4.789   5.857   0.585
 5354SOL    HW116961   4.711   5.918   0.567
 5354SOL    HW216962   4.828   5.879   0.674
 5355SOL     OW16963   5.283   4.594   4.994
 5355SOL    HW116964   5.282   4.562   5.089
 5355SOL    HW216965   5.325   4.524   4.936
 5356SOL     OW16966   0.380   5.186   0.756
 5356SOL    HW116967   0.454   5.173   0.690
 5356SOL    HW216968   0.300   5.225   0.710
 5357SOL     OW16969   5.761   3.417   2.401
 5357SOL    HW116970   5.861   3.425   2.405
 5357SOL    HW216971   5.729   3.357   2.474
 5358SOL     OW16972   4.089   1.810   0.154
 5358SOL    HW116973   4.079   1.832   0.251
 5358SOL    HW216974   4.079   1.711   0.141
 5359SOL     OW16975   3.917   2.316   0.047
 5359SOL    HW116976   3.912   2.380   6.994
 5359SOL    HW216977   3.973   2.237   0.021
 5360SOL     OW16978   5.865   4.560   3.411
 5360SOL    HW116979   5.804   4.490   3.449
 5360SOL    HW216980   5.958   4.545   3.446
 5361SOL     OW16981   2.367   5.459   2.309
 5361SOL    HW116982   2.463   5.480   2.328
 5361SOL    HW216983   2.348   5.365   2.337
 5362SOL     OW16984   5.139   0.353   1.987
 5362SOL    HW116985   5.115   0.347   2.084
 5362SOL    HW216986   5.056   0.351   1.931
 5363SOL     OW16987   5.811   5.421   3.116
 5363SOL    HW116988   5.727   5.377   3.147
 5363SOL    HW216989   5.811   5.425   3.016
 5364SOL     OW16990   4.929   1.069   2.350
 5364SOL    HW116991   4.883   0.990   2.308
 5364SOL    HW216992   4.862   1.141   2.366
 5365SOL     OW16993   3.393   2.887   3.868
 5365SOL    HW116994   3.410   2.975   3.912
 5365SOL    HW216995   3.318   2.840   3.915
 5366SOL     OW16996   6.093   5.776   2.716
 5366SOL    HW116997   6.132   5.777   2.809
 5366SOL    HW216998   6.068   5.869   2.689
 5367SOL     OW16999   6.480   6.216   1.518
 5367SOL    HW117000   6.452   6.140   1.460
 5367SOL    HW217001   6.410   6.288   1.515
 5368SOL     OW17002   6.409   6.125   3.995
 5368SOL    HW117003   6.479   6.193   4.020
 5368SOL    HW217004   6.441   6.069   3.920
 5369SOL     OW17005   3.139   5.360   2.860
 5369SOL    HW117006   3.086   5.364   2.945
 5369SOL    HW217007   3.085   5.316   2.789
 5370SOL     OW17008   1.515   3.581   0.951
 5370SOL    HW117009   1.434   3.638   0.968
 5370SOL    HW217010   1.587   3.637   0.911
 5371SOL     OW17011   5.768   5.632   4.557
 5371SOL    HW117012   5.781   5.668   4.649
 5371SOL    HW217013   5.723   5.700   4.500
 5372SOL     OW17014   1.615   6.794   3.042
 5372SOL    HW117015   1.606   6.875   2.984
 5372SOL    HW217016   1.537   6.733   3.025
 5373SOL     OW17017   3.119   1.455   6.857
 5373SOL    HW117018   3.024   1.446   6.885
 5373SOL    HW217019   3.131   1.540   6.806
 5374SOL     OW17020   1.546   4.565   2.364
 5374SOL    HW117021   1.462   4.521   2.331
 5374SOL    HW217022   1.526   4.659   2.391
 5375SOL     OW17023   1.927   4.366   4.824
 5375SOL    HW117024   1.888   4.274   4.837
 5375SOL    HW217025   2.025   4.363   4.846
 5376SOL     OW17026   0.602   6.932   6.143
 5376SOL    HW117027   0.606   6.944   6.242
 5376SOL    HW217028   0.564   6.842   6.122
 5377SOL     OW17029   2.180   0.885   3.107
 5377SOL    HW117030   2.172   0.873   3.206
 5377SOL    HW217031   2.265   0.933   3.085
 5378SOL     OW17032   4.807   0.754   2.597
 5378SOL    HW117033   4.849   0.728   2.510
 5378SOL    HW217034   4.867   0.728   2.673
 5379SOL     OW17035   1.684   2.150   5.521
 5379SOL    HW117036   1.747   2.105   5.584
 5379SOL    HW217037   1.710   2.246   5.509
 5380SOL     OW17038   4.670   6.516   1.603
 5380SOL    HW117039   4.578   6.498   1.639
 5380SOL    HW217040   4.722   6.570   1.669
 5381SOL     OW17041   3.948   0.024   3.922
 5381SOL    HW117042   4.004   0.098   3.959
 5381SOL    HW217043   4.003   6.965   3.914
 5382SOL     OW17044   4.735   1.444   1.399
 5382SOL    HW117045   4.785   1.446   1.312
 5382SOL    HW217046   4.638   1.462   1.381
 5383SOL     OW17047   2.410   2.693   4.437
 5383SOL    HW117048   2.392   2.778   4.386
 5383SOL    HW217049   2.356   2.693   4.521
 5384SOL     OW17050   5.671   5.349   4.449
 5384SOL    HW117051   5.732   5.426   4.467
 5384SOL    HW217052   5.670   5.329   4.351
 5385SOL     OW17053   4.008   3.305   6.165
 5385SOL    HW117054   4.074   3.364   6.118
 5385SOL    HW217055   3.964   3.355   6.239
 5386SOL     OW17056   5.862   4.850   4.649
 5386SOL    HW117057   5.827   4.942   4.663
 5386SOL    HW217058   5.865   4.801   4.736
 5387SOL     OW17059   1.641   1.373   3.507
 5387SOL    HW117060   1.709   1.358   3.579
 5387SOL    HW217061   1.550   1.346   3.540
 5388SOL     OW17062   0.527   6.659   2.394
 5388SOL    HW117063   0.623   6.685   2.408
 5388SOL    HW217064   0.500   6.593   2.464
 5389SOL     OW17065   4.392   1.813   4.184
 5389SOL    HW117066   4.357   1.762   4.262
 5389SOL    HW217067   4.316   1.842   4.126
 5390SOL     OW17068   0.594   2.607   3.068
 5390SOL    HW117069   0.661   2.668   3.026
 5390SOL    HW217070   0.610   2.603   3.167
 5391SOL     OW17071   2.956   3.489   0.528
 5391SOL    HW117072   2.881   3.424   0.530
 5391SOL    HW217073   3.027   3.457   0.466
 5392SOL     OW17074   5.310   1.907   3.796
 5392SOL    HW117075   5.258   1.966   3.735
 5392SOL    HW217076   5.407   1.933   3.793
 5393SOL     OW17077   4.568   1.878   4.645
 5393SOL    HW117078   4.579   1.851   4.740
 5393SOL    HW217079   4.561   1.796   4.588
 5394SOL     OW17080   1.132   2.157   1.314
 5394SOL    HW117081   1.202   2.160   1.242
 5394SOL    HW217082   1.064   2.088   1.290
 5395SOL     OW17083   6.425   1.829   0.462
 5395SOL    HW117084   6.346   1.768   0.461
 5395SOL    HW217085   6.469   1.826   0.552
 5396SOL     OW17086   4.591   3.868   0.451
 5396SOL    HW117087   4.590   3.963   0.418
 5396SOL    HW217088   4.624   3.866   0.546
 5397SOL     OW17089   0.440   1.138   2.348
 5397SOL    HW117090   0.456   1.159   2.445
 5397SOL    HW217091   0.476   1.212   2.292
 5398SOL     OW17092   5.894   1.752   2.616
 5398SOL    HW117093   5.942   1.823   2.565
 5398SOL    HW217094   5.859   1.790   2.702
 5399SOL     OW17095   1.815   1.820   0.329
 5399SOL    HW117096   1.794   1.723   0.321
 5399SOL    HW217097   1.901   1.832   0.379
 5400SOL     OW17098   5.000   3.492   1.884
 5400SOL    HW117099   5.099   3.502   1.879
 5400SOL    HW217100   4.977   3.401   1.919
 5401SOL     OW17101   6.034   2.633   1.622
 5401SOL    HW117102   5.977   2.699   1.672
 5401SOL    HW217103   6.011   2.540   1.650
 5402SOL     OW17104   1.348   6.202   1.903
 5402SOL    HW117105   1.428   6.235   1.953
 5402SOL    HW217106   1.300   6.134   1.959
 5403SOL     OW17107   4.876   3.137   0.120
 5403SOL    HW117108   4.856   3.180   0.031
 5403SOL    HW217109   4.953   3.075   0.110
 5404SOL     OW17110   5.745   0.586   0.173
 5404SOL    HW117111   5.781   0.560   0.083
 5404SOL    HW217112   5.695   0.672   0.166
 5405SOL     OW17113   0.332   5.380   0.108
 5405SOL    HW117114   0.307   5.445   0.179
 5405SOL    HW217115   0.404   5.420   0.050
 5406SOL     OW17116   2.107   0.902   5.517
 5406SOL    HW117117   2.010   0.912   5.541
 5406SOL    HW217118   2.147   0.993   5.503
 5407SOL     OW17119   2.206   6.913   2.814
 5407SOL    HW117120   2.203   6.841   2.884
 5407SOL    HW217121   2.291   6.906   2.762
 5408SOL     OW17122   3.247   1.727   3.983
 5408SOL    HW117123   3.206   1.663   4.049
 5408SOL    HW217124   3.175   1.772   3.931
 5409SOL     OW17125   0.871   3.233   2.157
 5409SOL    HW117126   0.945   3.175   2.190
 5409SOL    HW217127   0.785   3.205   2.199
 5410SOL     OW17128   1.037   2.736   1.256
 5410SOL    HW117129   1.115   2.787   1.220
 5410SOL    HW217130   0.992   2.688   1.181
 5411SOL     OW17131   3.169   5.393   0.080
 5411SOL    HW117132   3.077   5.367   0.109
 5411SOL    HW217133   3.165   5.480   0.030
 5412SOL     OW17134   0.283   2.145   5.954
 5412SOL    HW117135   0.224   2.178   6.027
 5412SOL    HW217136   0.373   2.188   5.962
 5413SOL     OW17137   6.952   6.244   4.520
 5413SOL    HW117138   6.858   6.240   4.554
 5413SOL    HW217139   7.013   6.271   4.594
 5414SOL     OW17140   5.445   4.423   5.889
 5414SOL    HW117141   5.350   4.406   5.914
 5414SOL    HW217142   5.505   4.377   5.955
 5415SOL     OW17143   4.403   1.009   6.954
 5415SOL    HW117144   4.314   1.034   6.990
 5415SOL    HW217145   4.473   1.069   6.992
 5416SOL     OW17146   3.115   5.946   6.450
 5416SOL    HW117147   3.095   5.899   6.536
 5416SOL    HW217148   3.108   5.881   6.374
 5417SOL     OW17149   4.349   6.681   4.113
 5417SOL    HW117150   4.403   6.626   4.176
 5417SOL    HW217151   4.408   6.714   4.039
 5418SOL     OW17152   6.716   3.476   4.905
 5418SOL    HW117153   6.673   3.391   4.936
 5418SOL    HW217154   6.648   3.549   4.901
 5419SOL     OW17155   4.835   0.436   6.030
 5419SOL    HW117156   4.858   0.341   6.009
 5419SOL    HW217157   4.764   0.468   5.968
 5420SOL     OW17158   1.029   1.254   2.380
 5420SOL    HW117159   0.982   1.242   2.293
 5420SOL    HW217160   0.963   1.283   2.449
 5421SOL     OW17161   3.847   4.919   2.046
 5421SOL    HW117162   3.776   4.849   2.048
 5421SOL    HW217163   3.810   5.005   2.082
 5422SOL     OW17164   2.777   5.308   3.802
 5422SOL    HW117165   2.854   5.347   3.852
 5422SOL    HW217166   2.742   5.228   3.851
 5423SOL     OW17167   5.520   5.952   1.925
 5423SOL    HW117168   5.505   5.936   2.022
 5423SOL    HW217169   5.442   6.003   1.887
 5424SOL     OW17170   4.381   4.130   5.566
 5424SOL    HW117171   4.282   4.137   5.554
 5424SOL    HW217172   4.425   4.125   5.476
 5425SOL     OW17173   1.613   4.190   5.587
 5425SOL    HW117174   1.518   4.165   5.568
 5425SOL    HW217175   1.634   4.170   5.682
 5426SOL     OW17176   6.414   5.443   1.290
 5426SOL    HW117177   6.477   5.366   1.281
 5426SOL    HW217178   6.321   5.412   1.268
 5427SOL     OW17179   4.359   2.351   6.537
 5427SOL    HW117180   4.333   2.339   6.632
 5427SOL    HW217181   4.456   2.325   6.526
 5428SOL     OW17182   5.808   5.598   2.298
 5428SOL    HW117183   5.737   5.542   2.254
 5428SOL    HW217184   5.880   5.618   2.232
 5429SOL     OW17185   3.685   0.481   4.758
 5429SOL    HW117186   3.675   0.575   4.789
 5429SOL    HW217187   3.617   0.423   4.803
 5430SOL     OW17188   2.638   3.704   5.703
 5430SOL    HW117189   2.706   3.773   5.677
 5430SOL    HW217190   2.686   3.619   5.725
 5431SOL     OW17191   3.267   4.258   0.504
 5431SOL    HW117192   3.287   4.289   0.597
 5431SOL    HW217193   3.186   4.306   0.470
 5432SOL     OW17194   0.200   5.618   6.893
 5432SOL    HW117195   0.161   5.694   6.842
 5432SOL    HW217196   0.160   5.616   6.985
 5433SOL     OW17197   2.184   0.856   1.681
 5433SOL    HW117198   2.126   0.933   1.654
 5433SOL    HW217199   2.181   0.844   1.780
 5434SOL     OW17200   5.163   1.041   4.792
 5434SOL    HW117201   5.238   1.017   4.854
 5434SOL    HW217202   5.198   1.098   4.718
 5435SOL     OW17203   6.422   4.657   0.837
 5435SOL    HW117204   6.416   4.684   0.740
 5435SOL    HW217205   6.497   4.707   0.880
 5436SOL     OW17206   0.979   4.230   2.929
 5436SOL    HW117207   1.033   4.311   2.905
 5436SOL    HW217208   1.022   4.149   2.890
 5437SOL     OW17209   4.114   5.418   1.549
 5437SOL    HW117210   4.051   5.448   1.477
 5437SOL    HW217211   4.194   5.479   1.550
 5438SOL     OW17212   4.598   5.891   2.430
 5438SOL    HW117213   4.613   5.946   2.512
 5438SOL    HW217214   4.525   5.932   2.375
 5439SOL     OW17215   0.888   4.994   2.028
 5439SOL    HW117216   0.922   4.901   2.039
 5439SOL    HW217217   0.960   5.051   1.988
 5440SOL     OW17218   5.963   6.823   3.849
 5440SOL    HW117219   5.998   6.912   3.821
 5440SOL    HW217220   5.946   6.767   3.767
 5441SOL     OW17221   6.164   3.421   3.946
 5441SOL    HW117222   6.201   3.505   3.987
 5441SOL    HW217223   6.232   3.382   3.884
 5442SOL     OW17224   4.136   6.915   5.837
 5442SOL    HW117225   4.204   6.894   5.907
 5442SOL    HW217226   4.130   7.014   5.825
 5443SOL     OW17227   4.642   1.175   3.626
 5443SOL    HW117228   4.705   1.218   3.691
 5443SOL    HW217229   4.695   1.134   3.552
 5444SOL     OW17230   6.437   1.506   4.864
 5444SOL    HW117231   6.467   1.416   4.896
 5444SOL    HW217232   6.346   1.525   4.901
 5445SOL     OW17233   6.089   6.075   4.686
 5445SOL    HW117234   6.072   6.072   4.784
 5445SOL    HW217235   6.184   6.050   4.667
 5446SOL     OW17236   6.910   4.164   5.959
 5446SOL    HW117237   6.985   4.227   5.939
 5446SOL    HW217238   6.933   4.110   6.040
 5447SOL     OW17239   0.511   2.860   1.298
 5447SOL    HW117240   0.527   2.864   1.397
 5447SOL    HW217241   0.583   2.806   1.255
 5448SOL     OW17242   5.070   4.713   3.168
 5448SOL    HW117243   5.149   4.654   3.153
 5448SOL    HW217244   5.083   4.766   3.252
 5449SOL     OW17245   3.361   0.996   1.914
 5449SOL    HW117246   3.317   1.020   1.828
 5449SOL    HW217247   3.386   0.899   1.912
 5450SOL     OW17248   4.617   5.648   1.633
 5450SOL    HW117249   4.530   5.606   1.659
 5450SOL    HW217250   4.689   5.613   1.694
 5451SOL     OW17251   6.805   0.235   2.815
 5451SOL    HW117252   6.761   0.185   2.890
 5451SOL    HW217253   6.847   0.318   2.851
 5452SOL     OW17254   2.296   4.089   1.810
 5452SOL    HW117255   2.264   4.034   1.887
 5452SOL    HW217256   2.323   4.179   1.843
 5453SOL     OW17257   5.964   3.507   2.991
 5453SOL    HW117258   6.022   3.481   2.914
 5453SOL    HW217259   5.924   3.597   2.973
 5454SOL     OW17260   6.012   4.279   2.535
 5454SOL    HW117261   6.082   4.294   2.605
 5454SOL    HW217262   6.052   4.294   2.445
 5455SOL     OW17263   1.947   1.761   4.254
 5455SOL    HW117264   1.876   1.825   4.226
 5455SOL    HW217265   1.981   1.786   4.345
 5456SOL     OW17266   5.421   1.798   0.987
 5456SOL    HW117267   5.445   1.893   1.006
 5456SOL    HW217268   5.485   1.737   1.034
 5457SOL     OW17269   5.765   1.246   6.700
 5457SOL    HW117270   5.744   1.290   6.613
 5457SOL    HW217271   5.683   1.241   6.756
 5458SOL     OW17272   5.955   3.167   0.028
 5458SOL    HW117273   5.928   3.204   6.962
 5458SOL    HW217274   5.970   3.242   0.092
 5459SOL     OW17275   1.834   3.350   5.332
 5459SOL    HW117276   1.851   3.262   5.287
 5459SOL    HW217277   1.741   3.380   5.312
 5460SOL     OW17278   1.452   1.291   1.167
 5460SOL    HW117279   1.548   1.276   1.192
 5460SOL    HW217280   1.392   1.250   1.236
 5461SOL     OW17281   6.470   1.312   5.275
 5461SOL    HW117282   6.460   1.412   5.275
 5461SOL    HW217283   6.564   1.288   5.251
 5462SOL     OW17284   4.747   4.139   6.365
 5462SOL    HW117285   4.811   4.211   6.340
 5462SOL    HW217286   4.747   4.127   6.464
 5463SOL     OW17287   1.020   2.795   6.838
 5463SOL    HW117288   1.028   2.695   6.834
 5463SOL    HW217289   1.057   2.835   6.754
 5464SOL     OW17290   0.991   5.989   6.205
 5464SOL    HW117291   1.050   6.032   6.137
 5464SOL    HW217292   0.955   5.904   6.169
 5465SOL     OW17293   6.567   6.627   3.876
 5465SOL    HW117294   6.495   6.558   3.862
 5465SOL    HW217295   6.531   6.700   3.934
 5466SOL     OW17296   5.826   2.604   4.833
 5466SOL    HW117297   5.905   2.548   4.810
 5466SOL    HW217298   5.786   2.642   4.749
 5467SOL     OW17299   4.619   2.632   4.450
 5467SOL    HW117300   4.594   2.639   4.547
 5467SOL    HW217301   4.546   2.585   4.400
 5468SOL     OW17302   6.941   1.310   0.827
 5468SOL    HW117303   6.934   1.410   0.832
 5468SOL    HW217304   6.903   1.279   0.740
 5469SOL     OW17305   3.264   0.273   5.046
 5469SOL    HW117306   3.176   0.243   5.011
 5469SOL    HW217307   3.250   0.343   5.116
 5470SOL     OW17308   3.566   5.242   3.460
 5470SOL    HW117309   3.486   5.302   3.463
 5470SOL    HW217310   3.649   5.297   3.462
 5471SOL     OW17311   4.396   0.771   3.378
 5471SOL    HW117312   4.354   0.860   3.395
 5471SOL    HW217313   4.356   0.731   3.295
 5472SOL     OW17314   2.303   2.471   6.914
 5472SOL    HW117315   2.307   2.519   7.002
 5472SOL    HW217316   2.328   2.375   6.928
 5473SOL     OW17317   2.766   4.584   1.622
 5473SOL    HW117318   2.814   4.645   1.559
 5473SOL    HW217319   2.819   4.575   1.707
 5474SOL     OW17320   0.888   5.287   2.852
 5474SOL    HW117321   0.923   5.204   2.809
 5474SOL    HW217322   0.903   5.365   2.791
 5475SOL     OW17323   0.144   1.600   5.511
 5475SOL    HW117324   0.135   1.675   5.445
 5475SOL    HW217325   0.145   1.637   5.604
 5476SOL     OW17326   2.607   6.800   5.856
 5476SOL    HW117327   2.562   6.887   5.832
 5476SOL    HW217328   2.661   6.768   5.779
 5477SOL     OW17329   1.410   4.587   4.626
 5477SOL    HW117330   1.437   4.593   4.530
 5477SOL    HW217331   1.443   4.501   4.665
 5478SOL     OW17332   5.192   4.145   5.639
 5478SOL    HW117333   5.138   4.062   5.634
 5478SOL    HW217334   5.132   4.224   5.651
 5479SOL     OW17335   4.356   1.239   4.635
 5479SOL    HW117336   4.359   1.144   4.603
 5479SOL    HW217337   4.376   1.242   4.733
 5480SOL     OW17338   0.088   4.118   4.259
 5480SOL    HW117339   0.135   4.035   4.287
 5480SOL    HW217340   7.019   4.119   4.295
 5481SOL     OW17341   4.349   0.988   6.667
 5481SOL    HW117342   4.311   1.078   6.648
 5481SOL    HW217343   4.376   0.983   6.764
 5482SOL     OW17344   4.956   2.804   1.320
 5482SOL    HW117345   5.043   2.851   1.305
 5482SOL    HW217346   4.970   2.725   1.379
 5483SOL     OW17347   6.924   3.273   5.618
 5483SOL    HW117348   6.900   3.182   5.585
 5483SOL    HW217349   7.016   3.270   5.658
 5484SOL     OW17350   6.192   6.372   4.399
 5484SOL    HW117351   6.244   6.457   4.412
 5484SOL    HW217352   6.112   6.373   4.459
 5485SOL     OW17353   2.961   6.884   5.509
 5485SOL    HW117354   2.969   6.888   5.410
 5485SOL    HW217355   2.939   6.975   5.545
 5486SOL     OW17356   0.564   1.000   3.165
 5486SOL    HW117357   0.594   1.074   3.225
 5486SOL    HW217358   0.626   0.922   3.173
 5487SOL     OW17359   5.112   4.861   0.598
 5487SOL    HW117360   5.098   4.942   0.541
 5487SOL    HW217361   5.141   4.889   0.690
 5488SOL     OW17362   5.745   1.385   6.444
 5488SOL    HW117363   5.789   1.408   6.357
 5488SOL    HW217364   5.652   1.421   6.445
 5489SOL     OW17365   1.272   4.198   3.043
 5489SOL    HW117366   1.236   4.215   3.135
 5489SOL    HW217367   1.368   4.171   3.050
 5490SOL     OW17368   2.192   1.561   0.535
 5490SOL    HW117369   2.158   1.495   0.468
 5490SOL    HW217370   2.279   1.598   0.505
 5491SOL     OW17371   1.068   5.109   0.841
 5491SOL    HW117372   1.084   5.145   0.749
 5491SOL    HW217373   1.114   5.021   0.850
 5492SOL     OW17374   1.046   1.372   6.304
 5492SOL    HW117375   1.036   1.443   6.373
 5492SOL    HW217376   0.999   1.400   6.220
 5493SOL     OW17377   3.296   3.648   0.162
 5493SOL    HW117378   3.342   3.655   0.073
 5493SOL    HW217379   3.360   3.674   0.234
 5494SOL     OW17380   5.559   2.790   1.958
 5494SOL    HW117381   5.601   2.880   1.966
 5494SOL    HW217382   5.474   2.797   1.906
 5495SOL     OW17383   3.838   3.441   2.474
 5495SOL    HW117384   3.851   3.446   2.573
 5495SOL    HW217385   3.910   3.384   2.433
 5496SOL     OW17386   4.017   5.984   1.392
 5496SOL    HW117387   3.960   6.046   1.447
 5496SOL    HW217388   3.995   5.994   1.295
 5497SOL     OW17389   6.403   0.318   1.578
 5497SOL    HW117390   6.425   0.303   1.482
 5497SOL    HW217391   6.430   0.237   1.631
 5498SOL     OW17392   4.304   1.056   5.651
 5498SOL    HW117393   4.394   1.050   5.693
 5498SOL    HW217394   4.234   1.060   5.722
 5499SOL     OW17395   6.864   1.069   2.597
 5499SOL    HW117396   6.874   1.166   2.618
 5499SOL    HW217397   6.931   1.016   2.650
 5500SOL     OW17398   2.432   5.691   1.551
 5500SOL    HW117399   2.399   5.697   1.457
 5500SOL    HW217400   2.518   5.640   1.552
 5501SOL     OW17401   2.765   6.845   2.569
 5501SOL    HW117402   2.852   6.823   2.524
 5501SOL    HW217403   2.769   6.938   2.606
 5502SOL     OW17404   5.475   3.784   5.649
 5502SOL    HW117405   5.541   3.856   5.671
 5502SOL    HW217406   5.397   3.824   5.601
 5503SOL     OW17407   1.035   5.481   3.729
 5503SOL    HW117408   1.132   5.483   3.754
 5503SOL    HW217409   1.020   5.539   3.649
 5504SOL     OW17410   3.266   2.030   5.155
 5504SOL    HW117411   3.225   2.113   5.116
 5504SOL    HW217412   3.349   2.008   5.105
 5505SOL     OW17413   2.954   5.225   5.540
 5505SOL    HW117414   3.048   5.198   5.562
 5505SOL    HW217415   2.928   5.303   5.597
 5506SOL     OW17416   6.004   0.369   5.501
 5506SOL    HW117417   5.970   0.461   5.485
 5506SOL    HW217418   6.055   0.338   5.420
 5507SOL     OW17419   2.344   5.947   3.788
 5507SOL    HW117420   2.313   5.987   3.701
 5507SOL    HW217421   2.380   6.020   3.847
 5508SOL     OW17422   3.246   0.788   6.590
 5508SOL    HW117423   3.207   0.877   6.564
 5508SOL    HW217424   3.197   0.715   6.544
 5509SOL     OW17425   5.882   6.831   6.698
 5509SOL    HW117426   5.871   6.929   6.683
 5509SOL    HW217427   5.926   6.789   6.619
 5510SOL     OW17428   5.387   0.993   5.904
 5510SOL    HW117429   5.293   1.021   5.927
 5510SOL    HW217430   5.388   0.895   5.885
 5511SOL     OW17431   0.765   0.881   1.959
 5511SOL    HW117432   0.735   0.786   1.963
 5511SOL    HW217433   0.826   0.901   2.035
 5512SOL     OW17434   1.359   0.655   6.986
 5512SOL    HW117435   1.429   0.594   6.949
 5512SOL    HW217436   1.402   0.727   0.017
 5513SOL     OW17437   4.679   4.267   4.430
 5513SOL    HW117438   4.756   4.203   4.428
 5513SOL    HW217439   4.616   4.248   4.355
 5514SOL     OW17440   5.314   4.425   2.195
 5514SOL    HW117441   5.386   4.369   2.154
 5514SOL    HW217442   5.320   4.418   2.295
 5515SOL     OW17443   6.464   2.826   1.385
 5515SOL    HW117444   6.547   2.771   1.396
 5515SOL    HW217445   6.405   2.814   1.465
 5516SOL     OW17446   1.019   3.741   6.166
 5516SOL    HW117447   0.965   3.780   6.241
 5516SOL    HW217448   1.026   3.808   6.092
 5517SOL     OW17449   2.424   2.052   1.815
 5517SOL    HW117450   2.331   2.062   1.851
 5517SOL    HW217451   2.468   2.141   1.812
 5518SOL     OW17452   6.198   5.342   5.054
 5518SOL    HW117453   6.162   5.264   5.002
 5518SOL    HW217454   6.291   5.362   5.023
 5519SOL     OW17455   5.549   4.238   3.904
 5519SOL    HW117456   5.470   4.227   3.843
 5519SOL    HW217457   5.631   4.207   3.857
 5520SOL     OW17458   1.557   3.992   1.858
 5520SOL    HW117459   1.632   4.056   1.841
 5520SOL    HW217460   1.588   3.918   1.917
 5521SOL     OW17461   5.985   5.334   1.532
 5521SOL    HW117462   5.935   5.250   1.510
 5521SOL    HW217463   6.071   5.311   1.577
 5522SOL     OW17464   2.473   3.394   1.630
 5522SOL    HW117465   2.509   3.474   1.581
 5522SOL    HW217466   2.431   3.424   1.715
 5523SOL     OW17467   2.858   0.569   1.937
 5523SOL    HW117468   2.804   0.601   1.859
 5523SOL    HW217469   2.920   0.497   1.907
 5524SOL     OW17470   0.034   4.959   6.035
 5524SOL    HW117471   0.118   4.905   6.034
 5524SOL    HW217472   0.023   5.004   5.946
 5525SOL     OW17473   6.601   5.625   5.432
 5525SOL    HW117474   6.606   5.687   5.511
 5525SOL    HW217475   6.670   5.652   5.364
 5526SOL     OW17476   6.457   3.174   4.377
 5526SOL    HW117477   6.417   3.193   4.466
 5526SOL    HW217478   6.385   3.166   4.308
 5527SOL     OW17479   1.496   3.487   1.672
 5527SOL    HW117480   1.441   3.409   1.703
 5527SOL    HW217481   1.438   3.568   1.667
 5528SOL     OW17482   0.793   3.664   4.041
 5528SOL    HW117483   0.753   3.609   3.967
 5528SOL    HW217484   0.758   3.757   4.037
 5529SOL     OW17485   2.464   1.503   4.933
 5529SOL    HW117486   2.458   1.587   4.988
 5529SOL    HW217487   2.558   1.493   4.899
 5530SOL     OW17488   0.773   2.702   0.434
 5530SOL    HW117489   0.777   2.802   0.443
 5530SOL    HW217490   0.692   2.668   0.481
 5531SOL     OW17491   3.656   2.889   5.907
 5531SOL    HW117492   3.753   2.881   5.883
 5531SOL    HW217493   3.641   2.848   5.996
 5532SOL     OW17494   2.227   1.638   1.194
 5532SOL    HW117495   2.206   1.667   1.101
 5532SOL    HW217496   2.326   1.633   1.206
 5533SOL     OW17497   3.506   1.203   1.437
 5533SOL    HW117498   3.535   1.124   1.491
 5533SOL    HW217499   3.458   1.268   1.497
 5534SOL     OW17500   0.265   4.343   6.607
 5534SOL    HW117501   0.324   4.293   6.671
 5534SOL    HW217502   0.184   4.289   6.586
 5535SOL     OW17503   6.169   3.347   2.497
 5535SOL    HW117504   6.153   3.267   2.440
 5535SOL    HW217505   6.245   3.400   2.461
 5536SOL     OW17506   2.756   0.749   3.835
 5536SOL    HW117507   2.817   0.680   3.873
 5536SOL    HW217508   2.774   0.760   3.737
 5537SOL     OW17509   4.188   6.879   5.393
 5537SOL    HW117510   4.153   6.791   5.425
 5537SOL    HW217511   4.117   6.949   5.402
 5538SOL     OW17512   4.349   1.913   6.855
 5538SOL    HW117513   4.255   1.879   6.845
 5538SOL    HW217514   4.380   1.951   6.768
 5539SOL     OW17515   2.509   6.791   1.228
 5539SOL    HW117516   2.458   6.829   1.305
 5539SOL    HW217517   2.535   6.865   1.166
 5540SOL     OW17518   5.065   1.667   0.091
 5540SOL    HW117519   4.975   1.693   0.124
 5540SOL    HW217520   5.070   1.681   7.016
 5541SOL     OW17521   4.498   4.053   6.595
 5541SOL    HW117522   4.478   4.117   6.668
 5541SOL    HW217523   4.596   4.030   6.597
 5542SOL     OW17524   5.345   4.393   6.398
 5542SOL    HW117525   5.416   4.328   6.427
 5542SOL    HW217526   5.380   4.486   6.406
 5543SOL     OW17527   1.908   0.361   1.219
 5543SOL    HW117528   1.955   0.424   1.281
 5543SOL    HW217529   1.971   0.291   1.187
 5544SOL     OW17530   4.281   5.540   6.028
 5544SOL    HW117531   4.243   5.571   5.940
 5544SOL    HW217532   4.327   5.452   6.015
 5545SOL     OW17533   4.590   0.717   3.019
 5545SOL    HW117534   4.509   0.738   3.073
 5545SOL    HW217535   4.649   0.655   3.070
 5546SOL     OW17536   0.148   6.114   5.926
 5546SOL    HW117537   0.122   6.184   5.860
 5546SOL    HW217538   0.118   6.024   5.893
 5547SOL     OW17539   5.233   1.888   4.980
 5547SOL    HW117540   5.188   1.970   5.016
 5547SOL    HW217541   5.164   1.819   4.958
 5548SOL     OW17542   6.760   4.163   5.036
 5548SOL    HW117543   6.754   4.094   5.109
 5548SOL    HW217544   6.675   4.215   5.033
 5549SOL     OW17545   3.841   3.426   2.006
 5549SOL    HW117546   3.911   3.488   1.971
 5549SOL    HW217547   3.751   3.465   1.988
 5550SOL     OW17548   1.567   4.058   3.372
 5550SOL    HW117549   1.534   4.020   3.286
 5550SOL    HW217550   1.492   4.062   3.438
 5551SOL     OW17551   2.416   5.316   3.518
 5551SOL    HW117552   2.342   5.374   3.554
 5551SOL    HW217553   2.500   5.334   3.570
 5552SOL     OW17554   6.957   6.885   6.424
 5552SOL    HW117555   6.881   6.949   6.435
 5552SOL    HW217556   6.934   6.798   6.468
 5553SOL     OW17557   4.754   0.496   6.582
 5553SOL    HW117558   4.731   0.563   6.512
 5553SOL    HW217559   4.852   0.503   6.603
 5554SOL     OW17560   5.703   2.999   1.397
 5554SOL    HW117561   5.800   3.014   1.379
 5554SOL    HW217562   5.670   3.068   1.462
 5555SOL     OW17563   1.100   4.084   2.547
 5555SOL    HW117564   1.065   4.147   2.477
 5555SOL    HW217565   1.103   3.991   2.509
 5556SOL     OW17566   6.684   1.171   4.275
 5556SOL    HW117567   6.747   1.170   4.197
 5556SOL    HW217568   6.728   1.213   4.354
 5557SOL     OW17569   3.233   5.430   2.181
 5557SOL    HW117570   3.216   5.519   2.222
 5557SOL    HW217571   3.331   5.409   2.187
 5558SOL     OW17572   3.290   4.471   0.714
 5558SOL    HW117573   3.311   4.561   0.752
 5558SOL    HW217574   3.193   4.452   0.725
 5559SOL     OW17575   1.266   6.935   2.757
 5559SOL    HW117576   1.323   7.017   2.754
 5559SOL    HW217577   1.206   6.939   2.837
 5560SOL     OW17578   0.409   5.678   2.766
 5560SOL    HW117579   0.381   5.584   2.782
 5560SOL    HW217580   0.384   5.705   2.673
 5561SOL     OW17581   3.323   1.054   3.948
 5561SOL    HW117582   3.277   1.094   3.869
 5561SOL    HW217583   3.314   0.954   3.945
 5562SOL     OW17584   3.990   4.002   0.397
 5562SOL    HW117585   3.968   3.904   0.400
 5562SOL    HW217586   4.082   4.014   0.359
 5563SOL     OW17587   3.110   4.866   2.917
 5563SOL    HW117588   3.189   4.862   2.979
 5563SOL    HW217589   3.043   4.797   2.945
 5564SOL     OW17590   5.540   0.552   5.889
 5564SOL    HW117591   5.584   0.515   5.971
 5564SOL    HW217592   5.468   0.490   5.859
 5565SOL     OW17593   3.827   3.117   0.554
 5565SOL    HW117594   3.849   3.069   0.469
 5565SOL    HW217595   3.911   3.147   0.599
 5566SOL     OW17596   1.085   3.684   0.401
 5566SOL    HW117597   1.098   3.778   0.372
 5566SOL    HW217598   1.022   3.681   0.479
 5567SOL     OW17599   6.906   3.708   1.570
 5567SOL    HW117600   6.888   3.806   1.578
 5567SOL    HW217601   6.996   3.688   1.611
 5568SOL     OW17602   4.439   6.491   2.620
 5568SOL    HW117603   4.410   6.397   2.639
 5568SOL    HW217604   4.362   6.553   2.633
 5569SOL     OW17605   2.882   2.305   3.428
 5569SOL    HW117606   2.918   2.360   3.352
 5569SOL    HW217607   2.786   2.327   3.441
 5570SOL     OW17608   6.653   3.359   3.533
 5570SOL    HW117609   6.582   3.395   3.473
 5570SOL    HW217610   6.731   3.422   3.533
 5571SOL     OW17611   0.185   5.376   1.890
 5571SOL    HW117612   0.257   5.333   1.944
 5571SOL    HW217613   0.157   5.462   1.933
 5572SOL     OW17614   1.014   3.399   5.017
 5572SOL    HW117615   0.918   3.406   4.989
 5572SOL    HW217616   1.070   3.453   4.955
 5573SOL     OW17617   1.505   4.876   5.237
 5573SOL    HW117618   1.486   4.944   5.307
 5573SOL    HW217619   1.549   4.796   5.278
 5574SOL     OW17620   0.426   2.471   6.262
 5574SOL    HW117621   0.489   2.433   6.329
 5574SOL    HW217622   0.459   2.449   6.170
 5575SOL     OW17623   1.173   0.575   1.516
 5575SOL    HW117624   1.231   0.618   1.447
 5575SOL    HW217625   1.079   0.606   1.505
 5576SOL     OW17626   2.316   4.401   3.213
 5576SOL    HW117627   2.264   4.486   3.200
 5576SOL    HW217628   2.263   4.324   3.176
 5577SOL     OW17629   1.384   3.340   6.748
 5577SOL    HW117630   1.471   3.386   6.734
 5577SOL    HW217631   1.309   3.403   6.727
 5578SOL     OW17632   3.771   3.477   3.146
 5578SOL    HW117633   3.674   3.498   3.155
 5578SOL    HW217634   3.789   3.385   3.181
 5579SOL     OW17635   0.026   3.058   1.459
 5579SOL    HW117636   0.103   3.107   1.418
 5579SOL    HW217637   6.967   3.074   1.405
 5580SOL     OW17638   4.811   1.453   6.298
 5580SOL    HW117639   4.726   1.433   6.345
 5580SOL    HW217640   4.859   1.368   6.278
 5581SOL     OW17641   0.283   1.876   0.926
 5581SOL    HW117642   0.349   1.949   0.942
 5581SOL    HW217643   0.284   1.852   0.829
 5582SOL     OW17644   2.438   3.614   6.743
 5582SOL    HW117645   2.528   3.626   6.786
 5582SOL    HW217646   2.368   3.605   6.815
 5583SOL     OW17647   5.064   0.633   2.737
 5583SOL    HW117648   5.046   0.690   2.817
 5583SOL    HW217649   5.133   0.676   2.680
 5584SOL     OW17650   6.931   4.441   4.827
 5584SOL    HW117651   6.932   4.462   4.729
 5584SOL    HW217652   6.887   4.516   4.876
 5585SOL     OW17653   5.257   4.830   2.556
 5585SOL    HW117654   5.227   4.793   2.468
 5585SOL    HW217655   5.293   4.756   2.613
 5586SOL     OW17656   6.746   3.883   6.021
 5586SOL    HW117657   6.815   3.942   5.979
 5586SOL    HW217658   6.776   3.857   6.113
 5587SOL     OW17659   4.267   1.455   6.802
 5587SOL    HW117660   4.225   1.369   6.775
 5587SOL    HW217661   4.367   1.447   6.796
 5588SOL     OW17662   2.643   6.552   2.320
 5588SOL    HW117663   2.738   6.521   2.327
 5588SOL    HW217664   2.593   6.523   2.402
 5589SOL     OW17665   5.783   4.388   6.295
 5589SOL    HW117666   5.734   4.453   6.353
 5589SOL    HW217667   5.862   4.434   6.254
 5590SOL     OW17668   5.403   5.943   4.158
 5590SOL    HW117669   5.467   5.908   4.090
 5590SOL    HW217670   5.321   5.886   4.160
 5591SOL     OW17671   6.913   1.792   1.663
 5591SOL    HW117672   6.889   1.855   1.737
 5591SOL    HW217673   6.971   1.839   1.596
 5592SOL     OW17674   1.520   4.720   3.170
 5592SOL    HW117675   1.484   4.762   3.253
 5592SOL    HW217676   1.488   4.626   3.163
 5593SOL     OW17677   6.744   2.658   6.989
 5593SOL    HW117678   6.736   2.595   0.043
 5593SOL    HW217679   6.840   2.677   6.971
 5594SOL     OW17680   5.230   1.387   5.328
 5594SOL    HW117681   5.161   1.444   5.282
 5594SOL    HW217682   5.184   1.317   5.382
 5595SOL     OW17683   0.927   2.531   4.990
 5595SOL    HW117684   0.970   2.622   4.988
 5595SOL    HW217685   0.986   2.468   5.039
 5596SOL     OW17686   4.044   0.003   2.858
 5596SOL    HW117687   4.028   0.102   2.853
 5596SOL    HW217688   4.020   6.985   2.771
 5597SOL     OW17689   4.951   2.813   4.210
 5597SOL    HW117690   4.952   2.735   4.147
 5597SOL    HW217691   4.865   2.814   4.261
 5598SOL     OW17692   4.602   2.541   4.069
 5598SOL    HW117693   4.626   2.637   4.056
 5598SOL    HW217694   4.529   2.534   4.137
 5599SOL     OW17695   1.396   0.535   4.508
 5599SOL    HW117696   1.349   0.466   4.563
 5599SOL    HW217697   1.490   0.505   4.490
 5600SOL     OW17698   1.224   2.141   3.409
 5600SOL    HW117699   1.193   2.230   3.441
 5600SOL    HW217700   1.218   2.136   3.309
 5601SOL     OW17701   2.292   0.862   5.744
 5601SOL    HW117702   2.233   0.846   5.665
 5601SOL    HW217703   2.245   0.921   5.809
 5602SOL     OW17704   0.658   1.534   0.956
 5602SOL    HW117705   0.674   1.576   1.045
 5602SOL    HW217706   0.582   1.469   0.963
 5603SOL     OW17707   5.467   1.652   6.811
 5603SOL    HW117708   5.446   1.747   6.787
 5603SOL    HW217709   5.486   1.646   6.909
 5604SOL     OW17710   6.367   2.032   5.693
 5604SOL    HW117711   6.379   1.947   5.744
 5604SOL    HW217712   6.437   2.098   5.721
 5605SOL     OW17713   0.535   1.250   4.657
 5605SOL    HW117714   0.570   1.337   4.622
 5605SOL    HW217715   0.470   1.268   4.731
 5606SOL     OW17716   5.769   6.470   1.422
 5606SOL    HW117717   5.748   6.527   1.343
 5606SOL    HW217718   5.730   6.379   1.408
 5607SOL     OW17719   5.051   1.318   1.920
 5607SOL    HW117720   5.108   1.257   1.865
 5607SOL    HW217721   5.070   1.302   2.017
 5608SOL     OW17722   4.487   0.338   4.343
 5608SOL    HW117723   4.515   0.326   4.438
 5608SOL    HW217724   4.419   0.411   4.337
 5609SOL     OW17725   2.211   5.984   0.074
 5609SOL    HW117726   2.300   5.960   0.113
 5609SOL    HW217727   2.142   5.918   0.104
 5610SOL     OW17728   5.122   0.136   0.244
 5610SOL    HW117729   5.155   0.142   0.339
 5610SOL    HW217730   5.191   0.090   0.188
 5611SOL     OW17731   1.575   4.865   2.480
 5611SOL    HW117732   1.661   4.901   2.444
 5611SOL    HW217733   1.501   4.931   2.463
 5612SOL     OW17734   3.705   1.878   6.509
 5612SOL    HW117735   3.719   1.975   6.492
 5612SOL    HW217736   3.771   1.846   6.577
 5613SOL     OW17737   4.715   4.371   2.610
 5613SOL    HW117738   4.793   4.434   2.602
 5613SOL    HW217739   4.630   4.423   2.598
 5614SOL     OW17740   4.365   2.437   3.483
 5614SOL    HW117741   4.292   2.421   3.549
 5614SOL    HW217742   4.443   2.480   3.528
 5615SOL     OW17743   0.638   0.364   6.821
 5615SOL    HW117744   0.539   0.374   6.817
 5615SOL    HW217745   0.681   0.421   6.751
 5616SOL     OW17746   2.375   0.588   5.191
 5616SOL    HW117747   2.296   0.627   5.142
 5616SOL    HW217748   2.386   0.636   5.279
 5617SOL     OW17749   2.239   0.132   6.375
 5617SOL    HW117750   2.258   0.224   6.341
 5617SOL    HW217751   2.264   0.065   6.305
 5618SOL     OW17752   6.954   3.867   4.635
 5618SOL    HW117753   6.857   3.859   4.657
 5618SOL    HW217754   6.982   3.963   4.643
 5619SOL     OW17755   2.892   4.007   6.273
 5619SOL    HW117756   2.848   3.944   6.209
 5619SOL    HW217757   2.831   4.085   6.291
 5620SOL     OW17758   3.965   2.958   0.383
 5620SOL    HW117759   4.017   2.880   0.419
 5620SOL    HW217760   4.028   3.024   0.343
 5621SOL     OW17761   1.417   1.750   5.783
 5621SOL    HW117762   1.412   1.736   5.684
 5621SOL    HW217763   1.337   1.803   5.813
 5622SOL     OW17764   4.749   6.952   6.054
 5622SOL    HW117765   4.737   6.929   6.150
 5622SOL    HW217766   4.847   6.952   6.032
 5623SOL     OW17767   1.772   6.227   6.259
 5623SOL    HW117768   1.853   6.217   6.317
 5623SOL    HW217769   1.732   6.318   6.273
 5624SOL     OW17770   1.354   4.763   3.391
 5624SOL    HW117771   1.376   4.728   3.482
 5624SOL    HW217772   1.256   4.784   3.387
 5625SOL     OW17773   6.178   2.538   4.389
 5625SOL    HW117774   6.143   2.583   4.306
 5625SOL    HW217775   6.112   2.470   4.420
 5626SOL     OW17776   3.129   6.619   5.033
 5626SOL    HW117777   3.051   6.591   4.976
 5626SOL    HW217778   3.142   6.718   5.025
 5627SOL     OW17779   1.674   5.587   1.133
 5627SOL    HW117780   1.724   5.668   1.163
 5627SOL    HW217781   1.688   5.513   1.198
 5628SOL     OW17782   1.445   2.179   5.678
 5628SOL    HW117783   1.512   2.199   5.607
 5628SOL    HW217784   1.490   2.182   5.767
 5629SOL     OW17785   3.052   3.923   1.755
 5629SOL    HW117786   3.053   3.928   1.855
 5629SOL    HW217787   3.145   3.910   1.721
 5630SOL     OW17788   1.424   4.730   0.886
 5630SOL    HW117789   1.410   4.673   0.805
 5630SOL    HW217790   1.514   4.712   0.924
 5631SOL     OW17791   3.818   2.132   0.275
 5631SOL    HW117792   3.875   2.108   0.196
 5631SOL    HW217793   3.800   2.049   0.329
 5632SOL     OW17794   4.378   4.019   6.126
 5632SOL    HW117795   4.396   4.033   6.223
 5632SOL    HW217796   4.292   4.062   6.101
 5633SOL     OW17797   6.713   2.364   3.649
 5633SOL    HW117798   6.676   2.451   3.618
 5633SOL    HW217799   6.800   2.346   3.602
 5634SOL     OW17800   3.138   5.274   5.156
 5634SOL    HW117801   3.112   5.241   5.247
 5634SOL    HW217802   3.103   5.212   5.086
 5635SOL     OW17803   2.170   3.062   4.887
 5635SOL    HW117804   2.248   3.061   4.949
 5635SOL    HW217805   2.201   3.087   4.795
 5636SOL     OW17806   3.712   6.068   2.665
 5636SOL    HW117807   3.677   6.100   2.752
 5636SOL    HW217808   3.774   6.137   2.627
 5637SOL     OW17809   5.887   7.018   4.233
 5637SOL    HW117810   5.959   6.973   4.286
 5637SOL    HW217811   5.819   6.950   4.205
 5638SOL     OW17812   5.831   2.767   1.145
 5638SOL    HW117813   5.854   2.676   1.111
 5638SOL    HW217814   5.840   2.834   1.071
 5639SOL     OW17815   0.354   1.352   6.591
 5639SOL    HW117816   0.256   1.340   6.577
 5639SOL    HW217817   0.402   1.267   6.569
 5640SOL     OW17818   2.757   0.374   3.979
 5640SOL    HW117819   2.729   0.278   3.974
 5640SOL    HW217820   2.833   0.383   4.044
 5641SOL     OW17821   6.859   4.521   5.895
 5641SOL    HW117822   6.876   4.469   5.811
 5641SOL    HW217823   6.811   4.463   5.961
 5642SOL     OW17824   1.858   0.381   0.106
 5642SOL    HW117825   1.799   0.462   0.111
 5642SOL    HW217826   1.950   0.406   0.134
 5643SOL     OW17827   5.858   2.554   4.321
 5643SOL    HW117828   5.768   2.549   4.278
 5643SOL    HW217829   5.847   2.570   4.419
 5644SOL     OW17830   3.043   0.017   5.792
 5644SOL    HW117831   3.138   0.045   5.777
 5644SOL    HW217832   3.034   6.942   5.775
 5645SOL     OW17833   6.217   3.310   3.441
 5645SOL    HW117834   6.171   3.370   3.506
 5645SOL    HW217835   6.316   3.319   3.452
 5646SOL     OW17836   2.245   4.653   2.872
 5646SOL    HW117837   2.177   4.716   2.908
 5646SOL    HW217838   2.204   4.562   2.861
 5647SOL     OW17839   5.641   6.067   2.490
 5647SOL    HW117840   5.670   5.986   2.439
 5647SOL    HW217841   5.542   6.074   2.489
 5648SOL     OW17842   3.004   5.700   3.205
 5648SOL    HW117843   2.934   5.640   3.167
 5648SOL    HW217844   3.054   5.744   3.131
 5649SOL     OW17845   0.834   5.435   4.138
 5649SOL    HW117846   0.799   5.441   4.045
 5649SOL    HW217847   0.876   5.345   4.152
 5650SOL     OW17848   0.705   4.636   0.368
 5650SOL    HW117849   0.715   4.540   0.343
 5650SOL    HW217850   0.762   4.657   0.448
 5651SOL     OW17851   1.649   7.005   0.184
 5651SOL    HW117852   1.586   0.009   0.111
 5651SOL    HW217853   1.596   6.982   0.266
 5652SOL     OW17854   0.278   5.049   1.942
 5652SOL    HW117855   0.330   5.134   1.952
 5652SOL    HW217856   0.341   4.971   1.949
 5653SOL     OW17857   0.220   6.122   1.357
 5653SOL    HW117858   0.235   6.143   1.261
 5653SOL    HW217859   0.240   6.026   1.374
 5654SOL     OW17860   1.620   6.106   4.812
 5654SOL    HW117861   1.664   6.193   4.837
 5654SOL    HW217862   1.549   6.123   4.744
 5655SOL     OW17863   6.434   3.281   4.058
 5655SOL    HW117864   6.475   3.198   4.020
 5655SOL    HW217865   6.335   3.270   4.063
 5656SOL     OW17866   0.099   3.014   6.541
 5656SOL    HW117867   0.114   2.985   6.446
 5656SOL    HW217868   0.187   3.014   6.590
 5657SOL     OW17869   4.526   4.728   4.364
 5657SOL    HW117870   4.436   4.697   4.394
 5657SOL    HW217871   4.534   4.827   4.378
 5658SOL     OW17872   1.803   2.674   5.797
 5658SOL    HW117873   1.794   2.760   5.748
 5658SOL    HW217874   1.728   2.613   5.771
 5659SOL     OW17875   3.191   4.186   6.599
 5659SOL    HW117876   3.284   4.217   6.621
 5659SOL    HW217877   3.171   4.103   6.651
 5660SOL     OW17878   4.744   6.971   6.581
 5660SOL    HW117879   4.695   6.961   6.494
 5660SOL    HW217880   4.684   6.943   6.656
 5661SOL     OW17881   0.605   5.816   5.822
 5661SOL    HW117882   0.580   5.744   5.886
 5661SOL    HW217883   0.607   5.779   5.729
 5662SOL     OW17884   2.819   6.320   3.197
 5662SOL    HW117885   2.760   6.241   3.180
 5662SOL    HW217886   2.891   6.295   3.261
 5663SOL     OW17887   1.265   2.680   0.989
 5663SOL    HW117888   1.345   2.672   1.048
 5663SOL    HW217889   1.182   2.661   1.041
 5664SOL     OW17890   5.534   4.242   4.480
 5664SOL    HW117891   5.465   4.256   4.409
 5664SOL    HW217892   5.615   4.200   4.440
 5665SOL     OW17893   1.787   0.204   0.693
 5665SOL    HW117894   1.768   0.195   0.791
 5665SOL    HW217895   1.708   0.245   0.648
 5666SOL     OW17896   6.438   1.549   4.387
 5666SOL    HW117897   6.375   1.564   4.462
 5666SOL    HW217898   6.435   1.454   4.358
 5667SOL     OW17899   1.410   5.081   4.851
 5667SOL    HW117900   1.468   5.066   4.931
 5667SOL    HW217901   1.346   5.005   4.841
 5668SOL     OW17902   5.881   2.850   3.310
 5668SOL    HW117903   5.968   2.803   3.301
 5668SOL    HW217904   5.834   2.852   3.222
 5669SOL     OW17905   5.691   3.753   6.745
 5669SOL    HW117906   5.606   3.772   6.696
 5669SOL    HW217907   5.751   3.697   6.688
 5670SOL     OW17908   1.123   2.766   2.962
 5670SOL    HW117909   1.072   2.745   2.878
 5670SOL    HW217910   1.127   2.865   2.976
 5671SOL     OW17911   6.967   6.720   3.523
 5671SOL    HW117912   7.013   6.730   3.612
 5671SOL    HW217913   0.006   6.678   3.458
 5672SOL     OW17914   5.113   3.828   5.082
 5672SOL    HW117915   5.151   3.743   5.120
 5672SOL    HW217916   5.018   3.838   5.111
 5673SOL     OW17917   0.857   0.098   1.481
 5673SOL    HW117918   0.920   0.137   1.548
 5673SOL    HW217919   0.776   0.156   1.474
 5674SOL     OW17920   1.211   5.309   4.934
 5674SOL    HW117921   1.219   5.397   4.888
 5674SOL    HW217922   1.245   5.236   4.874
 5675SOL     OW17923   2.950   1.185   0.196
 5675SOL    HW117924   2.896   1.237   0.262
 5675SOL    HW217925   3.035   1.234   0.177
 5676SOL     OW17926   2.661   2.521   1.862
 5676SOL    HW117927   2.616   2.531   1.951
 5676SOL    HW217928   2.759   2.505   1.876
 5677SOL     OW17929   6.792   0.681   0.853
 5677SOL    HW117930   6.766   0.765   0.805
 5677SOL    HW217931   6.840   0.620   0.791
 5678SOL     OW17932   3.524   1.682   1.742
 5678SOL    HW117933   3.444   1.623   1.736
 5678SOL    HW217934   3.534   1.733   1.656
 5679SOL     OW17935   5.957   3.152   4.558
 5679SOL    HW117936   5.886   3.149   4.629
 5679SOL    HW217937   5.921   3.112   4.473
 5680SOL     OW17938   1.217   5.227   6.031
 5680SOL    HW117939   1.171   5.302   5.984
 5680SOL    HW217940   1.243   5.256   6.123
 5681SOL     OW17941   0.304   4.041   3.004
 5681SOL    HW117942   0.320   3.943   2.992
 5681SOL    HW217943   0.214   4.055   3.046
 5682SOL     OW17944   2.024   4.882   2.660
 5682SOL    HW117945   1.962   4.829   2.718
 5682SOL    HW217946   2.078   4.820   2.604
 5683SOL     OW17947   4.565   2.367   0.020
 5683SOL    HW117948   4.622   2.287   0.037
 5683SOL    HW217949   4.519   2.358   6.956
 5684SOL     OW17950   2.333   2.521   5.868
 5684SOL    HW117951   2.409   2.580   5.895
 5684SOL    HW217952   2.313   2.535   5.770
 5685SOL     OW17953   1.882   2.026   3.924
 5685SOL    HW117954   1.972   1.983   3.913
 5685SOL    HW217955   1.842   2.045   3.835
 5686SOL     OW17956   3.708   0.653   6.016
 5686SOL    HW117957   3.715   0.715   5.937
 5686SOL    HW217958   3.651   0.694   6.086
 5687SOL     OW17959   1.390   6.334   6.057
 5687SOL    HW117960   1.349   6.258   6.006
 5687SOL    HW217961   1.454   6.298   6.125
 5688SOL     OW17962   1.998   3.747   3.284
 5688SOL    HW117963   1.927   3.677   3.284
 5688SOL    HW217964   2.068   3.723   3.217
 5689SOL     OW17965   1.322   1.308   0.915
 5689SOL    HW117966   1.338   1.316   1.013
 5689SOL    HW217967   1.251   1.240   0.898
 5690SOL     OW17968   0.861   5.465   0.106
 5690SOL    HW117969   0.827   5.535   0.043
 5690SOL    HW217970   0.874   5.380   0.056
 5691SOL     OW17971   3.750   1.384   2.312
 5691SOL    HW117972   3.734   1.317   2.384
 5691SOL    HW217973   3.819   1.351   2.249
 5692SOL     OW17974   4.935   5.317   1.521
 5692SOL    HW117975   4.957   5.292   1.615
 5692SOL    HW217976   4.980   5.403   1.498
 5693SOL     OW17977   3.538   0.704   0.871
 5693SOL    HW117978   3.464   0.742   0.816
 5693SOL    HW217979   3.544   0.753   0.957
 5694SOL     OW17980   0.408   0.492   2.642
 5694SOL    HW117981   0.338   0.468   2.708
 5694SOL    HW217982   0.394   0.441   2.557
 5695SOL     OW17983   1.221   0.849   1.725
 5695SOL    HW117984   1.183   0.853   1.633
 5695SOL    HW217985   1.321   0.857   1.721
 5696SOL     OW17986   1.206   6.762   4.370
 5696SOL    HW117987   1.237   6.830   4.303
 5696SOL    HW217988   1.145   6.697   4.325
 5697SOL     OW17989   6.253   2.695   1.220
 5697SOL    HW117990   6.199   2.707   1.137
 5697SOL    HW217991   6.264   2.782   1.267
 5698SOL     OW17992   1.742   3.113   3.653
 5698SOL    HW117993   1.795   3.136   3.571
 5698SOL    HW217994   1.666   3.054   3.628
 5699SOL     OW17995   2.379   2.614   3.356
 5699SOL    HW117996   2.285   2.585   3.344
 5699SOL    HW217997   2.413   2.583   3.445
 5700SOL     OW17998   6.445   0.127   1.985
 5700SOL    HW117999   6.505   0.090   2.056
 5700SOL    HW218000   6.353   0.088   1.996
 5701SOL     OW18001   6.375   1.340   1.297
 5701SOL    HW118002   6.449   1.279   1.270
 5701SOL    HW218003   6.344   1.393   1.219
 5702SOL     OW18004   2.329   0.080   4.680
 5702SOL    HW118005   2.301   0.158   4.624
 5702SOL    HW218006   2.343   0.110   4.775
 5703SOL     OW18007   6.602   3.183   6.517
 5703SOL    HW118008   6.640   3.255   6.576
 5703SOL    HW218009   6.539   3.126   6.569
 5704SOL     OW18010   5.122   4.134   3.231
 5704SOL    HW118011   5.044   4.195   3.243
 5704SOL    HW218012   5.177   4.164   3.153
 5705SOL     OW18013   6.010   6.133   6.307
 5705SOL    HW118014   5.922   6.085   6.311
 5705SOL    HW218015   6.000   6.218   6.255
 5706SOL     OW18016   5.765   1.708   0.436
 5706SOL    HW118017   5.784   1.629   0.378
 5706SOL    HW218018   5.762   1.791   0.379
 5707SOL     OW18019   5.252   6.574   1.707
 5707SOL    HW118020   5.181   6.504   1.695
 5707SOL    HW218021   5.223   6.658   1.660
 5708SOL     OW18022   4.480   5.693   3.729
 5708SOL    HW118023   4.432   5.775   3.761
 5708SOL    HW218024   4.578   5.709   3.732
 5709SOL     OW18025   1.028   1.288   1.979
 5709SOL    HW118026   1.097   1.224   1.947
 5709SOL    HW218027   0.943   1.239   2.000
 5710SOL     OW18028   2.672   2.797   0.978
 5710SOL    HW118029   2.735   2.829   0.908
 5710SOL    HW218030   2.598   2.744   0.935
 5711SOL     OW18031   5.100   1.031   1.840
 5711SOL    HW118032   5.042   0.950   1.831
 5711SOL    HW218033   5.193   1.009   1.811
 5712SOL     OW18034   6.694   6.439   1.089
 5712SOL    HW118035   6.682   6.398   1.179
 5712SOL    HW218036   6.693   6.539   1.097
 5713SOL     OW18037   2.563   5.865   0.794
 5713SOL    HW118038   2.541   5.952   0.751
 5713SOL    HW218039   2.479   5.822   0.827
 5714SOL     OW18040   5.832   6.147   1.101
 5714SOL    HW118041   5.914   6.176   1.151
 5714SOL    HW218042   5.801   6.058   1.136
 5715SOL     OW18043   1.109   0.051   0.514
 5715SOL    HW118044   1.193   0.031   0.564
 5715SOL    HW218045   1.032   0.008   0.562
 5716SOL     OW18046   0.876   4.357   6.067
 5716SOL    HW118047   0.877   4.450   6.105
 5716SOL    HW218048   0.867   4.290   6.141
 5717SOL     OW18049   1.938   4.796   3.084
 5717SOL    HW118050   1.871   4.738   3.131
 5717SOL    HW218051   1.999   4.837   3.152
 5718SOL     OW18052   0.858   3.207   0.681
 5718SOL    HW118053   0.850   3.301   0.647
 5718SOL    HW218054   0.939   3.200   0.740
 5719SOL     OW18055   3.130   4.188   1.741
 5719SOL    HW118056   3.063   4.114   1.748
 5719SOL    HW218057   3.214   4.162   1.788
 5720SOL     OW18058   2.068   5.194   5.796
 5720SOL    HW118059   2.016   5.110   5.814
 5720SOL    HW218060   2.050   5.260   5.868
 5721SOL     OW18061   4.972   4.246   6.896
 5721SOL    HW118062   5.065   4.282   6.893
 5721SOL    HW218063   4.907   4.322   6.896
 5722SOL     OW18064   0.727   0.480   5.523
 5722SOL    HW118065   0.794   0.524   5.583
 5722SOL    HW218066   0.768   0.400   5.480
 5723SOL     OW18067   4.054   3.359   6.961
 5723SOL    HW118068   4.149   3.383   6.983
 5723SOL    HW218069   4.034   3.267   6.994
 5724SOL     OW18070   5.424   2.329   3.684
 5724SOL    HW118071   5.464   2.420   3.669
 5724SOL    HW218072   5.432   2.305   3.781
 5725SOL     OW18073   6.124   4.710   3.539
 5725SOL    HW118074   6.106   4.775   3.465
 5725SOL    HW218075   6.058   4.724   3.612
 5726SOL     OW18076   4.632   4.489   3.130
 5726SOL    HW118077   4.730   4.471   3.133
 5726SOL    HW218078   4.602   4.488   3.035
 5727SOL     OW18079   1.152   2.388   4.751
 5727SOL    HW118080   1.182   2.379   4.656
 5727SOL    HW218081   1.054   2.409   4.753
 5728SOL     OW18082   4.988   6.123   4.925
 5728SOL    HW118083   5.001   6.086   5.017
 5728SOL    HW218084   5.074   6.118   4.874
 5729SOL     OW18085   2.277   1.626   5.895
 5729SOL    HW118086   2.231   1.681   5.965
 5729SOL    HW218087   2.357   1.675   5.861
 5730SOL     OW18088   6.582   4.584   5.993
 5730SOL    HW118089   6.496   4.629   5.971
 5730SOL    HW218090   6.638   4.575   5.910
 5731SOL     OW18091   0.337   6.713   1.615
 5731SOL    HW118092   0.289   6.628   1.591
 5731SOL    HW218093   0.321   6.734   1.711
 5732SOL     OW18094   1.233   6.896   3.987
 5732SOL    HW118095   1.252   6.800   3.966
 5732SOL    HW218096   1.314   6.951   3.964
 5733SOL     OW18097   3.160   6.906   5.012
 5733SOL    HW118098   3.135   6.949   4.926
 5733SOL    HW218099   3.233   6.958   5.056
 5734SOL     OW18100   1.709   5.762   3.741
 5734SOL    HW118101   1.702   5.745   3.643
 5734SOL    HW218102   1.678   5.855   3.761
 5735SOL     OW18103   2.789   1.362   1.852
 5735SOL    HW118104   2.844   1.288   1.813
 5735SOL    HW218105   2.848   1.436   1.882
 5736SOL     OW18106   0.982   5.602   6.444
 5736SOL    HW118107   1.014   5.696   6.438
 5736SOL    HW218108   0.907   5.596   6.511
 5737SOL     OW18109   4.811   4.804   6.816
 5737SOL    HW118110   4.894   4.847   6.781
 5737SOL    HW218111   4.823   4.785   6.914
 5738SOL     OW18112   1.333   3.288   6.323
 5738SOL    HW118113   1.390   3.266   6.245
 5738SOL    HW218114   1.272   3.364   6.300
 5739SOL     OW18115   0.987   1.183   0.722
 5739SOL    HW118116   1.026   1.110   0.778
 5739SOL    HW218117   0.929   1.241   0.779
 5740SOL     OW18118   4.227   5.803   6.630
 5740SOL    HW118119   4.238   5.803   6.730
 5740SOL    HW218120   4.264   5.718   6.593
 5741SOL     OW18121   0.037   5.439   4.710
 5741SOL    HW118122   0.055   5.501   4.634
 5741SOL    HW218123   6.988   5.476   4.767
 5742SOL     OW18124   6.630   6.368   3.224
 5742SOL    HW118125   6.588   6.322   3.303
 5742SOL    HW218126   6.587   6.457   3.211
 5743SOL     OW18127   1.472   6.382   5.183
 5743SOL    HW118128   1.483   6.350   5.277
 5743SOL    HW218129   1.547   6.443   5.159
 5744SOL     OW18130   5.944   0.540   1.079
 5744SOL    HW118131   6.008   0.611   1.108
 5744SOL    HW218132   5.993   0.453   1.067
 5745SOL     OW18133   2.152   1.592   4.158
 5745SOL    HW118134   2.073   1.647   4.181
 5745SOL    HW218135   2.222   1.602   4.229
 5746SOL     OW18136   5.289   2.064   6.987
 5746SOL    HW118137   5.317   2.158   6.967
 5746SOL    HW218138   5.224   2.033   6.918
 5747SOL     OW18139   0.654   5.448   3.301
 5747SOL    HW118140   0.752   5.429   3.289
 5747SOL    HW218141   0.629   5.530   3.249
 5748SOL     OW18142   2.781   6.011   2.860
 5748SOL    HW118143   2.852   5.994   2.928
 5748SOL    HW218144   2.786   5.942   2.788
 5749SOL     OW18145   2.515   2.557   3.080
 5749SOL    HW118146   2.559   2.529   3.166
 5749SOL    HW218147   2.440   2.495   3.060
 5750SOL     OW18148   6.713   5.527   2.834
 5750SOL    HW118149   6.657   5.593   2.784
 5750SOL    HW218150   6.655   5.469   2.891
 5751SOL     OW18151   2.466   3.548   5.423
 5751SOL    HW118152   2.375   3.574   5.456
 5751SOL    HW218153   2.467   3.450   5.402
 5752SOL     OW18154   6.708   0.003   6.752
 5752SOL    HW118155   6.752   0.093   6.743
 5752SOL    HW218156   6.634   0.009   6.819
 5753SOL     OW18157   3.446   2.577   0.282
 5753SOL    HW118158   3.414   2.483   0.294
 5753SOL    HW218159   3.528   2.592   0.336
 5754SOL     OW18160   6.213   4.935   1.601
 5754SOL    HW118161   6.259   4.993   1.533
 5754SOL    HW218162   6.262   4.848   1.609
 5755SOL     OW18163   3.088   4.389   0.291
 5755SOL    HW118164   3.044   4.303   0.318
 5755SOL    HW218165   3.026   4.442   0.233
 5756SOL     OW18166   6.693   5.682   4.380
 5756SOL    HW118167   6.739   5.768   4.356
 5756SOL    HW218168   6.762   5.610   4.394
 5757SOL     OW18169   0.111   5.308   0.685
 5757SOL    HW118170   0.136   5.399   0.718
 5757SOL    HW218171   0.080   5.314   0.591
 5758SOL     OW18172   1.259   2.294   5.493
 5758SOL    HW118173   1.313   2.326   5.415
 5758SOL    HW218174   1.320   2.249   5.559
 5759SOL     OW18175   5.279   1.674   6.112
 5759SOL    HW118176   5.241   1.719   6.031
 5759SOL    HW218177   5.350   1.732   6.152
 5760SOL     OW18178   1.868   5.632   2.372
 5760SOL    HW118179   1.892   5.725   2.401
 5760SOL    HW218180   1.946   5.591   2.326
 5761SOL     OW18181   4.841   6.983   4.571
 5761SOL    HW118182   4.864   6.930   4.489
 5761SOL    HW218183   4.778   0.034   4.546
 5762SOL     OW18184   5.668   5.978   1.295
 5762SOL    HW118185   5.661   6.077   1.304
 5762SOL    HW218186   5.675   5.936   1.385
 5763SOL     OW18187   1.600   1.018   1.421
 5763SOL    HW118188   1.681   1.006   1.479
 5763SOL    HW218189   1.614   0.969   1.335
 5764SOL     OW18190   4.882   3.427   5.516
 5764SOL    HW118191   4.941   3.348   5.533
 5764SOL    HW218192   4.829   3.448   5.598
 5765SOL     OW18193   5.735   4.431   0.068
 5765SOL    HW118194   5.715   4.478   7.006
 5765SOL    HW218195   5.673   4.465   0.139
 5766SOL     OW18196   3.152   1.796   2.394
 5766SOL    HW118197   3.102   1.804   2.480
 5766SOL    HW218198   3.123   1.713   2.346
 5767SOL     OW18199   0.075   6.464   1.639
 5767SOL    HW118200   0.168   6.436   1.615
 5767SOL    HW218201   0.011   6.426   1.572
 5768SOL     OW18202   6.409   2.107   2.334
 5768SOL    HW118203   6.409   2.162   2.418
 5768SOL    HW218204   6.449   2.160   2.260
 5769SOL     OW18205   2.456   5.448   4.163
 5769SOL    HW118206   2.367   5.420   4.200
 5769SOL    HW218207   2.478   5.540   4.196
 5770SOL     OW18208   6.141   0.721   1.138
 5770SOL    HW118209   6.148   0.769   1.051
 5770SOL    HW218210   6.200   0.641   1.137
 5771SOL     OW18211   1.279   1.818   1.179
 5771SOL    HW118212   1.196   1.850   1.133
 5771SOL    HW218213   1.256   1.787   1.272
 5772SOL     OW18214   5.429   4.283   0.132
 5772SOL    HW118215   5.528   4.271   0.128
 5772SOL    HW218216   5.404   4.325   0.220
 5773SOL     OW18217   5.615   5.844   4.470
 5773SOL    HW118218   5.517   5.838   4.490
 5773SOL    HW218219   5.644   5.940   4.472
 5774SOL     OW18220   1.997   5.516   4.030
 5774SOL    HW118221   1.979   5.615   4.031
 5774SOL    HW218222   1.926   5.469   4.082
 5775SOL     OW18223   0.545   6.654   6.082
 5775SOL    HW118224   0.528   6.574   6.139
 5775SOL    HW218225   0.642   6.660   6.061
 5776SOL     OW18226   5.069   0.543   5.442
 5776SOL    HW118227   5.027   0.585   5.523
 5776SOL    HW218228   5.168   0.540   5.454
 5777SOL     OW18229   0.315   1.034   4.950
 5777SOL    HW118230   0.358   0.958   4.902
 5777SOL    HW218231   0.357   1.120   4.922
 5778SOL     OW18232   1.632   6.648   3.568
 5778SOL    HW118233   1.580   6.728   3.598
 5778SOL    HW218234   1.579   6.595   3.502
 5779SOL     OW18235   4.635   1.108   2.048
 5779SOL    HW118236   4.663   1.173   1.977
 5779SOL    HW218237   4.660   1.145   2.138
 5780SOL     OW18238   5.786   3.973   1.665
 5780SOL    HW118239   5.785   3.885   1.713
 5780SOL    HW218240   5.703   4.024   1.687
 5781SOL     OW18241   1.843   5.524   4.812
 5781SOL    HW118242   1.814   5.444   4.759
 5781SOL    HW218243   1.841   5.501   4.909
 5782SOL     OW18244   2.880   1.931   2.397
 5782SOL    HW118245   2.954   1.966   2.340
 5782SOL    HW218246   2.813   1.883   2.340
 5783SOL     OW18247   1.585   6.949   1.099
 5783SOL    HW118248   1.563   6.856   1.068
 5783SOL    HW218249   1.680   6.970   1.076
 5784SOL     OW18250   1.904   6.001   0.065
 5784SOL    HW118251   1.928   5.973   6.997
 5784SOL    HW218252   1.937   5.933   0.131
 5785SOL     OW18253   1.602   1.993   0.355
 5785SOL    HW118254   1.670   1.921   0.361
 5785SOL    HW218255   1.550   1.998   0.441
 5786SOL     OW18256   1.178   3.490   1.940
 5786SOL    HW118257   1.217   3.579   1.964
 5786SOL    HW218258   1.119   3.500   1.859
 5787SOL     OW18259   6.613   3.126   5.183
 5787SOL    HW118260   6.632   3.130   5.085
 5787SOL    HW218261   6.604   3.218   5.219
 5788SOL     OW18262   2.272   1.710   2.126
 5788SOL    HW118263   2.321   1.787   2.166
 5788SOL    HW218264   2.300   1.699   2.030
 5789SOL     OW18265   3.600   4.441   6.313
 5789SOL    HW118266   3.545   4.474   6.389
 5789SOL    HW218267   3.562   4.475   6.227
 5790SOL     OW18268   5.887   5.960   4.234
 5790SOL    HW118269   5.829   5.951   4.315
 5790SOL    HW218270   5.877   6.053   4.196
 5791SOL     OW18271   4.066   1.545   2.309
 5791SOL    HW118272   4.047   1.460   2.261
 5791SOL    HW218273   3.992   1.566   2.372
 5792SOL     OW18274   4.944   3.163   3.044
 5792SOL    HW118275   5.022   3.163   2.982
 5792SOL    HW218276   4.918   3.258   3.064
 5793SOL     OW18277   4.590   2.106   5.781
 5793SOL    HW118278   4.527   2.029   5.768
 5793SOL    HW218279   4.586   2.167   5.702
 5794SOL     OW18280   4.292   0.313   0.301
 5794SOL    HW118281   4.249   0.256   0.232
 5794SOL    HW218282   4.346   0.384   0.257
 5795SOL     OW18283   2.126   5.800   1.912
 5795SOL    HW118284   2.141   5.815   2.010
 5795SOL    HW218285   2.206   5.753   1.874
 5796SOL     OW18286   4.827   2.260   6.648
 5796SOL    HW118287   4.922   2.283   6.670
 5796SOL    HW218288   4.781   2.341   6.612
 5797SOL     OW18289   5.113   2.204   1.245
 5797SOL    HW118290   5.097   2.132   1.177
 5797SOL    HW218291   5.051   2.281   1.228
 5798SOL     OW18292   1.374   4.013   5.577
 5798SOL    HW118293   1.404   3.943   5.642
 5798SOL    HW218294   1.366   3.972   5.486
 5799SOL     OW18295   2.655   6.741   3.409
 5799SOL    HW118296   2.599   6.677   3.461
 5799SOL    HW218297   2.604   6.772   3.328
 5800SOL     OW18298   0.825   0.100   1.080
 5800SOL    HW118299   0.823   0.000   1.076
 5800SOL    HW218300   0.742   0.137   1.039
 5801SOL     OW18301   2.015   2.129   2.669
 5801SOL    HW118302   2.087   2.174   2.615
 5801SOL    HW218303   2.016   2.031   2.650
 5802SOL     OW18304   0.282   1.495   1.723
 5802SOL    HW118305   0.268   1.443   1.808
 5802SOL    HW218306   0.195   1.510   1.678
 5803SOL     OW18307   0.464   5.018   3.651
 5803SOL    HW118308   0.477   4.938   3.709
 5803SOL    HW218309   0.554   5.051   3.619
 5804SOL     OW18310   5.571   1.526   3.891
 5804SOL    HW118311   5.480   1.484   3.889
 5804SOL    HW218312   5.639   1.459   3.920
 5805SOL     OW18313   1.821   2.317   1.899
 5805SOL    HW118314   1.768   2.276   1.824
 5805SOL    HW218315   1.918   2.303   1.881
 5806SOL     OW18316   7.001   4.321   1.859
 5806SOL    HW118317   0.011   4.362   1.944
 5806SOL    HW218318   0.029   4.358   1.782
 5807SOL     OW18319   1.222   0.362   1.166
 5807SOL    HW118320   1.210   0.288   1.232
 5807SOL    HW218321   1.189   0.331   1.076
 5808SOL     OW18322   6.662   6.710   5.852
 5808SOL    HW118323   6.639   6.614   5.836
 5808SOL    HW218324   6.761   6.721   5.855
 5809SOL     OW18325   0.820   2.337   5.729
 5809SOL    HW118326   0.867   2.361   5.644
 5809SOL    HW218327   0.875   2.271   5.779
 5810SOL     OW18328   3.280   0.107   5.691
 5810SOL    HW118329   3.235   0.135   5.606
 5810SOL    HW218330   3.360   0.165   5.707
 5811SOL     OW18331   3.162   3.962   6.173
 5811SOL    HW118332   3.070   3.976   6.211
 5811SOL    HW218333   3.170   3.868   6.140
 5812SOL     OW18334   5.717   2.048   0.480
 5812SOL    HW118335   5.764   2.014   0.399
 5812SOL    HW218336   5.618   2.033   0.471
 5813SOL     OW18337   5.066   6.508   0.316
 5813SOL    HW118338   5.102   6.576   0.252
 5813SOL    HW218339   5.002   6.448   0.268
 5814SOL     OW18340   5.383   1.234   1.070
 5814SOL    HW118341   5.467   1.181   1.064
 5814SOL    HW218342   5.350   1.254   0.977
 5815SOL     OW18343   6.637   1.735   4.368
 5815SOL    HW118344   6.556   1.676   4.371
 5815SOL    HW218345   6.611   1.828   4.394
 5816SOL     OW18346   0.417   3.169   2.407
 5816SOL    HW118347   0.337   3.114   2.384
 5816SOL    HW218348   0.463   3.128   2.486
 5817SOL     OW18349   6.461   3.402   3.331
 5817SOL    HW118350   6.523   3.408   3.253
 5817SOL    HW218351   6.408   3.486   3.338
 5818SOL     OW18352   2.306   0.314   5.336
 5818SOL    HW118353   2.293   0.216   5.318
 5818SOL    HW218354   2.271   0.336   5.427
 5819SOL     OW18355   4.516   5.402   0.288
 5819SOL    HW118356   4.449   5.418   0.215
 5819SOL    HW218357   4.491   5.320   0.339
 5820SOL     OW18358   5.490   5.911   2.215
 5820SOL    HW118359   5.539   5.859   2.284
 5820SOL    HW218360   5.446   5.990   2.257
 5821SOL     OW18361   6.860   0.080   1.047
 5821SOL    HW118362   6.842   0.051   1.141
 5821SOL    HW218363   6.890   0.176   1.047
 5822SOL     OW18364   1.704   3.616   2.790
 5822SOL    HW118365   1.639   3.550   2.752
 5822SOL    HW218366   1.790   3.569   2.813
 5823SOL     OW18367   2.213   5.454   3.659
 5823SOL    HW118368   2.171   5.387   3.721
 5823SOL    HW218369   2.203   5.546   3.698
 5824SOL     OW18370   0.910   0.245   2.231
 5824SOL    HW118371   0.829   0.303   2.234
 5824SOL    HW218372   0.939   0.222   2.324
 5825SOL     OW18373   5.999   0.858   4.601
 5825SOL    HW118374   5.974   0.791   4.531
 5825SOL    HW218375   6.009   0.812   4.690
 5826SOL     OW18376   0.139   0.040   5.276
 5826SOL    HW118377   0.236   0.040   5.252
 5826SOL    HW218378   0.116   0.124   5.325
 5827SOL     OW18379   2.258   4.392   4.474
 5827SOL    HW118380   2.197   4.391   4.395
 5827SOL    HW218381   2.266   4.301   4.513
 5828SOL     OW18382   4.066   6.933   4.819
 5828SOL    HW118383   3.976   6.912   4.781
 5828SOL    HW218384   4.120   6.984   4.752
 5829SOL     OW18385   2.226   0.955   4.317
 5829SOL    HW118386   2.238   0.876   4.258
 5829SOL    HW218387   2.130   0.966   4.340
 5830SOL     OW18388   3.603   5.674   4.341
 5830SOL    HW118389   3.626   5.766   4.372
 5830SOL    HW218390   3.513   5.648   4.377
 5831SOL     OW18391   1.508   2.163   5.285
 5831SOL    HW118392   1.559   2.140   5.367
 5831SOL    HW218393   1.570   2.200   5.216
 5832SOL     OW18394   2.894   5.540   1.670
 5832SOL    HW118395   2.916   5.455   1.717
 5832SOL    HW218396   2.804   5.532   1.628
 5833SOL     OW18397   3.521   4.539   6.547
 5833SOL    HW118398   3.429   4.575   6.565
 5833SOL    HW218399   3.534   4.454   6.599
 5834SOL     OW18400   5.803   2.898   6.132
 5834SOL    HW118401   5.734   2.971   6.140
 5834SOL    HW218402   5.759   2.815   6.097
 5835SOL     OW18403   5.230   1.859   2.618
 5835SOL    HW118404   5.277   1.788   2.671
 5835SOL    HW218405   5.231   1.945   2.669
 5836SOL     OW18406   5.021   6.791   3.457
 5836SOL    HW118407   5.118   6.794   3.484
 5836SOL    HW218408   4.995   6.695   3.442
 5837SOL     OW18409   3.298   5.325   6.882
 5837SOL    HW118410   3.245   5.338   6.966
 5837SOL    HW218411   3.297   5.409   6.828
 5838SOL     OW18412   2.884   2.297   1.119
 5838SOL    HW118413   2.894   2.260   1.027
 5838SOL    HW218414   2.972   2.295   1.166
 5839SOL     OW18415   2.015   2.073   0.919
 5839SOL    HW118416   1.985   1.988   0.963
 5839SOL    HW218417   2.110   2.063   0.890
 5840SOL     OW18418   0.664   2.922   3.235
 5840SOL    HW118419   0.745   2.897   3.183
 5840SOL    HW218420   0.649   3.021   3.228
 5841SOL     OW18421   4.977   1.958   0.407
 5841SOL    HW118422   4.930   2.037   0.447
 5841SOL    HW218423   5.059   1.938   0.460
 5842SOL     OW18424   2.483   1.981   0.962
 5842SOL    HW118425   2.528   2.070   0.953
 5842SOL    HW218426   2.552   1.911   0.981
 5843SOL     OW18427   2.376   3.715   0.935
 5843SOL    HW118428   2.279   3.697   0.947
 5843SOL    HW218429   2.391   3.814   0.925
 5844SOL     OW18430   1.035   6.571   5.229
 5844SOL    HW118431   0.959   6.536   5.173
 5844SOL    HW218432   1.001   6.596   5.319
 5845SOL     OW18433   1.160   6.998   2.082
 5845SOL    HW118434   1.238   6.992   2.144
 5845SOL    HW218435   1.126   0.069   2.081
 5846SOL     OW18436   6.212   4.005   6.008
 5846SOL    HW118437   6.256   3.921   5.977
 5846SOL    HW218438   6.186   4.060   5.929
 5847SOL     OW18439   2.339   4.218   0.328
 5847SOL    HW118440   2.255   4.193   0.376
 5847SOL    HW218441   2.380   4.298   0.371
 5848SOL     OW18442   1.916   4.900   2.231
 5848SOL    HW118443   1.962   4.905   2.143
 5848SOL    HW218444   1.864   4.814   2.237
 5849SOL     OW18445   3.564   5.931   5.527
 5849SOL    HW118446   3.553   5.910   5.430
 5849SOL    HW218447   3.653   5.976   5.542
 5850SOL     OW18448   1.205   1.814   2.822
 5850SOL    HW118449   1.142   1.774   2.888
 5850SOL    HW218450   1.292   1.834   2.867
 5851SOL     OW18451   6.542   3.641   4.422
 5851SOL    HW118452   6.444   3.661   4.426
 5851SOL    HW218453   6.582   3.690   4.344
 5852SOL     OW18454   4.721   4.127   2.478
 5852SOL    HW118455   4.686   4.131   2.384
 5852SOL    HW218456   4.709   4.215   2.522
 5853SOL     OW18457   3.596   4.960   5.559
 5853SOL    HW118458   3.643   4.893   5.616
 5853SOL    HW218459   3.497   4.945   5.565
 5854SOL     OW18460   3.089   4.681   5.259
 5854SOL    HW118461   3.037   4.601   5.229
 5854SOL    HW218462   3.052   4.715   5.345
 5855SOL     OW18463   2.066   3.438   3.075
 5855SOL    HW118464   2.030   3.448   3.168
 5855SOL    HW218465   2.097   3.345   3.061
 5856SOL     OW18466   1.525   6.387   3.201
 5856SOL    HW118467   1.482   6.463   3.152
 5856SOL    HW218468   1.624   6.403   3.206
 5857SOL     OW18469   6.032   4.274   6.705
 5857SOL    HW118470   6.049   4.304   6.611
 5857SOL    HW218471   5.938   4.240   6.712
 5858SOL     OW18472   1.891   0.317   3.639
 5858SOL    HW118473   1.898   0.397   3.580
 5858SOL    HW218474   1.796   0.307   3.670
 5859SOL     OW18475   6.102   0.229   1.409
 5859SOL    HW118476   6.150   0.162   1.466
 5859SOL    HW218477   6.101   0.196   1.314
 5860SOL     OW18478   0.461   4.457   3.275
 5860SOL    HW118479   0.557   4.432   3.275
 5860SOL    HW218480   0.451   4.555   3.259
 5861SOL     OW18481   5.098   1.062   5.921
 5861SOL    HW118482   5.019   1.034   5.975
 5861SOL    HW218483   5.096   1.160   5.906
 5862SOL     OW18484   6.952   5.758   1.974
 5862SOL    HW118485   0.016   5.798   2.001
 5862SOL    HW218486   6.912   5.709   2.052
 5863SOL     OW18487   4.156   0.154   5.828
 5863SOL    HW118488   4.130   0.164   5.924
 5863SOL    HW218489   4.080   0.183   5.770
 5864SOL     OW18490   3.334   3.769   2.507
 5864SOL    HW118491   3.325   3.865   2.482
 5864SOL    HW218492   3.430   3.746   2.520
 5865SOL     OW18493   6.150   0.563   5.844
 5865SOL    HW118494   6.089   0.487   5.821
 5865SOL    HW218495   6.242   0.542   5.810
 5866SOL     OW18496   3.804   3.002   2.970
 5866SOL    HW118497   3.786   2.916   2.923
 5866SOL    HW218498   3.881   3.048   2.926
 5867SOL     OW18499   3.653   1.685   1.984
 5867SOL    HW118500   3.594   1.733   2.049
 5867SOL    HW218501   3.601   1.664   1.901
 5868SOL     OW18502   1.154   1.172   5.808
 5868SOL    HW118503   1.247   1.199   5.831
 5868SOL    HW218504   1.154   1.080   5.770
 5869SOL     OW18505   0.540   5.655   4.009
 5869SOL    HW118506   0.634   5.638   3.982
 5869SOL    HW218507   0.536   5.671   4.108
 5870SOL     OW18508   4.007   5.205   4.273
 5870SOL    HW118509   4.104   5.180   4.265
 5870SOL    HW218510   3.978   5.253   4.191
 5871SOL     OW18511   2.946   3.835   4.087
 5871SOL    HW118512   2.880   3.813   4.015
 5871SOL    HW218513   3.019   3.892   4.048
 5872SOL     OW18514   4.844   5.558   1.893
 5872SOL    HW118515   4.764   5.532   1.946
 5872SOL    HW218516   4.882   5.643   1.930
 5873SOL     OW18517   4.190   5.552   2.371
 5873SOL    HW118518   4.236   5.545   2.459
 5873SOL    HW218519   4.091   5.550   2.385
 5874SOL     OW18520   2.327   4.182   5.870
 5874SOL    HW118521   2.377   4.095   5.871
 5874SOL    HW218522   2.240   4.169   5.822
 5875SOL     OW18523   2.784   1.537   1.046
 5875SOL    HW118524   2.873   1.552   1.088
 5875SOL    HW218525   2.730   1.474   1.103
 5876SOL     OW18526   3.718   3.170   2.123
 5876SOL    HW118527   3.620   3.155   2.137
 5876SOL    HW218528   3.733   3.263   2.087
 5877SOL     OW18529   5.647   4.308   0.546
 5877SOL    HW118530   5.714   4.282   0.476
 5877SOL    HW218531   5.671   4.397   0.584
 5878SOL     OW18532   2.247   4.445   2.576
 5878SOL    HW118533   2.248   4.361   2.521
 5878SOL    HW218534   2.203   4.425   2.664
 5879SOL     OW18535   0.032   4.170   5.239
 5879SOL    HW118536   0.115   4.124   5.209
 5879SOL    HW218537   0.001   4.129   5.326
 5880SOL     OW18538   2.071   5.746   1.025
 5880SOL    HW118539   2.078   5.758   1.124
 5880SOL    HW218540   2.130   5.670   0.996
 5881SOL     OW18541   0.654   5.863   4.472
 5881SOL    HW118542   0.610   5.938   4.421
 5881SOL    HW218543   0.621   5.863   4.566
 5882SOL     OW18544   4.621   1.085   1.628
 5882SOL    HW118545   4.554   1.059   1.560
 5882SOL    HW218546   4.634   1.185   1.626
 5883SOL     OW18547   0.509   3.649   5.923
 5883SOL    HW118548   0.528   3.667   5.827
 5883SOL    HW218549   0.410   3.650   5.938
 5884SOL     OW18550   1.452   1.207   2.755
 5884SOL    HW118551   1.384   1.264   2.800
 5884SOL    HW218552   1.482   1.135   2.818
 5885SOL     OW18553   6.137   6.820   1.329
 5885SOL    HW118554   6.146   6.722   1.344
 5885SOL    HW218555   6.123   6.838   1.232
 5886SOL     OW18556   1.552   1.444   6.066
 5886SOL    HW118557   1.589   1.360   6.027
 5886SOL    HW218558   1.602   1.522   6.029
 5887SOL     OW18559   3.871   0.007   4.549
 5887SOL    HW118560   3.853   6.953   4.608
 5887SOL    HW218561   3.947   7.010   4.488
 5888SOL     OW18562   2.625   0.546   3.652
 5888SOL    HW118563   2.690   0.472   3.671
 5888SOL    HW218564   2.532   0.510   3.654
 5889SOL     OW18565   2.803   0.804   0.732
 5889SOL    HW118566   2.776   0.892   0.770
 5889SOL    HW218567   2.740   0.733   0.765
 5890SOL     OW18568   3.123   4.637   6.053
 5890SOL    HW118569   3.026   4.611   6.055
 5890SOL    HW218570   3.141   4.702   6.127
 5891SOL     OW18571   3.232   3.922   6.835
 5891SOL    HW118572   3.318   3.973   6.837
 5891SOL    HW218573   3.169   3.960   6.903
 5892SOL     OW18574   0.772   6.896   1.332
 5892SOL    HW118575   0.780   6.826   1.402
 5892SOL    HW218576   0.803   6.984   1.368
 5893SOL     OW18577   1.243   0.437   3.598
 5893SOL    HW118578   1.187   0.364   3.557
 5893SOL    HW218579   1.244   0.516   3.537
 5894SOL     OW18580   1.296   3.642   3.385
 5894SOL    HW118581   1.393   3.648   3.412
 5894SOL    HW218582   1.282   3.693   3.300
 5895SOL     OW18583   5.419   3.814   3.962
 5895SOL    HW118584   5.429   3.740   4.029
 5895SOL    HW218585   5.381   3.895   4.008
 5896SOL     OW18586   3.704   2.303   6.144
 5896SOL    HW118587   3.635   2.233   6.125
 5896SOL    HW218588   3.764   2.313   6.064
 5897SOL     OW18589   4.140   0.216   1.000
 5897SOL    HW118590   4.176   0.290   1.058
 5897SOL    HW218591   4.050   0.242   0.965
 5898SOL     OW18592   1.973   6.821   2.485
 5898SOL    HW118593   1.960   6.813   2.584
 5898SOL    HW218594   1.899   6.875   2.446
 5899SOL     OW18595   5.489   0.202   4.554
 5899SOL    HW118596   5.485   0.251   4.467
 5899SOL    HW218597   5.566   0.237   4.608
 5900SOL     OW18598   4.749   5.176   2.803
 5900SOL    HW118599   4.651   5.167   2.818
 5900SOL    HW218600   4.767   5.201   2.708
 5901SOL     OW18601   2.650   6.593   5.416
 5901SOL    HW118602   2.611   6.505   5.388
 5901SOL    HW218603   2.577   6.661   5.424
 5902SOL     OW18604   6.350   1.883   6.510
 5902SOL    HW118605   6.275   1.847   6.566
 5902SOL    HW218606   6.319   1.890   6.415
 5903SOL     OW18607   5.875   3.191   6.353
 5903SOL    HW118608   5.945   3.145   6.298
 5903SOL    HW218609   5.899   3.287   6.364
 5904SOL     OW18610   6.901   3.536   2.615
 5904SOL    HW118611   6.852   3.554   2.529
 5904SOL    HW218612   6.996   3.566   2.605
 5905SOL     OW18613   6.822   5.660   2.195
 5905SOL    HW118614   6.826   5.564   2.169
 5905SOL    HW218615   6.821   5.667   2.295
 5906SOL     OW18616   5.855   1.253   3.500
 5906SOL    HW118617   5.800   1.194   3.560
 5906SOL    HW218618   5.795   1.319   3.454
 5907SOL     OW18619   1.581   5.748   2.109
 5907SOL    HW118620   1.493   5.777   2.147
 5907SOL    HW218621   1.591   5.785   2.017
 5908SOL     OW18622   6.721   3.465   5.725
 5908SOL    HW118623   6.802   3.411   5.702
 5908SOL    HW218624   6.665   3.476   5.643
 5909SOL     OW18625   6.977   5.235   0.897
 5909SOL    HW118626   6.902   5.301   0.897
 5909SOL    HW218627   0.014   5.253   0.820
 5910SOL     OW18628   2.621   2.325   3.620
 5910SOL    HW118629   2.537   2.316   3.566
 5910SOL    HW218630   2.599   2.309   3.717
 5911SOL     OW18631   6.558   6.128   6.102
 5911SOL    HW118632   6.538   6.049   6.045
 5911SOL    HW218633   6.655   6.153   6.094
 5912SOL     OW18634   0.425   1.242   3.559
 5912SOL    HW118635   0.366   1.307   3.511
 5912SOL    HW218636   0.377   1.155   3.570
 5913SOL     OW18637   6.052   2.141   6.877
 5913SOL    HW118638   5.992   2.078   6.927
 5913SOL    HW218639   5.996   2.200   6.818
 5914SOL     OW18640   0.962   6.711   0.200
 5914SOL    HW118641   0.949   6.644   0.126
 5914SOL    HW218642   0.947   6.803   0.164
 5915SOL     OW18643   4.015   1.733   6.489
 5915SOL    HW118644   3.954   1.772   6.420
 5915SOL    HW218645   4.099   1.787   6.494
 5916SOL     OW18646   0.998   6.077   2.480
 5916SOL    HW118647   1.047   6.001   2.437
 5916SOL    HW218648   0.999   6.065   2.580
 5917SOL     OW18649   3.296   4.453   0.140
 5917SOL    HW118650   3.225   4.422   0.204
 5917SOL    HW218651   3.368   4.383   0.134
 5918SOL     OW18652   3.145   6.152   5.740
 5918SOL    HW118653   3.126   6.249   5.721
 5918SOL    HW218654   3.240   6.131   5.714
 5919SOL     OW18655   4.050   3.345   3.304
 5919SOL    HW118656   4.117   3.361   3.231
 5919SOL    HW218657   3.971   3.296   3.267
 5920SOL     OW18658   6.887   0.031   5.563
 5920SOL    HW118659   6.830   0.038   5.646
 5920SOL    HW218660   6.970   0.086   5.576
 5921SOL     OW18661   3.244   4.755   6.271
 5921SOL    HW118662   3.211   4.665   6.301
 5921SOL    HW218663   3.255   4.815   6.351
 5922SOL     OW18664   5.440   3.900   3.375
 5922SOL    HW118665   5.363   3.951   3.414
 5922SOL    HW218666   5.406   3.820   3.327
 5923SOL     OW18667   6.534   0.107   1.703
 5923SOL    HW118668   6.494   0.139   1.789
 5923SOL    HW218669   6.624   0.066   1.722
 5924SOL     OW18670   6.048   0.432   3.211
 5924SOL    HW118671   6.143   0.400   3.218
 5924SOL    HW218672   5.989   0.371   3.264
 5925SOL     OW18673   4.663   6.147   1.494
 5925SOL    HW118674   4.733   6.173   1.561
 5925SOL    HW218675   4.684   6.055   1.459
 5926SOL     OW18676   4.251   5.642   3.523
 5926SOL    HW118677   4.349   5.627   3.539
 5926SOL    HW218678   4.198   5.601   3.597
 5927SOL     OW18679   0.825   4.633   1.647
 5927SOL    HW118680   0.761   4.558   1.661
 5927SOL    HW218681   0.775   4.716   1.624
 5928SOL     OW18682   3.512   0.437   0.759
 5928SOL    HW118683   3.549   0.530   0.767
 5928SOL    HW218684   3.444   0.435   0.686
 5929SOL     OW18685   1.028   0.945   6.476
 5929SOL    HW118686   1.079   0.913   6.397
 5929SOL    HW218687   0.933   0.913   6.470
 5930SOL     OW18688   1.473   3.435   2.315
 5930SOL    HW118689   1.552   3.383   2.347
 5930SOL    HW218690   1.504   3.520   2.273
 5931SOL     OW18691   4.955   6.267   3.775
 5931SOL    HW118692   5.001   6.343   3.727
 5931SOL    HW218693   4.887   6.304   3.838
 5932SOL     OW18694   2.592   1.406   7.002
 5932SOL    HW118695   2.517   1.470   6.983
 5932SOL    HW218696   2.593   1.334   6.933
 5933SOL     OW18697   6.482   5.916   3.842
 5933SOL    HW118698   6.559   5.873   3.795
 5933SOL    HW218699   6.402   5.856   3.836
 5934SOL     OW18700   2.883   3.811   6.051
 5934SOL    HW118701   2.908   3.722   6.088
 5934SOL    HW218702   2.962   3.851   6.004
 5935SOL     OW18703   0.063   6.323   5.727
 5935SOL    HW118704   0.079   6.414   5.690
 5935SOL    HW218705   0.048   6.258   5.653
 5936SOL     OW18706   3.319   2.950   1.954
 5936SOL    HW118707   3.375   3.001   2.019
 5936SOL    HW218708   3.223   2.974   1.966
 5937SOL     OW18709   6.709   3.308   1.638
 5937SOL    HW118710   6.683   3.290   1.543
 5937SOL    HW218711   6.684   3.401   1.662
 5938SOL     OW18712   0.207   5.194   5.157
 5938SOL    HW118713   0.218   5.111   5.103
 5938SOL    HW218714   0.110   5.219   5.161
 5939SOL     OW18715   3.802   0.196   4.979
 5939SOL    HW118716   3.803   0.276   5.039
 5939SOL    HW218717   3.831   0.222   4.887
 5940SOL     OW18718   4.753   6.034   2.679
 5940SOL    HW118719   4.804   6.092   2.741
 5940SOL    HW218720   4.805   5.950   2.661
 5941SOL     OW18721   6.844   1.979   1.872
 5941SOL    HW118722   6.834   2.069   1.827
 5941SOL    HW218723   6.771   1.968   1.939
 5942SOL     OW18724   5.547   3.547   5.760
 5942SOL    HW118725   5.625   3.534   5.700
 5942SOL    HW218726   5.508   3.638   5.745
 5943SOL     OW18727   3.028   4.198   1.296
 5943SOL    HW118728   2.952   4.250   1.332
 5943SOL    HW218729   3.092   4.176   1.370
 5944SOL     OW18730   0.503   3.358   6.568
 5944SOL    HW118731   0.508   3.351   6.668
 5944SOL    HW218732   0.588   3.325   6.528
 5945SOL     OW18733   6.818   5.756   5.305
 5945SOL    HW118734   6.745   5.822   5.289
 5945SOL    HW218735   6.881   5.757   5.228
 5946SOL     OW18736   3.322   4.100   1.178
 5946SOL    HW118737   3.325   4.082   1.079
 5946SOL    HW218738   3.271   4.184   1.195
 5947SOL     OW18739   3.372   2.909   4.683
 5947SOL    HW118740   3.346   2.920   4.587
 5947SOL    HW218741   3.299   2.944   4.742
 5948SOL     OW18742   5.067   3.865   1.832
 5948SOL    HW118743   5.141   3.846   1.897
 5948SOL    HW218744   5.106   3.893   1.745
 5949SOL     OW18745   0.407   4.451   2.127
 5949SOL    HW118746   0.386   4.395   2.047
 5949SOL    HW218747   0.325   4.460   2.183
 5950SOL     OW18748   4.773   1.423   5.592
 5950SOL    HW118749   4.727   1.430   5.681
 5950SOL    HW218750   4.791   1.514   5.556
 5951SOL     OW18751   1.101   4.225   6.186
 5951SOL    HW118752   1.127   4.319   6.161
 5951SOL    HW218753   1.135   4.162   6.116
 5952SOL     OW18754   3.977   5.277   1.030
 5952SOL    HW118755   4.039   5.199   1.018
 5952SOL    HW218756   3.991   5.342   0.956
 5953SOL     OW18757   5.612   2.466   4.572
 5953SOL    HW118758   5.683   2.535   4.584
 5953SOL    HW218759   5.654   2.379   4.545
 5954SOL     OW18760   1.071   6.406   4.702
 5954SOL    HW118761   1.042   6.440   4.612
 5954SOL    HW218762   1.104   6.313   4.693
 5955SOL     OW18763   5.889   3.569   0.845
 5955SOL    HW118764   5.797   3.558   0.808
 5955SOL    HW218765   5.883   3.611   0.936
 5956SOL     OW18766   4.843   2.481   4.412
 5956SOL    HW118767   4.872   2.527   4.328
 5956SOL    HW218768   4.773   2.536   4.457
 5957SOL     OW18769   0.766   1.318   2.513
 5957SOL    HW118770   0.733   1.389   2.576
 5957SOL    HW218771   0.742   1.228   2.550
 5958SOL     OW18772   3.895   6.871   2.677
 5958SOL    HW118773   3.801   6.871   2.712
 5958SOL    HW218774   3.894   6.895   2.580
 5959SOL     OW18775   5.192   2.143   4.530
 5959SOL    HW118776   5.272   2.192   4.496
 5959SOL    HW218777   5.117   2.208   4.542
 5960SOL     OW18778   4.454   0.068   6.085
 5960SOL    HW118779   4.445   0.163   6.116
 5960SOL    HW218780   4.524   0.063   6.013
 5961SOL     OW18781   2.858   1.746   3.029
 5961SOL    HW118782   2.943   1.698   3.008
 5961SOL    HW218783   2.785   1.713   2.969
 5962SOL     OW18784   5.797   6.202   0.005
 5962SOL    HW118785   5.847   6.273   0.054
 5962SOL    HW218786   5.859   6.129   7.003
 5963SOL     OW18787   3.764   4.533   6.919
 5963SOL    HW118788   3.805   4.480   6.993
 5963SOL    HW218789   3.668   4.506   6.907
 5964SOL     OW18790   2.036   6.183   2.629
 5964SOL    HW118791   1.988   6.212   2.712
 5964SOL    HW218792   1.971   6.176   2.553
 5965SOL     OW18793   1.496   6.741   0.066
 5965SOL    HW118794   1.568   6.752   7.021
 5965SOL    HW218795   1.449   6.828   0.080
 5966SOL     OW18796   1.895   1.098   5.252
 5966SOL    HW118797   1.872   1.193   5.274
 5966SOL    HW218798   1.893   1.043   5.336
 5967SOL     OW18799   2.292   1.403   4.350
 5967SOL    HW118800   2.333   1.315   4.374
 5967SOL    HW218801   2.364   1.469   4.329
 5968SOL     OW18802   5.628   2.415   1.264
 5968SOL    HW118803   5.540   2.405   1.218
 5968SOL    HW218804   5.665   2.507   1.246
 5969SOL     OW18805   5.331   0.717   6.920
 5969SOL    HW118806   5.356   0.658   6.998
 5969SOL    HW218807   5.281   0.663   6.853
 5970SOL     OW18808   0.082   3.234   0.390
 5970SOL    HW118809   0.116   3.325   0.413
 5970SOL    HW218810   0.098   3.172   0.467
 5971SOL     OW18811   0.090   7.014   3.485
 5971SOL    HW118812   0.128   0.072   3.528
 5971SOL    HW218813   0.006   6.988   3.532
 5972SOL     OW18814   5.109   5.242   0.978
 5972SOL    HW118815   5.059   5.321   1.014
 5972SOL    HW218816   5.151   5.192   1.053
 5973SOL     OW18817   1.751   2.638   3.024
 5973SOL    HW118818   1.714   2.728   3.002
 5973SOL    HW218819   1.831   2.649   3.083
 5974SOL     OW18820   4.871   2.026   5.782
 5974SOL    HW118821   4.785   2.075   5.790
 5974SOL    HW218822   4.876   1.955   5.853
 5975SOL     OW18823   5.692   5.328   0.484
 5975SOL    HW118824   5.780   5.347   0.526
 5975SOL    HW218825   5.675   5.394   0.410
 5976SOL     OW18826   2.758   3.496   5.779
 5976SOL    HW118827   2.715   3.437   5.848
 5976SOL    HW218828   2.857   3.496   5.793
 5977SOL     OW18829   0.249   5.065   0.122
 5977SOL    HW118830   0.285   5.158   0.123
 5977SOL    HW218831   0.154   5.066   0.152
 5978SOL     OW18832   3.146   4.977   0.136
 5978SOL    HW118833   3.070   4.995   0.198
 5978SOL    HW218834   3.132   5.026   0.050
 5979SOL     OW18835   6.157   0.467   1.545
 5979SOL    HW118836   6.249   0.452   1.582
 5979SOL    HW218837   6.137   0.399   1.474
 5980SOL     OW18838   3.753   3.172   1.605
 5980SOL    HW118839   3.733   3.155   1.701
 5980SOL    HW218840   3.847   3.204   1.595
 5981SOL     OW18841   2.880   2.180   0.061
 5981SOL    HW118842   2.951   2.152   7.021
 5981SOL    HW218843   2.896   2.275   0.090
 5982SOL     OW18844   6.195   2.733   1.908
 5982SOL    HW118845   6.241   2.645   1.901
 5982SOL    HW218846   6.224   2.792   1.832
 5983SOL     OW18847   0.307   0.814   3.865
 5983SOL    HW118848   0.250   0.834   3.786
 5983SOL    HW218849   0.251   0.809   3.947
 5984SOL     OW18850   6.085   6.070   3.202
 5984SOL    HW118851   6.125   6.005   3.266
 5984SOL    HW218852   6.031   6.021   3.134
 5985SOL     OW18853   6.024   2.586   2.772
 5985SOL    HW118854   6.005   2.564   2.868
 5985SOL    HW218855   5.938   2.594   2.722
 5986SOL     OW18856   4.107   3.680   5.616
 5986SOL    HW118857   4.161   3.751   5.659
 5986SOL    HW218858   4.128   3.676   5.518
 5987SOL     OW18859   6.600   0.685   5.274
 5987SOL    HW118860   6.600   0.785   5.268
 5987SOL    HW218861   6.515   0.649   5.236
 5988SOL     OW18862   1.951   2.207   6.865
 5988SOL    HW118863   1.902   2.257   6.937
 5988SOL    HW218864   1.890   2.141   6.822
 5989SOL     OW18865   0.421   6.267   6.920
 5989SOL    HW118866   0.484   6.311   6.984
 5989SOL    HW218867   0.393   6.178   6.957
 5990SOL     OW18868   4.026   4.864   1.440
 5990SOL    HW118869   4.056   4.942   1.496
 5990SOL    HW218870   4.101   4.798   1.433
 5991SOL     OW18871   4.974   6.651   0.757
 5991SOL    HW118872   4.957   6.599   0.673
 5991SOL    HW218873   5.047   6.717   0.740
 5992SOL     OW18874   3.318   0.464   1.753
 5992SOL    HW118875   3.256   0.537   1.783
 5992SOL    HW218876   3.409   0.502   1.736
 5993SOL     OW18877   5.993   1.952   0.086
 5993SOL    HW118878   6.012   1.856   0.107
 5993SOL    HW218879   6.074   2.007   0.107
 5994SOL     OW18880   0.343   2.778   0.394
 5994SOL    HW118881   0.383   2.756   0.305
 5994SOL    HW218882   0.416   2.786   0.462
 5995SOL     OW18883   5.167   3.542   1.356
 5995SOL    HW118884   5.186   3.572   1.262
 5995SOL    HW218885   5.149   3.444   1.356
 5996SOL     OW18886   2.853   5.469   0.887
 5996SOL    HW118887   2.928   5.404   0.902
 5996SOL    HW218888   2.766   5.426   0.909
 5997SOL     OW18889   6.992   0.194   3.317
 5997SOL    HW118890   6.892   0.192   3.328
 5997SOL    HW218891   0.011   0.151   3.396
 5998SOL     OW18892   6.630   0.381   1.121
 5998SOL    HW118893   6.628   0.291   1.077
 5998SOL    HW218894   6.691   0.441   1.070
 5999SOL     OW18895   4.592   2.992   1.309
 5999SOL    HW118896   4.497   3.008   1.281
 5999SOL    HW218897   4.596   2.989   1.409
 6000SOL     OW18898   6.721   4.965   0.197
 6000SOL    HW118899   6.805   4.923   0.231
 6000SOL    HW218900   6.709   5.055   0.238
 6001SOL     OW18901   5.714   6.485   5.135
 6001SOL    HW118902   5.781   6.421   5.098
 6001SOL    HW218903   5.661   6.525   5.060
 6002SOL     OW18904   5.867   6.279   4.747
 6002SOL    HW118905   5.816   6.213   4.691
 6002SOL    HW218906   5.943   6.232   4.793
 6003SOL     OW18907   0.047   2.751   4.124
 6003SOL    HW118908   0.061   2.709   4.034
 6003SOL    HW218909   0.073   2.847   4.119
 6004SOL     OW18910   5.503   2.898   3.652
 6004SOL    HW118911   5.448   2.903   3.568
 6004SOL    HW218912   5.576   2.966   3.648
 6005SOL     OW18913   3.812   5.364   5.964
 6005SOL    HW118914   3.747   5.331   5.896
 6005SOL    HW218915   3.803   5.463   5.975
 6006SOL     OW18916   3.776   5.656   5.702
 6006SOL    HW118917   3.691   5.709   5.707
 6006SOL    HW218918   3.810   5.655   5.608
 6007SOL     OW18919   1.476   5.332   5.590
 6007SOL    HW118920   1.393   5.278   5.608
 6007SOL    HW218921   1.465   5.424   5.627
 6008SOL     OW18922   2.797   4.525   5.758
 6008SOL    HW118923   2.776   4.467   5.837
 6008SOL    HW218924   2.895   4.545   5.756
 6009SOL     OW18925   4.010   5.198   3.407
 6009SOL    HW118926   4.107   5.205   3.430
 6009SOL    HW218927   4.001   5.185   3.308
 6010SOL     OW18928   0.389   5.480   5.009
 6010SOL    HW118929   0.420   5.472   5.104
 6010SOL    HW218930   0.417   5.400   4.957
 6011SOL     OW18931   6.639   1.987   2.067
 6011SOL    HW118932   6.602   1.907   2.020
 6011SOL    HW218933   6.628   1.976   2.166
 6012SOL     OW18934   6.990   0.427   5.687
 6012SOL    HW118935   6.997   0.337   5.731
 6012SOL    HW218936   6.898   0.438   5.649
 6013SOL     OW18937   5.676   1.342   2.281
 6013SOL    HW118938   5.649   1.246   2.290
 6013SOL    HW218939   5.598   1.401   2.301
 6014SOL     OW18940   4.012   3.166   3.799
 6014SOL    HW118941   4.040   3.227   3.725
 6014SOL    HW218942   4.066   3.082   3.795
 6015SOL     OW18943   6.534   1.724   4.733
 6015SOL    HW118944   6.572   1.789   4.799
 6015SOL    HW218945   6.523   1.635   4.778
 6016SOL     OW18946   5.389   1.837   4.478
 6016SOL    HW118947   5.402   1.741   4.454
 6016SOL    HW218948   5.314   1.846   4.544
 6017SOL     OW18949   0.175   2.971   5.699
 6017SOL    HW118950   0.087   2.925   5.694
 6017SOL    HW218951   0.171   3.045   5.767
 6018SOL     OW18952   3.746   1.514   6.146
 6018SOL    HW118953   3.782   1.531   6.238
 6018SOL    HW218954   3.669   1.575   6.128
 6019SOL     OW18955   6.705   3.725   6.802
 6019SOL    HW118956   6.631   3.781   6.763
 6019SOL    HW218957   6.722   3.755   6.896
 6020SOL     OW18958   0.980   4.326   0.455
 6020SOL    HW118959   0.912   4.282   0.514
 6020SOL    HW218960   0.940   4.344   0.366
 6021SOL     OW18961   4.047   0.546   3.247
 6021SOL    HW118962   4.072   0.632   3.201
 6021SOL    HW218963   4.091   0.469   3.201
 6022SOL     OW18964   6.866   1.781   2.127
 6022SOL    HW118965   6.911   1.699   2.164
 6022SOL    HW218966   6.778   1.755   2.086
 6023SOL     OW18967   4.528   0.636   1.200
 6023SOL    HW118968   4.620   0.630   1.162
 6023SOL    HW218969   4.465   0.670   1.130
 6024SOL     OW18970   0.808   5.308   0.338
 6024SOL    HW118971   0.845   5.377   0.276
 6024SOL    HW218972   0.731   5.261   0.295
 6025SOL     OW18973   2.451   1.188   4.407
 6025SOL    HW118974   2.366   1.135   4.398
 6025SOL    HW218975   2.483   1.184   4.501
 6026SOL     OW18976   6.431   4.344   4.281
 6026SOL    HW118977   6.402   4.384   4.194
 6026SOL    HW218978   6.431   4.414   4.352
 6027SOL     OW18979   6.177   3.341   5.951
 6027SOL    HW118980   6.146   3.436   5.939
 6027SOL    HW218981   6.114   3.279   5.905
 6028SOL     OW18982   5.508   4.702   6.174
 6028SOL    HW118983   5.543   4.765   6.103
 6028SOL    HW218984   5.430   4.652   6.137
 6029SOL     OW18985   2.549   0.840   3.050
 6029SOL    HW118986   2.600   0.779   3.112
 6029SOL    HW218987   2.517   0.787   2.971
 6030SOL     OW18988   5.200   3.849   4.823
 6030SOL    HW118989   5.170   3.845   4.919
 6030SOL    HW218990   5.141   3.791   4.767
 6031SOL     OW18991   0.397   5.716   5.266
 6031SOL    HW118992   0.493   5.696   5.244
 6031SOL    HW218993   0.387   5.722   5.365
 6032SOL     OW18994   3.346   5.406   3.482
 6032SOL    HW118995   3.250   5.385   3.501
 6032SOL    HW218996   3.351   5.482   3.417
 6033SOL     OW18997   1.900   1.623   2.830
 6033SOL    HW118998   1.892   1.568   2.747
 6033SOL    HW218999   1.859   1.713   2.813
 6034SOL     OW19000   1.548   0.460   6.911
 6034SOL    HW119001   1.628   0.414   6.871
 6034SOL    HW219002   1.552   0.455   7.011
 6035SOL     OW19003   1.886   0.921   2.948
 6035SOL    HW119004   1.969   0.968   2.980
 6035SOL    HW219005   1.893   0.823   2.968
 6036SOL     OW19006   6.175   2.993   0.347
 6036SOL    HW119007   6.244   3.003   0.275
 6036SOL    HW219008   6.200   2.916   0.406
 6037SOL     OW19009   4.289   2.503   1.147
 6037SOL    HW119010   4.199   2.464   1.129
 6037SOL    HW219011   4.358   2.430   1.145
 6038SOL     OW19012   0.584   2.074   6.113
 6038SOL    HW119013   0.559   1.982   6.141
 6038SOL    HW219014   0.668   2.072   6.059
 6039SOL     OW19015   2.977   3.587   3.897
 6039SOL    HW119016   3.041   3.664   3.904
 6039SOL    HW219017   2.989   3.527   3.976
 6040SOL     OW19018   0.950   1.643   6.767
 6040SOL    HW119019   1.036   1.670   6.723
 6040SOL    HW219020   0.917   1.719   6.824
 6041SOL     OW19021   3.144   2.956   6.422
 6041SOL    HW119022   3.191   2.957   6.510
 6041SOL    HW219023   3.167   3.039   6.371
 6042SOL     OW19024   3.230   5.542   3.282
 6042SOL    HW119025   3.169   5.621   3.286
 6042SOL    HW219026   3.176   5.458   3.288
 6043SOL     OW19027   1.969   0.654   4.032
 6043SOL    HW119028   1.980   0.558   4.005
 6043SOL    HW219029   1.905   0.699   3.970
 6044SOL     OW19030   1.225   2.152   1.826
 6044SOL    HW119031   1.179   2.223   1.879
 6044SOL    HW219032   1.163   2.117   1.756
 6045SOL     OW19033   4.842   2.710   3.493
 6045SOL    HW119034   4.904   2.737   3.567
 6045SOL    HW219035   4.818   2.791   3.439
 6046SOL     OW19036   3.375   3.358   2.204
 6046SOL    HW119037   3.403   3.337   2.298
 6046SOL    HW219038   3.276   3.350   2.196
 6047SOL     OW19039   6.033   1.519   0.827
 6047SOL    HW119040   6.026   1.461   0.746
 6047SOL    HW219041   5.942   1.554   0.850
 6048SOL     OW19042   5.362   6.269   4.876
 6048SOL    HW119043   5.391   6.239   4.785
 6048SOL    HW219044   5.416   6.221   4.945
 6049SOL     OW19045   4.577   4.690   5.268
 6049SOL    HW119046   4.674   4.689   5.294
 6049SOL    HW219047   4.533   4.606   5.299
 6050SOL     OW19048   3.600   5.449   1.490
 6050SOL    HW119049   3.634   5.506   1.565
 6050SOL    HW219050   3.671   5.383   1.464
 6051SOL     OW19051   1.334   1.034   2.961
 6051SOL    HW119052   1.281   1.102   2.909
 6051SOL    HW219053   1.349   1.068   3.054
 6052SOL     OW19054   5.668   0.102   0.461
 6052SOL    HW119055   5.657   0.008   0.494
 6052SOL    HW219056   5.701   0.101   0.367
 6053SOL     OW19057   4.417   2.467   5.932
 6053SOL    HW119058   4.330   2.510   5.959
 6053SOL    HW219059   4.492   2.510   5.982
 6054SOL     OW19060   4.112   4.452   0.714
 6054SOL    HW119061   4.162   4.365   0.720
 6054SOL    HW219062   4.046   4.448   0.638
 6055SOL     OW19063   3.430   4.731   0.518
 6055SOL    HW119064   3.405   4.770   0.429
 6055SOL    HW219065   3.472   4.641   0.504
 6056SOL     OW19066   5.866   4.531   5.160
 6056SOL    HW119067   5.935   4.515   5.090
 6056SOL    HW219068   5.836   4.627   5.156
 6057SOL     OW19069   5.076   0.536   3.134
 6057SOL    HW119070   5.046   0.533   3.038
 6057SOL    HW219071   5.011   0.486   3.191
 6058SOL     OW19072   5.880   2.235   6.672
 6058SOL    HW119073   5.786   2.257   6.696
 6058SOL    HW219074   5.883   2.144   6.630
 6059SOL     OW19075   4.819   4.401   6.199
 6059SOL    HW119076   4.836   4.479   6.259
 6059SOL    HW219077   4.899   4.341   6.198
 6060SOL     OW19078   2.918   3.151   0.315
 6060SOL    HW119079   2.985   3.078   0.312
 6060SOL    HW219080   2.844   3.127   0.377
 6061SOL     OW19081   3.857   4.890   0.459
 6061SOL    HW119082   3.843   4.978   0.505
 6061SOL    HW219083   3.832   4.899   0.362
 6062SOL     OW19084   2.376   2.867   0.781
 6062SOL    HW119085   2.278   2.847   0.770
 6062SOL    HW219086   2.429   2.790   0.746
 6063SOL     OW19087   3.632   5.157   5.772
 6063SOL    HW119088   3.619   5.250   5.738
 6063SOL    HW219089   3.619   5.092   5.697
 6064SOL     OW19090   6.982   6.462   0.747
 6064SOL    HW119091   6.994   6.559   0.770
 6064SOL    HW219092   7.004   6.406   0.826
 6065SOL     OW19093   1.421   5.596   2.350
 6065SOL    HW119094   1.496   5.589   2.416
 6065SOL    HW219095   1.439   5.534   2.273
 6066SOL     OW19096   5.148   0.277   3.625
 6066SOL    HW119097   5.098   0.212   3.567
 6066SOL    HW219098   5.086   0.313   3.696
 6067SOL     OW19099   5.839   0.463   5.823
 6067SOL    HW119100   5.771   0.536   5.813
 6067SOL    HW219101   5.863   0.454   5.920
 6068SOL     OW19102   4.595   1.390   6.056
 6068SOL    HW119103   4.614   1.408   5.959
 6068SOL    HW219104   4.580   1.476   6.103
 6069SOL     OW19105   6.738   3.427   6.192
 6069SOL    HW119106   6.772   3.438   6.099
 6069SOL    HW219107   6.694   3.511   6.222
 6070SOL     OW19108   3.176   1.384   0.908
 6070SOL    HW119109   3.263   1.426   0.934
 6070SOL    HW219110   3.139   1.430   0.828
 6071SOL     OW19111   5.439   6.803   5.197
 6071SOL    HW119112   5.343   6.820   5.217
 6071SOL    HW219113   5.495   6.877   5.236
 6072SOL     OW19114   0.182   2.780   0.655
 6072SOL    HW119115   0.240   2.739   0.584
 6072SOL    HW219116   0.107   2.717   0.676
 6073SOL     OW19117   4.792   2.348   0.947
 6073SOL    HW119118   4.729   2.424   0.929
 6073SOL    HW219119   4.761   2.267   0.898
 6074SOL     OW19120   0.966   5.855   2.260
 6074SOL    HW119121   1.032   5.866   2.185
 6074SOL    HW219122   0.918   5.768   2.249
 6075SOL     OW19123   4.982   6.800   6.487
 6075SOL    HW119124   4.938   6.878   6.532
 6075SOL    HW219125   4.927   6.718   6.503
 6076SOL     OW19126   2.469   5.003   3.973
 6076SOL    HW119127   2.372   5.003   3.996
 6076SOL    HW219128   2.482   4.968   3.880
 6077SOL     OW19129   6.039   6.920   1.724
 6077SOL    HW119130   6.100   6.973   1.664
 6077SOL    HW219131   5.949   6.964   1.726
 6078SOL     OW19132   4.299   3.428   0.017
 6078SOL    HW119133   4.285   3.410   0.114
 6078SOL    HW219134   4.390   3.398   7.014
 6079SOL     OW19135   3.795   4.205   6.233
 6079SOL    HW119136   3.739   4.275   6.278
 6079SOL    HW219137   3.751   4.116   6.243
 6080SOL     OW19138   0.976   4.426   0.180
 6080SOL    HW119139   1.072   4.454   0.176
 6080SOL    HW219140   0.926   4.468   0.104
 6081SOL     OW19141   1.312   3.516   4.566
 6081SOL    HW119142   1.407   3.508   4.595
 6081SOL    HW219143   1.309   3.547   4.470
 6082SOL     OW19144   4.197   0.809   1.209
 6082SOL    HW119145   4.179   0.901   1.174
 6082SOL    HW219146   4.191   0.744   1.134
 6083SOL     OW19147   5.100   6.447   6.375
 6083SOL    HW119148   5.096   6.377   6.304
 6083SOL    HW219149   5.183   6.502   6.363
 6084SOL     OW19150   0.460   6.989   2.649
 6084SOL    HW119151   0.506   6.913   2.696
 6084SOL    HW219152   0.378   6.955   2.604
 6085SOL     OW19153   0.007   6.165   0.311
 6085SOL    HW119154   7.024   6.074   0.269
 6085SOL    HW219155   0.040   6.156   0.405
 6086SOL     OW19156   3.850   3.545   6.657
 6086SOL    HW119157   3.892   3.607   6.590
 6086SOL    HW219158   3.856   3.586   6.748
 6087SOL     OW19159   5.163   6.860   0.681
 6087SOL    HW119160   5.116   6.907   0.606
 6087SOL    HW219161   5.235   6.802   0.643
 6088SOL     OW19162   5.239   0.153   3.886
 6088SOL    HW119163   5.205   0.240   3.923
 6088SOL    HW219164   5.179   0.123   3.812
 6089SOL     OW19165   6.124   2.882   3.031
 6089SOL    HW119166   6.047   2.821   3.053
 6089SOL    HW219167   6.144   2.875   2.933
 6090SOL     OW19168   3.632   6.409   4.162
 6090SOL    HW119169   3.570   6.330   4.153
 6090SOL    HW219170   3.659   6.441   4.072
 6091SOL     OW19171   2.254   1.403   1.959
 6091SOL    HW119172   2.259   1.393   2.058
 6091SOL    HW219173   2.319   1.341   1.915
 6092SOL     OW19174   4.335   6.263   1.919
 6092SOL    HW119175   4.326   6.291   1.823
 6092SOL    HW219176   4.389   6.178   1.924
 6093SOL     OW19177   2.022   1.679   2.417
 6093SOL    HW119178   2.106   1.681   2.471
 6093SOL    HW219179   2.013   1.766   2.367
 6094SOL     OW19180   0.196   6.787   4.818
 6094SOL    HW119181   0.242   6.703   4.847
 6094SOL    HW219182   0.192   6.791   4.718
 6095SOL     OW19183   4.304   6.035   0.155
 6095SOL    HW119184   4.271   6.044   0.060
 6095SOL    HW219185   4.235   6.072   0.217
 6096SOL     OW19186   6.108   6.316   1.980
 6096SOL    HW119187   6.180   6.299   2.048
 6096SOL    HW219188   6.041   6.242   1.985
 6097SOL     OW19189   1.965   5.923   2.432
 6097SOL    HW119190   1.890   5.978   2.468
 6097SOL    HW219191   2.042   5.925   2.495
 6098SOL     OW19192   0.029   1.112   4.721
 6098SOL    HW119193   0.048   1.108   4.819
 6098SOL    HW219194   6.956   1.095   4.705
 6099SOL     OW19195   4.770   6.293   6.259
 6099SOL    HW119196   4.861   6.273   6.224
 6099SOL    HW219197   4.705   6.227   6.221
 6100SOL     OW19198   6.849   5.979   3.724
 6100SOL    HW119199   6.818   6.064   3.681
 6100SOL    HW219200   6.787   5.905   3.699
 6101SOL     OW19201   6.271   2.429   1.028
 6101SOL    HW119202   6.202   2.473   0.971
 6101SOL    HW219203   6.232   2.408   1.117
 6102SOL     OW19204   4.462   6.424   2.099
 6102SOL    HW119205   4.421   6.412   2.189
 6102SOL    HW219206   4.413   6.367   2.032
 6103SOL     OW19207   0.048   1.636   1.199
 6103SOL    HW119208   0.012   1.550   1.162
 6103SOL    HW219209   7.000   1.705   1.200
 6104SOL     OW19210   6.224   1.606   4.585
 6104SOL    HW119211   6.266   1.575   4.671
 6104SOL    HW219212   6.126   1.587   4.588
 6105SOL     OW19213   2.664   5.883   5.716
 6105SOL    HW119214   2.724   5.810   5.748
 6105SOL    HW219215   2.610   5.918   5.793
 6106SOL     OW19216   0.397   4.371   6.902
 6106SOL    HW119217   0.328   4.394   6.970
 6106SOL    HW219218   0.425   4.454   6.854
 6107SOL     OW19219   4.593   4.966   4.595
 6107SOL    HW119220   4.574   4.868   4.588
 6107SOL    HW219221   4.507   5.016   4.606
 6108SOL     OW19222   1.536   1.659   1.673
 6108SOL    HW119223   1.586   1.581   1.634
 6108SOL    HW219224   1.596   1.708   1.736
 6109SOL     OW19225   5.767   6.436   3.218
 6109SOL    HW119226   5.710   6.380   3.158
 6109SOL    HW219227   5.743   6.418   3.313
 6110SOL     OW19228   1.285   2.020   5.208
 6110SOL    HW119229   1.368   2.075   5.220
 6110SOL    HW219230   1.301   1.952   5.135
 6111SOL     OW19231   1.534   4.068   1.602
 6111SOL    HW119232   1.513   4.047   1.698
 6111SOL    HW219233   1.451   4.053   1.547
 6112SOL     OW19234   4.547   0.248   2.507
 6112SOL    HW119235   4.473   0.311   2.531
 6112SOL    HW219236   4.510   0.172   2.454
 6113SOL     OW19237   2.458   5.296   6.921
 6113SOL    HW119238   2.385   5.279   6.987
 6113SOL    HW219239   2.540   5.326   6.969
 6114SOL     OW19240   5.192   1.524   0.768
 6114SOL    HW119241   5.246   1.448   0.805
 6114SOL    HW219242   5.139   1.566   0.842
 6115SOL     OW19243   1.150   0.973   5.410
 6115SOL    HW119244   1.062   1.022   5.405
 6115SOL    HW219245   1.217   1.031   5.457
 6116SOL     OW19246   4.240   1.983   4.886
 6116SOL    HW119247   4.337   1.960   4.888
 6116SOL    HW219248   4.201   1.952   4.799
 6117SOL     OW19249   1.441   2.140   2.748
 6117SOL    HW119250   1.341   2.140   2.752
 6117SOL    HW219251   1.471   2.179   2.660
 6118SOL     OW19252   5.903   0.880   0.017
 6118SOL    HW119253   5.910   0.979   0.002
 6118SOL    HW219254   5.995   0.841   0.026
 6119SOL     OW19255   6.956   1.947   0.599
 6119SOL    HW119256   0.020   1.948   0.551
 6119SOL    HW219257   6.902   2.026   0.572
 6120SOL     OW19258   2.175   6.865   5.850
 6120SOL    HW119259   2.213   6.791   5.905
 6120SOL    HW219260   2.203   6.953   5.888
 6121SOL     OW19261   1.364   2.922   4.935
 6121SOL    HW119262   1.417   2.860   4.993
 6121SOL    HW219263   1.319   2.869   4.863
 6122SOL     OW19264   5.031   6.192   5.214
 6122SOL    HW119265   5.099   6.257   5.247
 6122SOL    HW219266   5.006   6.129   5.287
 6123SOL     OW19267   6.048   1.158   5.264
 6123SOL    HW119268   6.081   1.076   5.216
 6123SOL    HW219269   5.964   1.136   5.312
 6124SOL     OW19270   2.219   0.294   4.562
 6124SOL    HW119271   2.231   0.339   4.473
 6124SOL    HW219272   2.158   0.349   4.619
 6125SOL     OW19273   2.147   3.024   6.627
 6125SOL    HW119274   2.122   2.931   6.599
 6125SOL    HW219275   2.065   3.076   6.650
 6126SOL     OW19276   6.910   2.992   4.895
 6126SOL    HW119277   6.849   2.939   4.955
 6126SOL    HW219278   6.860   3.021   4.813
 6127SOL     OW19279   4.111   1.655   1.599
 6127SOL    HW119280   4.062   1.582   1.647
 6127SOL    HW219281   4.109   1.738   1.655
 6128SOL     OW19282   5.973   6.026   0.827
 6128SOL    HW119283   5.918   6.091   0.878
 6128SOL    HW219284   6.070   6.041   0.848
 6129SOL     OW19285   1.771   4.350   2.940
 6129SOL    HW119286   1.783   4.417   2.868
 6129SOL    HW219287   1.720   4.391   3.016
 6130SOL     OW19288   5.109   3.273   1.362
 6130SOL    HW119289   5.083   3.220   1.281
 6130SOL    HW219290   5.048   3.250   1.438
 6131SOL     OW19291   0.075   1.995   2.609
 6131SOL    HW119292   0.118   2.074   2.565
 6131SOL    HW219293   0.130   1.913   2.590
 6132SOL     OW19294   3.040   1.861   6.689
 6132SOL    HW119295   2.953   1.810   6.685
 6132SOL    HW219296   3.114   1.798   6.713
 6133SOL     OW19297   1.691   2.418   3.811
 6133SOL    HW119298   1.715   2.376   3.724
 6133SOL    HW219299   1.774   2.453   3.855
 6134SOL     OW19300   5.191   6.093   6.083
 6134SOL    HW119301   5.271   6.149   6.102
 6134SOL    HW219302   5.215   6.019   6.021
 6135SOL     OW19303   5.721   0.550   6.756
 6135SOL    HW119304   5.656   0.502   6.815
 6135SOL    HW219305   5.811   0.554   6.801
 6136SOL     OW19306   0.674   2.633   2.398
 6136SOL    HW119307   0.665   2.567   2.473
 6136SOL    HW219308   0.769   2.638   2.370
 6137SOL     OW19309   0.290   4.595   2.951
 6137SOL    HW119310   0.359   4.531   2.984
 6137SOL    HW219311   0.233   4.626   3.027
 6138SOL     OW19312   3.012   0.347   1.881
 6138SOL    HW119313   3.098   0.309   1.915
 6138SOL    HW219314   3.010   0.340   1.781
 6139SOL     OW19315   1.551   6.809   5.873
 6139SOL    HW119316   1.510   6.721   5.895
 6139SOL    HW219317   1.568   6.814   5.774
 6140SOL     OW19318   2.034   6.857   3.117
 6140SOL    HW119319   1.993   6.914   3.045
 6140SOL    HW219320   2.111   6.806   3.079
 6141SOL     OW19321   0.072   0.732   5.499
 6141SOL    HW119322   7.013   0.787   5.506
 6141SOL    HW219323   0.054   0.639   5.533
 6142SOL     OW19324   0.271   1.041   0.801
 6142SOL    HW119325   0.181   1.071   0.767
 6142SOL    HW219326   0.311   0.978   0.735
 6143SOL     OW19327   6.126   3.600   5.922
 6143SOL    HW119328   6.118   3.633   6.016
 6143SOL    HW219329   6.213   3.630   5.883
 6144SOL     OW19330   4.924   4.324   2.926
 6144SOL    HW119331   4.850   4.260   2.905
 6144SOL    HW219332   4.919   4.350   3.022
 6145SOL     OW19333   4.909   3.459   4.491
 6145SOL    HW119334   4.949   3.385   4.436
 6145SOL    HW219335   4.839   3.420   4.552
 6146SOL     OW19336   4.263   0.708   4.691
 6146SOL    HW119337   4.255   0.608   4.687
 6146SOL    HW219338   4.346   0.736   4.642
 6147SOL     OW19339   2.285   2.690   3.921
 6147SOL    HW119340   2.341   2.671   4.001
 6147SOL    HW219341   2.192   2.712   3.949
 6148SOL     OW19342   3.589   5.313   6.973
 6148SOL    HW119343   3.498   5.284   6.942
 6148SOL    HW219344   3.618   5.393   6.921
 6149SOL     OW19345   2.675   7.007   1.662
 6149SOL    HW119346   2.701   0.079   1.668
 6149SOL    HW219347   2.746   6.950   1.703
 6150SOL     OW19348   5.776   3.665   6.494
 6150SOL    HW119349   5.803   3.691   6.401
 6150SOL    HW219350   5.841   3.598   6.530
 6151SOL     OW19351   5.074   4.124   4.378
 6151SOL    HW119352   5.144   4.078   4.431
 6151SOL    HW219353   4.984   4.087   4.400
 6152SOL     OW19354   0.496   4.744   3.836
 6152SOL    HW119355   0.595   4.729   3.829
 6152SOL    HW219356   0.464   4.712   3.925
 6153SOL     OW19357   4.787   5.395   0.725
 6153SOL    HW119358   4.843   5.319   0.757
 6153SOL    HW219359   4.692   5.380   0.751
 6154SOL     OW19360   5.494   3.132   2.756
 6154SOL    HW119361   5.403   3.139   2.716
 6154SOL    HW219362   5.531   3.040   2.739
 6155SOL     OW19363   2.359   1.067   2.961
 6155SOL    HW119364   2.374   1.027   2.871
 6155SOL    HW219365   2.444   1.106   2.995
 6156SOL     OW19366   5.494   4.025   1.437
 6156SOL    HW119367   5.539   3.956   1.492
 6156SOL    HW219368   5.527   4.020   1.342
 6157SOL     OW19369   0.810   2.051   2.975
 6157SOL    HW119370   0.826   2.123   2.907
 6157SOL    HW219371   0.841   2.083   3.064
 6158SOL     OW19372   2.363   2.682   5.441
 6158SOL    HW119373   2.394   2.629   5.363
 6158SOL    HW219374   2.404   2.773   5.438
 6159SOL     OW19375   6.166   1.765   0.211
 6159SOL    HW119376   6.247   1.750   0.155
 6159SOL    HW219377   6.130   1.677   0.242
 6160SOL     OW19378   0.329   6.916   6.673
 6160SOL    HW119379   0.330   6.867   6.760
 6160SOL    HW219380   0.235   6.944   6.652
 6161SOL     OW19381   5.313   2.346   6.372
 6161SOL    HW119382   5.227   2.386   6.405
 6161SOL    HW219383   5.367   2.416   6.325
 6162SOL     OW19384   6.588   6.121   2.486
 6162SOL    HW119385   6.506   6.081   2.446
 6162SOL    HW219386   6.562   6.193   2.551
 6163SOL     OW19387   6.364   6.712   2.782
 6163SOL    HW119388   6.453   6.705   2.827
 6163SOL    HW219389   6.317   6.624   2.786
 6164SOL     OW19390   4.135   3.460   4.349
 6164SOL    HW119391   4.121   3.407   4.266
 6164SOL    HW219392   4.147   3.557   4.326
 6165SOL     OW19393   4.243   2.432   0.656
 6165SOL    HW119394   4.252   2.466   0.562
 6165SOL    HW219395   4.146   2.433   0.683
 6166SOL     OW19396   0.638   1.964   0.048
 6166SOL    HW119397   0.584   2.033   7.023
 6166SOL    HW219398   0.577   1.896   0.087
 6167SOL     OW19399   1.310   4.226   3.574
 6167SOL    HW119400   1.395   4.196   3.618
 6167SOL    HW219401   1.237   4.162   3.596
 6168SOL     OW19402   0.082   3.000   4.038
 6168SOL    HW119403   0.050   3.051   4.118
 6168SOL    HW219404   0.039   3.037   3.955
 6169SOL     OW19405   0.788   6.842   6.870
 6169SOL    HW119406   0.781   6.927   6.819
 6169SOL    HW219407   0.697   6.814   6.902
 6170SOL     OW19408   3.780   4.404   0.355
 6170SOL    HW119409   3.832   4.344   0.416
 6170SOL    HW219410   3.838   4.432   0.279
 6171SOL     OW19411   1.125   4.888   2.460
 6171SOL    HW119412   1.071   4.924   2.385
 6171SOL    HW219413   1.194   4.954   2.487
 6172SOL     OW19414   1.228   0.019   2.458
 6172SOL    HW119415   1.140   7.000   2.440
 6172SOL    HW219416   1.213   0.113   2.489
 6173SOL     OW19417   1.126   4.739   3.570
 6173SOL    HW119418   1.171   4.652   3.589
 6173SOL    HW219419   1.052   4.753   3.635
 6174SOL     OW19420   5.516   4.679   2.868
 6174SOL    HW119421   5.452   4.686   2.945
 6174SOL    HW219422   5.607   4.657   2.902
 6175SOL     OW19423   5.316   6.532   2.938
 6175SOL    HW119424   5.240   6.466   2.938
 6175SOL    HW219425   5.393   6.494   2.886
 6176SOL     OW19426   5.582   3.237   6.321
 6176SOL    HW119427   5.552   3.332   6.328
 6176SOL    HW219428   5.671   3.226   6.364
 6177SOL     OW19429   5.207   2.147   2.198
 6177SOL    HW119430   5.229   2.061   2.154
 6177SOL    HW219431   5.138   2.131   2.269
 6178SOL     OW19432   4.767   4.342   0.718
 6178SOL    HW119433   4.674   4.379   0.731
 6178SOL    HW219434   4.833   4.401   0.765
 6179SOL     OW19435   0.562   3.118   5.061
 6179SOL    HW119436   0.590   3.045   4.998
 6179SOL    HW219437   0.615   3.112   5.145
 6180SOL     OW19438   3.696   6.885   0.940
 6180SOL    HW119439   3.699   6.807   0.877
 6180SOL    HW219440   3.745   6.862   1.024
 6181SOL     OW19441   5.314   6.463   6.943
 6181SOL    HW119442   5.400   6.454   6.892
 6181SOL    HW219443   5.316   6.404   7.023
 6182SOL     OW19444   5.271   5.547   5.708
 6182SOL    HW119445   5.318   5.630   5.738
 6182SOL    HW219446   5.320   5.467   5.742
 6183SOL     OW19447   2.736   0.106   2.607
 6183SOL    HW119448   2.814   0.162   2.581
 6183SOL    HW219449   2.719   0.114   2.705
 6184SOL     OW19450   1.153   0.312   6.615
 6184SOL    HW119451   1.124   0.304   6.520
 6184SOL    HW219452   1.239   0.362   6.620
 6185SOL     OW19453   6.943   4.078   6.888
 6185SOL    HW119454   6.851   4.045   6.865
 6185SOL    HW219455   6.977   4.135   6.813
 6186SOL     OW19456   5.660   0.418   3.748
 6186SOL    HW119457   5.603   0.500   3.742
 6186SOL    HW219458   5.756   0.443   3.736
 6187SOL     OW19459   5.071   4.828   4.295
 6187SOL    HW119460   5.046   4.740   4.335
 6187SOL    HW219461   5.003   4.855   4.227
 6188SOL     OW19462   2.938   6.176   1.902
 6188SOL    HW119463   2.858   6.234   1.886
 6188SOL    HW219464   2.986   6.160   1.816
 6189SOL     OW19465   4.909   5.430   3.229
 6189SOL    HW119466   4.914   5.383   3.318
 6189SOL    HW219467   4.854   5.376   3.166
 6190SOL     OW19468   4.918   2.827   6.331
 6190SOL    HW119469   4.824   2.807   6.302
 6190SOL    HW219470   4.929   2.926   6.345
 6191SOL     OW19471   5.454   2.025   0.381
 6191SOL    HW119472   5.446   2.124   0.384
 6191SOL    HW219473   5.481   1.997   0.289
 6192SOL     OW19474   2.801   3.680   0.409
 6192SOL    HW119475   2.813   3.645   0.316
 6192SOL    HW219476   2.845   3.617   0.474
 6193SOL     OW19477   5.597   7.000   2.608
 6193SOL    HW119478   5.572   0.073   2.607
 6193SOL    HW219479   5.653   6.981   2.688
 6194SOL     OW19480   2.322   0.946   0.968
 6194SOL    HW119481   2.349   0.877   0.901
 6194SOL    HW219482   2.227   0.972   0.952
 6195SOL     OW19483   4.085   5.897   6.237
 6195SOL    HW119484   3.988   5.900   6.212
 6195SOL    HW219485   4.113   5.803   6.251
 6196SOL     OW19486   0.999   2.459   6.086
 6196SOL    HW119487   0.935   2.490   6.015
 6196SOL    HW219488   1.072   2.405   6.044
 6197SOL     OW19489   2.433   4.441   0.999
 6197SOL    HW119490   2.404   4.391   0.917
 6197SOL    HW219491   2.522   4.406   1.029
 6198SOL     OW19492   3.615   5.211   3.100
 6198SOL    HW119493   3.559   5.289   3.127
 6198SOL    HW219494   3.712   5.234   3.114
 6199SOL     OW19495   1.191   0.275   0.904
 6199SOL    HW119496   1.289   0.267   0.918
 6199SOL    HW219497   1.173   0.333   0.825
 6200SOL     OW19498   2.541   1.369   6.560
 6200SOL    HW119499   2.547   1.281   6.512
 6200SOL    HW219500   2.624   1.423   6.542
 6201SOL     OW19501   2.018   3.703   5.696
 6201SOL    HW119502   1.976   3.781   5.740
 6201SOL    HW219503   1.947   3.648   5.651
 6202SOL     OW19504   3.567   1.681   1.342
 6202SOL    HW119505   3.535   1.757   1.398
 6202SOL    HW219506   3.503   1.665   1.268
 6203SOL     OW19507   5.034   0.955   4.175
 6203SOL    HW119508   5.073   0.880   4.121
 6203SOL    HW219509   5.082   1.040   4.153
 6204SOL     OW19510   1.192   5.588   5.156
 6204SOL    HW119511   1.276   5.552   5.196
 6204SOL    HW219512   1.197   5.583   5.057
 6205SOL     OW19513   5.432   5.297   6.681
 6205SOL    HW119514   5.457   5.386   6.717
 6205SOL    HW219515   5.356   5.307   6.616
 6206SOL     OW19516   6.652   0.799   1.618
 6206SOL    HW119517   6.732   0.771   1.672
 6206SOL    HW219518   6.604   0.718   1.585
 6207SOL     OW19519   1.281   4.485   5.170
 6207SOL    HW119520   1.366   4.441   5.140
 6207SOL    HW219521   1.204   4.425   5.153
 6208SOL     OW19522   6.550   0.369   5.790
 6208SOL    HW119523   6.503   0.285   5.815
 6208SOL    HW219524   6.483   0.441   5.770
 6209SOL     OW19525   4.850   6.347   0.223
 6209SOL    HW119526   4.813   6.270   0.275
 6209SOL    HW219527   4.822   6.340   0.127
 6210SOL     OW19528   5.215   3.487   2.800
 6210SOL    HW119529   5.225   3.564   2.863
 6210SOL    HW219530   5.303   3.438   2.795
 6211SOL     OW19531   2.419   0.445   6.083
 6211SOL    HW119532   2.467   0.364   6.049
 6211SOL    HW219533   2.406   0.509   6.007
 6212SOL     OW19534   6.573   6.193   3.453
 6212SOL    HW119535   6.640   6.130   3.415
 6212SOL    HW219536   6.486   6.146   3.467
 6213SOL     OW19537   5.952   0.538   6.587
 6213SOL    HW119538   5.875   0.603   6.590
 6213SOL    HW219539   6.022   0.568   6.652
 6214SOL     OW19540   6.123   5.304   2.446
 6214SOL    HW119541   6.076   5.237   2.504
 6214SOL    HW219542   6.135   5.390   2.497
 6215SOL     OW19543   3.127   2.844   1.002
 6215SOL    HW119544   3.079   2.841   1.089
 6215SOL    HW219545   3.134   2.752   0.964
 6216SOL     OW19546   6.069   1.658   1.852
 6216SOL    HW119547   6.169   1.655   1.856
 6216SOL    HW219548   6.035   1.570   1.819
 6217SOL     OW19549   4.702   2.810   1.484
 6217SOL    HW119550   4.782   2.830   1.541
 6217SOL    HW219551   4.726   2.824   1.387
 6218SOL     OW19552   2.511   4.686   4.439
 6218SOL    HW119553   2.605   4.707   4.410
 6218SOL    HW219554   2.509   4.673   4.538
 6219SOL     OW19555   1.372   1.927   4.826
 6219SOL    HW119556   1.377   1.879   4.914
 6219SOL    HW219557   1.452   1.986   4.816
 6220SOL     OW19558   1.884   4.477   6.221
 6220SOL    HW119559   1.785   4.492   6.228
 6220SOL    HW219560   1.911   4.475   6.125
 6221SOL     OW19561   4.509   5.364   4.589
 6221SOL    HW119562   4.446   5.301   4.635
 6221SOL    HW219563   4.501   5.353   4.490
 6222SOL     OW19564   6.942   0.180   1.729
 6222SOL    HW119565   6.913   0.236   1.652
 6222SOL    HW219566   6.873   0.110   1.748
 6223SOL     OW19567   5.873   4.380   4.536
 6223SOL    HW119568   5.870   4.293   4.487
 6223SOL    HW219569   5.843   4.366   4.631
 6224SOL     OW19570   1.548   1.378   5.742
 6224SOL    HW119571   1.456   1.413   5.725
 6224SOL    HW219572   1.615   1.442   5.705
 6225SOL     OW19573   3.527   3.721   1.245
 6225SOL    HW119574   3.511   3.714   1.147
 6225SOL    HW219575   3.545   3.631   1.283
 6226SOL     OW19576   5.736   1.300   3.945
 6226SOL    HW119577   5.809   1.360   3.913
 6226SOL    HW219578   5.774   1.210   3.968
 6227SOL     OW19579   3.227   4.322   5.777
 6227SOL    HW119580   3.255   4.295   5.869
 6227SOL    HW219581   3.282   4.273   5.710
 6228SOL     OW19582   6.738   1.510   2.893
 6228SOL    HW119583   6.643   1.533   2.915
 6228SOL    HW219584   6.787   1.592   2.865
 6229SOL     OW19585   2.449   1.891   2.872
 6229SOL    HW119586   2.457   1.945   2.789
 6229SOL    HW219587   2.456   1.794   2.849
 6230SOL     OW19588   2.562   1.045   4.167
 6230SOL    HW119589   2.589   1.106   4.092
 6230SOL    HW219590   2.525   1.100   4.242
 6231SOL     OW19591   0.239   4.886   1.062
 6231SOL    HW119592   0.143   4.869   1.039
 6231SOL    HW219593   0.276   4.806   1.110
 6232SOL     OW19594   0.261   1.352   0.051
 6232SOL    HW119595   0.251   1.261   0.090
 6232SOL    HW219596   0.337   1.352   7.010
 6233SOL     OW19597   5.613   1.981   6.690
 6233SOL    HW119598   5.668   1.960   6.771
 6233SOL    HW219599   5.600   2.080   6.684
 6234SOL     OW19600   1.556   1.735   4.240
 6234SOL    HW119601   1.616   1.784   4.176
 6234SOL    HW219602   1.556   1.782   4.328
 6235SOL     OW19603   2.223   6.719   2.995
 6235SOL    HW119604   2.184   6.647   3.052
 6235SOL    HW219605   2.322   6.708   2.990
 6236SOL     OW19606   0.227   5.161   1.111
 6236SOL    HW119607   0.128   5.168   1.106
 6236SOL    HW219608   0.255   5.065   1.102
 6237SOL     OW19609   4.551   6.413   0.314
 6237SOL    HW119610   4.521   6.409   0.409
 6237SOL    HW219611   4.620   6.485   0.305
 6238SOL     OW19612   4.982   5.576   2.387
 6238SOL    HW119613   4.980   5.476   2.381
 6238SOL    HW219614   4.898   5.613   2.350
 6239SOL     OW19615   3.384   6.886   2.808
 6239SOL    HW119616   3.367   6.816   2.738
 6239SOL    HW219617   3.314   6.879   2.879
 6240SOL     OW19618   2.214   3.318   0.380
 6240SOL    HW119619   2.157   3.263   0.441
 6240SOL    HW219620   2.157   3.357   0.307
 6241SOL     OW19621   2.768   0.903   1.704
 6241SOL    HW119622   2.843   0.883   1.766
 6241SOL    HW219623   2.693   0.839   1.722
 6242SOL     OW19624   5.236   1.482   3.558
 6242SOL    HW119625   5.160   1.434   3.515
 6242SOL    HW219626   5.208   1.575   3.582
 6243SOL     OW19627   5.873   6.633   3.697
 6243SOL    HW119628   5.889   6.626   3.599
 6243SOL    HW219629   5.780   6.601   3.718
 6244SOL     OW19630   2.451   2.554   2.397
 6244SOL    HW119631   2.477   2.463   2.430
 6244SOL    HW219632   2.502   2.624   2.447
 6245SOL     OW19633   2.603   4.346   1.515
 6245SOL    HW119634   2.616   4.406   1.436
 6245SOL    HW219635   2.610   4.400   1.599
 6246SOL     OW19636   2.910   2.275   6.474
 6246SOL    HW119637   2.913   2.333   6.392
 6246SOL    HW219638   2.988   2.212   6.473
 6247SOL     OW19639   0.437   6.158   4.078
 6247SOL    HW119640   0.507   6.197   4.017
 6247SOL    HW219641   0.419   6.063   4.051
 6248SOL     OW19642   0.809   4.201   1.444
 6248SOL    HW119643   0.770   4.218   1.534
 6248SOL    HW219644   0.841   4.106   1.439
 6249SOL     OW19645   0.267   4.542   0.040
 6249SOL    HW119646   0.191   4.605   0.056
 6249SOL    HW219647   0.352   4.583   0.075
 6250SOL     OW19648   6.767   6.204   0.436
 6250SOL    HW119649   6.844   6.182   0.376
 6250SOL    HW219650   6.722   6.119   0.465
 6251SOL     OW19651   4.466   0.545   1.686
 6251SOL    HW119652   4.492   0.610   1.615
 6251SOL    HW219653   4.482   0.452   1.652
 6252SOL     OW19654   2.409   5.323   4.781
 6252SOL    HW119655   2.359   5.236   4.779
 6252SOL    HW219656   2.496   5.313   4.732
 6253SOL     OW19657   2.455   3.926   1.666
 6253SOL    HW119658   2.420   3.834   1.684
 6253SOL    HW219659   2.387   3.994   1.693
 6254SOL     OW19660   6.083   6.629   0.061
 6254SOL    HW119661   6.012   6.630   7.015
 6254SOL    HW219662   6.154   6.564   0.034
 6255SOL     OW19663   1.034   1.758   1.786
 6255SOL    HW119664   1.119   1.801   1.755
 6255SOL    HW219665   1.055   1.674   1.835
 6256SOL     OW19666   4.323   4.973   2.542
 6256SOL    HW119667   4.348   4.941   2.633
 6256SOL    HW219668   4.371   5.058   2.521
 6257SOL     OW19669   5.520   2.635   0.882
 6257SOL    HW119670   5.575   2.563   0.840
 6257SOL    HW219671   5.463   2.596   0.954
 6258SOL     OW19672   4.106   1.119   2.519
 6258SOL    HW119673   4.111   1.078   2.610
 6258SOL    HW219674   4.043   1.197   2.521
 6259SOL     OW19675   3.157   1.544   0.673
 6259SOL    HW119676   3.181   1.639   0.694
 6259SOL    HW219677   3.156   1.531   0.573
 6260SOL     OW19678   4.295   3.769   0.817
 6260SOL    HW119679   4.372   3.706   0.806
 6260SOL    HW219680   4.224   3.745   0.751
 6261SOL     OW19681   3.708   0.376   0.189
 6261SOL    HW119682   3.666   0.293   0.223
 6261SOL    HW219683   3.793   0.394   0.239
 6262SOL     OW19684   1.605   4.179   0.573
 6262SOL    HW119685   1.585   4.269   0.612
 6262SOL    HW219686   1.641   4.190   0.480
 6263SOL     OW19687   0.128   6.470   6.594
 6263SOL    HW119688   0.142   6.384   6.545
 6263SOL    HW219689   0.192   6.539   6.559
 6264SOL     OW19690   2.596   1.722   0.948
 6264SOL    HW119691   2.528   1.683   0.886
 6264SOL    HW219692   2.657   1.649   0.980
 6265SOL     OW19693   3.735   4.820   1.078
 6265SOL    HW119694   3.655   4.760   1.081
 6265SOL    HW219695   3.763   4.833   0.983
 6266SOL     OW19696   3.464   1.170   3.535
 6266SOL    HW119697   3.410   1.254   3.525
 6266SOL    HW219698   3.552   1.192   3.576
 6267SOL     OW19699   2.903   0.218   0.657
 6267SOL    HW119700   2.868   0.301   0.699
 6267SOL    HW219701   2.844   0.194   0.579
 6268SOL     OW19702   3.234   5.104   2.756
 6268SOL    HW119703   3.281   5.189   2.781
 6268SOL    HW219704   3.235   5.042   2.835
 6269SOL     OW19705   6.185   5.743   1.822
 6269SOL    HW119706   6.226   5.791   1.900
 6269SOL    HW219707   6.110   5.799   1.786
 6270SOL     OW19708   1.762   0.731   5.114
 6270SOL    HW119709   1.717   0.706   5.029
 6270SOL    HW219710   1.765   0.830   5.124
 6271SOL     OW19711   0.148   2.879   6.322
 6271SOL    HW119712   0.123   2.794   6.369
 6271SOL    HW219713   0.219   2.860   6.254
 6272SOL     OW19714   2.029   3.063   4.366
 6272SOL    HW119715   1.977   3.117   4.433
 6272SOL    HW219716   2.045   3.118   4.284
 6273SOL     OW19717   1.689   1.331   1.741
 6273SOL    HW119718   1.675   1.312   1.838
 6273SOL    HW219719   1.601   1.328   1.693
 6274SOL     OW19720   3.531   6.080   6.557
 6274SOL    HW119721   3.476   6.002   6.585
 6274SOL    HW219722   3.621   6.048   6.526
 6275SOL     OW19723   2.847   0.200   5.328
 6275SOL    HW119724   2.855   0.174   5.424
 6275SOL    HW219725   2.756   0.236   5.310
 6276SOL     OW19726   1.010   5.206   3.392
 6276SOL    HW119727   1.046   5.119   3.425
 6276SOL    HW219728   0.935   5.188   3.328
 6277SOL     OW19729   5.315   2.542   2.895
 6277SOL    HW119730   5.258   2.613   2.936
 6277SOL    HW219731   5.353   2.483   2.966
 6278SOL     OW19732   4.606   0.375   4.107
 6278SOL    HW119733   4.605   0.301   4.040
 6278SOL    HW219734   4.587   0.337   4.198
 6279SOL     OW19735   3.966   1.662   0.825
 6279SOL    HW119736   4.062   1.682   0.805
 6279SOL    HW219737   3.909   1.738   0.796
 6280SOL     OW19738   0.399   3.181   5.986
 6280SOL    HW119739   0.395   3.264   6.042
 6280SOL    HW219740   0.453   3.199   5.904
 6281SOL     OW19741   2.354   0.212   4.945
 6281SOL    HW119742   2.331   0.154   5.023
 6281SOL    HW219743   2.291   0.290   4.943
 6282SOL     OW19744   1.897   6.668   5.096
 6282SOL    HW119745   1.856   6.753   5.065
 6282SOL    HW219746   1.997   6.676   5.093
 6283SOL     OW19747   0.072   2.360   5.382
 6283SOL    HW119748   0.150   2.393   5.435
 6283SOL    HW219749   0.100   2.344   5.287
 6284SOL     OW19750   1.290   5.144   5.690
 6284SOL    HW119751   1.210   5.102   5.732
 6284SOL    HW219752   1.355   5.172   5.761
 6285SOL     OW19753   1.338   3.040   3.886
 6285SOL    HW119754   1.326   2.952   3.839
 6285SOL    HW219755   1.383   3.024   3.974
 6286SOL     OW19756   5.675   1.513   2.984
 6286SOL    HW119757   5.582   1.486   2.961
 6286SOL    HW219758   5.675   1.564   3.070
 6287SOL     OW19759   4.872   4.076   1.877
 6287SOL    HW119760   4.815   4.039   1.804
 6287SOL    HW219761   4.934   4.004   1.910
 6288SOL     OW19762   4.978   4.122   0.712
 6288SOL    HW119763   5.059   4.144   0.766
 6288SOL    HW219764   4.899   4.174   0.748
 6289SOL     OW19765   2.303   2.218   3.690
 6289SOL    HW119766   2.299   2.161   3.609
 6289SOL    HW219767   2.228   2.285   3.688
 6290SOL     OW19768   5.424   4.434   4.275
 6290SOL    HW119769   5.420   4.533   4.258
 6290SOL    HW219770   5.515   4.400   4.252
 6291SOL     OW19771   3.625   3.368   3.715
 6291SOL    HW119772   3.575   3.413   3.641
 6291SOL    HW219773   3.636   3.271   3.695
 6292SOL     OW19774   1.001   1.853   3.576
 6292SOL    HW119775   0.977   1.924   3.642
 6292SOL    HW219776   1.093   1.872   3.539
 6293SOL     OW19777   5.402   0.320   6.770
 6293SOL    HW119778   5.345   0.258   6.825
 6293SOL    HW219779   5.496   0.285   6.767
 6294SOL     OW19780   3.286   5.601   2.573
 6294SOL    HW119781   3.306   5.621   2.669
 6294SOL    HW219782   3.234   5.516   2.566
 6295SOL     OW19783   5.759   5.617   5.827
 6295SOL    HW119784   5.823   5.670   5.882
 6295SOL    HW219785   5.680   5.591   5.884
 6296SOL     OW19786   6.481   0.456   3.216
 6296SOL    HW119787   6.412   0.412   3.273
 6296SOL    HW219788   6.446   0.545   3.184
 6297SOL     OW19789   5.125   6.446   5.934
 6297SOL    HW119790   5.192   6.372   5.947
 6297SOL    HW219791   5.099   6.450   5.837
 6298SOL     OW19792   0.525   3.250   5.752
 6298SOL    HW119793   0.496   3.231   5.658
 6298SOL    HW219794   0.608   3.198   5.772
 6299SOL     OW19795   6.346   2.597   6.476
 6299SOL    HW119796   6.262   2.630   6.433
 6299SOL    HW219797   6.415   2.578   6.406
 6300SOL     OW19798   5.628   0.980   4.428
 6300SOL    HW119799   5.636   0.967   4.526
 6300SOL    HW219800   5.670   0.903   4.380
 6301SOL     OW19801   2.556   6.360   1.015
 6301SOL    HW119802   2.612   6.391   0.938
 6301SOL    HW219803   2.561   6.428   1.089
 6302SOL     OW19804   1.840   0.750   3.759
 6302SOL    HW119805   1.775   0.821   3.786
 6302SOL    HW219806   1.843   0.744   3.659
 6303SOL     OW19807   2.496   0.009   5.358
 6303SOL    HW119808   2.434   6.985   5.296
 6303SOL    HW219809   2.464   7.023   5.452
 6304SOL     OW19810   3.020   0.935   0.320
 6304SOL    HW119811   2.998   1.025   0.282
 6304SOL    HW219812   3.082   0.887   0.258
 6305SOL     OW19813   6.767   6.816   1.509
 6305SOL    HW119814   6.838   6.843   1.575
 6305SOL    HW219815   6.724   6.732   1.539
 6306SOL     OW19816   6.521   3.072   3.946
 6306SOL    HW119817   6.521   3.076   3.846
 6306SOL    HW219818   6.526   2.977   3.976
 6307SOL     OW19819   2.790   5.088   5.729
 6307SOL    HW119820   2.852   5.081   5.807
 6307SOL    HW219821   2.829   5.149   5.660
 6308SOL     OW19822   2.168   1.475   5.300
 6308SOL    HW119823   2.094   1.441   5.242
 6308SOL    HW219824   2.148   1.569   5.327
 6309SOL     OW19825   4.809   2.093   4.028
 6309SOL    HW119826   4.727   2.068   4.080
 6309SOL    HW219827   4.806   2.051   3.938
 6310SOL     OW19828   1.330   4.757   4.884
 6310SOL    HW119829   1.371   4.666   4.882
 6310SOL    HW219830   1.289   4.777   4.796
 6311SOL     OW19831   6.948   0.401   4.487
 6311SOL    HW119832   6.896   0.472   4.535
 6311SOL    HW219833   0.007   0.380   4.539
 6312SOL     OW19834   4.426   4.729   6.644
 6312SOL    HW119835   4.335   4.760   6.673
 6312SOL    HW219836   4.489   4.806   6.643
 6313SOL     OW19837   2.101   5.439   3.408
 6313SOL    HW119838   2.150   5.412   3.491
 6313SOL    HW219839   2.101   5.539   3.400
 6314SOL     OW19840   2.630   5.558   2.293
 6314SOL    HW119841   2.645   5.462   2.270
 6314SOL    HW219842   2.678   5.616   2.227
 6315SOL     OW19843   3.858   3.514   0.031
 6315SOL    HW119844   3.929   3.454   7.016
 6315SOL    HW219845   3.805   3.464   0.099
 6316SOL     OW19846   4.556   2.179   6.447
 6316SOL    HW119847   4.645   2.138   6.428
 6316SOL    HW219848   4.535   2.247   6.377
 6317SOL     OW19849   4.989   6.488   2.733
 6317SOL    HW119850   4.903   6.465   2.689
 6317SOL    HW219851   4.995   6.440   2.821
 6318SOL     OW19852   2.519   2.437   5.607
 6318SOL    HW119853   2.593   2.454   5.542
 6318SOL    HW219854   2.557   2.411   5.695
 6319SOL     OW19855   0.827   3.187   3.624
 6319SOL    HW119856   0.908   3.129   3.621
 6319SOL    HW219857   0.851   3.277   3.659
 6320SOL     OW19858   6.279   3.619   3.315
 6320SOL    HW119859   6.274   3.557   3.237
 6320SOL    HW219860   6.199   3.679   3.315
 6321SOL     OW19861   2.834   5.659   0.456
 6321SOL    HW119862   2.934   5.652   0.465
 6321SOL    HW219863   2.795   5.684   0.545
 6322SOL     OW19864   1.040   1.353   6.824
 6322SOL    HW119865   1.027   1.292   6.745
 6322SOL    HW219866   1.023   1.447   6.797
 6323SOL     OW19867   3.359   2.284   1.382
 6323SOL    HW119868   3.380   2.295   1.479
 6323SOL    HW219869   3.437   2.314   1.327
 6324SOL     OW19870   4.178   0.713   5.663
 6324SOL    HW119871   4.217   0.774   5.594
 6324SOL    HW219872   4.149   0.766   5.743
 6325SOL     OW19873   0.545   2.856   2.468
 6325SOL    HW119874   0.606   2.779   2.447
 6325SOL    HW219875   0.468   2.824   2.523
 6326SOL     OW19876   5.688   5.854   1.548
 6326SOL    HW119877   5.775   5.814   1.521
 6326SOL    HW219878   5.698   5.899   1.637
 6327SOL     OW19879   5.460   6.158   5.520
 6327SOL    HW119880   5.399   6.079   5.523
 6327SOL    HW219881   5.483   6.178   5.424
 6328SOL     OW19882   1.851   4.180   6.935
 6328SOL    HW119883   1.944   4.217   6.930
 6328SOL    HW219884   1.840   4.107   6.867
 6329SOL     OW19885   1.799   1.228   3.730
 6329SOL    HW119886   1.894   1.243   3.702
 6329SOL    HW219887   1.795   1.212   3.828
 6330SOL     OW19888   4.199   0.774   0.138
 6330SOL    HW119889   4.297   0.763   0.154
 6330SOL    HW219890   4.172   0.717   0.060
 6331SOL     OW19891   6.444   2.075   0.808
 6331SOL    HW119892   6.442   2.135   0.888
 6331SOL    HW219893   6.359   2.084   0.757
 6332SOL     OW19894   6.497   5.605   1.514
 6332SOL    HW119895   6.458   5.546   1.444
 6332SOL    HW219896   6.424   5.640   1.573
 6333SOL     OW19897   3.302   5.133   3.802
 6333SOL    HW119898   3.330   5.067   3.872
 6333SOL    HW219899   3.350   5.114   3.717
 6334SOL     OW19900   2.506   6.876   2.468
 6334SOL    HW119901   2.515   6.883   2.368
 6334SOL    HW219902   2.597   6.878   2.509
 6335SOL     OW19903   6.627   1.159   6.624
 6335SOL    HW119904   6.595   1.253   6.626
 6335SOL    HW219905   6.568   1.105   6.563
 6336SOL     OW19906   6.821   2.381   4.865
 6336SOL    HW119907   6.841   2.421   4.776
 6336SOL    HW219908   6.901   2.332   4.898
 6337SOL     OW19909   5.026   3.379   6.004
 6337SOL    HW119910   5.083   3.397   5.924
 6337SOL    HW219911   5.079   3.329   6.073
 6338SOL     OW19912   2.682   1.826   2.225
 6338SOL    HW119913   2.723   1.859   2.140
 6338SOL    HW219914   2.638   1.738   2.208
 6339SOL     OW19915   0.456   2.334   3.695
 6339SOL    HW119916   0.537   2.372   3.738
 6339SOL    HW219917   0.399   2.289   3.764
 6340SOL     OW19918   2.743   5.480   4.050
 6340SOL    HW119919   2.823   5.473   4.109
 6340SOL    HW219920   2.687   5.398   4.059
 6341SOL     OW19921   6.799   4.961   3.645
 6341SOL    HW119922   6.827   4.872   3.682
 6341SOL    HW219923   6.715   4.950   3.592
 6342SOL     OW19924   2.188   2.587   2.339
 6342SOL    HW119925   2.143   2.586   2.429
 6342SOL    HW219926   2.287   2.581   2.352
 6343SOL     OW19927   4.180   2.283   6.760
 6343SOL    HW119928   4.134   2.239   6.683
 6343SOL    HW219929   4.122   2.357   6.796
 6344SOL     OW19930   7.016   3.763   5.188
 6344SOL    HW119931   7.023   3.689   5.121
 6344SOL    HW219932   0.004   3.851   5.142
 6345SOL     OW19933   3.768   1.667   2.400
 6345SOL    HW119934   3.721   1.727   2.335
 6345SOL    HW219935   3.745   1.571   2.379
 6346SOL     OW19936   0.124   3.225   3.398
 6346SOL    HW119937   0.113   3.205   3.496
 6346SOL    HW219938   0.220   3.240   3.378
 6347SOL     OW19939   3.168   0.203   1.264
 6347SOL    HW119940   3.186   0.156   1.350
 6347SOL    HW219941   3.137   0.136   1.196
 6348SOL     OW19942   0.777   3.135   4.680
 6348SOL    HW119943   0.745   3.215   4.630
 6348SOL    HW219944   0.856   3.159   4.735
 6349SOL     OW19945   2.839   0.640   1.425
 6349SOL    HW119946   2.795   0.571   1.367
 6349SOL    HW219947   2.935   0.615   1.440
 6350SOL     OW19948   1.485   5.842   2.534
 6350SOL    HW119949   1.493   5.747   2.504
 6350SOL    HW219950   1.575   5.886   2.531
 6351SOL     OW19951   0.191   2.473   2.420
 6351SOL    HW119952   0.168   2.504   2.513
 6351SOL    HW219953   0.147   2.532   2.353
 6352SOL     OW19954   1.484   5.094   3.477
 6352SOL    HW119955   1.394   5.070   3.514
 6352SOL    HW219956   1.546   5.017   3.490
 6353SOL     OW19957   0.321   0.129   6.822
 6353SOL    HW119958   0.404   0.109   6.875
 6353SOL    HW219959   0.314   0.064   6.746
 6354SOL     OW19960   1.007   6.643   2.208
 6354SOL    HW119961   0.976   6.725   2.160
 6354SOL    HW219962   1.106   6.649   2.223
 6355SOL     OW19963   1.455   3.185   3.578
 6355SOL    HW119964   1.482   3.094   3.610
 6355SOL    HW219965   1.408   3.234   3.651
 6356SOL     OW19966   4.727   4.838   1.089
 6356SOL    HW119967   4.779   4.878   1.013
 6356SOL    HW219968   4.639   4.884   1.097
 6357SOL     OW19969   4.477   2.808   0.809
 6357SOL    HW119970   4.399   2.850   0.763
 6357SOL    HW219971   4.561   2.831   0.760
 6358SOL     OW19972   0.272   2.268   4.120
 6358SOL    HW119973   0.240   2.362   4.135
 6358SOL    HW219974   0.312   2.233   4.205
 6359SOL     OW19975   6.690   0.681   5.564
 6359SOL    HW119976   6.723   0.590   5.589
 6359SOL    HW219977   6.630   0.674   5.484
 6360SOL     OW19978   2.603   4.767   4.056
 6360SOL    HW119979   2.536   4.695   4.039
 6360SOL    HW219980   2.563   4.856   4.034
 6361SOL     OW19981   4.458   5.553   6.319
 6361SOL    HW119982   4.536   5.592   6.269
 6361SOL    HW219983   4.378   5.552   6.260
 6362SOL     OW19984   5.933   4.720   6.897
 6362SOL    HW119985   5.985   4.637   6.874
 6362SOL    HW219986   5.964   4.795   6.838
 6363SOL     OW19987   1.898   5.928   4.539
 6363SOL    HW119988   1.900   5.945   4.441
 6363SOL    HW219989   1.885   5.830   4.555
 6364SOL     OW19990   2.832   2.235   5.598
 6364SOL    HW119991   2.905   2.279   5.650
 6364SOL    HW219992   2.793   2.301   5.534
 6365SOL     OW19993   4.857   6.897   3.645
 6365SOL    HW119994   4.831   6.990   3.620
 6365SOL    HW219995   4.900   6.852   3.567
 6366SOL     OW19996   0.725   5.046   5.610
 6366SOL    HW119997   0.757   4.998   5.528
 6366SOL    HW219998   0.795   5.111   5.639
 6367SOL     OW19999   5.252   0.550   3.570
 6367SOL    HW120000   5.216   0.460   3.594
 6367SOL    HW220001   5.266   0.603   3.653
 6368SOL     OW20002   3.236   6.982   4.089
 6368SOL    HW120003   3.267   0.025   4.156
 6368SOL    HW220004   3.297   6.903   4.090
 6369SOL     OW20005   2.851   5.541   4.514
 6369SOL    HW120006   2.839   5.532   4.613
 6369SOL    HW220007   2.810   5.463   4.468
 6370SOL     OW20008   0.048   2.173   1.613
 6370SOL    HW120009   7.002   2.245   1.611
 6370SOL    HW220010   0.116   2.196   1.682
 6371SOL     OW20011   4.968   2.622   2.768
 6371SOL    HW120012   4.980   2.542   2.828
 6371SOL    HW220013   4.902   2.685   2.809
 6372SOL     OW20014   3.551   6.509   2.295
 6372SOL    HW120015   3.524   6.458   2.214
 6372SOL    HW220016   3.469   6.534   2.348
 6373SOL     OW20017   5.086   4.413   5.622
 6373SOL    HW120018   4.986   4.405   5.623
 6373SOL    HW220019   5.116   4.469   5.699
 6374SOL     OW20020   3.121   3.038   3.238
 6374SOL    HW120021   3.107   3.066   3.143
 6374SOL    HW220022   3.219   3.024   3.255
 6375SOL     OW20023   1.414   0.173   2.765
 6375SOL    HW120024   1.429   0.179   2.863
 6375SOL    HW220025   1.488   0.220   2.717
 6376SOL     OW20026   6.861   2.095   4.535
 6376SOL    HW120027   6.905   2.185   4.530
 6376SOL    HW220028   6.877   2.056   4.625
 6377SOL     OW20029   0.384   1.286   4.896
 6377SOL    HW120030   0.335   1.357   4.846
 6377SOL    HW220031   0.409   1.321   4.987
 6378SOL     OW20032   5.052   4.017   4.068
 6378SOL    HW120033   5.013   4.096   4.115
 6378SOL    HW220034   5.137   3.990   4.112
 6379SOL     OW20035   2.555   4.571   3.721
 6379SOL    HW120036   2.626   4.585   3.653
 6379SOL    HW220037   2.500   4.491   3.695
 6380SOL     OW20038   0.505   1.024   5.965
 6380SOL    HW120039   0.529   0.932   5.997
 6380SOL    HW220040   0.464   1.076   6.040
 6381SOL     OW20041   3.459   3.473   2.912
 6381SOL    HW120042   3.442   3.397   2.975
 6381SOL    HW220043   3.405   3.553   2.940
 6382SOL     OW20044   0.934   2.765   5.917
 6382SOL    HW120045   1.016   2.732   5.871
 6382SOL    HW220046   0.880   2.687   5.950
 6383SOL     OW20047   2.451   1.592   4.243
 6383SOL    HW120048   2.472   1.634   4.154
 6383SOL    HW220049   2.429   1.664   4.309
 6384SOL     OW20050   5.734   4.891   2.795
 6384SOL    HW120051   5.756   4.804   2.838
 6384SOL    HW220052   5.638   4.913   2.810
 6385SOL     OW20053   6.699   5.177   3.839
 6385SOL    HW120054   6.763   5.142   3.908
 6385SOL    HW220055   6.706   5.122   3.756
 6386SOL     OW20056   2.585   5.397   0.888
 6386SOL    HW120057   2.567   5.323   0.952
 6386SOL    HW220058   2.498   5.434   0.854
 6387SOL     OW20059   0.393   2.271   5.538
 6387SOL    HW120060   0.459   2.307   5.604
 6387SOL    HW220061   0.432   2.274   5.446
 6388SOL     OW20062   3.378   4.846   1.794
 6388SOL    HW120063   3.442   4.769   1.787
 6388SOL    HW220064   3.285   4.813   1.779
 6389SOL     OW20065   1.516   5.702   3.343
 6389SOL    HW120066   1.595   5.659   3.386
 6389SOL    HW220067   1.479   5.641   3.273
 6390SOL     OW20068   0.316   2.631   3.376
 6390SOL    HW120069   0.280   2.687   3.302
 6390SOL    HW220070   0.399   2.674   3.412
 6391SOL     OW20071   3.068   1.887   0.244
 6391SOL    HW120072   3.145   1.934   0.288
 6391SOL    HW220073   2.992   1.880   0.309
 6392SOL     OW20074   2.037   6.727   3.414
 6392SOL    HW120075   1.985   6.804   3.452
 6392SOL    HW220076   2.135   6.745   3.423
 6393SOL     OW20077   6.130   6.740   1.056
 6393SOL    HW120078   6.103   6.692   0.972
 6393SOL    HW220079   6.229   6.752   1.057
 6394SOL     OW20080   2.574   5.160   1.022
 6394SOL    HW120081   2.524   5.075   1.006
 6394SOL    HW220082   2.659   5.140   1.071
 6395SOL     OW20083   5.941   1.356   1.087
 6395SOL    HW120084   5.982   1.413   1.159
 6395SOL    HW220085   5.964   1.394   0.998
 6396SOL     OW20086   4.849   2.747   5.861
 6396SOL    HW120087   4.788   2.823   5.885
 6396SOL    HW220088   4.858   2.687   5.940
 6397SOL     OW20089   0.263   2.220   0.057
 6397SOL    HW120090   0.252   2.318   0.044
 6397SOL    HW220091   0.343   2.188   0.006
 6398SOL     OW20092   2.558   1.195   1.999
 6398SOL    HW120093   2.646   1.238   1.976
 6398SOL    HW220094   2.533   1.219   2.093
 6399SOL     OW20095   1.769   5.698   0.175
 6399SOL    HW120096   1.813   5.657   0.095
 6399SOL    HW220097   1.703   5.767   0.146
 6400SOL     OW20098   2.562   5.447   3.739
 6400SOL    HW120099   2.651   5.408   3.764
 6400SOL    HW220100   2.490   5.395   3.784
 6401SOL     OW20101   0.154   4.817   3.185
 6401SOL    HW120102   0.227   4.885   3.187
 6401SOL    HW220103   0.154   4.765   3.270
 6402SOL     OW20104   3.012   0.695   2.955
 6402SOL    HW120105   2.917   0.717   2.932
 6402SOL    HW220106   3.068   0.778   2.948
 6403SOL     OW20107   1.427   4.093   6.844
 6403SOL    HW120108   1.518   4.102   6.805
 6403SOL    HW220109   1.378   4.180   6.836
 6404SOL     OW20110   4.123   1.960   3.256
 6404SOL    HW120111   4.093   1.957   3.161
 6404SOL    HW220112   4.058   1.910   3.313
 6405SOL     OW20113   2.172   1.870   2.696
 6405SOL    HW120114   2.211   1.882   2.787
 6405SOL    HW220115   2.221   1.796   2.648
 6406SOL     OW20116   2.306   1.161   3.882
 6406SOL    HW120117   2.361   1.206   3.952
 6406SOL    HW220118   2.210   1.164   3.909
 6407SOL     OW20119   3.261   6.316   4.905
 6407SOL    HW120120   3.272   6.285   4.810
 6407SOL    HW220121   3.170   6.292   4.937
 6408SOL     OW20122   5.986   1.529   6.514
 6408SOL    HW120123   5.980   1.521   6.415
 6408SOL    HW220124   5.900   1.498   6.555
 6409SOL     OW20125   6.577   3.476   3.100
 6409SOL    HW120126   6.643   3.432   3.040
 6409SOL    HW220127   6.560   3.570   3.068
 6410SOL     OW20128   1.583   1.737   0.497
 6410SOL    HW120129   1.522   1.736   0.418
 6410SOL    HW220130   1.629   1.649   0.505
 6411SOL     OW20131   0.921   1.032   3.736
 6411SOL    HW120132   1.006   1.034   3.684
 6411SOL    HW220133   0.855   1.096   3.695
 6412SOL     OW20134   0.048   2.710   5.426
 6412SOL    HW120135   0.034   2.674   5.517
 6412SOL    HW220136   0.137   2.679   5.390
 6413SOL     OW20137   6.296   5.300   1.969
 6413SOL    HW120138   6.249   5.271   1.885
 6413SOL    HW220139   6.233   5.352   2.026
 6414SOL     OW20140   6.219   0.463   1.181
 6414SOL    HW120141   6.276   0.386   1.211
 6414SOL    HW220142   6.202   0.456   1.083
 6415SOL     OW20143   1.682   2.313   2.156
 6415SOL    HW120144   1.583   2.314   2.144
 6415SOL    HW220145   1.727   2.325   2.067
 6416SOL     OW20146   1.135   6.926   6.757
 6416SOL    HW120147   1.121   6.871   6.839
 6416SOL    HW220148   1.211   6.889   6.704
 6417SOL     OW20149   0.725   0.025   3.461
 6417SOL    HW120150   0.642   0.079   3.445
 6417SOL    HW220151   0.783   0.071   3.528
 6418SOL     OW20152   6.721   5.247   2.267
 6418SOL    HW120153   6.765   5.307   2.335
 6418SOL    HW220154   6.742   5.280   2.175
 6419SOL     OW20155   3.661   4.989   1.819
 6419SOL    HW120156   3.651   4.902   1.868
 6419SOL    HW220157   3.699   4.972   1.728
 6420SOL     OW20158   3.068   3.338   6.364
 6420SOL    HW120159   3.138   3.269   6.346
 6420SOL    HW220160   3.102   3.402   6.433
 6421SOL     OW20161   5.573   0.696   1.555
 6421SOL    HW120162   5.640   0.625   1.533
 6421SOL    HW220163   5.519   0.668   1.634
 6422SOL     OW20164   6.711   0.621   2.917
 6422SOL    HW120165   6.731   0.674   2.835
 6422SOL    HW220166   6.637   0.664   2.969
 6423SOL     OW20167   4.835   3.176   1.385
 6423SOL    HW120168   4.768   3.102   1.375
 6423SOL    HW220169   4.829   3.236   1.306
 6424SOL     OW20170   6.143   3.628   6.189
 6424SOL    HW120171   6.175   3.539   6.220
 6424SOL    HW220172   6.130   3.689   6.267
 6425SOL     OW20173   0.227   4.733   2.717
 6425SOL    HW120174   0.248   4.692   2.805
 6425SOL    HW220175   0.224   4.833   2.726
 6426SOL     OW20176   1.348   2.391   3.559
 6426SOL    HW120177   1.366   2.473   3.613
 6426SOL    HW220178   1.334   2.416   3.463
 6427SOL     OW20179   1.167   3.561   5.718
 6427SOL    HW120180   1.228   3.589   5.644
 6427SOL    HW220181   1.074   3.588   5.697
 6428SOL     OW20182   6.767   4.033   2.200
 6428SOL    HW120183   6.762   3.980   2.115
 6428SOL    HW220184   6.861   4.033   2.234
 6429SOL     OW20185   1.746   1.051   4.568
 6429SOL    HW120186   1.683   0.994   4.515
 6429SOL    HW220187   1.782   0.998   4.645
 6430SOL     OW20188   5.342   1.149   1.424
 6430SOL    HW120189   5.397   1.175   1.345
 6430SOL    HW220190   5.402   1.134   1.503
 6431SOL     OW20191   4.736   6.338   3.386
 6431SOL    HW120192   4.694   6.351   3.476
 6431SOL    HW220193   4.683   6.387   3.317
 6432SOL     OW20194   4.684   3.611   0.910
 6432SOL    HW120195   4.593   3.579   0.937
 6432SOL    HW220196   4.749   3.591   0.983
 6433SOL     OW20197   3.144   4.383   1.107
 6433SOL    HW120198   3.106   4.317   1.171
 6433SOL    HW220199   3.087   4.386   1.025
 6434SOL     OW20200   0.887   3.947   1.120
 6434SOL    HW120201   0.901   3.948   1.021
 6434SOL    HW220202   0.828   3.869   1.144
 6435SOL     OW20203   4.095   4.734   6.997
 6435SOL    HW120204   4.135   4.717   0.063
 6435SOL    HW220205   3.995   4.742   7.005
 6436SOL     OW20206   2.136   3.246   3.436
 6436SOL    HW120207   2.210   3.214   3.495
 6436SOL    HW220208   2.055   3.188   3.449
 6437SOL     OW20209   0.931   0.379   6.926
 6437SOL    HW120210   0.832   0.387   6.928
 6437SOL    HW220211   0.958   0.310   6.858
 6438SOL     OW20212   0.949   3.741   4.573
 6438SOL    HW120213   0.906   3.695   4.651
 6438SOL    HW220214   1.001   3.675   4.519
 6439SOL     OW20215   1.155   6.764   0.720
 6439SOL    HW120216   1.095   6.793   0.795
 6439SOL    HW220217   1.099   6.726   0.646
 6440SOL     OW20218   1.304   2.143   2.272
 6440SOL    HW120219   1.361   2.062   2.257
 6440SOL    HW220220   1.348   2.203   2.339
 6441SOL     OW20221   1.970   1.049   3.366
 6441SOL    HW120222   2.034   1.083   3.436
 6441SOL    HW220223   1.983   1.100   3.281
 6442SOL     OW20224   2.301   1.801   4.326
 6442SOL    HW120225   2.316   1.868   4.252
 6442SOL    HW220226   2.251   1.845   4.400
 6443SOL     OW20227   2.726   3.235   0.873
 6443SOL    HW120228   2.696   3.167   0.940
 6443SOL    HW220229   2.826   3.244   0.877
 6444SOL     OW20230   0.591   1.668   2.875
 6444SOL    HW120231   0.511   1.673   2.815
 6444SOL    HW220232   0.593   1.747   2.936
 6445SOL     OW20233   4.207   2.734   5.381
 6445SOL    HW120234   4.158   2.681   5.312
 6445SOL    HW220235   4.191   2.695   5.471
 6446SOL     OW20236   6.643   1.307   6.203
 6446SOL    HW120237   6.643   1.362   6.120
 6446SOL    HW220238   6.736   1.282   6.228
 6447SOL     OW20239   2.282   6.217   2.539
 6447SOL    HW120240   2.266   6.316   2.531
 6447SOL    HW220241   2.199   6.172   2.570
 6448SOL     OW20242   6.399   3.014   2.890
 6448SOL    HW120243   6.439   3.068   2.964
 6448SOL    HW220244   6.471   2.986   2.827
 6449SOL     OW20245   3.642   4.095   1.527
 6449SOL    HW120246   3.591   4.058   1.449
 6449SOL    HW220247   3.687   4.180   1.499
 6450SOL     OW20248   6.509   3.447   1.360
 6450SOL    HW120249   6.591   3.390   1.365
 6450SOL    HW220250   6.429   3.393   1.387
 6451SOL     OW20251   2.968   6.036   5.118
 6451SOL    HW120252   2.872   6.015   5.101
 6451SOL    HW220253   2.990   6.126   5.080
 6452SOL     OW20254   3.434   0.035   4.923
 6452SOL    HW120255   3.484   0.109   4.879
 6452SOL    HW220256   3.498   6.996   4.967
 6453SOL     OW20257   1.646   6.620   0.512
 6453SOL    HW120258   1.720   6.665   0.464
 6453SOL    HW220259   1.681   6.580   0.597
 6454SOL     OW20260   2.917   2.020   4.141
 6454SOL    HW120261   2.946   1.943   4.199
 6454SOL    HW220262   2.997   2.073   4.114
 6455SOL     OW20263   0.082   3.206   5.009
 6455SOL    HW120264   0.010   3.142   4.982
 6455SOL    HW220265   0.067   3.234   5.104
 6456SOL     OW20266   1.188   0.661   3.428
 6456SOL    HW120267   1.106   0.715   3.406
 6456SOL    HW220268   1.250   0.663   3.350
 6457SOL     OW20269   6.619   2.527   1.663
 6457SOL    HW120270   6.531   2.482   1.649
 6457SOL    HW220271   6.607   2.604   1.727
 6458SOL     OW20272   1.450   5.557   2.850
 6458SOL    HW120273   1.544   5.528   2.866
 6458SOL    HW220274   1.447   5.657   2.845
 6459SOL     OW20275   6.501   4.768   6.914
 6459SOL    HW120276   6.524   4.768   6.816
 6459SOL    HW220277   6.534   4.852   6.956
 6460SOL     OW20278   4.363   4.296   6.707
 6460SOL    HW120279   4.316   4.270   6.791
 6460SOL    HW220280   4.295   4.319   6.637
 6461SOL     OW20281   2.669   5.449   5.599
 6461SOL    HW120282   2.594   5.447   5.664
 6461SOL    HW220283   2.756   5.443   5.648
 6462SOL     OW20284   2.219   3.189   5.232
 6462SOL    HW120285   2.276   3.124   5.183
 6462SOL    HW220286   2.160   3.237   5.167
 6463SOL     OW20287   2.713   5.196   6.283
 6463SOL    HW120288   2.662   5.277   6.311
 6463SOL    HW220289   2.770   5.164   6.358
 6464SOL     OW20290   0.270   5.009   3.466
 6464SOL    HW120291   0.346   5.021   3.529
 6464SOL    HW220292   0.187   4.987   3.517
 6465SOL     OW20293   5.890   2.031   3.998
 6465SOL    HW120294   5.965   1.967   4.010
 6465SOL    HW220295   5.900   2.077   3.910
 6466SOL     OW20296   0.406   2.535   5.218
 6466SOL    HW120297   0.446   2.572   5.302
 6466SOL    HW220298   0.383   2.610   5.156
 6467SOL     OW20299   2.287   1.215   6.802
 6467SOL    HW120300   2.335   1.303   6.805
 6467SOL    HW220301   2.190   1.229   6.822
 6468SOL     OW20302   4.798   6.270   1.791
 6468SOL    HW120303   4.772   6.322   1.873
 6468SOL    HW220304   4.757   6.179   1.795
 6469SOL     OW20305   6.779   1.065   4.715
 6469SOL    HW120306   6.783   1.071   4.815
 6469SOL    HW220307   6.754   0.972   4.689
 6470SOL     OW20308   6.388   6.331   5.674
 6470SOL    HW120309   6.456   6.404   5.684
 6470SOL    HW220310   6.417   6.252   5.728
 6471SOL     OW20311   6.979   5.076   6.274
 6471SOL    HW120312   6.879   5.080   6.271
 6471SOL    HW220313   7.013   5.024   6.195
 6472SOL     OW20314   0.641   5.853   1.706
 6472SOL    HW120315   0.603   5.822   1.618
 6472SOL    HW220316   0.689   5.939   1.693
 6473SOL     OW20317   2.048   1.256   6.066
 6473SOL    HW120318   1.959   1.294   6.091
 6473SOL    HW220319   2.118   1.291   6.128
 6474SOL     OW20320   1.122   3.466   6.224
 6474SOL    HW120321   1.120   3.559   6.186
 6474SOL    HW220322   1.091   3.401   6.154
 6475SOL     OW20323   5.664   6.419   3.469
 6475SOL    HW120324   5.662   6.371   3.557
 6475SOL    HW220325   5.571   6.450   3.447
 6476SOL     OW20326   4.234   4.703   3.407
 6476SOL    HW120327   4.158   4.759   3.377
 6476SOL    HW220328   4.200   4.617   3.444
 6477SOL     OW20329   6.628   5.440   6.705
 6477SOL    HW120330   6.613   5.361   6.764
 6477SOL    HW220331   6.726   5.453   6.690
 6478SOL     OW20332   4.315   5.808   2.214
 6478SOL    HW120333   4.258   5.736   2.254
 6478SOL    HW220334   4.256   5.878   2.173
 6479SOL     OW20335   4.850   4.837   1.951
 6479SOL    HW120336   4.873   4.740   1.948
 6479SOL    HW220337   4.914   4.888   1.895
 6480SOL     OW20338   3.099   2.743   6.209
 6480SOL    HW120339   3.179   2.763   6.153
 6480SOL    HW220340   3.106   2.790   6.296
 6481SOL     OW20341   3.708   1.449   1.790
 6481SOL    HW120342   3.659   1.530   1.760
 6481SOL    HW220343   3.668   1.368   1.748
 6482SOL     OW20344   6.515   6.970   6.969
 6482SOL    HW120345   6.503   6.939   0.039
 6482SOL    HW220346   6.427   7.004   6.934
 6483SOL     OW20347   2.136   6.469   2.497
 6483SOL    HW120348   2.208   6.537   2.485
 6483SOL    HW220349   2.100   6.444   2.407
 6484SOL     OW20350   4.927   0.005   2.553
 6484SOL    HW120351   4.855   0.050   2.606
 6484SOL    HW220352   4.960   6.950   2.604
 6485SOL     OW20353   2.018   2.855   4.019
 6485SOL    HW120354   1.962   2.778   4.051
 6485SOL    HW220355   1.960   2.924   3.976
 6486SOL     OW20356   1.042   3.589   4.161
 6486SOL    HW120357   0.962   3.606   4.104
 6486SOL    HW220358   1.013   3.565   4.254
 6487SOL     OW20359   6.136   6.751   4.039
 6487SOL    HW120360   6.120   6.660   4.077
 6487SOL    HW220361   6.076   6.766   3.961
 6488SOL     OW20362   2.754   5.667   5.904
 6488SOL    HW120363   2.672   5.615   5.926
 6488SOL    HW220364   2.775   5.730   5.979
 6489SOL     OW20365   1.870   2.021   6.431
 6489SOL    HW120366   1.814   2.101   6.452
 6489SOL    HW220367   1.934   2.004   6.506
 6490SOL     OW20368   3.840   2.764   0.565
 6490SOL    HW120369   3.906   2.693   0.539
 6490SOL    HW220370   3.750   2.740   0.530
 6491SOL     OW20371   4.723   1.176   6.466
 6491SOL    HW120372   4.664   1.245   6.510
 6491SOL    HW220373   4.812   1.217   6.447
 6492SOL     OW20374   6.533   6.523   0.179
 6492SOL    HW120375   6.444   6.534   0.223
 6492SOL    HW220376   6.600   6.496   0.248
 6493SOL     OW20377   2.108   6.392   6.179
 6493SOL    HW120378   2.128   6.477   6.228
 6493SOL    HW220379   2.125   6.405   6.081
 6494SOL     OW20380   1.443   0.069   3.639
 6494SOL    HW120381   1.448   0.090   3.541
 6494SOL    HW220382   1.431   0.154   3.690
 6495SOL     OW20383   5.225   5.477   3.161
 6495SOL    HW120384   5.157   5.403   3.159
 6495SOL    HW220385   5.310   5.445   3.118
 6496SOL     OW20386   0.290   6.339   1.533
 6496SOL    HW120387   0.246   6.265   1.481
 6496SOL    HW220388   0.367   6.375   1.480
 6497SOL     OW20389   2.121   3.680   0.994
 6497SOL    HW120390   2.060   3.616   1.041
 6497SOL    HW220391   2.116   3.769   1.037
 6498SOL     OW20392   1.617   4.189   4.358
 6498SOL    HW120393   1.692   4.243   4.396
 6498SOL    HW220394   1.622   4.095   4.392
 6499SOL     OW20395   4.719   1.058   4.898
 6499SOL    HW120396   4.792   0.993   4.918
 6499SOL    HW220397   4.668   1.028   4.818
 6500SOL     OW20398   6.078   4.090   3.424
 6500SOL    HW120399   6.070   4.102   3.522
 6500SOL    HW220400   6.027   4.008   3.396
 6501SOL     OW20401   5.948   3.756   1.103
 6501SOL    HW120402   6.003   3.683   1.144
 6501SOL    HW220403   5.934   3.829   1.171
 6502SOL     OW20404   0.922   4.693   3.871
 6502SOL    HW120405   0.973   4.637   3.936
 6502SOL    HW220406   0.844   4.641   3.835
 6503SOL     OW20407   5.967   6.282   3.343
 6503SOL    HW120408   6.036   6.216   3.313
 6503SOL    HW220409   5.922   6.321   3.262
 6504SOL     OW20410   3.967   0.887   7.005
 6504SOL    HW120411   3.909   0.869   0.061
 6504SOL    HW220412   4.005   0.800   6.972
 6505SOL     OW20413   5.985   4.831   0.467
 6505SOL    HW120414   5.930   4.754   0.500
 6505SOL    HW220415   6.003   4.819   0.369
 6506SOL     OW20416   1.221   3.165   1.255
 6506SOL    HW120417   1.290   3.232   1.229
 6506SOL    HW220418   1.155   3.155   1.180
 6507SOL     OW20419   2.165   5.988   1.705
 6507SOL    HW120420   2.154   5.913   1.771
 6507SOL    HW220421   2.074   6.022   1.679
 6508SOL     OW20422   2.293   2.081   3.447
 6508SOL    HW120423   2.196   2.056   3.447
 6508SOL    HW220424   2.348   2.001   3.422
 6509SOL     OW20425   1.583   2.306   4.534
 6509SOL    HW120426   1.566   2.328   4.630
 6509SOL    HW220427   1.657   2.364   4.499
 6510SOL     OW20428   6.766   4.978   6.663
 6510SOL    HW120429   6.681   5.025   6.640
 6510SOL    HW220430   6.843   5.043   6.658
 6511SOL     OW20431   6.394   6.854   5.730
 6511SOL    HW120432   6.468   6.895   5.784
 6511SOL    HW220433   6.404   6.754   5.731
 6512SOL     OW20434   4.692   6.600   2.770
 6512SOL    HW120435   4.688   6.692   2.810
 6512SOL    HW220436   4.630   6.594   2.692
 6513SOL     OW20437   3.868   6.734   3.736
 6513SOL    HW120438   3.880   6.708   3.832
 6513SOL    HW220439   3.785   6.692   3.700
 6514SOL     OW20440   4.763   0.452   4.467
 6514SOL    HW120441   4.830   0.475   4.537
 6514SOL    HW220442   4.744   0.534   4.412
 6515SOL     OW20443   6.916   6.257   4.070
 6515SOL    HW120444   6.819   6.269   4.054
 6515SOL    HW220445   6.945   6.314   4.147
 6516SOL     OW20446   1.053   1.968   6.217
 6516SOL    HW120447   1.082   2.050   6.266
 6516SOL    HW220448   1.106   1.890   6.248
 6517SOL     OW20449   0.679   1.761   0.342
 6517SOL    HW120450   0.644   1.851   0.367
 6517SOL    HW220451   0.604   1.703   0.310
 6518SOL     OW20452   0.961   6.601   1.315
 6518SOL    HW120453   0.987   6.511   1.281
 6518SOL    HW220454   0.938   6.661   1.238
 6519SOL     OW20455   2.038   1.314   4.265
 6519SOL    HW120456   2.123   1.363   4.284
 6519SOL    HW220457   1.966   1.380   4.244
 6520SOL     OW20458   6.374   5.772   2.181
 6520SOL    HW120459   6.355   5.704   2.252
 6520SOL    HW220460   6.436   5.732   2.113
 6521SOL     OW20461   0.609   1.682   4.813
 6521SOL    HW120462   0.585   1.777   4.837
 6521SOL    HW220463   0.547   1.651   4.740
 6522SOL     OW20464   2.500   5.556   6.689
 6522SOL    HW120465   2.480   5.458   6.699
 6522SOL    HW220466   2.415   5.607   6.685
 6523SOL     OW20467   2.053   1.722   6.826
 6523SOL    HW120468   2.090   1.666   6.752
 6523SOL    HW220469   2.120   1.726   6.901
 6524SOL     OW20470   3.862   3.534   4.060
 6524SOL    HW120471   3.788   3.601   4.062
 6524SOL    HW220472   3.937   3.569   4.003
 6525SOL     OW20473   0.747   2.641   2.785
 6525SOL    HW120474   0.802   2.578   2.730
 6525SOL    HW220475   0.650   2.624   2.769
 6526SOL     OW20476   1.121   6.000   5.056
 6526SOL    HW120477   1.112   5.919   5.114
 6526SOL    HW220478   1.177   6.069   5.102
 6527SOL     OW20479   1.259   6.623   4.906
 6527SOL    HW120480   1.198   6.651   4.833
 6527SOL    HW220481   1.294   6.704   4.954
 6528SOL     OW20482   0.874   0.798   4.414
 6528SOL    HW120483   0.859   0.811   4.512
 6528SOL    HW220484   0.810   0.855   4.362
 6529SOL     OW20485   5.917   1.721   2.054
 6529SOL    HW120486   5.837   1.775   2.027
 6529SOL    HW220487   5.973   1.702   1.973
 6530SOL     OW20488   6.742   2.449   0.139
 6530SOL    HW120489   6.785   2.457   0.229
 6530SOL    HW220490   6.715   2.354   0.124
 6531SOL     OW20491   5.583   2.574   4.025
 6531SOL    HW120492   5.587   2.589   4.124
 6531SOL    HW220493   5.539   2.653   3.982
 6532SOL     OW20494   6.284   1.452   6.539
 6532SOL    HW120495   6.184   1.444   6.548
 6532SOL    HW220496   6.307   1.456   6.442
 6533SOL     OW20497   5.230   6.489   0.529
 6533SOL    HW120498   5.157   6.511   0.464
 6533SOL    HW220499   5.285   6.571   0.546
 6534SOL     OW20500   2.219   3.704   1.439
 6534SOL    HW120501   2.260   3.639   1.375
 6534SOL    HW220502   2.252   3.686   1.531
 6535SOL     OW20503   0.400   3.422   4.755
 6535SOL    HW120504   0.365   3.463   4.839
 6535SOL    HW220505   0.379   3.324   4.754
 6536SOL     OW20506   5.780   1.478   0.302
 6536SOL    HW120507   5.688   1.441   0.312
 6536SOL    HW220508   5.804   1.482   0.205
 6537SOL     OW20509   0.088   0.127   6.968
 6537SOL    HW120510   0.164   0.135   6.902
 6537SOL    HW220511   0.019   0.066   6.931
 6538SOL     OW20512   3.350   4.161   0.262
 6538SOL    HW120513   3.350   4.186   0.359
 6538SOL    HW220514   3.299   4.076   0.250
 6539SOL     OW20515   2.166   1.548   6.617
 6539SOL    HW120516   2.223   1.570   6.538
 6539SOL    HW220517   2.111   1.467   6.596
 6540SOL     OW20518   3.776   0.427   4.463
 6540SOL    HW120519   3.679   0.430   4.438
 6540SOL    HW220520   3.801   0.513   4.509
 6541SOL     OW20521   3.398   2.342   5.773
 6541SOL    HW120522   3.413   2.274   5.700
 6541SOL    HW220523   3.315   2.319   5.823
 6542SOL     OW20524   6.549   4.864   3.448
 6542SOL    HW120525   6.483   4.846   3.375
 6542SOL    HW220526   6.582   4.958   3.442
 6543SOL     OW20527   6.202   5.837   6.824
 6543SOL    HW120528   6.208   5.937   6.824
 6543SOL    HW220529   6.247   5.801   6.743
 6544SOL     OW20530   6.995   6.335   3.836
 6544SOL    HW120531   6.955   6.296   3.919
 6544SOL    HW220532   6.924   6.348   3.768
 6545SOL     OW20533   5.035   1.581   5.782
 6545SOL    HW120534   5.129   1.609   5.765
 6545SOL    HW220535   4.976   1.661   5.787
 6546SOL     OW20536   3.333   5.375   5.958
 6546SOL    HW120537   3.287   5.399   5.873
 6546SOL    HW220538   3.414   5.432   5.969
 6547SOL     OW20539   5.391   2.668   6.464
 6547SOL    HW120540   5.373   2.724   6.383
 6547SOL    HW220541   5.321   2.685   6.533
 6548SOL     OW20542   6.286   4.588   5.889
 6548SOL    HW120543   6.235   4.583   5.975
 6548SOL    HW220544   6.285   4.498   5.845
 6549SOL     OW20545   3.835   2.128   0.788
 6549SOL    HW120546   3.886   2.071   0.852
 6549SOL    HW220547   3.887   2.138   0.703
 6550SOL     OW20548   1.035   5.715   3.542
 6550SOL    HW120549   1.000   5.770   3.466
 6550SOL    HW220550   1.130   5.690   3.524
 6551SOL     OW20551   1.802   4.983   1.713
 6551SOL    HW120552   1.717   5.014   1.755
 6551SOL    HW220553   1.873   5.052   1.730
 6552SOL     OW20554   2.657   4.821   5.707
 6552SOL    HW120555   2.718   4.900   5.715
 6552SOL    HW220556   2.712   4.737   5.707
 6553SOL     OW20557   0.519   3.187   1.910
 6553SOL    HW120558   0.446   3.123   1.889
 6553SOL    HW220559   0.489   3.252   1.979
 6554SOL     OW20560   6.357   2.182   6.013
 6554SOL    HW120561   6.318   2.246   6.079
 6554SOL    HW220562   6.404   2.108   6.061
 6555SOL     OW20563   1.637   1.191   2.263
 6555SOL    HW120564   1.717   1.247   2.237
 6555SOL    HW220565   1.571   1.249   2.311
 6556SOL     OW20566   4.543   5.286   4.936
 6556SOL    HW120567   4.603   5.253   4.864
 6556SOL    HW220568   4.451   5.299   4.899
 6557SOL     OW20569   6.296   5.317   0.342
 6557SOL    HW120570   6.314   5.263   0.425
 6557SOL    HW220571   6.201   5.348   0.343
 6558SOL     OW20572   6.243   5.999   0.114
 6558SOL    HW120573   6.217   6.080   0.060
 6558SOL    HW220574   6.279   6.028   0.203
 6559SOL     OW20575   5.151   3.770   1.478
 6559SOL    HW120576   5.246   3.800   1.486
 6559SOL    HW220577   5.148   3.675   1.446
 6560SOL     OW20578   3.541   3.170   0.893
 6560SOL    HW120579   3.546   3.113   0.975
 6560SOL    HW220580   3.445   3.195   0.876
 6561SOL     OW20581   3.671   4.062   2.685
 6561SOL    HW120582   3.572   4.067   2.677
 6561SOL    HW220583   3.708   4.003   2.613
 6562SOL     OW20584   6.305   5.000   5.959
 6562SOL    HW120585   6.256   4.927   5.910
 6562SOL    HW220586   6.375   4.959   6.017
 6563SOL     OW20587   0.364   5.922   0.494
 6563SOL    HW120588   0.289   5.987   0.486
 6563SOL    HW220589   0.442   5.965   0.539
 6564SOL     OW20590   1.030   4.126   2.198
 6564SOL    HW120591   1.111   4.067   2.201
 6564SOL    HW220592   1.023   4.168   2.107
 6565SOL     OW20593   6.473   2.835   4.680
 6565SOL    HW120594   6.450   2.876   4.768
 6565SOL    HW220595   6.389   2.803   4.636
 6566SOL     OW20596   3.256   6.663   1.178
 6566SOL    HW120597   3.353   6.675   1.158
 6566SOL    HW220598   3.207   6.747   1.158
 6567SOL     OW20599   4.948   3.062   0.747
 6567SOL    HW120600   4.965   3.012   0.832
 6567SOL    HW220601   5.035   3.094   0.710
 6568SOL     OW20602   4.246   4.571   1.622
 6568SOL    HW120603   4.293   4.585   1.709
 6568SOL    HW220604   4.258   4.476   1.593
 6569SOL     OW20605   2.038   5.111   0.629
 6569SOL    HW120606   1.993   5.022   0.620
 6569SOL    HW220607   1.989   5.167   0.694
 6570SOL     OW20608   5.531   1.137   1.611
 6570SOL    HW120609   5.610   1.169   1.558
 6570SOL    HW220610   5.550   1.148   1.709
 6571SOL     OW20611   2.110   5.991   3.525
 6571SOL    HW120612   2.085   6.087   3.538
 6571SOL    HW220613   2.209   5.983   3.518
 6572SOL     OW20614   6.685   3.984   5.285
 6572SOL    HW120615   6.753   3.932   5.337
 6572SOL    HW220616   6.610   3.923   5.257
 6573SOL     OW20617   3.106   0.977   2.034
 6573SOL    HW120618   3.113   0.961   2.133
 6573SOL    HW220619   3.192   1.013   1.999
 6574SOL     OW20620   2.677   5.090   2.487
 6574SOL    HW120621   2.651   5.146   2.566
 6574SOL    HW220622   2.602   5.029   2.463
 6575SOL     OW20623   1.090   1.547   1.931
 6575SOL    HW120624   1.066   1.450   1.933
 6575SOL    HW220625   1.132   1.573   2.018
 6576SOL     OW20626   1.328   5.855   6.814
 6576SOL    HW120627   1.247   5.912   6.831
 6576SOL    HW220628   1.335   5.786   6.886
 6577SOL     OW20629   1.093   1.628   3.726
 6577SOL    HW120630   1.177   1.610   3.674
 6577SOL    HW220631   1.039   1.698   3.678
 6578SOL     OW20632   6.046   5.603   3.532
 6578SOL    HW120633   5.963   5.653   3.557
 6578SOL    HW220634   6.080   5.552   3.611
 6579SOL     OW20635   6.956   4.546   3.486
 6579SOL    HW120636   6.935   4.455   3.523
 6579SOL    HW220637   6.875   4.604   3.491
 6580SOL     OW20638   5.331   0.522   1.438
 6580SOL    HW120639   5.263   0.492   1.505
 6580SOL    HW220640   5.399   0.581   1.482
 6581SOL     OW20641   4.434   2.280   6.825
 6581SOL    HW120642   4.338   2.261   6.845
 6581SOL    HW220643   4.486   2.195   6.827
 6582SOL     OW20644   0.221   6.913   2.937
 6582SOL    HW120645   0.160   6.929   3.015
 6582SOL    HW220646   0.235   6.999   2.889
 6583SOL     OW20647   5.529   1.224   5.941
 6583SOL    HW120648   5.463   1.297   5.960
 6583SOL    HW220649   5.480   1.136   5.939
 6584SOL     OW20650   6.013   1.541   6.895
 6584SOL    HW120651   6.098   1.591   6.880
 6584SOL    HW220652   5.941   1.580   6.837
 6585SOL     OW20653   0.377   1.714   6.858
 6585SOL    HW120654   0.445   1.729   6.786
 6585SOL    HW220655   0.423   1.709   6.947
 6586SOL     OW20656   6.789   1.779   5.866
 6586SOL    HW120657   6.767   1.743   5.957
 6586SOL    HW220658   6.721   1.746   5.801
 6587SOL     OW20659   1.873   5.783   4.085
 6587SOL    HW120660   1.856   5.843   4.163
 6587SOL    HW220661   1.906   5.836   4.007
 6588SOL     OW20662   1.264   2.809   0.178
 6588SOL    HW120663   1.172   2.772   0.193
 6588SOL    HW220664   1.282   2.813   0.080
 6589SOL     OW20665   4.832   1.250   6.069
 6589SOL    HW120666   4.787   1.166   6.098
 6589SOL    HW220667   4.770   1.327   6.086
 6590SOL     OW20668   0.246   1.434   4.732
 6590SOL    HW120669   0.185   1.508   4.702
 6590SOL    HW220670   0.260   1.370   4.657
 6591SOL     OW20671   5.788   6.646   2.801
 6591SOL    HW120672   5.698   6.614   2.770
 6591SOL    HW220673   5.834   6.693   2.725
 6592SOL     OW20674   4.666   0.177   4.508
 6592SOL    HW120675   4.707   0.267   4.490
 6592SOL    HW220676   4.627   0.177   4.600
 6593SOL     OW20677   3.289   2.091   3.599
 6593SOL    HW120678   3.258   2.140   3.680
 6593SOL    HW220679   3.385   2.113   3.582
 6594SOL     OW20680   4.979   0.856   6.371
 6594SOL    HW120681   5.005   0.816   6.458
 6594SOL    HW220682   4.882   0.840   6.354
 6595SOL     OW20683   1.515   3.481   0.699
 6595SOL    HW120684   1.499   3.506   0.794
 6595SOL    HW220685   1.429   3.491   0.647
 6596SOL     OW20686   4.750   0.145   5.651
 6596SOL    HW120687   4.771   0.240   5.628
 6596SOL    HW220688   4.731   0.093   5.568
 6597SOL     OW20689   6.787   6.527   4.483
 6597SOL    HW120690   6.804   6.560   4.576
 6597SOL    HW220691   6.749   6.434   4.487
 6598SOL     OW20692   1.489   5.675   5.017
 6598SOL    HW120693   1.518   5.580   5.032
 6598SOL    HW220694   1.513   5.703   4.924
 6599SOL     OW20695   4.061   5.292   6.374
 6599SOL    HW120696   4.005   5.346   6.311
 6599SOL    HW220697   4.142   5.259   6.327
 6600SOL     OW20698   4.570   5.757   4.515
 6600SOL    HW120699   4.613   5.845   4.533
 6600SOL    HW220700   4.604   5.689   4.580
 6601SOL     OW20701   0.590   1.027   0.568
 6601SOL    HW120702   0.675   1.073   0.543
 6601SOL    HW220703   0.587   0.938   0.524
 6602SOL     OW20704   0.493   1.993   1.440
 6602SOL    HW120705   0.529   1.900   1.449
 6602SOL    HW220706   0.440   2.017   1.521
 6603SOL     OW20707   1.569   3.711   3.218
 6603SOL    HW120708   1.649   3.701   3.277
 6603SOL    HW220709   1.552   3.624   3.171
 6604SOL     OW20710   2.978   5.623   2.331
 6604SOL    HW120711   2.941   5.665   2.249
 6604SOL    HW220712   2.922   5.544   2.357
 6605SOL     OW20713   5.562   5.808   0.154
 6605SOL    HW120714   5.636   5.867   0.185
 6605SOL    HW220715   5.502   5.787   0.231
 6606SOL     OW20716   5.215   0.738   2.478
 6606SOL    HW120717   5.312   0.730   2.454
 6606SOL    HW220718   5.186   0.833   2.469
 6607SOL     OW20719   1.658   1.532   2.318
 6607SOL    HW120720   1.698   1.598   2.381
 6607SOL    HW220721   1.730   1.484   2.268
 6608SOL     OW20722   5.398   3.666   3.734
 6608SOL    HW120723   5.400   3.715   3.821
 6608SOL    HW220724   5.491   3.642   3.707
 6609SOL     OW20725   5.674   1.263   0.035
 6609SOL    HW120726   5.625   1.203   0.098
 6609SOL    HW220727   5.628   1.263   6.970
 6610SOL     OW20728   1.884   0.518   0.564
 6610SOL    HW120729   1.936   0.472   0.492
 6610SOL    HW220730   1.802   0.465   0.585
 6611SOL     OW20731   6.415   2.442   3.232
 6611SOL    HW120732   6.324   2.461   3.198
 6611SOL    HW220733   6.458   2.370   3.177
 6612SOL     OW20734   1.608   6.351   0.134
 6612SOL    HW120735   1.649   6.402   0.058
 6612SOL    HW220736   1.548   6.280   0.099
 6613SOL     OW20737   5.117   5.740   3.074
 6613SOL    HW120738   5.148   5.649   3.100
 6613SOL    HW220739   5.017   5.743   3.077
 6614SOL     OW20740   5.402   5.366   6.148
 6614SOL    HW120741   5.426   5.288   6.090
 6614SOL    HW220742   5.306   5.362   6.172
 6615SOL     OW20743   0.386   3.192   5.514
 6615SOL    HW120744   0.357   3.278   5.556
 6615SOL    HW220745   0.462   3.209   5.451
 6616SOL     OW20746   4.728   1.643   5.425
 6616SOL    HW120747   4.700   1.690   5.509
 6616SOL    HW220748   4.657   1.578   5.399
 6617SOL     OW20749   2.542   6.773   4.393
 6617SOL    HW120750   2.615   6.779   4.325
 6617SOL    HW220751   2.581   6.750   4.482
 6618SOL     OW20752   0.747   4.328   1.659
 6618SOL    HW120753   0.677   4.360   1.723
 6618SOL    HW220754   0.834   4.371   1.681
 6619SOL     OW20755   4.533   6.736   3.442
 6619SOL    HW120756   4.535   6.683   3.527
 6619SOL    HW220757   4.620   6.783   3.430
 6620SOL     OW20758   1.255   2.922   5.910
 6620SOL    HW120759   1.346   2.920   5.949
 6620SOL    HW220760   1.229   2.831   5.878
 6621SOL     OW20761   2.597   4.091   0.357
 6621SOL    HW120762   2.506   4.131   0.364
 6621SOL    HW220763   2.637   4.113   0.268
 6622SOL     OW20764   6.388   6.384   0.616
 6622SOL    HW120765   6.423   6.442   0.542
 6622SOL    HW220766   6.438   6.405   0.701
 6623SOL     OW20767   4.019   3.119   2.843
 6623SOL    HW120768   4.076   3.201   2.838
 6623SOL    HW220769   3.984   3.098   2.752
 6624SOL     OW20770   3.862   5.618   4.867
 6624SOL    HW120771   3.847   5.570   4.953
 6624SOL    HW220772   3.785   5.603   4.806
 6625SOL     OW20773   6.298   0.687   6.432
 6625SOL    HW120774   6.227   0.756   6.442
 6625SOL    HW220775   6.388   0.731   6.430
 6626SOL     OW20776   3.433   5.429   3.178
 6626SOL    HW120777   3.509   5.487   3.207
 6626SOL    HW220778   3.346   5.477   3.192
 6627SOL     OW20779   1.923   0.978   6.184
 6627SOL    HW120780   1.916   1.077   6.192
 6627SOL    HW220781   1.971   0.954   6.100
 6628SOL     OW20782   4.432   4.890   2.765
 6628SOL    HW120783   4.494   4.813   2.752
 6628SOL    HW220784   4.390   4.884   2.855
 6629SOL     OW20785   3.139   6.040   1.252
 6629SOL    HW120786   3.211   6.073   1.191
 6629SOL    HW220787   3.181   6.003   1.335
 6630SOL     OW20788   3.129   2.043   0.023
 6630SOL    HW120789   3.081   2.015   6.964
 6630SOL    HW220790   3.078   2.011   0.103
 6631SOL     OW20791   5.480   0.749   2.438
 6631SOL    HW120792   5.485   0.733   2.339
 6631SOL    HW220793   5.554   0.699   2.484
 6632SOL     OW20794   6.918   1.246   0.342
 6632SOL    HW120795   6.963   1.334   0.328
 6632SOL    HW220796   6.846   1.255   0.411
 6633SOL     OW20797   1.759   6.255   0.358
 6633SOL    HW120798   1.731   6.305   0.276
 6633SOL    HW220799   1.684   6.198   0.391
 6634SOL     OW20800   6.400   3.118   5.850
 6634SOL    HW120801   6.432   3.027   5.878
 6634SOL    HW220802   6.316   3.141   5.899
 6635SOL     OW20803   4.560   5.502   3.496
 6635SOL    HW120804   4.554   5.571   3.424
 6635SOL    HW220805   4.586   5.545   3.582
 6636SOL     OW20806   1.587   2.671   4.595
 6636SOL    HW120807   1.639   2.756   4.581
 6636SOL    HW220808   1.517   2.686   4.665
 6637SOL     OW20809   0.816   0.461   0.682
 6637SOL    HW120810   0.857   0.527   0.745
 6637SOL    HW220811   0.806   0.503   0.591
 6638SOL     OW20812   1.610   5.707   5.795
 6638SOL    HW120813   1.535   5.720   5.860
 6638SOL    HW220814   1.573   5.670   5.709
 6639SOL     OW20815   6.092   4.578   6.525
 6639SOL    HW120816   6.141   4.578   6.612
 6639SOL    HW220817   6.097   4.487   6.484
 6640SOL     OW20818   0.192   2.244   3.357
 6640SOL    HW120819   0.145   2.327   3.387
 6640SOL    HW220820   0.239   2.203   3.435
 6641SOL     OW20821   3.080   3.861   6.435
 6641SOL    HW120822   3.005   3.900   6.381
 6641SOL    HW220823   3.163   3.859   6.379
 6642SOL     OW20824   1.701   5.034   6.561
 6642SOL    HW120825   1.699   4.946   6.609
 6642SOL    HW220826   1.792   5.050   6.525
 6643SOL     OW20827   5.971   3.916   6.141
 6643SOL    HW120828   5.911   3.893   6.065
 6643SOL    HW220829   6.062   3.937   6.106
 6644SOL     OW20830   2.797   4.911   1.777
 6644SOL    HW120831   2.860   4.922   1.854
 6644SOL    HW220832   2.754   4.820   1.781
 6645SOL     OW20833   6.668   4.456   6.210
 6645SOL    HW120834   6.734   4.516   6.255
 6645SOL    HW220835   6.641   4.496   6.123
 6646SOL     OW20836   3.379   5.589   4.665
 6646SOL    HW120837   3.297   5.606   4.721
 6646SOL    HW220838   3.352   5.575   4.570
 6647SOL     OW20839   3.590   0.634   2.063
 6647SOL    HW120840   3.536   0.671   1.988
 6647SOL    HW220841   3.616   0.539   2.042
 6648SOL     OW20842   4.512   5.975   2.764
 6648SOL    HW120843   4.469   5.911   2.701
 6648SOL    HW220844   4.608   5.987   2.739
 6649SOL     OW20845   4.773   2.047   6.445
 6649SOL    HW120846   4.806   2.114   6.512
 6649SOL    HW220847   4.752   1.961   6.492
 6650SOL     OW20848   3.973   1.152   4.056
 6650SOL    HW120849   4.043   1.221   4.037
 6650SOL    HW220850   3.917   1.181   4.133
 6651SOL     OW20851   0.744   2.189   0.215
 6651SOL    HW120852   0.817   2.252   0.187
 6651SOL    HW220853   0.747   2.107   0.158
 6652SOL     OW20854   0.001   5.486   1.652
 6652SOL    HW120855   7.007   5.388   1.660
 6652SOL    HW220856   0.081   5.501   1.593
 6653SOL     OW20857   3.207   4.075   3.017
 6653SOL    HW120858   3.303   4.055   2.996
 6653SOL    HW220859   3.149   4.042   2.943
 6654SOL     OW20860   2.165   3.413   1.634
 6654SOL    HW120861   2.206   3.419   1.543
 6654SOL    HW220862   2.227   3.450   1.702
 6655SOL     OW20863   3.161   6.782   2.172
 6655SOL    HW120864   3.090   6.714   2.151
 6655SOL    HW220865   3.191   6.825   2.087
 6656SOL     OW20866   6.640   1.263   1.246
 6656SOL    HW120867   6.636   1.361   1.267
 6656SOL    HW220868   6.659   1.251   1.148
 6657SOL     OW20869   3.938   6.742   6.090
 6657SOL    HW120870   3.939   6.690   6.175
 6657SOL    HW220871   3.960   6.838   6.109
 6658SOL     OW20872   5.913   1.258   4.968
 6658SOL    HW120873   5.950   1.298   5.051
 6658SOL    HW220874   5.871   1.329   4.911
 6659SOL     OW20875   2.871   3.572   0.146
 6659SOL    HW120876   2.938   3.552   0.075
 6659SOL    HW220877   2.782   3.535   0.120
 6660SOL     OW20878   0.023   6.655   2.286
 6660SOL    HW120879   6.959   6.609   2.271
 6660SOL    HW220880   0.006   6.746   2.324
 6661SOL     OW20881   6.486   5.585   3.651
 6661SOL    HW120882   6.386   5.582   3.644
 6661SOL    HW220883   6.513   5.561   3.744
 6662SOL     OW20884   2.130   0.907   0.328
 6662SOL    HW120885   2.191   0.828   0.325
 6662SOL    HW220886   2.172   0.985   0.281
 6663SOL     OW20887   0.280   5.721   1.794
 6663SOL    HW120888   0.346   5.667   1.743
 6663SOL    HW220889   0.274   5.687   1.888
 6664SOL     OW20890   1.195   0.269   2.629
 6664SOL    HW120891   1.219   0.361   2.597
 6664SOL    HW220892   1.265   0.237   2.693
 6665SOL     OW20893   2.055   5.994   2.948
 6665SOL    HW120894   2.018   6.080   2.912
 6665SOL    HW220895   2.146   5.979   2.910
 6666SOL     OW20896   6.441   1.572   5.190
 6666SOL    HW120897   6.529   1.570   5.144
 6666SOL    HW220898   6.369   1.600   5.126
 6667SOL     OW20899   6.426   5.792   4.746
 6667SOL    HW120900   6.419   5.760   4.651
 6667SOL    HW220901   6.413   5.715   4.808
 6668SOL     OW20902   0.642   4.751   2.033
 6668SOL    HW120903   0.632   4.803   2.117
 6668SOL    HW220904   0.737   4.755   2.001
 6669SOL     OW20905   2.725   5.143   4.032
 6669SOL    HW120906   2.786   5.101   4.099
 6669SOL    HW220907   2.641   5.088   4.025
 6670SOL     OW20908   3.525   4.876   6.937
 6670SOL    HW120909   3.530   4.910   0.007
 6670SOL    HW220910   3.473   4.940   6.880
 6671SOL     OW20911   6.640   4.214   5.972
 6671SOL    HW120912   6.597   4.151   5.907
 6671SOL    HW220913   6.739   4.200   5.971
 6672SOL     OW20914   1.076   0.868   5.707
 6672SOL    HW120915   0.978   0.888   5.700
 6672SOL    HW220916   1.120   0.889   5.619
 6673SOL     OW20917   5.001   4.958   2.550
 6673SOL    HW120918   5.087   4.907   2.560
 6673SOL    HW220919   5.022   5.055   2.537
 6674SOL     OW20920   0.753   6.179   5.424
 6674SOL    HW120921   0.791   6.090   5.451
 6674SOL    HW220922   0.771   6.195   5.327
 6675SOL     OW20923   5.576   4.519   0.275
 6675SOL    HW120924   5.494   4.484   0.321
 6675SOL    HW220925   5.566   4.617   0.258
 6676SOL     OW20926   0.891   3.403   5.384
 6676SOL    HW120927   0.903   3.327   5.447
 6676SOL    HW220928   0.980   3.439   5.357
 6677SOL     OW20929   0.522   3.586   0.761
 6677SOL    HW120930   0.525   3.637   0.675
 6677SOL    HW220931   0.529   3.650   0.838
 6678SOL     OW20932   1.185   2.849   6.213
 6678SOL    HW120933   1.208   2.884   6.122
 6678SOL    HW220934   1.250   2.778   6.239
 6679SOL     OW20935   1.311   2.848   5.561
 6679SOL    HW120936   1.324   2.878   5.467
 6679SOL    HW220937   1.351   2.914   5.624
 6680SOL     OW20938   4.099   6.375   6.186
 6680SOL    HW120939   4.112   6.362   6.088
 6680SOL    HW220940   4.161   6.315   6.237
 6681SOL     OW20941   4.941   5.189   0.254
 6681SOL    HW120942   4.871   5.123   0.281
 6681SOL    HW220943   5.022   5.178   0.311
 6682SOL     OW20944   0.338   5.653   2.484
 6682SOL    HW120945   0.391   5.738   2.482
 6682SOL    HW220946   0.278   5.650   2.404
 6683SOL     OW20947   4.736   1.781   5.143
 6683SOL    HW120948   4.747   1.710   5.074
 6683SOL    HW220949   4.733   1.738   5.234
 6684SOL     OW20950   1.545   6.519   2.565
 6684SOL    HW120951   1.622   6.578   2.586
 6684SOL    HW220952   1.460   6.565   2.591
 6685SOL     OW20953   5.433   2.996   6.405
 6685SOL    HW120954   5.484   3.082   6.399
 6685SOL    HW220955   5.491   2.925   6.443
 6686SOL     OW20956   6.245   3.693   4.048
 6686SOL    HW120957   6.154   3.731   4.066
 6686SOL    HW220958   6.309   3.768   4.032
 6687SOL     OW20959   1.068   1.937   1.044
 6687SOL    HW120960   0.972   1.960   1.023
 6687SOL    HW220961   1.125   1.963   0.966
 6688SOL     OW20962   0.472   4.861   2.501
 6688SOL    HW120963   0.392   4.819   2.544
 6688SOL    HW220964   0.548   4.862   2.565
 6689SOL     OW20965   5.121   3.983   0.529
 6689SOL    HW120966   5.057   4.018   0.598
 6689SOL    HW220967   5.129   4.050   0.455
 6690SOL     OW20968   1.969   3.111   1.368
 6690SOL    HW120969   1.938   3.205   1.385
 6690SOL    HW220970   2.062   3.113   1.333
 6691SOL     OW20971   2.577   6.434   1.581
 6691SOL    HW120972   2.624   6.410   1.667
 6691SOL    HW220973   2.601   6.368   1.511
 6692SOL     OW20974   3.013   4.285   5.303
 6692SOL    HW120975   2.934   4.225   5.290
 6692SOL    HW220976   2.991   4.377   5.270
 6693SOL     OW20977   4.496   3.816   5.390
 6693SOL    HW120978   4.481   3.815   5.489
 6693SOL    HW220979   4.409   3.802   5.343
 6694SOL     OW20980   4.890   6.515   0.536
 6694SOL    HW120981   4.964   6.485   0.476
 6694SOL    HW220982   4.824   6.570   0.484
 6695SOL     OW20983   0.722   1.464   6.821
 6695SOL    HW120984   0.671   1.462   6.735
 6695SOL    HW220985   0.797   1.530   6.815
 6696SOL     OW20986   1.990   3.454   1.855
 6696SOL    HW120987   2.066   3.482   1.914
 6696SOL    HW220988   2.022   3.447   1.761
 6697SOL     OW20989   4.262   1.382   2.708
 6697SOL    HW120990   4.317   1.369   2.626
 6697SOL    HW220991   4.239   1.293   2.747
 6698SOL     OW20992   4.078   2.702   6.786
 6698SOL    HW120993   4.172   2.702   6.754
 6698SOL    HW220994   4.047   2.607   6.800
 6699SOL     OW20995   3.278   4.631   6.602
 6699SOL    HW120996   3.300   4.643   6.698
 6699SOL    HW220997   3.233   4.714   6.568
 6700SOL     OW20998   0.388   5.377   0.969
 6700SOL    HW120999   0.338   5.313   1.027
 6700SOL    HW221000   0.381   5.347   0.873
 6701SOL     OW21001   0.396   1.579   0.301
 6701SOL    HW121002   0.449   1.495   0.316
 6701SOL    HW221003   0.314   1.577   0.357
 6702SOL     OW21004   2.192   1.319   0.793
 6702SOL    HW121005   2.178   1.404   0.741
 6702SOL    HW221006   2.282   1.281   0.772
 6703SOL     OW21007   6.936   1.273   6.247
 6703SOL    HW121008   6.949   1.361   6.201
 6703SOL    HW221009   6.969   1.200   6.188
 6704SOL     OW21010   4.587   2.637   2.905
 6704SOL    HW121011   4.512   2.620   2.970
 6704SOL    HW221012   4.624   2.550   2.873
 6705SOL     OW21013   6.535   2.268   1.360
 6705SOL    HW121014   6.472   2.217   1.301
 6705SOL    HW221015   6.611   2.304   1.306
 6706SOL     OW21016   0.970   3.834   6.776
 6706SOL    HW121017   1.069   3.822   6.766
 6706SOL    HW221018   0.936   3.772   6.848
 6707SOL     OW21019   0.080   5.263   3.679
 6707SOL    HW121020   0.145   5.326   3.638
 6707SOL    HW221021   0.081   5.274   3.778
 6708SOL     OW21022   2.492   5.503   2.011
 6708SOL    HW121023   2.586   5.502   1.978
 6708SOL    HW221024   2.490   5.473   2.107
 6709SOL     OW21025   3.911   0.353   1.835
 6709SOL    HW121026   3.933   0.440   1.791
 6709SOL    HW221027   3.986   0.326   1.895
 6710SOL     OW21028   3.115   2.747   6.778
 6710SOL    HW121029   3.023   2.775   6.807
 6710SOL    HW221030   3.108   2.689   6.697
 6711SOL     OW21031   4.750   3.760   6.950
 6711SOL    HW121032   4.845   3.789   6.966
 6711SOL    HW221033   4.698   3.773   0.011
 6712SOL     OW21034   3.862   5.730   0.265
 6712SOL    HW121035   3.950   5.684   0.260
 6712SOL    HW221036   3.875   5.825   0.295
 6713SOL     OW21037   2.096   2.634   1.749
 6713SOL    HW121038   2.154   2.575   1.806
 6713SOL    HW221039   2.072   2.716   1.801
 6714SOL     OW21040   5.586   0.561   4.318
 6714SOL    HW121041   5.641   0.507   4.254
 6714SOL    HW221042   5.490   0.557   4.292
 6715SOL     OW21043   0.268   2.099   0.671
 6715SOL    HW121044   0.250   2.003   0.654
 6715SOL    HW221045   0.277   2.148   0.585
 6716SOL     OW21046   2.319   5.989   1.482
 6716SOL    HW121047   2.399   5.932   1.495
 6716SOL    HW221048   2.257   5.978   1.560
 6717SOL     OW21049   4.256   2.488   0.379
 6717SOL    HW121050   4.278   2.438   0.295
 6717SOL    HW221051   4.227   2.581   0.355
 6718SOL     OW21052   3.307   0.319   0.083
 6718SOL    HW121053   3.253   0.235   0.088
 6718SOL    HW221054   3.246   0.397   0.071
 6719SOL     OW21055   0.281   6.032   5.511
 6719SOL    HW121056   0.290   5.933   5.498
 6719SOL    HW221057   0.319   6.058   5.599
 6720SOL     OW21058   2.651   5.474   1.509
 6720SOL    HW121059   2.615   5.405   1.572
 6720SOL    HW221060   2.624   5.451   1.415
 6721SOL     OW21061   5.161   6.960   3.715
 6721SOL    HW121062   5.223   6.957   3.636
 6721SOL    HW221063   5.137   6.867   3.742
 6722SOL     OW21064   4.184   3.306   6.691
 6722SOL    HW121065   4.136   3.298   6.778
 6722SOL    HW221066   4.139   3.249   6.622
 6723SOL     OW21067   3.120   6.470   3.787
 6723SOL    HW121068   3.079   6.415   3.860
 6723SOL    HW221069   3.054   6.538   3.756
 6724SOL     OW21070   3.254   4.891   5.067
 6724SOL    HW121071   3.223   4.958   5.000
 6724SOL    HW221072   3.174   4.852   5.113
 6725SOL     OW21073   0.785   5.368   2.555
 6725SOL    HW121074   0.825   5.437   2.616
 6725SOL    HW221075   0.721   5.311   2.606
 6726SOL     OW21076   2.442   2.662   4.148
 6726SOL    HW121077   2.528   2.613   4.138
 6726SOL    HW221078   2.418   2.669   4.245
 6727SOL     OW21079   4.408   3.373   6.114
 6727SOL    HW121080   4.472   3.448   6.128
 6727SOL    HW221081   4.372   3.343   6.203
 6728SOL     OW21082   4.053   1.787   3.844
 6728SOL    HW121083   3.955   1.804   3.841
 6728SOL    HW221084   4.072   1.700   3.798
 6729SOL     OW21085   6.260   0.806   2.600
 6729SOL    HW121086   6.268   0.867   2.679
 6729SOL    HW221087   6.264   0.860   2.516
 6730SOL     OW21088   2.598   1.171   6.857
 6730SOL    HW121089   2.676   1.131   6.905
 6730SOL    HW221090   2.543   1.098   6.817
 6731SOL     OW21091   2.505   4.716   1.642
 6731SOL    HW121092   2.457   4.687   1.559
 6731SOL    HW221093   2.596   4.674   1.645
 6732SOL     OW21094   2.488   6.133   0.717
 6732SOL    HW121095   2.527   6.224   0.704
 6732SOL    HW221096   2.411   6.120   0.655
 6733SOL     OW21097   5.505   6.120   5.068
 6733SOL    HW121098   5.420   6.091   5.111
 6733SOL    HW221099   5.524   6.061   4.989
 6734SOL     OW21100   2.110   3.091   5.446
 6734SOL    HW121101   2.179   3.114   5.378
 6734SOL    HW221102   2.129   3.139   5.531
 6735SOL     OW21103   6.945   5.110   5.455
 6735SOL    HW121104   7.023   5.166   5.484
 6735SOL    HW221105   6.967   5.066   5.368
 6736SOL     OW21106   2.150   3.209   1.860
 6736SOL    HW121107   2.158   3.220   1.761
 6736SOL    HW221108   2.164   3.298   1.905
 6737SOL     OW21109   1.948   1.627   2.021
 6737SOL    HW121110   1.986   1.649   2.110
 6737SOL    HW221111   2.015   1.650   1.950
 6738SOL     OW21112   2.687   0.934   2.521
 6738SOL    HW121113   2.644   0.844   2.532
 6738SOL    HW221114   2.780   0.930   2.557
 6739SOL     OW21115   3.586   6.368   4.964
 6739SOL    HW121116   3.576   6.351   5.062
 6739SOL    HW221117   3.495   6.365   4.921
 6740SOL     OW21118   1.427   1.528   3.283
 6740SOL    HW121119   1.434   1.499   3.188
 6740SOL    HW221120   1.519   1.539   3.321
 6741SOL     OW21121   7.005   0.279   5.965
 6741SOL    HW121122   6.905   0.278   5.967
 6741SOL    HW221123   0.016   0.300   6.057
 6742SOL     OW21124   6.206   5.946   5.129
 6742SOL    HW121125   6.212   5.974   5.225
 6742SOL    HW221126   6.161   5.857   5.123
 6743SOL     OW21127   4.119   3.439   1.216
 6743SOL    HW121128   4.156   3.369   1.277
 6743SOL    HW221129   4.105   3.524   1.267
 6744SOL     OW21130   4.995   4.801   5.579
 6744SOL    HW121131   4.971   4.843   5.491
 6744SOL    HW221132   4.956   4.855   5.653
 6745SOL     OW21133   1.668   4.744   4.064
 6745SOL    HW121134   1.724   4.817   4.023
 6745SOL    HW221135   1.599   4.783   4.124
 6746SOL     OW21136   0.280   2.429   1.234
 6746SOL    HW121137   0.190   2.436   1.279
 6746SOL    HW221138   0.301   2.333   1.217
 6747SOL     OW21139   5.223   6.499   4.924
 6747SOL    HW121140   5.278   6.418   4.904
 6747SOL    HW221141   5.284   6.576   4.946
 6748SOL     OW21142   1.664   0.393   2.327
 6748SOL    HW121143   1.608   0.311   2.311
 6748SOL    HW221144   1.693   0.431   2.239
 6749SOL     OW21145   4.438   0.551   0.240
 6749SOL    HW121146   4.492   0.585   0.317
 6749SOL    HW221147   4.444   0.616   0.164
 6750SOL     OW21148   2.437   2.567   4.871
 6750SOL    HW121149   2.472   2.591   4.962
 6750SOL    HW221150   2.484   2.485   4.838
 6751SOL     OW21151   2.821   2.036   5.262
 6751SOL    HW121152   2.841   2.029   5.360
 6751SOL    HW221153   2.750   1.970   5.237
 6752SOL     OW21154   5.864   2.538   0.961
 6752SOL    HW121155   5.806   2.530   0.880
 6752SOL    HW221156   5.845   2.462   1.023
 6753SOL     OW21157   4.664   2.485   6.474
 6753SOL    HW121158   4.749   2.535   6.458
 6753SOL    HW221159   4.626   2.455   6.386
 6754SOL     OW21160   6.280   0.879   6.167
 6754SOL    HW121161   6.310   0.928   6.249
 6754SOL    HW221162   6.180   0.872   6.167
 6755SOL     OW21163   4.732   1.782   4.295
 6755SOL    HW121164   4.652   1.836   4.265
 6755SOL    HW221165   4.815   1.834   4.276
 6756SOL     OW21166   5.257   5.368   4.380
 6756SOL    HW121167   5.233   5.323   4.294
 6756SOL    HW221168   5.296   5.300   4.443
 6757SOL     OW21169   5.986   5.866   1.676
 6757SOL    HW121170   6.039   5.924   1.613
 6757SOL    HW221171   5.941   5.924   1.743
 6758SOL     OW21172   5.076   2.487   2.037
 6758SOL    HW121173   5.106   2.392   2.041
 6758SOL    HW221174   4.998   2.495   1.975
 6759SOL     OW21175   0.504   5.236   3.398
 6759SOL    HW121176   0.423   5.238   3.339
 6759SOL    HW221177   0.554   5.322   3.389
 6760SOL     OW21178   6.459   3.893   4.051
 6760SOL    HW121179   6.503   3.961   3.991
 6760SOL    HW221180   6.438   3.936   4.139
 6761SOL     OW21181   4.831   2.634   5.607
 6761SOL    HW121182   4.744   2.643   5.558
 6761SOL    HW221183   4.825   2.679   5.695
 6762SOL     OW21184   6.351   4.492   4.043
 6762SOL    HW121185   6.261   4.521   4.078
 6762SOL    HW221186   6.353   4.504   3.944
 6763SOL     OW21187   6.228   6.613   5.958
 6763SOL    HW121188   6.209   6.580   5.866
 6763SOL    HW221189   6.284   6.547   6.007
 6764SOL     OW21190   2.707   4.266   6.703
 6764SOL    HW121191   2.618   4.284   6.744
 6764SOL    HW221192   2.760   4.350   6.700
 6765SOL     OW21193   5.634   4.295   2.243
 6765SOL    HW121194   5.676   4.279   2.154
 6765SOL    HW221195   5.703   4.331   2.306
 6766SOL     OW21196   1.668   0.833   5.832
 6766SOL    HW121197   1.607   0.857   5.757
 6766SOL    HW221198   1.711   0.916   5.868
 6767SOL     OW21199   6.430   2.952   6.914
 6767SOL    HW121200   6.453   2.949   6.817
 6767SOL    HW221201   6.453   2.864   6.957
 6768SOL     OW21202   6.743   0.239   4.163
 6768SOL    HW121203   6.747   0.214   4.260
 6768SOL    HW221204   6.828   0.286   4.137
 6769SOL     OW21205   2.025   2.844   5.525
 6769SOL    HW121206   2.054   2.940   5.524
 6769SOL    HW221207   1.940   2.835   5.472
 6770SOL     OW21208   0.570   1.215   3.329
 6770SOL    HW121209   0.518   1.220   3.414
 6770SOL    HW221210   0.627   1.296   3.319
 6771SOL     OW21211   3.682   2.118   3.107
 6771SOL    HW121212   3.734   2.072   3.035
 6771SOL    HW221213   3.746   2.160   3.173
 6772SOL     OW21214   6.902   1.175   1.452
 6772SOL    HW121215   6.979   1.230   1.418
 6772SOL    HW221216   6.819   1.200   1.403
 6773SOL     OW21217   1.374   6.752   1.482
 6773SOL    HW121218   1.389   6.808   1.401
 6773SOL    HW221219   1.288   6.702   1.474
 6774SOL     OW21220   2.261   2.329   4.869
 6774SOL    HW121221   2.252   2.255   4.935
 6774SOL    HW221222   2.267   2.417   4.918
 6775SOL     OW21223   0.809   1.804   4.425
 6775SOL    HW121224   0.833   1.898   4.402
 6775SOL    HW221225   0.811   1.793   4.525
 6776SOL     OW21226   3.360   4.115   2.704
 6776SOL    HW121227   3.337   4.057   2.782
 6776SOL    HW221228   3.397   4.202   2.737
 6777SOL     OW21229   6.372   5.487   6.981
 6777SOL    HW121230   6.465   5.520   6.994
 6777SOL    HW221231   6.344   5.501   6.886
 6778SOL     OW21232   6.075   4.906   2.740
 6778SOL    HW121233   6.105   4.811   2.739
 6778SOL    HW221234   6.152   4.966   2.718
 6779SOL     OW21235   5.234   3.534   5.793
 6779SOL    HW121236   5.285   3.461   5.839
 6779SOL    HW221237   5.219   3.610   5.856
 6780SOL     OW21238   3.178   2.015   3.041
 6780SOL    HW121239   3.271   2.044   3.020
 6780SOL    HW221240   3.124   2.014   2.957
 6781SOL     OW21241   0.045   1.653   3.399
 6781SOL    HW121242   6.990   1.660   3.339
 6781SOL    HW221243   0.128   1.643   3.344
 6782SOL     OW21244   6.595   1.270   2.423
 6782SOL    HW121245   6.627   1.359   2.456
 6782SOL    HW221246   6.542   1.225   2.495
 6783SOL     OW21247   1.368   4.841   5.782
 6783SOL    HW121248   1.421   4.773   5.832
 6783SOL    HW221249   1.406   4.932   5.799
 6784SOL     OW21250   2.266   3.700   1.706
 6784SOL    HW121251   2.273   3.626   1.773
 6784SOL    HW221252   2.185   3.755   1.726
 6785SOL     OW21253   5.592   6.518   4.827
 6785SOL    HW121254   5.673   6.478   4.783
 6785SOL    HW221255   5.519   6.527   4.760
 6786SOL     OW21256   5.853   1.695   6.171
 6786SOL    HW121257   5.905   1.764   6.221
 6786SOL    HW221258   5.782   1.739   6.117
 6787SOL     OW21259   3.831   1.591   6.966
 6787SOL    HW121260   3.797   1.661   6.903
 6787SOL    HW221261   3.776   1.592   0.026
 6788SOL     OW21262   6.939   4.268   2.610
 6788SOL    HW121263   7.021   4.217   2.583
 6788SOL    HW221264   6.961   4.365   2.617
 6789SOL     OW21265   5.375   4.259   3.683
 6789SOL    HW121266   5.290   4.291   3.725
 6789SOL    HW221267   5.358   4.228   3.590
 6790SOL     OW21268   0.680   5.082   6.131
 6790SOL    HW121269   0.776   5.110   6.137
 6790SOL    HW221270   0.667   4.997   6.183
 6791SOL     OW21271   3.153   0.919   2.955
 6791SOL    HW121272   3.139   1.018   2.955
 6791SOL    HW221273   3.173   0.888   2.862
 6792SOL     OW21274   3.516   0.026   5.458
 6792SOL    HW121275   3.469   6.986   5.519
 6792SOL    HW221276   3.559   6.999   5.383
 6793SOL     OW21277   1.912   3.203   6.477
 6793SOL    HW121278   1.848   3.269   6.439
 6793SOL    HW221279   1.871   3.158   6.556
 6794SOL     OW21280   5.396   1.569   5.417
 6794SOL    HW121281   5.319   1.507   5.403
 6794SOL    HW221282   5.476   1.534   5.368
 6795SOL     OW21283   1.045   0.554   1.113
 6795SOL    HW121284   0.970   0.540   1.177
 6795SOL    HW221285   1.119   0.490   1.134
 6796SOL     OW21286   6.157   1.292   2.599
 6796SOL    HW121287   6.090   1.239   2.546
 6796SOL    HW221288   6.130   1.388   2.599
 6797SOL     OW21289   0.785   2.418   1.496
 6797SOL    HW121290   0.773   2.478   1.575
 6797SOL    HW221291   0.700   2.368   1.480
 6798SOL     OW21292   5.782   0.006   1.735
 6798SOL    HW121293   5.698   6.983   1.709
 6798SOL    HW221294   5.777   0.101   1.704
 6799SOL     OW21295   6.346   0.811   3.410
 6799SOL    HW121296   6.413   0.771   3.348
 6799SOL    HW221297   6.370   0.788   3.505
 6800SOL     OW21298   6.826   2.395   1.465
 6800SOL    HW121299   6.797   2.360   1.555
 6800SOL    HW221300   6.773   2.476   1.442
 6801SOL     OW21301   1.015   6.223   6.554
 6801SOL    HW121302   0.955   6.301   6.536
 6801SOL    HW221303   1.064   6.198   6.470
 6802SOL     OW21304   3.157   4.814   2.130
 6802SOL    HW121305   3.157   4.815   2.030
 6802SOL    HW221306   3.069   4.781   2.163
 6803SOL     OW21307   5.403   5.055   6.079
 6803SOL    HW121308   5.325   5.036   6.019
 6803SOL    HW221309   5.485   5.013   6.040
 6804SOL     OW21310   3.822   4.916   2.859
 6804SOL    HW121311   3.858   5.009   2.865
 6804SOL    HW221312   3.728   4.918   2.827
 6805SOL     OW21313   0.182   4.744   4.913
 6805SOL    HW121314   0.143   4.663   4.957
 6805SOL    HW221315   0.109   4.804   4.881
 6806SOL     OW21316   6.729   2.277   2.043
 6806SOL    HW121317   6.719   2.181   2.071
 6806SOL    HW221318   6.792   2.323   2.105
 6807SOL     OW21319   3.216   3.614   2.156
 6807SOL    HW121320   3.160   3.654   2.227
 6807SOL    HW221321   3.291   3.563   2.197
 6808SOL     OW21322   3.292   1.262   4.498
 6808SOL    HW121323   3.231   1.340   4.513
 6808SOL    HW221324   3.297   1.242   4.400
 6809SOL     OW21325   5.373   3.087   0.315
 6809SOL    HW121326   5.297   3.150   0.300
 6809SOL    HW221327   5.453   3.117   0.262
 6810SOL     OW21328   2.842   0.457   4.559
 6810SOL    HW121329   2.791   0.376   4.586
 6810SOL    HW221330   2.844   0.523   4.635
 6811SOL     OW21331   6.528   1.253   0.703
 6811SOL    HW121332   6.516   1.175   0.641
 6811SOL    HW221333   6.439   1.289   0.730
 6812SOL     OW21334   3.745   4.150   5.023
 6812SOL    HW121335   3.693   4.149   4.938
 6812SOL    HW221336   3.714   4.076   5.082
 6813SOL     OW21337   6.526   3.592   2.160
 6813SOL    HW121338   6.618   3.625   2.139
 6813SOL    HW221339   6.500   3.621   2.252
 6814SOL     OW21340   5.682   0.739   6.458
 6814SOL    HW121341   5.626   0.666   6.497
 6814SOL    HW221342   5.687   0.815   6.522
 6815SOL     OW21343   1.213   4.650   6.270
 6815SOL    HW121344   1.194   4.593   6.190
 6815SOL    HW221345   1.306   4.686   6.264
 6816SOL     OW21346   6.650   0.796   3.378
 6816SOL    HW121347   6.718   0.798   3.451
 6816SOL    HW221348   6.651   0.882   3.329
 6817SOL     OW21349   4.440   2.064   1.481
 6817SOL    HW121350   4.364   2.074   1.545
 6817SOL    HW221351   4.525   2.095   1.524
 6818SOL     OW21352   1.633   0.039   5.143
 6818SOL    HW121353   1.592   0.070   5.229
 6818SOL    HW221354   1.685   0.115   5.102
 6819SOL     OW21355   4.757   4.312   1.847
 6819SOL    HW121356   4.823   4.240   1.869
 6819SOL    HW221357   4.674   4.299   1.902
 6820SOL     OW21358   2.987   4.994   1.964
 6820SOL    HW121359   2.989   4.947   2.053
 6820SOL    HW221360   3.036   5.080   1.970
 6821SOL     OW21361   3.911   2.591   5.399
 6821SOL    HW121362   3.830   2.534   5.383
 6821SOL    HW221363   3.971   2.589   5.319
 6822SOL     OW21364   6.139   2.759   6.024
 6822SOL    HW121365   6.192   2.691   5.974
 6822SOL    HW221366   6.041   2.742   6.009
 6823SOL     OW21367   6.065   2.493   4.795
 6823SOL    HW121368   6.077   2.394   4.780
 6823SOL    HW221369   6.138   2.542   4.747
 6824SOL     OW21370   1.066   0.118   6.076
 6824SOL    HW121371   1.007   0.057   6.022
 6824SOL    HW221372   1.162   0.094   6.061
 6825SOL     OW21373   5.392   4.718   0.905
 6825SOL    HW121374   5.464   4.679   0.847
 6825SOL    HW221375   5.388   4.668   0.991
 6826SOL     OW21376   6.314   5.553   4.472
 6826SOL    HW121377   6.308   5.517   4.379
 6826SOL    HW221378   6.283   5.648   4.473
 6827SOL     OW21379   4.927   6.271   4.688
 6827SOL    HW121380   4.984   6.189   4.679
 6827SOL    HW221381   4.841   6.247   4.733
 6828SOL     OW21382   2.542   2.326   2.485
 6828SOL    HW121383   2.550   2.290   2.392
 6828SOL    HW221384   2.606   2.277   2.545
 6829SOL     OW21385   3.874   0.044   3.648
 6829SOL    HW121386   3.903   0.036   3.744
 6829SOL    HW221387   3.929   7.006   3.592
 6830SOL     OW21388   4.858   6.086   3.355
 6830SOL    HW121389   4.786   6.019   3.337
 6830SOL    HW221390   4.818   6.177   3.362
 6831SOL     OW21391   1.531   2.230   5.964
 6831SOL    HW121392   1.479   2.273   6.038
 6831SOL    HW221393   1.609   2.288   5.940
 6832SOL     OW21394   3.329   2.933   0.072
 6832SOL    HW121395   3.259   2.945   0.002
 6832SOL    HW221396   3.308   2.852   0.127
 6833SOL     OW21397   3.266   5.411   5.698
 6833SOL    HW121398   3.235   5.494   5.653
 6833SOL    HW221399   3.267   5.335   5.632
 6834SOL     OW21400   5.835   6.538   0.633
 6834SOL    HW121401   5.815   6.462   0.571
 6834SOL    HW221402   5.841   6.623   0.581
 6835SOL     OW21403   2.851   1.673   5.331
 6835SOL    HW121404   2.807   1.728   5.402
 6835SOL    HW221405   2.922   1.728   5.285
 6836SOL     OW21406   2.524   4.398   6.335
 6836SOL    HW121407   2.525   4.429   6.240
 6836SOL    HW221408   2.512   4.477   6.395
 6837SOL     OW21409   0.796   1.185   2.026
 6837SOL    HW121410   0.781   1.256   2.095
 6837SOL    HW221411   0.708   1.152   1.993
 6838SOL     OW21412   2.861   3.804   5.066
 6838SOL    HW121413   2.916   3.827   4.986
 6838SOL    HW221414   2.765   3.799   5.039
 6839SOL     OW21415   6.366   3.284   4.612
 6839SOL    HW121416   6.444   3.347   4.607
 6839SOL    HW221417   6.282   3.337   4.614
 6840SOL     OW21418   2.408   6.839   4.794
 6840SOL    HW121419   2.370   6.927   4.767
 6840SOL    HW221420   2.392   6.772   4.722
 6841SOL     OW21421   4.753   6.317   0.680
 6841SOL    HW121422   4.818   6.252   0.719
 6841SOL    HW221423   4.804   6.396   0.645
 6842SOL     OW21424   0.379   3.747   4.991
 6842SOL    HW121425   0.359   3.766   5.087
 6842SOL    HW221426   0.452   3.809   4.960
 6843SOL     OW21427   3.939   2.140   1.980
 6843SOL    HW121428   3.955   2.058   2.035
 6843SOL    HW221429   3.841   2.157   1.972
 6844SOL     OW21430   4.308   5.461   3.796
 6844SOL    HW121431   4.383   5.525   3.781
 6844SOL    HW221432   4.345   5.376   3.835
 6845SOL     OW21433   4.224   4.421   1.202
 6845SOL    HW121434   4.306   4.410   1.259
 6845SOL    HW221435   4.223   4.351   1.131
 6846SOL     OW21436   3.361   2.933   3.289
 6846SOL    HW121437   3.322   2.884   3.367
 6846SOL    HW221438   3.428   2.999   3.322
 6847SOL     OW21439   5.656   3.669   2.365
 6847SOL    HW121440   5.725   3.740   2.371
 6847SOL    HW221441   5.696   3.581   2.389
 6848SOL     OW21442   0.675   6.319   3.354
 6848SOL    HW121443   0.758   6.327   3.298
 6848SOL    HW221444   0.670   6.227   3.393
 6849SOL     OW21445   3.338   6.633   3.662
 6849SOL    HW121446   3.265   6.567   3.681
 6849SOL    HW221447   3.317   6.719   3.707
 6850SOL     OW21448   5.456   2.714   2.575
 6850SOL    HW121449   5.508   2.636   2.609
 6850SOL    HW221450   5.400   2.686   2.498
 6851SOL     OW21451   0.989   5.799   5.457
 6851SOL    HW121452   0.948   5.724   5.405
 6851SOL    HW221453   0.920   5.841   5.516
 6852SOL     OW21454   6.873   4.622   1.961
 6852SOL    HW121455   6.965   4.661   1.960
 6852SOL    HW221456   6.850   4.590   1.869
 6853SOL     OW21457   0.703   3.458   5.721
 6853SOL    HW121458   0.763   3.473   5.800
 6853SOL    HW221459   0.635   3.389   5.743
 6854SOL     OW21460   6.356   1.425   6.282
 6854SOL    HW121461   6.367   1.332   6.246
 6854SOL    HW221462   6.446   1.462   6.306
 6855SOL     OW21463   3.122   6.061   1.717
 6855SOL    HW121464   3.052   5.990   1.709
 6855SOL    HW221465   3.207   6.029   1.674
 6856SOL     OW21466   6.991   3.572   4.967
 6856SOL    HW121467   0.008   3.607   4.883
 6856SOL    HW221468   6.892   3.582   4.962
 6857SOL     OW21469   4.461   2.006   5.323
 6857SOL    HW121470   4.487   1.913   5.297
 6857SOL    HW221471   4.523   2.039   5.395
 6858SOL     OW21472   4.057   3.406   4.585
 6858SOL    HW121473   4.095   3.396   4.493
 6858SOL    HW221474   4.005   3.323   4.608
 6859SOL     OW21475   4.106   6.685   1.176
 6859SOL    HW121476   4.181   6.639   1.224
 6859SOL    HW221477   4.143   6.757   1.118
 6860SOL     OW21478   5.113   3.724   6.752
 6860SOL    HW121479   5.069   3.811   6.775
 6860SOL    HW221480   5.208   3.726   6.782
 6861SOL     OW21481   6.367   4.511   6.923
 6861SOL    HW121482   6.406   4.601   6.901
 6861SOL    HW221483   6.386   4.488   7.018
 6862SOL     OW21484   3.907   5.921   4.044
 6862SOL    HW121485   3.914   5.892   4.139
 6862SOL    HW221486   3.855   6.006   4.039
 6863SOL     OW21487   6.068   2.639   4.146
 6863SOL    HW121488   5.990   2.578   4.162
 6863SOL    HW221489   6.105   2.622   4.055
 6864SOL     OW21490   4.002   6.313   5.047
 6864SOL    HW121491   4.001   6.291   4.949
 6864SOL    HW221492   4.093   6.343   5.074
 6865SOL     OW21493   6.646   4.852   4.172
 6865SOL    HW121494   6.551   4.879   4.186
 6865SOL    HW221495   6.650   4.755   4.148
 6866SOL     OW21496   6.950   3.037   2.398
 6866SOL    HW121497   6.916   2.951   2.359
 6866SOL    HW221498   6.912   3.050   2.489
 6867SOL     OW21499   1.949   3.909   3.019
 6867SOL    HW121500   2.001   3.851   2.956
 6867SOL    HW221501   1.851   3.899   3.000
 6868SOL     OW21502   1.367   5.393   5.286
 6868SOL    HW121503   1.357   5.393   5.385
 6868SOL    HW221504   1.301   5.331   5.245
 6869SOL     OW21505   6.287   3.577   5.536
 6869SOL    HW121506   6.279   3.668   5.577
 6869SOL    HW221507   6.196   3.535   5.531
 6870SOL     OW21508   5.557   3.628   3.021
 6870SOL    HW121509   5.612   3.602   3.100
 6870SOL    HW221510   5.600   3.595   2.937
 6871SOL     OW21511   5.477   5.722   1.679
 6871SOL    HW121512   5.487   5.625   1.660
 6871SOL    HW221513   5.543   5.774   1.625
 6872SOL     OW21514   2.448   3.378   6.359
 6872SOL    HW121515   2.524   3.354   6.299
 6872SOL    HW221516   2.372   3.314   6.344
 6873SOL     OW21517   5.679   3.246   5.485
 6873SOL    HW121518   5.712   3.217   5.395
 6873SOL    HW221519   5.579   3.250   5.485
 6874SOL     OW21520   0.556   2.388   5.740
 6874SOL    HW121521   0.535   2.477   5.700
 6874SOL    HW221522   0.654   2.369   5.727
 6875SOL     OW21523   2.888   1.954   3.581
 6875SOL    HW121524   2.797   1.956   3.623
 6875SOL    HW221525   2.883   1.990   3.488
 6876SOL     OW21526   4.224   6.312   6.685
 6876SOL    HW121527   4.303   6.267   6.643
 6876SOL    HW221528   4.254   6.396   6.730
 6877SOL     OW21529   2.332   4.321   0.058
 6877SOL    HW121530   2.264   4.391   0.084
 6877SOL    HW221531   2.328   4.245   0.123
 6878SOL     OW21532   1.848   1.396   5.366
 6878SOL    HW121533   1.750   1.413   5.363
 6878SOL    HW221534   1.892   1.435   5.285
 6879SOL     OW21535   1.390   2.383   6.441
 6879SOL    HW121536   1.316   2.332   6.486
 6879SOL    HW221537   1.353   2.429   6.360
 6880SOL     OW21538   1.955   4.111   5.116
 6880SOL    HW121539   2.006   4.171   5.177
 6880SOL    HW221540   1.996   4.019   5.117
 6881SOL     OW21541   6.783   4.183   1.930
 6881SOL    HW121542   6.835   4.179   2.016
 6881SOL    HW221543   6.839   4.228   1.860
 6882SOL     OW21544   1.590   0.195   5.362
 6882SOL    HW121545   1.587   0.281   5.311
 6882SOL    HW221546   1.667   0.197   5.426
 6883SOL     OW21547   3.614   6.375   1.518
 6883SOL    HW121548   3.624   6.472   1.492
 6883SOL    HW221549   3.526   6.341   1.487
 6884SOL     OW21550   2.462   4.866   3.758
 6884SOL    HW121551   2.396   4.880   3.684
 6884SOL    HW221552   2.500   4.774   3.752
 6885SOL     OW21553   2.825   5.486   4.773
 6885SOL    HW121554   2.789   5.423   4.842
 6885SOL    HW221555   2.805   5.580   4.801
 6886SOL     OW21556   5.921   1.575   2.836
 6886SOL    HW121557   5.833   1.557   2.879
 6886SOL    HW221558   5.907   1.632   2.755
 6887SOL     OW21559   6.374   0.987   4.565
 6887SOL    HW121560   6.309   1.027   4.501
 6887SOL    HW221561   6.364   1.031   4.654
 6888SOL     OW21562   5.317   7.004   4.499
 6888SOL    HW121563   5.375   6.931   4.463
 6888SOL    HW221564   5.374   0.049   4.545
 6889SOL     OW21565   1.494   4.629   5.892
 6889SOL    HW121566   1.521   4.568   5.967
 6889SOL    HW221567   1.532   4.594   5.806
 6890SOL     OW21568   2.151   0.502   1.261
 6890SOL    HW121569   2.136   0.601   1.265
 6890SOL    HW221570   2.128   0.461   1.349
 6891SOL     OW21571   1.983   4.801   4.538
 6891SOL    HW121572   2.063   4.759   4.496
 6891SOL    HW221573   1.969   4.762   4.629
 6892SOL     OW21574   3.704   0.823   3.976
 6892SOL    HW121575   3.640   0.821   3.899
 6892SOL    HW221576   3.673   0.891   4.043
 6893SOL     OW21577   4.838   5.307   2.585
 6893SOL    HW121578   4.926   5.298   2.631
 6893SOL    HW221579   4.844   5.270   2.492
 6894SOL     OW21580   6.584   4.905   6.333
 6894SOL    HW121581   6.492   4.897   6.371
 6894SOL    HW221582   6.646   4.845   6.384
 6895SOL     OW21583   3.581   5.514   6.782
 6895SOL    HW121584   3.606   5.598   6.733
 6895SOL    HW221585   3.503   5.532   6.841
 6896SOL     OW21586   3.755   0.366   2.816
 6896SOL    HW121587   3.718   0.351   2.908
 6896SOL    HW221588   3.779   0.463   2.805
 6897SOL     OW21589   3.205   3.224   0.606
 6897SOL    HW121590   3.276   3.278   0.562
 6897SOL    HW221591   3.225   3.126   0.593
 6898SOL     OW21592   4.144   2.242   2.395
 6898SOL    HW121593   4.171   2.314   2.458
 6898SOL    HW221594   4.162   2.271   2.301
 6899SOL     OW21595   4.974   6.012   6.550
 6899SOL    HW121596   5.004   5.949   6.621
 6899SOL    HW221597   5.050   6.030   6.487
 6900SOL     OW21598   4.549   0.532   6.177
 6900SOL    HW121599   4.539   0.506   6.081
 6900SOL    HW221600   4.459   0.529   6.221
 6901SOL     OW21601   1.653   1.004   6.412
 6901SOL    HW121602   1.716   0.972   6.342
 6901SOL    HW221603   1.560   1.008   6.375
 6902SOL     OW21604   6.774   5.673   0.783
 6902SOL    HW121605   6.862   5.675   0.736
 6902SOL    HW221606   6.706   5.723   0.729
 6903SOL     OW21607   4.499   4.160   0.706
 6903SOL    HW121608   4.560   4.099   0.756
 6903SOL    HW221609   4.518   4.255   0.732
 6904SOL     OW21610   6.950   1.306   3.089
 6904SOL    HW121611   6.985   1.233   3.147
 6904SOL    HW221612   6.874   1.271   3.034
 6905SOL     OW21613   5.461   6.406   0.941
 6905SOL    HW121614   5.552   6.364   0.942
 6905SOL    HW221615   5.395   6.343   0.981
 6906SOL     OW21616   4.326   1.104   3.400
 6906SOL    HW121617   4.368   1.186   3.439
 6906SOL    HW221618   4.245   1.080   3.454
 6907SOL     OW21619   4.074   1.893   1.785
 6907SOL    HW121620   3.985   1.936   1.780
 6907SOL    HW221621   4.096   1.871   1.881
 6908SOL     OW21622   1.320   6.740   6.163
 6908SOL    HW121623   1.364   6.820   6.202
 6908SOL    HW221624   1.252   6.769   6.095
 6909SOL     OW21625   3.939   3.757   6.486
 6909SOL    HW121626   4.014   3.799   6.434
 6909SOL    HW221627   3.916   3.814   6.564
 6910SOL     OW21628   6.283   1.461   1.887
 6910SOL    HW121629   6.328   1.504   1.965
 6910SOL    HW221630   6.216   1.394   1.919
 6911SOL     OW21631   4.090   1.280   4.819
 6911SOL    HW121632   3.996   1.296   4.790
 6911SOL    HW221633   4.149   1.271   4.739
 6912SOL     OW21634   4.750   5.024   0.377
 6912SOL    HW121635   4.755   4.942   0.434
 6912SOL    HW221636   4.687   5.090   0.418
 6913SOL     OW21637   5.185   5.254   4.930
 6913SOL    HW121638   5.161   5.283   5.022
 6913SOL    HW221639   5.133   5.173   4.906
 6914SOL     OW21640   6.540   5.085   0.727
 6914SOL    HW121641   6.548   5.005   0.668
 6914SOL    HW221642   6.444   5.101   0.750
 6915SOL     OW21643   0.586   5.243   2.717
 6915SOL    HW121644   0.600   5.292   2.803
 6915SOL    HW221645   0.523   5.295   2.659
 6916SOL     OW21646   6.375   1.873   0.022
 6916SOL    HW121647   6.438   1.832   0.088
 6916SOL    HW221648   6.428   1.926   6.979
 6917SOL     OW21649   4.588   5.855   6.557
 6917SOL    HW121650   4.509   5.895   6.512
 6917SOL    HW221651   4.670   5.871   6.502
 6918SOL     OW21652   1.124   3.337   4.085
 6918SOL    HW121653   1.179   3.354   4.004
 6918SOL    HW221654   1.083   3.422   4.117
 6919SOL     OW21655   2.272   5.999   3.224
 6919SOL    HW121656   2.267   6.086   3.175
 6919SOL    HW221657   2.304   6.015   3.317
 6920SOL     OW21658   4.878   6.829   4.340
 6920SOL    HW121659   4.806   6.764   4.362
 6920SOL    HW221660   4.958   6.780   4.305
 6921SOL     OW21661   0.724   0.723   3.670
 6921SOL    HW121662   0.661   0.702   3.745
 6921SOL    HW221663   0.772   0.640   3.643
 6922SOL     OW21664   2.297   6.305   0.479
 6922SOL    HW121665   2.257   6.215   0.496
 6922SOL    HW221666   2.238   6.375   0.519
 6923SOL     OW21667   4.779   0.765   3.926
 6923SOL    HW121668   4.762   0.841   3.989
 6923SOL    HW221669   4.694   0.742   3.878
 6924SOL     OW21670   0.187   5.499   1.162
 6924SOL    HW121671   0.128   5.433   1.115
 6924SOL    HW221672   0.282   5.468   1.158
 6925SOL     OW21673   4.718   5.315   3.071
 6925SOL    HW121674   4.670   5.393   3.031
 6925SOL    HW221675   4.761   5.261   2.999
 6926SOL     OW21676   3.200   3.521   4.550
 6926SOL    HW121677   3.284   3.478   4.517
 6926SOL    HW221678   3.206   3.620   4.538
 6927SOL     OW21679   4.427   4.377   5.803
 6927SOL    HW121680   4.513   4.333   5.826
 6927SOL    HW221681   4.351   4.318   5.831
 6928SOL     OW21682   5.556   0.516   6.503
 6928SOL    HW121683   5.493   0.447   6.467
 6928SOL    HW221684   5.616   0.474   6.571
 6929SOL     OW21685   3.870   5.536   6.919
 6929SOL    HW121686   3.915   5.557   6.832
 6929SOL    HW221687   3.937   5.541   6.993
 6930SOL     OW21688   0.927   0.166   3.646
 6930SOL    HW121689   0.960   0.085   3.695
 6930SOL    HW221690   0.893   0.233   3.711
 6931SOL     OW21691   1.559   1.744   1.131
 6931SOL    HW121692   1.460   1.760   1.139
 6931SOL    HW221693   1.591   1.694   1.212
 6932SOL     OW21694   2.635   2.209   0.992
 6932SOL    HW121695   2.604   2.276   0.924
 6932SOL    HW221696   2.716   2.244   1.039
 6933SOL     OW21697   4.157   5.862   5.946
 6933SOL    HW121698   4.180   5.770   5.915
 6933SOL    HW221699   4.115   5.857   6.037
 6934SOL     OW21700   5.292   3.525   6.902
 6934SOL    HW121701   5.208   3.478   6.925
 6934SOL    HW221702   5.305   3.603   6.964
 6935SOL     OW21703   4.162   5.908   3.554
 6935SOL    HW121704   4.183   5.816   3.522
 6935SOL    HW221705   4.207   5.923   3.643
 6936SOL     OW21706   1.094   4.110   1.603
 6936SOL    HW121707   1.049   4.198   1.619
 6936SOL    HW221708   1.048   4.062   1.529
 6937SOL     OW21709   4.478   6.513   5.250
 6937SOL    HW121710   4.498   6.522   5.348
 6937SOL    HW221711   4.496   6.600   5.204
 6938SOL     OW21712   4.634   2.287   5.037
 6938SOL    HW121713   4.656   2.314   5.130
 6938SOL    HW221714   4.560   2.345   5.002
 6939SOL     OW21715   0.531   4.390   2.994
 6939SOL    HW121716   0.578   4.313   2.953
 6939SOL    HW221717   0.551   4.393   3.092
 6940SOL     OW21718   5.070   0.380   5.203
 6940SOL    HW121719   5.106   0.440   5.275
 6940SOL    HW221720   5.137   0.373   5.129
 6941SOL     OW21721   3.950   3.950   3.881
 6941SOL    HW121722   3.962   3.861   3.836
 6941SOL    HW221723   3.966   3.940   3.979
 6942SOL     OW21724   6.830   2.368   6.827
 6942SOL    HW121725   6.804   2.442   6.889
 6942SOL    HW221726   6.895   2.308   6.874
 6943SOL     OW21727   5.213   5.285   6.527
 6943SOL    HW121728   5.117   5.265   6.549
 6943SOL    HW221729   5.237   5.240   6.441
 6944SOL     OW21730   1.393   5.450   5.949
 6944SOL    HW121731   1.323   5.379   5.956
 6944SOL    HW221732   1.483   5.407   5.944
 6945SOL     OW21733   6.167   2.623   5.756
 6945SOL    HW121734   6.239   2.554   5.764
 6945SOL    HW221735   6.208   2.713   5.743
 6946SOL     OW21736   5.542   3.937   2.500
 6946SOL    HW121737   5.630   3.964   2.461
 6946SOL    HW221738   5.495   3.876   2.437
 6947SOL     OW21739   3.619   6.428   3.024
 6947SOL    HW121740   3.625   6.406   3.122
 6947SOL    HW221741   3.557   6.365   2.979
 6948SOL     OW21742   4.439   0.693   5.339
 6948SOL    HW121743   4.525   0.735   5.365
 6948SOL    HW221744   4.432   0.602   5.381
 6949SOL     OW21745   5.569   0.128   2.903
 6949SOL    HW121746   5.553   0.148   2.999
 6949SOL    HW221747   5.488   0.082   2.865
 6950SOL     OW21748   2.287   0.573   3.204
 6950SOL    HW121749   2.313   0.610   3.115
 6950SOL    HW221750   2.345   0.496   3.227
 6951SOL     OW21751   6.595   5.275   5.769
 6951SOL    HW121752   6.643   5.245   5.687
 6951SOL    HW221753   6.498   5.254   5.761
 6952SOL     OW21754   0.550   4.734   5.429
 6952SOL    HW121755   0.632   4.725   5.485
 6952SOL    HW221756   0.507   4.644   5.418
 6953SOL     OW21757   4.517   1.471   5.416
 6953SOL    HW121758   4.567   1.435   5.495
 6953SOL    HW221759   4.481   1.395   5.362
 6954SOL     OW21760   6.739   3.786   3.556
 6954SOL    HW121761   6.731   3.876   3.512
 6954SOL    HW221762   6.648   3.753   3.581
 6955SOL     OW21763   6.718   5.921   1.630
 6955SOL    HW121764   6.629   5.887   1.598
 6955SOL    HW221765   6.778   5.844   1.650
 6956SOL     OW21766   4.264   5.222   1.093
 6956SOL    HW121767   4.358   5.247   1.119
 6956SOL    HW221768   4.202   5.246   1.167
 6957SOL     OW21769   0.408   4.654   0.897
 6957SOL    HW121770   0.367   4.647   0.988
 6957SOL    HW221771   0.386   4.743   0.857
 6958SOL     OW21772   2.907   3.279   6.789
 6958SOL    HW121773   2.937   3.266   6.883
 6958SOL    HW221774   2.981   3.318   6.734
 6959SOL     OW21775   3.293   1.218   4.766
 6959SOL    HW121776   3.288   1.188   4.671
 6959SOL    HW221777   3.237   1.299   4.779
 6960SOL     OW21778   0.674   4.637   6.574
 6960SOL    HW121779   0.626   4.558   6.534
 6960SOL    HW221780   0.748   4.604   6.632
 6961SOL     OW21781   0.838   0.622   2.704
 6961SOL    HW121782   0.912   0.642   2.639
 6961SOL    HW221783   0.774   0.699   2.706
 6962SOL     OW21784   4.944   4.308   1.025
 6962SOL    HW121785   4.911   4.236   1.086
 6962SOL    HW221786   4.868   4.369   1.002
 6963SOL     OW21787   6.850   5.020   1.410
 6963SOL    HW121788   6.772   4.959   1.401
 6963SOL    HW221789   6.860   5.073   1.325
 6964SOL     OW21790   4.489   5.743   5.192
 6964SOL    HW121791   4.451   5.796   5.116
 6964SOL    HW221792   4.549   5.672   5.156
 6965SOL     OW21793   6.791   3.042   5.756
 6965SOL    HW121794   6.719   3.007   5.697
 6965SOL    HW221795   6.763   3.130   5.795
 6966SOL     OW21796   4.539   2.546   3.659
 6966SOL    HW121797   4.636   2.526   3.645
 6966SOL    HW221798   4.530   2.629   3.714
 6967SOL     OW21799   1.292   1.337   6.003
 6967SOL    HW121800   1.305   1.290   6.091
 6967SOL    HW221801   1.340   1.425   6.006
 6968SOL     OW21802   4.949   6.033   2.275
 6968SOL    HW121803   4.997   6.015   2.361
 6968SOL    HW221804   5.014   6.069   2.208
 6969SOL     OW21805   3.124   2.457   0.562
 6969SOL    HW121806   3.202   2.444   0.624
 6969SOL    HW221807   3.130   2.391   0.487
 6970SOL     OW21808   5.129   4.420   0.024
 6970SOL    HW121809   5.120   4.322   0.038
 6970SOL    HW221810   5.216   4.440   7.002
 6971SOL     OW21811   5.576   0.801   1.185
 6971SOL    HW121812   5.640   0.815   1.260
 6971SOL    HW221813   5.496   0.751   1.219
 6972SOL     OW21814   5.554   5.054   4.275
 6972SOL    HW121815   5.467   5.038   4.228
 6972SOL    HW221816   5.619   4.984   4.247
 6973SOL     OW21817   1.813   4.473   3.499
 6973SOL    HW121818   1.810   4.528   3.583
 6973SOL    HW221819   1.908   4.453   3.475
 6974SOL     OW21820   3.303   3.763   4.520
 6974SOL    HW121821   3.360   3.765   4.602
 6974SOL    HW221822   3.239   3.839   4.522
 6975SOL     OW21823   4.212   0.704   6.040
 6975SOL    HW121824   4.306   0.736   6.052
 6975SOL    HW221825   4.200   0.618   6.089
 6976SOL     OW21826   2.138   4.664   6.661
 6976SOL    HW121827   2.086   4.639   6.743
 6976SOL    HW221828   2.191   4.747   6.680
 6977SOL     OW21829   3.199   1.945   2.617
 6977SOL    HW121830   3.129   2.001   2.661
 6977SOL    HW221831   3.218   1.864   2.673
 6978SOL     OW21832   0.194   0.657   1.886
 6978SOL    HW121833   0.141   0.583   1.845
 6978SOL    HW221834   0.181   0.657   1.985
 6979SOL     OW21835   0.380   4.994   2.256
 6979SOL    HW121836   0.393   4.949   2.344
 6979SOL    HW221837   0.468   5.026   2.221
 6980SOL     OW21838   3.237   0.711   4.341
 6980SOL    HW121839   3.256   0.697   4.438
 6980SOL    HW221840   3.316   0.684   4.287
 6981SOL     OW21841   1.836   5.242   0.778
 6981SOL    HW121842   1.812   5.339   0.773
 6981SOL    HW221843   1.835   5.213   0.874
 6982SOL     OW21844   0.341   6.895   5.032
 6982SOL    HW121845   0.427   6.851   5.009
 6982SOL    HW221846   0.267   6.855   4.978
 6983SOL     OW21847   6.311   0.079   4.316
 6983SOL    HW121848   6.341   0.130   4.396
 6983SOL    HW221849   6.333   0.130   4.233
 6984SOL     OW21850   1.739   1.209   6.213
 6984SOL    HW121851   1.735   1.202   6.312
 6984SOL    HW221852   1.651   1.185   6.174
 6985SOL     OW21853   4.812   5.770   2.283
 6985SOL    HW121854   4.726   5.775   2.335
 6985SOL    HW221855   4.859   5.858   2.290
 6986SOL     OW21856   2.288   6.428   5.951
 6986SOL    HW121857   2.336   6.388   5.872
 6986SOL    HW221858   2.354   6.444   6.024
 6987SOL     OW21859   0.566   3.505   6.830
 6987SOL    HW121860   0.483   3.562   6.828
 6987SOL    HW221861   0.631   3.538   6.761
 6988SOL     OW21862   5.308   1.419   3.907
 6988SOL    HW121863   5.214   1.444   3.881
 6988SOL    HW221864   5.355   1.382   3.827
 6989SOL     OW21865   1.390   1.943   3.825
 6989SOL    HW121866   1.337   1.913   3.905
 6989SOL    HW221867   1.436   2.029   3.845
 6990SOL     OW21868   3.750   2.967   0.208
 6990SOL    HW121869   3.834   2.941   0.254
 6990SOL    HW221870   3.676   2.975   0.276
 6991SOL     OW21871   2.716   4.286   5.961
 6991SOL    HW121872   2.699   4.236   5.876
 6991SOL    HW221873   2.811   4.272   5.990
 6992SOL     OW21874   5.635   6.969   3.864
 6992SOL    HW121875   5.670   6.938   3.953
 6992SOL    HW221876   5.700   0.009   3.823
 6993SOL     OW21877   0.534   0.243   2.917
 6993SOL    HW121878   0.463   0.230   2.848
 6993SOL    HW221879   0.536   0.164   2.978
 6994SOL     OW21880   1.788   2.859   6.652
 6994SOL    HW121881   1.839   2.831   6.571
 6994SOL    HW221882   1.815   2.952   6.678
 6995SOL     OW21883   5.913   5.624   3.279
 6995SOL    HW121884   5.873   5.547   3.230
 6995SOL    HW221885   5.933   5.597   3.374
 6996SOL     OW21886   2.396   0.565   5.588
 6996SOL    HW121887   2.377   0.644   5.530
 6996SOL    HW221888   2.309   0.519   5.610
 6997SOL     OW21889   4.746   6.832   5.119
 6997SOL    HW121890   4.742   6.931   5.128
 6997SOL    HW221891   4.656   6.796   5.094
 6998SOL     OW21892   0.970   3.587   2.917
 6998SOL    HW121893   1.008   3.536   2.840
 6998SOL    HW221894   0.924   3.525   2.980
 6999SOL     OW21895   3.426   1.681   5.600
 6999SOL    HW121896   3.351   1.713   5.543
 6999SOL    HW221897   3.397   1.599   5.650
 7000SOL     OW21898   0.601   6.288   2.443
 7000SOL    HW121899   0.645   6.228   2.377
 7000SOL    HW221900   0.558   6.365   2.394
 7001SOL     OW21901   2.520   2.772   5.669
 7001SOL    HW121902   2.535   2.693   5.609
 7001SOL    HW221903   2.486   2.849   5.615
 7002SOL     OW21904   1.275   4.825   2.949
 7002SOL    HW121905   1.372   4.843   2.935
 7002SOL    HW221906   1.225   4.838   2.864
 7003SOL     OW21907   3.120   6.483   0.879
 7003SOL    HW121908   3.154   6.543   0.807
 7003SOL    HW221909   3.112   6.390   0.843
 7004SOL     OW21910   1.560   3.876   1.079
 7004SOL    HW121911   1.654   3.843   1.072
 7004SOL    HW221912   1.561   3.974   1.099
 7005SOL     OW21913   5.260   6.101   6.414
 7005SOL    HW121914   5.288   6.195   6.395
 7005SOL    HW221915   5.284   6.043   6.336
 7006SOL     OW21916   4.595   4.538   4.921
 7006SOL    HW121917   4.610   4.504   4.828
 7006SOL    HW221918   4.498   4.527   4.944
 7007SOL     OW21919   4.352   6.034   3.331
 7007SOL    HW121920   4.282   6.015   3.400
 7007SOL    HW221921   4.347   6.130   3.303
 7008SOL     OW21922   1.248   4.849   4.071
 7008SOL    HW121923   1.195   4.765   4.081
 7008SOL    HW221924   1.301   4.846   3.987
 7009SOL     OW21925   0.379   4.679   1.978
 7009SOL    HW121926   0.461   4.734   1.991
 7009SOL    HW221927   0.378   4.604   2.045
 7010SOL     OW21928   3.712   5.020   6.295
 7010SOL    HW121929   3.691   5.037   6.199
 7010SOL    HW221930   3.810   5.034   6.310
 7011SOL     OW21931   2.831   0.539   5.915
 7011SOL    HW121932   2.897   0.572   5.983
 7011SOL    HW221933   2.877   0.477   5.852
 7012SOL     OW21934   1.523   0.661   1.464
 7012SOL    HW121935   1.429   0.662   1.429
 7012SOL    HW221936   1.586   0.659   1.387
 7013SOL     OW21937   1.093   0.146   1.798
 7013SOL    HW121938   1.064   0.220   1.736
 7013SOL    HW221939   1.154   0.084   1.749
 7014SOL     OW21940   2.629   4.576   1.303
 7014SOL    HW121941   2.537   4.585   1.341
 7014SOL    HW221942   2.675   4.665   1.306
 7015SOL     OW21943   4.974   2.414   3.076
 7015SOL    HW121944   4.969   2.343   3.006
 7015SOL    HW221945   4.884   2.425   3.119
 7016SOL     OW21946   4.633   5.217   0.995
 7016SOL    HW121947   4.601   5.281   0.926
 7016SOL    HW221948   4.725   5.185   0.972
 7017SOL     OW21949   3.215   1.807   3.207
 7017SOL    HW121950   3.187   1.880   3.145
 7017SOL    HW221951   3.230   1.845   3.299
 7018SOL     OW21952   0.566   4.743   5.105
 7018SOL    HW121953   0.654   4.718   5.147
 7018SOL    HW221954   0.517   4.806   5.165
 7019SOL     OW21955   2.518   5.697   6.928
 7019SOL    HW121956   2.509   5.604   6.894
 7019SOL    HW221957   2.609   5.732   6.906
 7020SOL     OW21958   6.416   6.364   6.560
 7020SOL    HW121959   6.339   6.356   6.497
 7020SOL    HW221960   6.471   6.444   6.535
 7021SOL     OW21961   2.282   1.343   6.182
 7021SOL    HW121962   2.291   1.244   6.196
 7021SOL    HW221963   2.350   1.374   6.115
 7022SOL     OW21964   5.439   4.483   6.972
 7022SOL    HW121965   5.476   4.417   0.013
 7022SOL    HW221966   5.512   4.544   6.941
 7023SOL     OW21967   6.678   3.832   2.348
 7023SOL    HW121968   6.669   3.923   2.308
 7023SOL    HW221969   6.656   3.835   2.445
 7024SOL     OW21970   1.954   6.056   0.438
 7024SOL    HW121971   1.904   6.133   0.399
 7024SOL    HW221972   1.995   6.002   0.365
 7025SOL     OW21973   3.093   2.076   6.523
 7025SOL    HW121974   3.103   2.020   6.440
 7025SOL    HW221975   3.089   2.016   6.603
 7026SOL     OW21976   3.679   1.436   1.367
 7026SOL    HW121977   3.682   1.536   1.375
 7026SOL    HW221978   3.618   1.410   1.292
 7027SOL     OW21979   3.997   6.399   4.512
 7027SOL    HW121980   4.062   6.333   4.550
 7027SOL    HW221981   4.041   6.449   4.437
 7028SOL     OW21982   3.871   6.620   3.985
 7028SOL    HW121983   3.874   6.674   4.069
 7028SOL    HW221984   3.950   6.557   3.983
 7029SOL     OW21985   3.393   0.435   6.837
 7029SOL    HW121986   3.311   0.391   6.874
 7029SOL    HW221987   3.372   0.476   6.749
 7030SOL     OW21988   0.834   3.471   4.715
 7030SOL    HW121989   0.798   3.470   4.808
 7030SOL    HW221990   0.761   3.448   4.651
 7031SOL     OW21991   1.560   5.832   4.394
 7031SOL    HW121992   1.625   5.773   4.444
 7031SOL    HW221993   1.467   5.807   4.419
 7032SOL     OW21994   5.947   0.909   2.318
 7032SOL    HW121995   5.990   0.830   2.275
 7032SOL    HW221996   5.935   0.891   2.416
 7033SOL     OW21997   6.923   1.044   3.796
 7033SOL    HW121998   6.953   1.107   3.725
 7033SOL    HW221999   6.973   1.063   3.881
 7034SOL     OW22000   6.933   6.598   2.811
 7034SOL    HW122001   6.910   6.635   2.901
 7034SOL    HW222002   6.939   6.673   2.745
 7035SOL     OW22003   6.545   5.681   2.673
 7035SOL    HW122004   6.597   5.759   2.637
 7035SOL    HW222005   6.564   5.600   2.617
 7036SOL     OW22006   0.033   4.949   2.028
 7036SOL    HW122007   0.000   4.916   2.117
 7036SOL    HW222008   0.116   5.003   2.041
 7037SOL     OW22009   1.127   6.125   6.034
 7037SOL    HW122010   1.207   6.128   5.974
 7037SOL    HW222011   1.045   6.147   5.981
 7038SOL     OW22012   0.661   4.052   4.597
 7038SOL    HW122013   0.652   4.124   4.528
 7038SOL    HW222014   0.658   3.962   4.552
 7039SOL     OW22015   3.734   0.979   6.264
 7039SOL    HW122016   3.664   1.040   6.300
 7039SOL    HW222017   3.717   0.886   6.297
 7040SOL     OW22018   5.309   2.091   6.333
 7040SOL    HW122019   5.302   2.190   6.341
 7040SOL    HW222020   5.321   2.066   6.237
 7041SOL     OW22021   1.819   1.888   2.810
 7041SOL    HW122022   1.741   1.942   2.839
 7041SOL    HW222023   1.902   1.923   2.853
 7042SOL     OW22024   3.586   6.252   6.317
 7042SOL    HW122025   3.542   6.212   6.237
 7042SOL    HW222026   3.544   6.214   6.400
 7043SOL     OW22027   2.270   1.970   3.086
 7043SOL    HW122028   2.350   1.936   3.037
 7043SOL    HW222029   2.285   2.065   3.113
 7044SOL     OW22030   4.890   4.599   2.749
 7044SOL    HW122031   4.912   4.534   2.821
 7044SOL    HW222032   4.949   4.582   2.670
 7045SOL     OW22033   5.633   5.357   1.168
 7045SOL    HW122034   5.692   5.420   1.117
 7045SOL    HW222035   5.689   5.300   1.228
 7046SOL     OW22036   3.838   0.697   4.593
 7046SOL    HW122037   3.836   0.782   4.541
 7046SOL    HW222038   3.784   0.707   4.677
 7047SOL     OW22039   1.369   0.752   4.317
 7047SOL    HW122040   1.408   0.685   4.379
 7047SOL    HW222041   1.269   0.751   4.325
 7048SOL     OW22042   6.677   5.973   0.184
 7048SOL    HW122043   6.683   6.047   0.116
 7048SOL    HW222044   6.734   5.897   0.155
 7049SOL     OW22045   2.457   1.243   0.797
 7049SOL    HW122046   2.541   1.287   0.764
 7049SOL    HW222047   2.470   1.216   0.893
 7050SOL     OW22048   3.859   4.056   4.383
 7050SOL    HW122049   3.831   3.963   4.406
 7050SOL    HW222050   3.933   4.085   4.444
 7051SOL     OW22051   0.007   0.275   1.995
 7051SOL    HW122052   0.058   0.207   2.047
 7051SOL    HW222053   6.994   0.234   1.912
 7052SOL     OW22054   0.372   2.168   3.888
 7052SOL    HW122055   0.293   2.114   3.858
 7052SOL    HW222056   0.359   2.195   3.983
 7053SOL     OW22057   0.728   3.945   6.796
 7053SOL    HW122058   0.719   4.036   6.838
 7053SOL    HW222059   0.825   3.922   6.788
 7054SOL     OW22060   6.715   6.533   1.813
 7054SOL    HW122061   6.638   6.477   1.844
 7054SOL    HW222062   6.799   6.501   1.857
 7055SOL     OW22063   4.546   0.644   4.091
 7055SOL    HW122064   4.552   0.544   4.093
 7055SOL    HW222065   4.523   0.674   3.998
 7056SOL     OW22066   5.310   4.952   4.148
 7056SOL    HW122067   5.236   4.897   4.187
 7056SOL    HW222068   5.275   5.001   4.068
 7057SOL     OW22069   0.072   5.834   3.588
 7057SOL    HW122070   0.012   5.904   3.628
 7057SOL    HW222071   0.164   5.844   3.626
 7058SOL     OW22072   0.923   5.180   5.753
 7058SOL    HW122073   0.983   5.255   5.781
 7058SOL    HW222074   0.974   5.094   5.753
 7059SOL     OW22075   1.007   0.502   2.413
 7059SOL    HW122076   0.990   0.441   2.336
 7059SOL    HW222077   1.097   0.545   2.403
 7060SOL     OW22078   3.595   6.263   1.915
 7060SOL    HW122079   3.609   6.176   1.963
 7060SOL    HW222080   3.677   6.286   1.864
 7061SOL     OW22081   0.943   0.458   2.882
 7061SOL    HW122082   0.979   0.524   2.948
 7061SOL    HW222083   0.921   0.506   2.797
 7062SOL     OW22084   5.318   1.887   5.286
 7062SOL    HW122085   5.316   1.913   5.190
 7062SOL    HW222086   5.393   1.823   5.302
 7063SOL     OW22087   2.590   6.529   1.227
 7063SOL    HW122088   2.525   6.487   1.290
 7063SOL    HW222089   2.581   6.628   1.232
 7064SOL     OW22090   3.747   2.386   1.438
 7064SOL    HW122091   3.821   2.320   1.452
 7064SOL    HW222092   3.724   2.430   1.526
 7065SOL     OW22093   4.598   3.695   1.594
 7065SOL    HW122094   4.643   3.780   1.623
 7065SOL    HW222095   4.656   3.648   1.528
 7066SOL     OW22096   3.913   6.844   0.223
 7066SOL    HW122097   3.848   6.915   0.251
 7066SOL    HW222098   3.866   6.778   0.164
 7067SOL     OW22099   0.655   3.968   5.584
 7067SOL    HW122100   0.655   4.065   5.561
 7067SOL    HW222101   0.685   3.956   5.679
 7068SOL     OW22102   1.458   1.088   3.820
 7068SOL    HW122103   1.465   1.168   3.761
 7068SOL    HW222104   1.429   1.116   3.911
 7069SOL     OW22105   0.414   4.205   5.354
 7069SOL    HW122106   0.377   4.284   5.305
 7069SOL    HW222107   0.514   4.202   5.343
 7070SOL     OW22108   6.119   4.677   5.018
 7070SOL    HW122109   6.040   4.713   4.968
 7070SOL    HW222110   6.159   4.602   4.966
 7071SOL     OW22111   1.256   5.644   5.500
 7071SOL    HW122112   1.167   5.602   5.522
 7071SOL    HW222113   1.242   5.717   5.433
 7072SOL     OW22114   0.114   6.584   6.846
 7072SOL    HW122115   0.184   6.547   6.907
 7072SOL    HW222116   0.132   6.552   6.752
 7073SOL     OW22117   0.559   0.964   5.394
 7073SOL    HW122118   0.478   0.953   5.337
 7073SOL    HW222119   0.565   0.887   5.459
 7074SOL     OW22120   3.248   1.955   1.475
 7074SOL    HW122121   3.166   1.899   1.488
 7074SOL    HW222122   3.227   2.051   1.497
 7075SOL     OW22123   1.667   5.660   4.221
 7075SOL    HW122124   1.733   5.697   4.154
 7075SOL    HW222125   1.628   5.735   4.274
 7076SOL     OW22126   3.295   2.120   6.231
 7076SOL    HW122127   3.196   2.108   6.220
 7076SOL    HW222128   3.321   2.094   6.324
 7077SOL     OW22129   2.198   5.348   5.627
 7077SOL    HW122130   2.187   5.441   5.661
 7077SOL    HW222131   2.158   5.283   5.692
 7078SOL     OW22132   5.602   0.936   3.233
 7078SOL    HW122133   5.679   0.949   3.296
 7078SOL    HW222134   5.579   1.023   3.190
 7079SOL     OW22135   6.431   6.405   6.074
 7079SOL    HW122136   6.443   6.316   6.116
 7079SOL    HW222137   6.484   6.473   6.124
 7080SOL     OW22138   4.451   2.053   3.833
 7080SOL    HW122139   4.517   2.100   3.775
 7080SOL    HW222140   4.486   2.050   3.927
 7081SOL     OW22141   3.377   1.350   5.619
 7081SOL    HW122142   3.340   1.257   5.614
 7081SOL    HW222143   3.440   1.357   5.696
 7082SOL     OW22144   6.034   1.237   6.406
 7082SOL    HW122145   6.014   1.327   6.366
 7082SOL    HW222146   6.100   1.248   6.480
 7083SOL     OW22147   3.236   0.354   5.977
 7083SOL    HW122148   3.289   0.387   6.055
 7083SOL    HW222149   3.272   0.393   5.893
 7084SOL     OW22150   6.906   6.450   6.231
 7084SOL    HW122151   6.894   6.513   6.308
 7084SOL    HW222152   6.946   6.500   6.154
 7085SOL     OW22153   2.020   2.343   2.288
 7085SOL    HW122154   2.035   2.442   2.292
 7085SOL    HW222155   1.921   2.325   2.290
 7086SOL     OW22156   5.751   0.687   6.204
 7086SOL    HW122157   5.718   0.704   6.297
 7086SOL    HW222158   5.744   0.589   6.184
 7087SOL     OW22159   1.020   3.130   4.835
 7087SOL    HW122160   1.033   3.100   4.929
 7087SOL    HW222161   1.081   3.207   4.816
 7088SOL     OW22162   5.554   3.419   4.331
 7088SOL    HW122163   5.558   3.347   4.262
 7088SOL    HW222164   5.501   3.387   4.410
 7089SOL     OW22165   3.710   1.798   6.840
 7089SOL    HW122166   3.649   1.822   6.764
 7089SOL    HW222167   3.660   1.801   6.926
 7090SOL     OW22168   2.261   2.105   5.048
 7090SOL    HW122169   2.211   2.027   5.009
 7090SOL    HW222170   2.227   2.123   5.140
 7091SOL     OW22171   6.924   0.613   0.554
 7091SOL    HW122172   6.920   0.531   0.612
 7091SOL    HW222173   6.916   0.587   0.458
 7092SOL     OW22174   3.594   4.234   1.268
 7092SOL    HW122175   3.564   4.289   1.346
 7092SOL    HW222176   3.515   4.214   1.209
 7093SOL     OW22177   3.457   3.800   4.766
 7093SOL    HW122178   3.456   3.700   4.761
 7093SOL    HW222179   3.385   3.832   4.828
 7094SOL     OW22180   0.960   6.620   5.834
 7094SOL    HW122181   1.052   6.649   5.807
 7094SOL    HW222182   0.915   6.576   5.757
 7095SOL     OW22183   0.725   3.243   6.461
 7095SOL    HW122184   0.814   3.228   6.506
 7095SOL    HW222185   0.726   3.199   6.371
 7096SOL     OW22186   4.192   2.202   3.965
 7096SOL    HW122187   4.168   2.223   4.059
 7096SOL    HW222188   4.288   2.226   3.949
 7097SOL     OW22189   0.190   0.866   1.703
 7097SOL    HW122190   0.114   0.891   1.644
 7097SOL    HW222191   0.157   0.804   1.775
 7098SOL     OW22192   1.860   5.984   6.504
 7098SOL    HW122193   1.800   5.929   6.445
 7098SOL    HW222194   1.949   5.995   6.459
 7099SOL     OW22195   1.250   1.242   5.471
 7099SOL    HW122196   1.342   1.263   5.506
 7099SOL    HW222197   1.190   1.320   5.486
 7100SOL     OW22198   4.890   3.836   1.172
 7100SOL    HW122199   4.843   3.918   1.141
 7100SOL    HW222200   4.989   3.847   1.157
 7101SOL     OW22201   2.935   0.476   5.023
 7101SOL    HW122202   2.958   0.380   5.007
 7101SOL    HW222203   2.855   0.483   5.081
 7102SOL     OW22204   3.728   1.190   0.879
 7102SOL    HW122205   3.631   1.166   0.871
 7102SOL    HW222206   3.747   1.269   0.821
 7103SOL     OW22207   3.450   6.687   0.207
 7103SOL    HW122208   3.423   6.595   0.179
 7103SOL    HW222209   3.483   6.685   0.301
 7104SOL     OW22210   1.650   2.059   3.222
 7104SOL    HW122211   1.605   1.970   3.231
 7104SOL    HW222212   1.644   2.108   3.308
 7105SOL     OW22213   3.449   3.211   4.563
 7105SOL    HW122214   3.462   3.276   4.489
 7105SOL    HW222215   3.372   3.151   4.541
 7106SOL     OW22216   3.748   2.959   4.511
 7106SOL    HW122217   3.678   3.026   4.534
 7106SOL    HW222218   3.745   2.883   4.576
 7107SOL     OW22219   2.785   1.266   0.402
 7107SOL    HW122220   2.725   1.192   0.430
 7107SOL    HW222221   2.827   1.307   0.483
 7108SOL     OW22222   5.203   6.282   1.112
 7108SOL    HW122223   5.189   6.370   1.068
 7108SOL    HW222224   5.127   6.221   1.091
 7109SOL     OW22225   3.414   0.092   5.999
 7109SOL    HW122226   3.361   0.052   6.074
 7109SOL    HW222227   3.368   0.175   5.967
 7110SOL     OW22228   4.491   5.319   4.300
 7110SOL    HW122229   4.473   5.417   4.289
 7110SOL    HW222230   4.576   5.296   4.254
 7111SOL     OW22231   2.036   3.224   4.138
 7111SOL    HW122232   1.998   3.305   4.095
 7111SOL    HW222233   2.086   3.170   4.070
 7112SOL     OW22234   0.854   6.406   4.016
 7112SOL    HW122235   0.943   6.400   4.059
 7112SOL    HW222236   0.785   6.362   4.074
 7113SOL     OW22237   3.767   3.616   4.392
 7113SOL    HW122238   3.798   3.531   4.349
 7113SOL    HW222239   3.670   3.629   4.373
 7114SOL     OW22240   4.343   1.580   1.713
 7114SOL    HW122241   4.332   1.481   1.707
 7114SOL    HW222242   4.252   1.623   1.718
 7115SOL     OW22243   4.931   1.420   1.608
 7115SOL    HW122244   4.848   1.447   1.559
 7115SOL    HW222245   4.994   1.377   1.544
 7116SOL     OW22246   5.524   4.145   3.224
 7116SOL    HW122247   5.575   4.129   3.139
 7116SOL    HW222248   5.512   4.058   3.272
 7117SOL     OW22249   6.309   6.121   2.651
 7117SOL    HW122250   6.349   6.064   2.724
 7117SOL    HW222251   6.347   6.213   2.657
 7118SOL     OW22252   5.633   3.497   0.726
 7118SOL    HW122253   5.598   3.413   0.686
 7118SOL    HW222254   5.600   3.576   0.674
 7119SOL     OW22255   6.531   0.811   3.037
 7119SOL    HW122256   6.538   0.888   2.974
 7119SOL    HW222257   6.546   0.843   3.130
 7120SOL     OW22258   4.699   1.630   4.061
 7120SOL    HW122259   4.734   1.678   4.141
 7120SOL    HW222260   4.664   1.697   3.995
 7121SOL     OW22261   2.620   6.638   3.735
 7121SOL    HW122262   2.579   6.655   3.646
 7121SOL    HW222263   2.549   6.606   3.798
 7122SOL     OW22264   6.408   0.865   6.738
 7122SOL    HW122265   6.410   0.921   6.656
 7122SOL    HW222266   6.351   0.908   6.808
 7123SOL     OW22267   3.352   5.367   1.468
 7123SOL    HW122268   3.437   5.417   1.481
 7123SOL    HW222269   3.274   5.427   1.489
 7124SOL     OW22270   0.492   5.256   6.901
 7124SOL    HW122271   0.589   5.234   6.894
 7124SOL    HW222272   0.480   5.355   6.902
 7125SOL     OW22273   6.572   6.526   2.586
 7125SOL    HW122274   6.542   6.591   2.516
 7125SOL    HW222275   6.665   6.548   2.614
 7126SOL     OW22276   1.787   4.382   0.108
 7126SOL    HW122277   1.708   4.440   0.088
 7126SOL    HW222278   1.776   4.294   0.063
 7127SOL     OW22279   3.587   6.273   4.485
 7127SOL    HW122280   3.654   6.208   4.519
 7127SOL    HW222281   3.559   6.248   4.392
 7128SOL     OW22282   3.388   4.469   1.199
 7128SOL    HW122283   3.304   4.435   1.157
 7128SOL    HW222284   3.398   4.430   1.290
 7129SOL     OW22285   2.989   0.327   1.622
 7129SOL    HW122286   2.938   0.272   1.556
 7129SOL    HW222287   3.007   0.418   1.583
 7130SOL     OW22288   2.491   5.066   3.416
 7130SOL    HW122289   2.582   5.045   3.451
 7130SOL    HW222290   2.463   5.156   3.449
 7131SOL     OW22291   2.367   1.366   2.609
 7131SOL    HW122292   2.402   1.435   2.672
 7131SOL    HW222293   2.436   1.296   2.594
 7132SOL     OW22294   3.666   3.952   3.167
 7132SOL    HW122295   3.616   3.870   3.195
 7132SOL    HW222296   3.601   4.022   3.137
 7133SOL     OW22297   4.986   5.299   3.494
 7133SOL    HW122298   4.950   5.207   3.478
 7133SOL    HW222299   4.945   5.337   3.576
 7134SOL     OW22300   6.077   5.325   4.060
 7134SOL    HW122301   6.083   5.226   4.070
 7134SOL    HW222302   5.995   5.359   4.106
 7135SOL     OW22303   1.659   1.087   4.297
 7135SOL    HW122304   1.692   1.180   4.285
 7135SOL    HW222305   1.560   1.088   4.311
 7136SOL     OW22306   1.709   1.468   0.598
 7136SOL    HW122307   1.733   1.451   0.693
 7136SOL    HW222308   1.770   1.416   0.538
 7137SOL     OW22309   4.687   0.689   4.348
 7137SOL    HW122310   4.659   0.671   4.254
 7137SOL    HW222311   4.653   0.779   4.376
 7138SOL     OW22312   2.613   4.104   1.182
 7138SOL    HW122313   2.669   4.040   1.234
 7138SOL    HW222314   2.554   4.156   1.244
 7139SOL     OW22315   4.537   3.085   1.629
 7139SOL    HW122316   4.451   3.111   1.673
 7139SOL    HW222317   4.591   3.029   1.691
 7140SOL     OW22318   6.382   4.678   5.123
 7140SOL    HW122319   6.299   4.633   5.089
 7140SOL    HW222320   6.356   4.761   5.172
 7141SOL     OW22321   2.905   0.163   0.957
 7141SOL    HW122322   2.963   0.108   0.897
 7141SOL    HW222323   2.817   0.118   0.968
 7142SOL     OW22324   4.101   6.707   3.607
 7142SOL    HW122325   4.007   6.736   3.625
 7142SOL    HW222326   4.103   6.608   3.590
 7143SOL     OW22327   1.636   3.864   6.079
 7143SOL    HW122328   1.655   3.777   6.034
 7143SOL    HW222329   1.623   3.935   6.011
 7144SOL     OW22330   1.057   1.521   3.259
 7144SOL    HW122331   1.113   1.600   3.278
 7144SOL    HW222332   1.053   1.462   3.340
 7145SOL     OW22333   4.615   0.125   6.928
 7145SOL    HW122334   4.563   0.210   6.935
 7145SOL    HW222335   4.571   0.064   6.861
 7146SOL     OW22336   2.382   6.232   0.081
 7146SOL    HW122337   2.425   6.278   0.159
 7146SOL    HW222338   2.312   6.169   0.114
 7147SOL     OW22339   0.001   0.668   3.106
 7147SOL    HW122340   0.080   0.681   3.047
 7147SOL    HW222341   6.956   0.738   3.088
 7148SOL     OW22342   1.333   0.302   1.932
 7148SOL    HW122343   1.264   0.313   2.003
 7148SOL    HW222344   1.289   0.279   1.845
 7149SOL     OW22345   6.411   1.613   3.234
 7149SOL    HW122346   6.321   1.643   3.266
 7149SOL    HW222347   6.481   1.639   3.300
 7150SOL     OW22348   5.647   2.412   0.285
 7150SOL    HW122349   5.680   2.359   0.206
 7150SOL    HW222350   5.564   2.370   0.321
 7151SOL     OW22351   2.362   5.669   1.832
 7151SOL    HW122352   2.394   5.590   1.885
 7151SOL    HW222353   2.380   5.653   1.735
 7152SOL     OW22354   1.065   2.830   3.930
 7152SOL    HW122355   1.127   2.776   3.873
 7152SOL    HW222356   1.109   2.848   4.019
 7153SOL     OW22357   4.630   0.965   4.378
 7153SOL    HW122358   4.660   0.953   4.284
 7153SOL    HW222359   4.530   0.977   4.381
 7154SOL     OW22360   4.233   5.997   4.132
 7154SOL    HW122361   4.178   6.081   4.127
 7154SOL    HW222362   4.201   5.942   4.209
 7155SOL     OW22363   1.300   6.864   1.874
 7155SOL    HW122364   1.362   6.792   1.907
 7155SOL    HW222365   1.237   6.890   1.948
 7156SOL     OW22366   6.671   5.494   5.170
 7156SOL    HW122367   6.760   5.465   5.135
 7156SOL    HW222368   6.633   5.565   5.112
 7157SOL     OW22369   5.370   5.430   0.799
 7157SOL    HW122370   5.403   5.396   0.887
 7157SOL    HW222371   5.408   5.374   0.725
 7158SOL     OW22372   0.527   6.825   3.257
 7158SOL    HW122373   0.593   6.765   3.302
 7158SOL    HW222374   0.443   6.828   3.311
 7159SOL     OW22375   0.607   5.138   0.190
 7159SOL    HW122376   0.553   5.091   0.260
 7159SOL    HW222377   0.559   5.134   0.103
 7160SOL     OW22378   6.579   0.516   1.866
 7160SOL    HW122379   6.589   0.531   1.767
 7160SOL    HW222380   6.492   0.556   1.897
 7161SOL     OW22381   3.504   2.967   4.166
 7161SOL    HW122382   3.497   3.055   4.118
 7161SOL    HW222383   3.600   2.947   4.185
 7162SOL     OW22384   3.845   4.965   4.213
 7162SOL    HW122385   3.749   4.967   4.242
 7162SOL    HW222386   3.881   5.058   4.212
 7163SOL     OW22387   3.171   0.440   3.428
 7163SOL    HW122388   3.265   0.415   3.407
 7163SOL    HW222389   3.113   0.359   3.426
 7164SOL     OW22390   2.169   1.049   3.548
 7164SOL    HW122391   2.161   0.957   3.510
 7164SOL    HW222392   2.265   1.067   3.572
 7165SOL     OW22393   5.287   0.743   0.693
 7165SOL    HW122394   5.257   0.758   0.787
 7165SOL    HW222395   5.360   0.674   0.692
 7166SOL     OW22396   4.868   5.142   0.890
 7166SOL    HW122397   4.856   5.046   0.864
 7166SOL    HW222398   4.965   5.158   0.911
 7167SOL     OW22399   4.841   3.318   5.248
 7167SOL    HW122400   4.776   3.390   5.223
 7167SOL    HW222401   4.862   3.323   5.346
 7168SOL     OW22402   1.220   0.328   3.966
 7168SOL    HW122403   1.195   0.371   4.053
 7168SOL    HW222404   1.289   0.383   3.919
 7169SOL     OW22405   1.509   2.901   6.014
 7169SOL    HW122406   1.554   2.838   6.077
 7169SOL    HW222407   1.553   2.991   6.019
 7170SOL     OW22408   5.695   4.979   3.559
 7170SOL    HW122409   5.602   4.986   3.595
 7170SOL    HW222410   5.693   4.943   3.465
 7171SOL     OW22411   4.441   2.918   5.379
 7171SOL    HW122412   4.365   2.853   5.368
 7171SOL    HW222413   4.495   2.893   5.459
 7172SOL     OW22414   1.741   6.931   0.668
 7172SOL    HW122415   1.769   6.864   0.736
 7172SOL    HW222416   1.798   7.013   0.676
 7173SOL     OW22417   6.850   6.294   5.438
 7173SOL    HW122418   6.924   6.345   5.394
 7173SOL    HW222419   6.888   6.214   5.484
 7174SOL     OW22420   2.317   5.390   0.129
 7174SOL    HW122421   2.241   5.335   0.164
 7174SOL    HW222422   2.383   5.405   0.202
 7175SOL     OW22423   4.814   4.022   0.216
 7175SOL    HW122424   4.890   3.967   0.250
 7175SOL    HW222425   4.835   4.119   0.228
 7176SOL     OW22426   6.346   4.527   1.454
 7176SOL    HW122427   6.433   4.539   1.405
 7176SOL    HW222428   6.279   4.487   1.392
 7177SOL     OW22429   1.316   5.850   3.163
 7177SOL    HW122430   1.395   5.813   3.114
 7177SOL    HW222431   1.337   5.854   3.261
 7178SOL     OW22432   1.156   2.706   4.488
 7178SOL    HW122433   1.064   2.669   4.499
 7178SOL    HW222434   1.194   2.674   4.401
 7179SOL     OW22435   2.826   3.873   5.441
 7179SOL    HW122436   2.896   3.806   5.414
 7179SOL    HW222437   2.736   3.841   5.412
 7180SOL     OW22438   0.512   6.426   1.425
 7180SOL    HW122439   0.593   6.476   1.456
 7180SOL    HW222440   0.525   6.398   1.330
 7181SOL     OW22441   4.745   0.373   1.419
 7181SOL    HW122442   4.733   0.310   1.342
 7181SOL    HW222443   4.816   0.439   1.396
 7182SOL     OW22444   2.498   4.301   5.538
 7182SOL    HW122445   2.537   4.360   5.467
 7182SOL    HW222446   2.415   4.258   5.504
 7183SOL     OW22447   1.685   4.858   3.647
 7183SOL    HW122448   1.722   4.900   3.565
 7183SOL    HW222449   1.734   4.772   3.665
 7184SOL     OW22450   2.110   6.570   3.975
 7184SOL    HW122451   2.096   6.473   3.990
 7184SOL    HW222452   2.065   6.598   3.890
 7185SOL     OW22453   4.566   2.740   6.831
 7185SOL    HW122454   4.557   2.698   6.922
 7185SOL    HW222455   4.591   2.669   6.765
 7186SOL     OW22456   6.626   5.909   5.263
 7186SOL    HW122457   6.629   6.007   5.282
 7186SOL    HW222458   6.607   5.894   5.166
 7187SOL     OW22459   1.905   4.168   2.079
 7187SOL    HW122460   1.885   4.211   2.167
 7187SOL    HW222461   1.840   4.201   2.010
 7188SOL     OW22462   5.019   0.697   2.106
 7188SOL    HW122463   4.965   0.626   2.060
 7188SOL    HW222464   4.974   0.786   2.091
 7189SOL     OW22465   0.619   1.275   5.417
 7189SOL    HW122466   0.572   1.190   5.395
 7189SOL    HW222467   0.584   1.312   5.503
 7190SOL     OW22468   5.858   3.959   3.276
 7190SOL    HW122469   5.836   4.052   3.307
 7190SOL    HW222470   5.779   3.919   3.231
 7191SOL     OW22471   1.130   3.810   2.478
 7191SOL    HW122472   1.073   3.728   2.478
 7191SOL    HW222473   1.153   3.834   2.383
 7192SOL     OW22474   2.881   4.877   6.390
 7192SOL    HW122475   2.958   4.819   6.415
 7192SOL    HW222476   2.818   4.825   6.332
 7193SOL     OW22477   3.769   2.006   4.389
 7193SOL    HW122478   3.783   2.078   4.321
 7193SOL    HW222479   3.718   1.931   4.348
 7194SOL     OW22480   2.582   2.268   1.850
 7194SOL    HW122481   2.629   2.356   1.837
 7194SOL    HW222482   2.621   2.221   1.929
 7195SOL     OW22483   0.848   5.416   0.836
 7195SOL    HW122484   0.929   5.403   0.893
 7195SOL    HW222485   0.773   5.451   0.892
 7196SOL     OW22486   2.866   3.418   2.670
 7196SOL    HW122487   2.767   3.406   2.661
 7196SOL    HW222488   2.912   3.385   2.588
 7197SOL     OW22489   6.864   1.702   5.219
 7197SOL    HW122490   6.850   1.708   5.318
 7197SOL    HW222491   6.953   1.739   5.196
 7198SOL     OW22492   1.455   6.936   6.292
 7198SOL    HW122493   1.553   6.933   6.271
 7198SOL    HW222494   1.442   6.968   6.386
 7199SOL     OW22495   0.018   0.088   2.736
 7199SOL    HW122496   6.972   0.134   2.790
 7199SOL    HW222497   0.020   0.127   2.644
 7200SOL     OW22498   2.106   1.092   1.558
 7200SOL    HW122499   2.187   1.116   1.505
 7200SOL    HW222500   2.084   1.167   1.621
 7201SOL     OW22501   1.380   4.482   3.934
 7201SOL    HW122502   1.300   4.479   3.874
 7201SOL    HW222503   1.350   4.491   4.029
 7202SOL     OW22504   3.727   0.714   6.399
 7202SOL    HW122505   3.635   0.750   6.418
 7202SOL    HW222506   3.724   0.615   6.396
 7203SOL     OW22507   5.786   0.861   6.802
 7203SOL    HW122508   5.807   0.849   6.899
 7203SOL    HW222509   5.687   0.853   6.788
 7204SOL     OW22510   6.011   1.046   3.260
 7204SOL    HW122511   5.969   1.132   3.232
 7204SOL    HW222512   6.106   1.062   3.287
 7205SOL     OW22513   1.574   4.856   2.944
 7205SOL    HW122514   1.673   4.854   2.953
 7205SOL    HW222515   1.531   4.826   3.029
 7206SOL     OW22516   6.671   1.302   0.951
 7206SOL    HW122517   6.761   1.325   0.915
 7206SOL    HW222518   6.605   1.296   0.876
 7207SOL     OW22519   3.058   6.447   1.150
 7207SOL    HW122520   3.096   6.535   1.178
 7207SOL    HW222521   3.074   6.433   1.052
 7208SOL     OW22522   3.179   0.178   5.442
 7208SOL    HW122523   3.187   0.091   5.393
 7208SOL    HW222524   3.101   0.229   5.407
 7209SOL     OW22525   4.108   3.355   4.105
 7209SOL    HW122526   4.011   3.344   4.083
 7209SOL    HW222527   4.145   3.268   4.138
 7210SOL     OW22528   4.890   1.194   3.722
 7210SOL    HW122529   4.885   1.120   3.655
 7210SOL    HW222530   4.986   1.211   3.746
 7211SOL     OW22531   1.478   5.582   4.047
 7211SOL    HW122532   1.546   5.615   4.112
 7211SOL    HW222533   1.473   5.645   3.969
 7212SOL     OW22534   6.319   6.153   4.297
 7212SOL    HW122535   6.263   6.230   4.326
 7212SOL    HW222536   6.302   6.133   4.200
 7213SOL     OW22537   5.710   0.791   5.467
 7213SOL    HW122538   5.709   0.882   5.509
 7213SOL    HW222539   5.619   0.749   5.475
 7214SOL     OW22540   1.528   5.120   5.423
 7214SOL    HW122541   1.618   5.103   5.463
 7214SOL    HW222542   1.485   5.198   5.470
 7215SOL     OW22543   0.702   3.907   3.980
 7215SOL    HW122544   0.660   3.990   4.016
 7215SOL    HW222545   0.720   3.918   3.883
 7216SOL     OW22546   2.408   0.527   0.108
 7216SOL    HW122547   2.439   0.432   0.109
 7216SOL    HW222548   2.455   0.577   0.036
 7217SOL     OW22549   0.994   3.121   2.746
 7217SOL    HW122550   1.010   3.061   2.667
 7217SOL    HW222551   0.920   3.184   2.724
 7218SOL     OW22552   4.510   2.284   5.600
 7218SOL    HW122553   4.599   2.316   5.570
 7218SOL    HW222554   4.449   2.362   5.613
 7219SOL     OW22555   4.439   6.886   2.688
 7219SOL    HW122556   4.498   6.840   2.622
 7219SOL    HW222557   4.401   6.819   2.752
 7220SOL     OW22558   6.536   1.067   2.589
 7220SOL    HW122559   6.603   0.994   2.578
 7220SOL    HW222560   6.479   1.074   2.507
 7221SOL     OW22561   5.248   3.752   5.977
 7221SOL    HW122562   5.162   3.791   6.012
 7221SOL    HW222563   5.307   3.827   5.946
 7222SOL     OW22564   0.336   5.846   1.129
 7222SOL    HW122565   0.239   5.822   1.126
 7222SOL    HW222566   0.371   5.830   1.221
 7223SOL     OW22567   3.431   1.642   5.899
 7223SOL    HW122568   3.528   1.663   5.886
 7223SOL    HW222569   3.376   1.693   5.832
 7224SOL     OW22570   5.602   0.007   4.860
 7224SOL    HW122571   5.686   0.048   4.823
 7224SOL    HW222572   5.555   6.980   4.788
 7225SOL     OW22573   1.981   6.263   6.724
 7225SOL    HW122574   2.040   6.298   6.796
 7225SOL    HW222575   2.028   6.270   6.636
 7226SOL     OW22576   0.343   6.819   0.300
 7226SOL    HW122577   0.308   6.899   0.251
 7226SOL    HW222578   0.443   6.818   0.294
 7227SOL     OW22579   7.016   2.599   6.897
 7227SOL    HW122580   0.048   2.651   6.832
 7227SOL    HW222581   0.051   2.534   6.946
 7228SOL     OW22582   0.506   0.497   1.898
 7228SOL    HW122583   0.475   0.562   1.829
 7228SOL    HW222584   0.501   0.404   1.860
 7229SOL     OW22585   0.850   0.113   4.176
 7229SOL    HW122586   0.782   0.185   4.165
 7229SOL    HW222587   0.904   0.106   4.092
 7230SOL     OW22588   4.949   4.887   3.883
 7230SOL    HW122589   4.943   4.809   3.821
 7230SOL    HW222590   4.920   4.859   3.975
 7231SOL     OW22591   6.011   1.313   5.819
 7231SOL    HW122592   6.033   1.285   5.725
 7231SOL    HW222593   6.036   1.240   5.882
 7232SOL     OW22594   3.964   4.816   2.303
 7232SOL    HW122595   3.899   4.792   2.375
 7232SOL    HW222596   3.915   4.841   2.220
 7233SOL     OW22597   0.141   2.827   5.968
 7233SOL    HW122598   0.181   2.735   5.966
 7233SOL    HW222599   0.176   2.879   5.890
 7234SOL     OW22600   6.205   1.988   1.750
 7234SOL    HW122601   6.160   1.929   1.683
 7234SOL    HW222602   6.294   1.949   1.774
 7235SOL     OW22603   5.465   4.080   5.369
 7235SOL    HW122604   5.382   4.091   5.315
 7235SOL    HW222605   5.464   3.989   5.413
 7236SOL     OW22606   3.611   0.965   2.936
 7236SOL    HW122607   3.659   0.968   3.024
 7236SOL    HW222608   3.598   0.870   2.909
 7237SOL     OW22609   5.959   5.949   6.033
 7237SOL    HW122610   5.968   5.854   6.002
 7237SOL    HW222611   6.042   5.975   6.082
 7238SOL     OW22612   2.518   2.240   2.149
 7238SOL    HW122613   2.448   2.232   2.078
 7238SOL    HW222614   2.603   2.199   2.117
 7239SOL     OW22615   2.672   1.502   2.096
 7239SOL    HW122616   2.631   1.479   2.008
 7239SOL    HW222617   2.767   1.528   2.083
 7240SOL     OW22618   2.555   4.440   0.386
 7240SOL    HW122619   2.532   4.478   0.476
 7240SOL    HW222620   2.646   4.398   0.390
 7241SOL     OW22621   3.147   6.733   4.702
 7241SOL    HW122622   3.203   6.657   4.735
 7241SOL    HW222623   3.206   6.807   4.671
 7242SOL     OW22624   5.797   4.147   6.625
 7242SOL    HW122625   5.758   4.234   6.654
 7242SOL    HW222626   5.819   4.151   6.527
 7243SOL     OW22627   0.675   5.676   0.425
 7243SOL    HW122628   0.619   5.631   0.356
 7243SOL    HW222629   0.741   5.610   0.462
 7244SOL     OW22630   5.778   1.866   1.012
 7244SOL    HW122631   5.753   1.778   0.974
 7244SOL    HW222632   5.848   1.854   1.083
 7245SOL     OW22633   0.418   1.820   4.339
 7245SOL    HW122634   0.465   1.895   4.291
 7245SOL    HW222635   0.486   1.753   4.371
 7246SOL     OW22636   6.965   6.717   5.630
 7246SOL    HW122637   6.998   6.790   5.571
 7246SOL    HW222638   6.884   6.675   5.589
 7247SOL     OW22639   3.068   5.788   2.525
 7247SOL    HW122640   3.137   5.748   2.585
 7247SOL    HW222641   3.039   5.721   2.457
 7248SOL     OW22642   4.103   0.742   4.372
 7248SOL    HW122643   4.055   0.793   4.443
 7248SOL    HW222644   4.093   0.789   4.284
 7249SOL     OW22645   6.175   5.113   6.945
 7249SOL    HW122646   6.086   5.145   6.980
 7249SOL    HW222647   6.248   5.153   6.999
 7250SOL     OW22648   3.439   4.486   6.104
 7250SOL    HW122649   3.495   4.475   6.023
 7250SOL    HW222650   3.358   4.541   6.082
 7251SOL     OW22651   5.729   0.401   5.240
 7251SOL    HW122652   5.787   0.324   5.212
 7251SOL    HW222653   5.634   0.370   5.246
 7252SOL     OW22654   3.777   3.034   5.034
 7252SOL    HW122655   3.711   3.101   5.068
 7252SOL    HW222656   3.847   3.081   4.980
 7253SOL     OW22657   4.363   5.932   1.271
 7253SOL    HW122658   4.307   5.869   1.324
 7253SOL    HW222659   4.442   5.883   1.233
 7254SOL     OW22660   4.363   6.625   4.406
 7254SOL    HW122661   4.377   6.724   4.405
 7254SOL    HW222662   4.430   6.583   4.467
 7255SOL     OW22663   3.161   3.664   2.698
 7255SOL    HW122664   3.233   3.714   2.650
 7255SOL    HW222665   3.187   3.568   2.706
 7256SOL     OW22666   4.519   5.018   3.748
 7256SOL    HW122667   4.498   5.067   3.663
 7256SOL    HW222668   4.437   5.013   3.804
 7257SOL     OW22669   6.035   3.328   3.242
 7257SOL    HW122670   6.097   3.302   3.315
 7257SOL    HW222671   5.997   3.419   3.261
 7258SOL     OW22672   3.582   6.887   4.519
 7258SOL    HW122673   3.674   6.926   4.529
 7258SOL    HW222674   3.589   6.788   4.509
 7259SOL     OW22675   2.213   4.466   6.488
 7259SOL    HW122676   2.212   4.382   6.541
 7259SOL    HW222677   2.184   4.543   6.545
 7260SOL     OW22678   3.303   2.051   2.371
 7260SOL    HW122679   3.400   2.072   2.384
 7260SOL    HW222680   3.270   1.997   2.448
 7261SOL     OW22681   2.033   3.879   1.758
 7261SOL    HW122682   1.982   3.941   1.699
 7261SOL    HW222683   1.970   3.824   1.812
 7262SOL     OW22684   5.930   1.633   4.837
 7262SOL    HW122685   5.918   1.594   4.745
 7262SOL    HW222686   5.926   1.733   4.831
 7263SOL     OW22687   3.007   5.945   2.054
 7263SOL    HW122688   2.949   6.020   2.022
 7263SOL    HW222689   3.083   5.933   1.990
 7264SOL     OW22690   1.005   7.003   5.612
 7264SOL    HW122691   0.957   7.006   5.700
 7264SOL    HW222692   0.940   6.979   5.539
 7265SOL     OW22693   4.281   5.079   5.879
 7265SOL    HW122694   4.185   5.102   5.894
 7265SOL    HW222695   4.295   4.981   5.893
 7266SOL     OW22696   4.707   0.873   1.765
 7266SOL    HW122697   4.629   0.828   1.809
 7266SOL    HW222698   4.678   0.962   1.729
 7267SOL     OW22699   6.765   4.174   3.958
 7267SOL    HW122700   6.790   4.260   3.912
 7267SOL    HW222701   6.848   4.124   3.981
 7268SOL     OW22702   3.142   7.009   1.485
 7268SOL    HW122703   3.054   6.995   1.439
 7268SOL    HW222704   3.164   6.930   1.541
 7269SOL     OW22705   1.660   6.056   2.274
 7269SOL    HW122706   1.597   6.106   2.334
 7269SOL    HW222707   1.638   5.959   2.277
 7270SOL     OW22708   2.947   1.289   2.507
 7270SOL    HW122709   2.962   1.255   2.600
 7270SOL    HW222710   2.862   1.341   2.504
 7271SOL     OW22711   6.875   3.535   3.510
 7271SOL    HW122712   6.974   3.540   3.528
 7271SOL    HW222713   6.832   3.622   3.535
 7272SOL     OW22714   5.940   2.477   2.163
 7272SOL    HW122715   5.851   2.517   2.141
 7272SOL    HW222716   5.934   2.426   2.249
 7273SOL     OW22717   5.393   4.903   7.007
 7273SOL    HW122718   5.402   4.883   6.910
 7273SOL    HW222719   5.304   4.946   7.024
 7274SOL     OW22720   6.320   4.894   5.259
 7274SOL    HW122721   6.367   4.973   5.298
 7274SOL    HW222722   6.221   4.908   5.264
 7275SOL     OW22723   6.603   6.788   0.473
 7275SOL    HW122724   6.636   6.790   0.567
 7275SOL    HW222725   6.681   6.786   0.410
 7276SOL     OW22726   2.425   2.217   3.946
 7276SOL    HW122727   2.381   2.222   3.856
 7276SOL    HW222728   2.367   2.261   4.014
 7277SOL     OW22729   5.184   1.902   4.653
 7277SOL    HW122730   5.191   1.993   4.610
 7277SOL    HW222731   5.236   1.902   4.738
 7278SOL     OW22732   2.626   1.378   2.774
 7278SOL    HW122733   2.709   1.351   2.822
 7278SOL    HW222734   2.618   1.325   2.689
 7279SOL     OW22735   5.464   5.007   1.296
 7279SOL    HW122736   5.494   5.072   1.365
 7279SOL    HW222737   5.508   4.919   1.311
 7280SOL     OW22738   6.203   2.306   5.505
 7280SOL    HW122739   6.197   2.259   5.417
 7280SOL    HW222740   6.213   2.404   5.489
 7281SOL     OW22741   4.123   5.945   2.522
 7281SOL    HW122742   4.060   5.895   2.463
 7281SOL    HW222743   4.157   6.026   2.474
 7282SOL     OW22744   6.751   4.541   2.379
 7282SOL    HW122745   6.829   4.604   2.381
 7282SOL    HW222746   6.765   4.472   2.308
 7283SOL     OW22747   3.980   4.786   3.343
 7283SOL    HW122748   3.986   4.743   3.253
 7283SOL    HW222749   3.888   4.824   3.355
 7284SOL     OW22750   6.706   1.439   3.282
 7284SOL    HW122751   6.643   1.494   3.338
 7284SOL    HW222752   6.783   1.496   3.254
 7285SOL     OW22753   4.869   2.854   1.875
 7285SOL    HW122754   4.785   2.897   1.906
 7285SOL    HW222755   4.890   2.884   1.782
 7286SOL     OW22756   0.288   1.672   1.951
 7286SOL    HW122757   0.222   1.746   1.965
 7286SOL    HW222758   0.284   1.642   1.856
 7287SOL     OW22759   1.503   2.609   3.653
 7287SOL    HW122760   1.539   2.589   3.744
 7287SOL    HW222761   1.539   2.543   3.587
 7288SOL     OW22762   2.658   2.158   2.682
 7288SOL    HW122763   2.696   2.066   2.696
 7288SOL    HW222764   2.651   2.205   2.770
 7289SOL     OW22765   6.135   1.789   1.547
 7289SOL    HW122766   6.154   1.820   1.454
 7289SOL    HW222767   6.155   1.691   1.555
 7290SOL     OW22768   3.554   1.483   5.313
 7290SOL    HW122769   3.645   1.515   5.288
 7290SOL    HW222770   3.485   1.537   5.263
 7291SOL     OW22771   4.229   0.947   0.573
 7291SOL    HW122772   4.290   0.997   0.635
 7291SOL    HW222773   4.273   0.937   0.484
 7292SOL     OW22774   2.725   0.495   2.637
 7292SOL    HW122775   2.789   0.435   2.588
 7292SOL    HW222776   2.667   0.543   2.572
 7293SOL     OW22777   1.144   0.643   4.964
 7293SOL    HW122778   1.149   0.634   5.063
 7293SOL    HW222779   1.151   0.740   4.939
 7294SOL     OW22780   2.572   6.420   2.574
 7294SOL    HW122781   2.604   6.325   2.573
 7294SOL    HW222782   2.647   6.480   2.603
 7295SOL     OW22783   5.991   5.660   2.061
 7295SOL    HW122784   6.026   5.752   2.047
 7295SOL    HW222785   5.913   5.644   2.000
 7296SOL     OW22786   4.986   4.622   2.168
 7296SOL    HW122787   4.952   4.587   2.080
 7296SOL    HW222788   4.913   4.673   2.213
 7297SOL     OW22789   4.105   6.360   1.245
 7297SOL    HW122790   4.098   6.374   1.146
 7297SOL    HW222791   4.195   6.391   1.276
 7298SOL     OW22792   4.426   5.456   0.019
 7298SOL    HW122793   4.517   5.497   0.021
 7298SOL    HW222794   4.364   5.516   6.992
 7299SOL     OW22795   1.111   2.505   6.573
 7299SOL    HW122796   1.092   2.416   6.532
 7299SOL    HW222797   1.078   2.507   6.667
 7300SOL     OW22798   0.425   5.268   1.988
 7300SOL    HW122799   0.449   5.339   1.921
 7300SOL    HW222800   0.508   5.239   2.036
 7301SOL     OW22801   4.685   0.751   5.470
 7301SOL    HW122802   4.781   0.735   5.494
 7301SOL    HW222803   4.632   0.766   5.554
 7302SOL     OW22804   5.336   1.401   6.029
 7302SOL    HW122805   5.326   1.495   6.063
 7302SOL    HW222806   5.251   1.373   5.984
 7303SOL     OW22807   2.086   1.564   1.567
 7303SOL    HW122808   2.019   1.635   1.587
 7303SOL    HW222809   2.172   1.585   1.614
 7304SOL     OW22810   2.919   5.819   1.730
 7304SOL    HW122811   2.826   5.855   1.729
 7304SOL    HW222812   2.918   5.722   1.703
 7305SOL     OW22813   6.551   1.361   0.357
 7305SOL    HW122814   6.631   1.419   0.369
 7305SOL    HW222815   6.566   1.273   0.403
 7306SOL     OW22816   1.123   2.510   1.768
 7306SOL    HW122817   1.219   2.530   1.749
 7306SOL    HW222818   1.067   2.532   1.688
 7307SOL     OW22819   2.103   0.197   1.578
 7307SOL    HW122820   2.189   0.199   1.628
 7307SOL    HW222821   2.069   0.103   1.573
 7308SOL     OW22822   5.105   1.142   3.313
 7308SOL    HW122823   5.172   1.175   3.379
 7308SOL    HW222824   5.103   1.203   3.234
 7309SOL     OW22825   1.800   4.951   3.418
 7309SOL    HW122826   1.876   4.909   3.366
 7309SOL    HW222827   1.832   5.036   3.460
 7310SOL     OW22828   3.087   2.455   6.138
 7310SOL    HW122829   3.133   2.428   6.223
 7310SOL    HW222830   3.090   2.555   6.129
 7311SOL     OW22831   6.764   6.409   0.041
 7311SOL    HW122832   6.674   6.438   0.074
 7311SOL    HW222833   6.807   6.485   7.015
 7312SOL     OW22834   6.665   2.018   4.345
 7312SOL    HW122835   6.574   2.048   4.375
 7312SOL    HW222836   6.734   2.049   4.410
 7313SOL     OW22837   2.760   0.359   2.349
 7313SOL    HW122838   2.853   0.358   2.386
 7313SOL    HW222839   2.716   0.271   2.368
 7314SOL     OW22840   0.460   4.147   6.526
 7314SOL    HW122841   0.456   4.065   6.584
 7314SOL    HW222842   0.386   4.144   6.459
 7315SOL     OW22843   1.263   4.453   2.350
 7315SOL    HW122844   1.295   4.414   2.436
 7315SOL    HW222845   1.239   4.549   2.364
 7316SOL     OW22846   3.231   2.106   0.742
 7316SOL    HW122847   3.249   2.033   0.676
 7316SOL    HW222848   3.275   2.190   0.712
 7317SOL     OW22849   3.924   1.199   1.061
 7317SOL    HW122850   3.842   1.182   1.006
 7317SOL    HW222851   3.945   1.297   1.060
 7318SOL     OW22852   4.166   6.745   0.555
 7318SOL    HW122853   4.141   6.800   0.475
 7318SOL    HW222854   4.254   6.701   0.539
 7319SOL     OW22855   5.518   4.807   6.765
 7319SOL    HW122856   5.532   4.891   6.713
 7319SOL    HW222857   5.434   4.761   6.734
 7320SOL     OW22858   0.440   2.748   1.782
 7320SOL    HW122859   0.383   2.811   1.835
 7320SOL    HW222860   0.535   2.778   1.787
 7321SOL     OW22861   1.965   0.398   6.500
 7321SOL    HW122862   2.055   0.395   6.542
 7321SOL    HW222863   1.903   0.453   6.556
 7322SOL     OW22864   0.793   2.296   2.865
 7322SOL    HW122865   0.694   2.304   2.878
 7322SOL    HW222866   0.829   2.385   2.835
 7323SOL     OW22867   1.364   2.798   1.445
 7323SOL    HW122868   1.288   2.787   1.381
 7323SOL    HW222869   1.347   2.876   1.504
 7324SOL     OW22870   5.770   4.864   3.228
 7324SOL    HW122871   5.744   4.811   3.148
 7324SOL    HW222872   5.779   4.961   3.203
 7325SOL     OW22873   4.457   1.156   6.086
 7325SOL    HW122874   4.503   1.244   6.070
 7325SOL    HW222875   4.369   1.173   6.129
 7326SOL     OW22876   3.404   0.146   0.733
 7326SOL    HW122877   3.504   0.148   0.728
 7326SOL    HW222878   3.366   0.201   0.659
 7327SOL     OW22879   0.805   4.255   3.699
 7327SOL    HW122880   0.720   4.213   3.669
 7327SOL    HW222881   0.827   4.333   3.640
 7328SOL     OW22882   4.028   4.828   4.717
 7328SOL    HW122883   3.948   4.849   4.773
 7328SOL    HW222884   4.025   4.882   4.632
 7329SOL     OW22885   3.361   3.512   1.773
 7329SOL    HW122886   3.358   3.421   1.732
 7329SOL    HW222887   3.384   3.580   1.704
 7330SOL     OW22888   3.111   2.831   1.750
 7330SOL    HW122889   3.202   2.830   1.790
 7330SOL    HW222890   3.115   2.877   1.661
 7331SOL     OW22891   5.201   0.892   2.789
 7331SOL    HW122892   5.263   0.814   2.783
 7331SOL    HW222893   5.194   0.922   2.885
 7332SOL     OW22894   3.500   5.595   5.987
 7332SOL    HW122895   3.465   5.675   5.938
 7332SOL    HW222896   3.582   5.620   6.039
 7333SOL     OW22897   7.004   1.969   0.888
 7333SOL    HW122898   0.075   1.995   0.909
 7333SOL    HW222899   6.999   1.933   0.795
 7334SOL     OW22900   2.611   0.190   4.350
 7334SOL    HW122901   2.706   0.208   4.326
 7334SOL    HW222902   2.607   0.113   4.414
 7335SOL     OW22903   6.441   3.198   2.222
 7335SOL    HW122904   6.434   3.110   2.175
 7335SOL    HW222905   6.442   3.271   2.153
 7336SOL     OW22906   1.758   6.627   2.275
 7336SOL    HW122907   1.815   6.625   2.358
 7336SOL    HW222908   1.751   6.721   2.242
 7337SOL     OW22909   2.049   1.954   3.432
 7337SOL    HW122910   1.992   1.976   3.353
 7337SOL    HW222911   1.999   1.890   3.491
 7338SOL     OW22912   6.048   3.034   1.561
 7338SOL    HW122913   6.027   3.120   1.607
 7338SOL    HW222914   5.988   3.025   1.481
 7339SOL     OW22915   6.370   5.199   4.323
 7339SOL    HW122916   6.287   5.192   4.378
 7339SOL    HW222917   6.394   5.295   4.311
 7340SOL     OW22918   2.452   6.979   0.995
 7340SOL    HW122919   2.543   6.966   0.957
 7340SOL    HW222920   2.384   6.934   0.937
 7341SOL     OW22921   6.150   4.964   4.382
 7341SOL    HW122922   6.157   4.986   4.285
 7341SOL    HW222923   6.113   4.872   4.393
 7342SOL     OW22924   0.646   5.825   0.673
 7342SOL    HW122925   0.642   5.773   0.588
 7342SOL    HW222926   0.585   5.783   0.740
 7343SOL     OW22927   5.448   3.618   2.520
 7343SOL    HW122928   5.531   3.644   2.471
 7343SOL    HW222929   5.369   3.663   2.479
 7344SOL     OW22930   1.723   0.233   0.288
 7344SOL    HW122931   1.761   0.282   0.209
 7344SOL    HW222932   1.672   0.153   0.256
 7345SOL     OW22933   4.111   5.834   6.874
 7345SOL    HW122934   4.037   5.800   6.933
 7345SOL    HW222935   4.108   5.933   6.872
 7346SOL     OW22936   3.969   4.801   1.841
 7346SOL    HW122937   4.068   4.814   1.846
 7346SOL    HW222938   3.924   4.851   1.915
 7347SOL     OW22939   6.154   1.721   3.331
 7347SOL    HW122940   6.074   1.777   3.352
 7347SOL    HW222941   6.158   1.644   3.395
 7348SOL     OW22942   1.230   1.695   3.346
 7348SOL    HW122943   1.263   1.759   3.416
 7348SOL    HW222944   1.303   1.631   3.321
 7349SOL     OW22945   3.276   1.239   0.440
 7349SOL    HW122946   3.228   1.160   0.479
 7349SOL    HW222947   3.302   1.218   0.346
 7350SOL     OW22948   2.371   1.587   2.804
 7350SOL    HW122949   2.276   1.558   2.819
 7350SOL    HW222950   2.425   1.564   2.885
 7351SOL     OW22951   3.943   4.467   6.484
 7351SOL    HW122952   3.924   4.370   6.499
 7351SOL    HW222953   3.865   4.522   6.512
 7352SOL     OW22954   0.024   1.529   1.947
 7352SOL    HW122955   0.029   1.495   1.852
 7352SOL    HW222956   0.085   1.608   1.957
 7353SOL     OW22957   5.036   2.259   5.283
 7353SOL    HW122958   5.124   2.228   5.319
 7353SOL    HW222959   4.970   2.184   5.286
 7354SOL     OW22960   5.668   4.353   6.034
 7354SOL    HW122961   5.729   4.407   5.976
 7354SOL    HW222962   5.707   4.345   6.126
 7355SOL     OW22963   1.734   5.156   2.097
 7355SOL    HW122964   1.803   5.137   2.027
 7355SOL    HW222965   1.728   5.078   2.159
 7356SOL     OW22966   6.155   1.560   5.454
 7356SOL    HW122967   6.066   1.543   5.498
 7356SOL    HW222968   6.142   1.617   5.373
 7357SOL     OW22969   6.752   1.728   6.868
 7357SOL    HW122970   6.802   1.643   6.882
 7357SOL    HW222971   6.799   1.803   6.915
 7358SOL     OW22972   3.234   1.266   4.212
 7358SOL    HW122973   3.270   1.178   4.180
 7358SOL    HW222974   3.136   1.271   4.193
 7359SOL     OW22975   4.107   3.297   3.559
 7359SOL    HW122976   4.112   3.394   3.582
 7359SOL    HW222977   4.085   3.286   3.462
 7360SOL     OW22978   0.440   2.851   5.670
 7360SOL    HW122979   0.483   2.915   5.607
 7360SOL    HW222980   0.341   2.866   5.671
 7361SOL     OW22981   5.314   6.358   2.600
 7361SOL    HW122982   5.331   6.278   2.657
 7361SOL    HW222983   5.250   6.334   2.527
 7362SOL     OW22984   2.005   5.830   6.051
 7362SOL    HW122985   2.037   5.919   6.017
 7362SOL    HW222986   1.952   5.784   5.979
 7363SOL     OW22987   4.968   3.105   6.325
 7363SOL    HW122988   4.949   3.201   6.345
 7363SOL    HW222989   5.017   3.098   6.238
 7364SOL     OW22990   4.410   6.527   1.712
 7364SOL    HW122991   4.382   6.598   1.648
 7364SOL    HW222992   4.446   6.570   1.795
 7365SOL     OW22993   3.467   0.414   2.323
 7365SOL    HW122994   3.456   0.378   2.416
 7365SOL    HW222995   3.413   0.498   2.314
 7366SOL     OW22996   1.198   5.399   6.882
 7366SOL    HW122997   1.243   5.310   6.877
 7366SOL    HW222998   1.132   5.398   6.958
 7367SOL     OW22999   4.735   3.740   0.671
 7367SOL    HW123000   4.692   3.679   0.738
 7367SOL    HW223001   4.782   3.814   0.718
 7368SOL     OW23002   3.333   4.120   4.565
 7368SOL    HW123003   3.334   4.205   4.618
 7368SOL    HW223004   3.423   4.077   4.570
 7369SOL     OW23005   4.002   3.330   0.520
 7369SOL    HW123006   4.047   3.418   0.505
 7369SOL    HW223007   4.040   3.262   0.458
 7370SOL     OW23008   2.172   6.594   1.343
 7370SOL    HW123009   2.216   6.609   1.431
 7370SOL    HW223010   2.155   6.496   1.330
 7371SOL     OW23011   2.204   4.923   4.909
 7371SOL    HW123012   2.203   4.826   4.933
 7371SOL    HW223013   2.294   4.947   4.871
 7372SOL     OW23014   3.488   0.284   5.760
 7372SOL    HW123015   3.504   0.329   5.848
 7372SOL    HW223016   3.574   0.242   5.729
 7373SOL     OW23017   3.739   0.863   1.842
 7373SOL    HW123018   3.715   0.770   1.814
 7373SOL    HW223019   3.831   0.884   1.809
 7374SOL     OW23020   1.633   2.778   6.258
 7374SOL    HW123021   1.727   2.798   6.233
 7374SOL    HW223022   1.601   2.844   6.327
 7375SOL     OW23023   1.442   0.322   3.774
 7375SOL    HW123024   1.520   0.383   3.789
 7375SOL    HW223025   1.377   0.367   3.712
 7376SOL     OW23026   2.101   3.539   6.374
 7376SOL    HW123027   2.188   3.584   6.394
 7376SOL    HW223028   2.116   3.440   6.369
 7377SOL     OW23029   4.174   4.215   1.006
 7377SOL    HW123030   4.078   4.187   1.010
 7377SOL    HW223031   4.206   4.209   0.912
 7378SOL     OW23032   6.578   0.964   4.968
 7378SOL    HW123033   6.484   0.932   4.967
 7378SOL    HW223034   6.620   0.945   5.057
 7379SOL     OW23035   3.464   1.299   1.724
 7379SOL    HW123036   3.429   1.390   1.746
 7379SOL    HW223037   3.455   1.240   1.805
 7380SOL     OW23038   0.033   3.700   6.584
 7380SOL    HW123039   0.125   3.660   6.587
 7380SOL    HW223040   6.992   3.631   6.550
 7381SOL     OW23041   5.321   1.816   1.272
 7381SOL    HW123042   5.418   1.795   1.266
 7381SOL    HW223043   5.309   1.908   1.310
 7382SOL     OW23044   0.087   5.902   4.102
 7382SOL    HW123045   0.080   5.944   4.193
 7382SOL    HW223046   0.012   5.936   4.044
 7383SOL     OW23047   0.025   6.198   3.211
 7383SOL    HW123048   7.001   6.286   3.216
 7383SOL    HW223049   0.124   6.215   3.210
 7384SOL     OW23050   5.349   0.027   2.398
 7384SOL    HW123051   5.354   6.957   2.434
 7384SOL    HW223052   5.278   0.077   2.448
 7385SOL     OW23053   5.027   5.837   1.590
 7385SOL    HW123054   5.089   5.804   1.661
 7385SOL    HW223055   5.063   5.920   1.549
 7386SOL     OW23056   0.798   2.151   5.278
 7386SOL    HW123057   0.871   2.147   5.209
 7386SOL    HW223058   0.743   2.233   5.262
 7387SOL     OW23059   4.075   6.179   3.162
 7387SOL    HW123060   4.018   6.208   3.085
 7387SOL    HW223061   4.017   6.143   3.235
 7388SOL     OW23062   6.415   5.371   3.404
 7388SOL    HW123063   6.343   5.414   3.349
 7388SOL    HW223064   6.504   5.391   3.364
 7389SOL     OW23065   1.264   3.979   6.164
 7389SOL    HW123066   1.259   3.901   6.101
 7389SOL    HW223067   1.218   3.954   6.250
 7390SOL     OW23068   1.685   6.510   5.043
 7390SOL    HW123069   1.766   6.565   5.061
 7390SOL    HW223070   1.620   6.562   4.987
 7391SOL     OW23071   5.928   3.423   6.611
 7391SOL    HW123072   6.025   3.435   6.590
 7391SOL    HW223073   5.918   3.368   6.693
 7392SOL     OW23074   1.307   4.549   4.186
 7392SOL    HW123075   1.255   4.474   4.226
 7392SOL    HW223076   1.395   4.558   4.233
 7393SOL     OW23077   0.433   3.800   2.697
 7393SOL    HW123078   0.336   3.779   2.711
 7393SOL    HW223079   0.455   3.887   2.742
 7394SOL     OW23080   3.668   3.752   6.632
 7394SOL    HW123081   3.580   3.730   6.675
 7394SOL    HW223082   3.732   3.675   6.645
 7395SOL     OW23083   0.875   0.006   0.733
 7395SOL    HW123084   0.911   0.005   0.826
 7395SOL    HW223085   0.825   6.945   0.715
 7396SOL     OW23086   0.734   0.048   6.748
 7396SOL    HW123087   0.819   0.100   6.756
 7396SOL    HW223088   0.680   0.085   6.672
 7397SOL     OW23089   5.802   5.085   5.111
 7397SOL    HW123090   5.706   5.110   5.120
 7397SOL    HW223091   5.839   5.124   5.026
 7398SOL     OW23092   4.359   4.650   3.724
 7398SOL    HW123093   4.419   4.698   3.788
 7398SOL    HW223094   4.382   4.553   3.724
 7399SOL     OW23095   5.019   3.934   5.640
 7399SOL    HW123096   4.949   3.993   5.680
 7399SOL    HW223097   5.023   3.848   5.692
 7400SOL     OW23098   2.391   5.337   6.497
 7400SOL    HW123099   2.371   5.351   6.400
 7400SOL    HW223100   2.321   5.384   6.552
 7401SOL     OW23101   6.860   2.028   3.751
 7401SOL    HW123102   6.827   1.968   3.679
 7401SOL    HW223103   6.801   2.019   3.832
 7402SOL     OW23104   2.826   0.719   3.573
 7402SOL    HW123105   2.747   0.657   3.569
 7402SOL    HW223106   2.866   0.728   3.482
 7403SOL     OW23107   1.524   3.737   2.949
 7403SOL    HW123108   1.569   3.733   3.039
 7403SOL    HW223109   1.572   3.678   2.885
 7404SOL     OW23110   1.759   0.101   1.851
 7404SOL    HW123111   1.740   0.191   1.811
 7404SOL    HW223112   1.674   0.048   1.857
 7405SOL     OW23113   3.016   4.791   5.762
 7405SOL    HW123114   3.030   4.695   5.788
 7405SOL    HW223115   2.988   4.842   5.843
 7406SOL     OW23116   0.486   4.971   1.368
 7406SOL    HW123117   0.412   4.905   1.379
 7406SOL    HW223118   0.478   5.015   1.278
 7407SOL     OW23119   1.454   6.413   6.532
 7407SOL    HW123120   1.545   6.417   6.573
 7407SOL    HW223121   1.387   6.448   6.597
 7408SOL     OW23122   1.891   4.329   5.901
 7408SOL    HW123123   1.909   4.427   5.908
 7408SOL    HW223124   1.800   4.309   5.936
 7409SOL     OW23125   2.353   5.483   5.058
 7409SOL    HW123126   2.285   5.441   5.118
 7409SOL    HW223127   2.439   5.495   5.108
 7410SOL     OW23128   6.819   4.726   0.728
 7410SOL    HW123129   6.875   4.657   0.774
 7410SOL    HW223130   6.763   4.774   0.795
 7411SOL     OW23131   3.807   5.988   5.138
 7411SOL    HW123132   3.734   6.018   5.200
 7411SOL    HW223133   3.780   6.005   5.043
 7412SOL     OW23134   1.126   1.602   0.345
 7412SOL    HW123135   1.111   1.527   0.409
 7412SOL    HW223136   1.047   1.664   0.348
 7413SOL     OW23137   6.404   3.850   4.725
 7413SOL    HW123138   6.349   3.767   4.713
 7413SOL    HW223139   6.498   3.833   4.695
 7414SOL     OW23140   6.946   6.850   2.435
 7414SOL    HW123141   6.905   6.836   2.525
 7414SOL    HW223142   6.933   6.945   2.407
 7415SOL     OW23143   2.105   2.561   3.394
 7415SOL    HW123144   2.031   2.519   3.342
 7415SOL    HW223145   2.081   2.656   3.415
 7416SOL     OW23146   3.771   0.716   4.238
 7416SOL    HW123147   3.846   0.654   4.260
 7416SOL    HW223148   3.759   0.719   4.139
 7417SOL     OW23149   1.163   6.507   0.182
 7417SOL    HW123150   1.248   6.551   0.210
 7417SOL    HW223151   1.086   6.568   0.200
 7418SOL     OW23152   1.786   3.424   0.709
 7418SOL    HW123153   1.837   3.510   0.703
 7418SOL    HW223154   1.689   3.444   0.722
 7419SOL     OW23155   6.606   0.838   4.633
 7419SOL    HW123156   6.643   0.806   4.547
 7419SOL    HW223157   6.522   0.890   4.616
 7420SOL     OW23158   6.951   6.234   1.802
 7420SOL    HW123159   6.957   6.329   1.833
 7420SOL    HW223160   6.870   6.222   1.745
 7421SOL     OW23161   4.108   3.935   0.942
 7421SOL    HW123162   4.185   3.887   0.900
 7421SOL    HW223163   4.065   3.876   1.010
 7422SOL     OW23164   0.193   3.476   0.385
 7422SOL    HW123165   0.235   3.540   0.449
 7422SOL    HW223166   0.263   3.438   0.325
 7423SOL     OW23167   1.780   5.283   6.705
 7423SOL    HW123168   1.763   5.243   6.795
 7423SOL    HW223169   1.779   5.382   6.712
 7424SOL     OW23170   5.746   0.964   4.706
 7424SOL    HW123171   5.694   0.880   4.723
 7424SOL    HW223172   5.843   0.945   4.716
 7425SOL     OW23173   3.303   5.789   5.908
 7425SOL    HW123174   3.306   5.812   5.810
 7425SOL    HW223175   3.211   5.757   5.931
 7426SOL     OW23176   0.974   1.247   6.596
 7426SOL    HW123177   0.954   1.308   6.520
 7426SOL    HW223178   0.960   1.152   6.568
 7427SOL     OW23179   4.261   5.260   4.836
 7427SOL    HW123180   4.297   5.202   4.763
 7427SOL    HW223181   4.165   5.239   4.850
 7428SOL     OW23182   3.685   1.984   5.869
 7428SOL    HW123183   3.673   1.885   5.873
 7428SOL    HW223184   3.737   2.014   5.949
 7429SOL     OW23185   0.213   0.413   3.049
 7429SOL    HW123186   0.279   0.451   3.114
 7429SOL    HW223187   0.170   0.333   3.090
 7430SOL     OW23188   6.528   4.293   5.018
 7430SOL    HW123189   6.475   4.209   5.035
 7430SOL    HW223190   6.520   4.319   4.922
 7431SOL     OW23191   0.972   4.503   2.173
 7431SOL    HW123192   1.049   4.460   2.127
 7431SOL    HW223193   0.935   4.441   2.242
 7432SOL     OW23194   0.675   6.573   5.179
 7432SOL    HW123195   0.697   6.508   5.106
 7432SOL    HW223196   0.647   6.660   5.138
 7433SOL     OW23197   6.371   5.523   0.755
 7433SOL    HW123198   6.385   5.447   0.691
 7433SOL    HW223199   6.408   5.499   0.844
 7434SOL     OW23200   4.295   1.281   6.317
 7434SOL    HW123201   4.209   1.256   6.361
 7434SOL    HW223202   4.290   1.375   6.282
 7435SOL     OW23203   2.389   6.642   0.028
 7435SOL    HW123204   2.365   6.608   0.119
 7435SOL    HW223205   2.330   6.721   0.006
 7436SOL     OW23206   4.943   2.770   0.261
 7436SOL    HW123207   4.970   2.863   0.287
 7436SOL    HW223208   4.874   2.736   0.325
 7437SOL     OW23209   0.676   6.074   5.805
 7437SOL    HW123210   0.667   6.101   5.901
 7437SOL    HW223211   0.651   5.978   5.794
 7438SOL     OW23212   6.631   4.724   1.676
 7438SOL    HW123213   6.656   4.764   1.764
 7438SOL    HW223214   6.681   4.638   1.663
 7439SOL     OW23215   2.302   0.027   3.765
 7439SOL    HW123216   2.370   7.008   3.706
 7439SOL    HW223217   2.253   6.981   3.816
 7440SOL     OW23218   1.583   2.453   4.147
 7440SOL    HW123219   1.597   2.358   4.176
 7440SOL    HW223220   1.671   2.496   4.131
 7441SOL     OW23221   5.491   1.022   4.013
 7441SOL    HW123222   5.582   0.981   4.013
 7441SOL    HW223223   5.485   1.091   4.085
 7442SOL     OW23224   1.184   1.022   6.692
 7442SOL    HW123225   1.133   1.046   6.774
 7442SOL    HW223226   1.121   1.018   6.614
 7443SOL     OW23227   0.428   1.314   6.857
 7443SOL    HW123228   0.490   1.383   6.895
 7443SOL    HW223229   0.387   1.349   6.773
 7444SOL     OW23230   0.612   2.990   6.611
 7444SOL    HW123231   0.610   2.908   6.552
 7444SOL    HW223232   0.656   3.065   6.562
 7445SOL     OW23233   5.337   1.905   2.065
 7445SOL    HW123234   5.325   1.853   1.979
 7445SOL    HW223235   5.410   1.863   2.119
 7446SOL     OW23236   6.322   4.075   0.870
 7446SOL    HW123237   6.327   4.039   0.963
 7446SOL    HW223238   6.373   4.161   0.865
 7447SOL     OW23239   1.037   3.886   5.932
 7447SOL    HW123240   1.035   3.986   5.920
 7447SOL    HW223241   0.974   3.844   5.867
 7448SOL     OW23242   6.755   0.029   5.808
 7448SOL    HW123243   6.682   7.004   5.856
 7448SOL    HW223244   6.844   7.016   5.836
 7449SOL     OW23245   5.553   1.799   2.218
 7449SOL    HW123246   5.546   1.701   2.198
 7449SOL    HW223247   5.646   1.821   2.248
 7450SOL     OW23248   4.590   1.655   2.996
 7450SOL    HW123249   4.655   1.695   3.060
 7450SOL    HW223250   4.499   1.692   3.014
 7451SOL     OW23251   2.233   0.462   4.126
 7451SOL    HW123252   2.280   0.421   4.204
 7451SOL    HW223253   2.169   0.396   4.087
 7452SOL     OW23254   2.160   6.413   5.075
 7452SOL    HW123255   2.192   6.336   5.020
 7452SOL    HW223256   2.073   6.390   5.119
 7453SOL     OW23257   5.421   6.311   4.313
 7453SOL    HW123258   5.451   6.406   4.322
 7453SOL    HW223259   5.327   6.308   4.279
 7454SOL     OW23260   0.775   3.719   1.231
 7454SOL    HW123261   0.685   3.733   1.273
 7454SOL    HW223262   0.804   3.624   1.246
 7455SOL     OW23263   4.770   2.726   0.451
 7455SOL    HW123264   4.759   2.650   0.514
 7455SOL    HW223265   4.715   2.804   0.482
 7456SOL     OW23266   1.737   3.570   4.933
 7456SOL    HW123267   1.786   3.624   5.002
 7456SOL    HW223268   1.772   3.476   4.935
 7457SOL     OW23269   6.191   0.751   5.358
 7457SOL    HW123270   6.235   0.695   5.288
 7457SOL    HW223271   6.130   0.694   5.413
 7458SOL     OW23272   2.671   1.027   0.861
 7458SOL    HW123273   2.746   1.004   0.923
 7458SOL    HW223274   2.596   1.069   0.912
 7459SOL     OW23275   4.513   0.714   4.936
 7459SOL    HW123276   4.549   0.639   4.879
 7459SOL    HW223277   4.588   0.754   4.988
 7460SOL     OW23278   0.727   4.380   0.286
 7460SOL    HW123279   0.798   4.387   0.216
 7460SOL    HW223280   0.697   4.285   0.294
 7461SOL     OW23281   5.356   0.804   4.687
 7461SOL    HW123282   5.350   0.879   4.621
 7461SOL    HW223283   5.452   0.778   4.699
 7462SOL     OW23284   2.159   1.934   2.349
 7462SOL    HW123285   2.204   1.958   2.435
 7462SOL    HW223286   2.227   1.931   2.276
 7463SOL     OW23287   3.800   3.751   2.039
 7463SOL    HW123288   3.835   3.832   1.992
 7463SOL    HW223289   3.863   3.725   2.112
 7464SOL     OW23290   4.994   6.033   0.552
 7464SOL    HW123291   4.912   5.996   0.509
 7464SOL    HW223292   5.046   6.085   0.485
 7465SOL     OW23293   2.829   0.188   1.418
 7465SOL    HW123294   2.877   0.233   1.343
 7465SOL    HW223295   2.732   0.214   1.415
 7466SOL     OW23296   0.704   0.550   0.145
 7466SOL    HW123297   0.733   0.600   0.063
 7466SOL    HW223298   0.738   0.456   0.140
 7467SOL     OW23299   0.286   1.619   1.020
 7467SOL    HW123300   0.300   1.707   0.974
 7467SOL    HW223301   0.212   1.627   1.086
 7468SOL     OW23302   6.135   1.512   3.003
 7468SOL    HW123303   6.059   1.542   2.946
 7468SOL    HW223304   6.100   1.484   3.093
 7469SOL     OW23305   1.162   1.042   0.866
 7469SOL    HW123306   1.215   0.961   0.889
 7469SOL    HW223307   1.110   1.072   0.946
 7470SOL     OW23308   6.879   2.332   2.487
 7470SOL    HW123309   6.954   2.386   2.527
 7470SOL    HW223310   6.906   2.297   2.398
 7471SOL     OW23311   6.158   6.601   5.583
 7471SOL    HW123312   6.161   6.504   5.562
 7471SOL    HW223313   6.076   6.622   5.635
 7472SOL     OW23314   3.455   0.434   3.653
 7472SOL    HW123315   3.537   0.407   3.703
 7472SOL    HW223316   3.388   0.473   3.717
 7473SOL     OW23317   0.022   3.674   3.977
 7473SOL    HW123318   6.979   3.675   4.051
 7473SOL    HW223319   7.009   3.723   3.898
 7474SOL     OW23320   3.805   0.979   3.122
 7474SOL    HW123321   3.796   1.079   3.121
 7474SOL    HW223322   3.819   0.948   3.216
 7475SOL     OW23323   3.522   1.018   1.133
 7475SOL    HW123324   3.452   0.991   1.199
 7475SOL    HW223325   3.479   1.060   1.054
 7476SOL     OW23326   3.516   6.601   4.310
 7476SOL    HW123327   3.498   6.580   4.406
 7476SOL    HW223328   3.569   6.528   4.269
 7477SOL     OW23329   3.660   1.577   3.998
 7477SOL    HW123330   3.588   1.532   3.945
 7477SOL    HW223331   3.626   1.596   4.090
 7478SOL     OW23332   1.584   4.542   0.185
 7478SOL    HW123333   1.575   4.569   0.281
 7478SOL    HW223334   1.532   4.606   0.127
 7479SOL     OW23335   4.682   0.824   6.720
 7479SOL    HW123336   4.759   0.766   6.745
 7479SOL    HW223337   4.684   0.907   6.775
 7480SOL     OW23338   6.606   5.254   1.294
 7480SOL    HW123339   6.627   5.272   1.390
 7480SOL    HW223340   6.663   5.312   1.236
 7481SOL     OW23341   5.427   5.286   0.593
 7481SOL    HW123342   5.351   5.315   0.536
 7481SOL    HW223343   5.512   5.289   0.540
 7482SOL     OW23344   4.931   0.795   2.964
 7482SOL    HW123345   4.985   0.842   3.034
 7482SOL    HW223346   4.891   0.862   2.902
 7483SOL     OW23347   3.552   0.960   5.067
 7483SOL    HW123348   3.634   0.989   5.017
 7483SOL    HW223349   3.497   1.040   5.090
 7484SOL     OW23350   1.927   6.521   2.067
 7484SOL    HW123351   1.980   6.593   2.021
 7484SOL    HW223352   1.858   6.564   2.126
 7485SOL     OW23353   2.922   5.543   6.202
 7485SOL    HW123354   2.927   5.472   6.272
 7485SOL    HW223355   2.826   5.554   6.173
 7486SOL     OW23356   2.835   6.435   5.731
 7486SOL    HW123357   2.804   6.521   5.692
 7486SOL    HW223358   2.797   6.358   5.679
 7487SOL     OW23359   3.441   6.224   4.182
 7487SOL    HW123360   3.427   6.177   4.095
 7487SOL    HW223361   3.353   6.250   4.221
 7488SOL     OW23362   4.070   0.199   6.126
 7488SOL    HW123363   3.985   0.241   6.093
 7488SOL    HW223364   4.051   0.106   6.158
 7489SOL     OW23365   5.112   3.180   3.973
 7489SOL    HW123366   5.155   3.242   4.039
 7489SOL    HW223367   5.015   3.202   3.966
 7490SOL     OW23368   5.099   0.792   1.284
 7490SOL    HW123369   5.157   0.788   1.366
 7490SOL    HW223370   5.020   0.850   1.301
 7491SOL     OW23371   6.510   5.908   6.476
 7491SOL    HW123372   6.594   5.875   6.434
 7491SOL    HW223373   6.532   5.971   6.550
 7492SOL     OW23374   1.821   2.535   4.980
 7492SOL    HW123375   1.837   2.633   4.996
 7492SOL    HW223376   1.903   2.495   4.939
 7493SOL     OW23377   5.366   3.723   6.381
 7493SOL    HW123378   5.438   3.654   6.372
 7493SOL    HW223379   5.280   3.679   6.408
 7494SOL     OW23380   5.374   6.978   2.144
 7494SOL    HW123381   5.289   6.996   2.095
 7494SOL    HW223382   5.360   6.996   2.242
 7495SOL     OW23383   1.833   2.287   1.012
 7495SOL    HW123384   1.873   2.226   0.944
 7495SOL    HW223385   1.760   2.239   1.061
 7496SOL     OW23386   1.160   4.465   6.068
 7496SOL    HW123387   1.228   4.477   5.996
 7496SOL    HW223388   1.075   4.431   6.027
 7497SOL     OW23389   1.626   3.966   2.359
 7497SOL    HW123390   1.561   3.894   2.382
 7497SOL    HW223391   1.719   3.934   2.376
 7498SOL     OW23392   3.604   1.539   4.664
 7498SOL    HW123393   3.684   1.598   4.664
 7498SOL    HW223394   3.570   1.528   4.758
 7499SOL     OW23395   5.399   6.837   4.216
 7499SOL    HW123396   5.412   6.923   4.167
 7499SOL    HW223397   5.332   6.781   4.168
 7500SOL     OW23398   4.763   5.884   1.772
 7500SOL    HW123399   4.832   5.853   1.707
 7500SOL    HW223400   4.800   5.879   1.865
 7501SOL     OW23401   0.188   3.995   3.719
 7501SOL    HW123402   0.255   3.947   3.775
 7501SOL    HW223403   0.230   4.022   3.633
 7502SOL     OW23404   2.643   1.161   5.244
 7502SOL    HW123405   2.640   1.235   5.176
 7502SOL    HW223406   2.729   1.167   5.296
 7503SOL     OW23407   3.183   1.279   0.113
 7503SOL    HW123408   3.193   1.358   0.054
 7503SOL    HW223409   3.274   1.249   0.144
 7504SOL     OW23410   3.850   6.567   3.073
 7504SOL    HW123411   3.760   6.524   3.063
 7504SOL    HW223412   3.845   6.639   3.142
 7505SOL     OW23413   1.587   1.415   4.849
 7505SOL    HW123414   1.593   1.510   4.820
 7505SOL    HW223415   1.592   1.355   4.769
 7506SOL     OW23416   3.574   1.010   2.380
 7506SOL    HW123417   3.587   1.023   2.478
 7506SOL    HW223418   3.478   1.030   2.356
 7507SOL     OW23419   0.726   6.069   6.270
 7507SOL    HW123420   0.711   6.115   6.358
 7507SOL    HW223421   0.821   6.040   6.264
 7508SOL     OW23422   5.918   0.087   2.672
 7508SOL    HW123423   5.870   0.028   2.737
 7508SOL    HW223424   6.001   0.041   2.641
 7509SOL     OW23425   4.927   3.621   6.063
 7509SOL    HW123426   4.852   3.645   6.002
 7509SOL    HW223427   4.949   3.524   6.052
 7510SOL     OW23428   3.938   4.047   4.833
 7510SOL    HW123429   3.886   4.105   4.896
 7510SOL    HW223430   3.879   3.973   4.800
 7511SOL     OW23431   1.589   0.400   1.909
 7511SOL    HW123432   1.605   0.471   1.841
 7511SOL    HW223433   1.498   0.361   1.895
 7512SOL     OW23434   2.432   2.820   1.614
 7512SOL    HW123435   2.389   2.785   1.531
 7512SOL    HW223436   2.412   2.918   1.624
 7513SOL     OW23437   1.338   2.025   6.855
 7513SOL    HW123438   1.355   2.021   6.953
 7513SOL    HW223439   1.337   2.120   6.824
 7514SOL     OW23440   2.862   5.384   2.420
 7514SOL    HW123441   2.787   5.345   2.367
 7514SOL    HW223442   2.914   5.310   2.465
 7515SOL     OW23443   0.164   6.449   2.468
 7515SOL    HW123444   0.150   6.540   2.430
 7515SOL    HW223445   0.080   6.396   2.458
 7516SOL     OW23446   0.542   0.700   3.372
 7516SOL    HW123447   0.610   0.769   3.396
 7516SOL    HW223448   0.451   0.733   3.396
 7517SOL     OW23449   0.083   3.648   0.865
 7517SOL    HW123450   0.017   3.577   0.839
 7517SOL    HW223451   0.051   3.737   0.833
 7518SOL     OW23452   4.861   5.430   4.325
 7518SOL    HW123453   4.918   5.358   4.284
 7518SOL    HW223454   4.789   5.457   4.260
 7519SOL     OW23455   1.739   6.356   3.882
 7519SOL    HW123456   1.744   6.340   3.981
 7519SOL    HW223457   1.786   6.283   3.834
 7520SOL     OW23458   1.510   6.430   3.744
 7520SOL    HW123459   1.531   6.507   3.684
 7520SOL    HW223460   1.590   6.408   3.799
 7521SOL     OW23461   4.714   4.401   5.107
 7521SOL    HW123462   4.652   4.462   5.058
 7521SOL    HW223463   4.808   4.434   5.097
 7522SOL     OW23464   2.316   1.145   1.373
 7522SOL    HW123465   2.298   1.242   1.364
 7522SOL    HW223466   2.373   1.129   1.454
 7523SOL     OW23467   5.957   0.152   6.203
 7523SOL    HW123468   5.869   0.155   6.157
 7523SOL    HW223469   6.030   0.171   6.138
 7524SOL     OW23470   0.805   1.735   5.339
 7524SOL    HW123471   0.773   1.640   5.335
 7524SOL    HW223472   0.784   1.773   5.430
 7525SOL     OW23473   1.303   1.019   0.625
 7525SOL    HW123474   1.273   1.082   0.553
 7525SOL    HW223475   1.267   1.051   0.713
 7526SOL     OW23476   3.617   3.041   4.802
 7526SOL    HW123477   3.651   3.015   4.892
 7526SOL    HW223478   3.549   2.974   4.771
 7527SOL     OW23479   5.609   4.693   3.453
 7527SOL    HW123480   5.576   4.762   3.388
 7527SOL    HW223481   5.705   4.673   3.435
 7528SOL     OW23482   5.132   2.470   0.232
 7528SOL    HW123483   5.188   2.459   0.315
 7528SOL    HW223484   5.153   2.558   0.190
 7529SOL     OW23485   3.721   0.990   5.472
 7529SOL    HW123486   3.813   1.001   5.509
 7529SOL    HW223487   3.706   1.058   5.400
 7530SOL     OW23488   0.641   4.302   2.215
 7530SOL    HW123489   0.582   4.360   2.159
 7530SOL    HW223490   0.653   4.213   2.170
 7531SOL     OW23491   4.295   1.812   3.522
 7531SOL    HW123492   4.276   1.907   3.495
 7531SOL    HW223493   4.217   1.755   3.498
 7532SOL     OW23494   5.112   5.521   2.615
 7532SOL    HW123495   5.046   5.541   2.543
 7532SOL    HW223496   5.201   5.562   2.592
 7533SOL     OW23497   3.583   1.213   4.681
 7533SOL    HW123498   3.575   1.216   4.581
 7533SOL    HW223499   3.492   1.223   4.722
 7534SOL     OW23500   4.406   6.644   4.758
 7534SOL    HW123501   4.319   6.598   4.742
 7534SOL    HW223502   4.478   6.598   4.706
 7535SOL     OW23503   2.810   2.367   6.166
 7535SOL    HW123504   2.754   2.404   6.239
 7535SOL    HW223505   2.901   2.409   6.169
 7536SOL     OW23506   4.378   5.638   4.784
 7536SOL    HW123507   4.344   5.580   4.858
 7536SOL    HW223508   4.306   5.650   4.715
 7537SOL     OW23509   2.427   4.411   5.798
 7537SOL    HW123510   2.485   4.381   5.722
 7537SOL    HW223511   2.386   4.331   5.842
 7538SOL     OW23512   2.964   3.462   2.969
 7538SOL    HW123513   2.946   3.500   2.878
 7538SOL    HW223514   3.061   3.441   2.977
 7539SOL     OW23515   2.033   2.910   5.053
 7539SOL    HW123516   2.084   2.851   5.116
 7539SOL    HW223517   2.097   2.967   5.002
 7540SOL     OW23518   2.831   1.081   7.006
 7540SOL    HW123519   2.841   1.105   0.078
 7540SOL    HW223520   2.899   1.130   6.951
 7541SOL     OW23521   6.441   2.114   5.374
 7541SOL    HW123522   6.377   2.043   5.404
 7541SOL    HW223523   6.497   2.143   5.451
 7542SOL     OW23524   1.278   6.592   5.758
 7542SOL    HW123525   1.364   6.577   5.807
 7542SOL    HW223526   1.298   6.628   5.667
 7543SOL     OW23527   4.001   3.347   0.788
 7543SOL    HW123528   3.991   3.357   0.689
 7543SOL    HW223529   3.922   3.297   0.825
 7544SOL     OW23530   2.233   2.372   3.052
 7544SOL    HW123531   2.166   2.323   2.996
 7544SOL    HW223532   2.207   2.468   3.061
 7545SOL     OW23533   5.424   0.206   3.596
 7545SOL    HW123534   5.345   0.267   3.605
 7545SOL    HW223535   5.391   0.113   3.577
 7546SOL     OW23536   5.035   0.800   6.642
 7546SOL    HW123537   5.130   0.768   6.638
 7546SOL    HW223538   5.033   0.899   6.647
 7547SOL     OW23539   3.447   0.408   0.341
 7547SOL    HW123540   3.423   0.366   0.253
 7547SOL    HW223541   3.539   0.447   0.334
 7548SOL     OW23542   2.363   2.513   1.256
 7548SOL    HW123543   2.351   2.464   1.169
 7548SOL    HW223544   2.433   2.584   1.245
 7549SOL     OW23545   5.402   2.331   3.034
 7549SOL    HW123546   5.351   2.258   3.080
 7549SOL    HW223547   5.455   2.381   3.102
 7550SOL     OW23548   2.533   5.760   2.990
 7550SOL    HW123549   2.584   5.736   2.907
 7550SOL    HW223550   2.463   5.691   3.007
 7551SOL     OW23551   5.131   2.996   6.506
 7551SOL    HW123552   5.068   3.043   6.444
 7551SOL    HW223553   5.218   2.980   6.460
 7552SOL     OW23554   2.842   5.118   4.501
 7552SOL    HW123555   2.937   5.144   4.517
 7552SOL    HW223556   2.830   5.020   4.520
 7553SOL     OW23557   3.875   5.926   5.807
 7553SOL    HW123558   3.969   5.893   5.804
 7553SOL    HW223559   3.870   6.007   5.865
 7554SOL     OW23560   6.340   0.927   0.175
 7554SOL    HW123561   6.374   1.010   0.219
 7554SOL    HW223562   6.353   0.848   0.235
 7555SOL     OW23563   0.460   6.206   5.381
 7555SOL    HW123564   0.395   6.142   5.425
 7555SOL    HW223565   0.550   6.193   5.422
 7556SOL     OW23566   0.160   2.781   4.573
 7556SOL    HW123567   0.096   2.857   4.580
 7556SOL    HW223568   0.186   2.751   4.665
 7557SOL     OW23569   5.019   4.200   6.205
 7557SOL    HW123570   5.118   4.194   6.199
 7557SOL    HW223571   4.979   4.110   6.188
 7558SOL     OW23572   1.726   3.300   3.289
 7558SOL    HW123573   1.667   3.352   3.227
 7558SOL    HW223574   1.701   3.321   3.384
 7559SOL     OW23575   0.114   4.563   0.847
 7559SOL    HW123576   0.104   4.485   0.909
 7559SOL    HW223577   0.168   4.634   0.891
 7560SOL     OW23578   5.399   6.740   0.584
 7560SOL    HW123579   5.467   6.667   0.588
 7560SOL    HW223580   5.428   6.809   0.518
 7561SOL     OW23581   6.002   3.184   0.651
 7561SOL    HW123582   6.071   3.197   0.722
 7561SOL    HW223583   6.006   3.090   0.617
 7562SOL     OW23584   5.023   6.780   5.443
 7562SOL    HW123585   4.927   6.771   5.469
 7562SOL    HW223586   5.068   6.691   5.453
 7563SOL     OW23587   2.761   0.877   2.266
 7563SOL    HW123588   2.760   0.779   2.245
 7563SOL    HW223589   2.708   0.894   2.349
 7564SOL     OW23590   5.001   0.071   2.944
 7564SOL    HW123591   4.905   0.085   2.919
 7564SOL    HW223592   5.029   7.003   2.919
 7565SOL     OW23593   4.393   4.985   0.019
 7565SOL    HW123594   4.412   4.887   0.029
 7565SOL    HW223595   4.301   4.997   7.004
 7566SOL     OW23596   1.056   5.998   4.387
 7566SOL    HW123597   0.995   5.935   4.340
 7566SOL    HW223598   1.020   6.019   4.478
 7567SOL     OW23599   3.050   5.180   6.694
 7567SOL    HW123600   2.993   5.130   6.629
 7567SOL    HW223601   3.018   5.274   6.701
 7568SOL     OW23602   5.055   5.665   3.825
 7568SOL    HW123603   5.044   5.639   3.921
 7568SOL    HW223604   5.143   5.630   3.791
 7569SOL     OW23605   3.982   6.076   0.281
 7569SOL    HW123606   3.945   6.169   0.290
 7569SOL    HW223607   3.939   6.016   0.348
 7570SOL     OW23608   5.885   5.784   4.024
 7570SOL    HW123609   5.889   5.697   4.072
 7570SOL    HW223610   5.905   5.858   4.087
 7571SOL     OW23611   5.397   4.298   1.539
 7571SOL    HW123612   5.448   4.284   1.454
 7571SOL    HW223613   5.373   4.395   1.548
 7572SOL     OW23614   3.187   0.558   4.682
 7572SOL    HW123615   3.111   0.525   4.738
 7572SOL    HW223616   3.241   0.624   4.733
 7573SOL     OW23617   0.698   6.269   4.398
 7573SOL    HW123618   0.631   6.198   4.378
 7573SOL    HW223619   0.772   6.230   4.453
 7574SOL     OW23620   5.205   6.176   3.599
 7574SOL    HW123621   5.186   6.256   3.654
 7574SOL    HW223622   5.225   6.098   3.658
 7575SOL     OW23623   4.121   1.265   5.496
 7575SOL    HW123624   4.212   1.243   5.533
 7575SOL    HW223625   4.107   1.364   5.498
 7576SOL     OW23626   5.928   2.933   0.246
 7576SOL    HW123627   6.009   2.961   0.299
 7576SOL    HW223628   5.888   3.013   0.202
 7577SOL     OW23629   6.330   1.099   4.813
 7577SOL    HW123630   6.400   1.161   4.849
 7577SOL    HW223631   6.322   1.020   4.874
 7578SOL     OW23632   2.005   5.106   4.820
 7578SOL    HW123633   2.031   5.106   4.724
 7578SOL    HW223634   2.069   5.050   4.872
 7579SOL     OW23635   3.416   1.480   2.440
 7579SOL    HW123636   3.392   1.577   2.443
 7579SOL    HW223637   3.493   1.466   2.378
 7580SOL     OW23638   1.951   4.450   2.541
 7580SOL    HW123639   1.991   4.541   2.542
 7580SOL    HW223640   2.022   4.382   2.562
 7581SOL     OW23641   5.120   0.974   0.847
 7581SOL    HW123642   5.022   0.978   0.864
 7581SOL    HW223643   5.169   0.963   0.934
 7582SOL     OW23644   3.132   1.121   0.910
 7582SOL    HW123645   3.119   1.218   0.930
 7582SOL    HW223646   3.082   1.097   0.827
 7583SOL     OW23647   5.673   3.293   2.107
 7583SOL    HW123648   5.716   3.342   2.183
 7583SOL    HW223649   5.588   3.251   2.138
 7584SOL     OW23650   2.775   6.740   1.476
 7584SOL    HW123651   2.780   6.754   1.575
 7584SOL    HW223652   2.790   6.643   1.455
 7585SOL     OW23653   1.341   4.439   6.469
 7585SOL    HW123654   1.414   4.487   6.518
 7585SOL    HW223655   1.254   4.486   6.484
 7586SOL     OW23656   3.400   0.560   2.776
 7586SOL    HW123657   3.470   0.610   2.826
 7586SOL    HW223658   3.435   0.532   2.687
 7587SOL     OW23659   1.012   1.742   6.387
 7587SOL    HW123660   0.971   1.661   6.429
 7587SOL    HW223661   1.058   1.797   6.457
 7588SOL     OW23662   0.490   4.814   2.854
 7588SOL    HW123663   0.477   4.718   2.832
 7588SOL    HW223664   0.579   4.844   2.821
 7589SOL     OW23665   5.802   5.845   0.662
 7589SOL    HW123666   5.865   5.879   0.732
 7589SOL    HW223667   5.830   5.879   0.572
 7590SOL     OW23668   2.476   1.461   6.016
 7590SOL    HW123669   2.550   1.521   6.046
 7590SOL    HW223670   2.406   1.516   5.970
 7591SOL     OW23671   6.699   4.728   6.541
 7591SOL    HW123672   6.745   4.813   6.569
 7591SOL    HW223673   6.763   4.670   6.491
 7592SOL     OW23674   6.342   5.196   6.688
 7592SOL    HW123675   6.311   5.116   6.739
 7592SOL    HW223676   6.402   5.167   6.614
 7593SOL     OW23677   5.199   2.091   0.231
 7593SOL    HW123678   5.231   2.045   0.148
 7593SOL    HW223679   5.138   2.030   0.282
 7594SOL     OW23680   0.749   6.198   4.144
 7594SOL    HW123681   0.807   6.117   4.142
 7594SOL    HW223682   0.740   6.231   4.238
 7595SOL     OW23683   6.837   3.018   6.605
 7595SOL    HW123684   6.933   3.038   6.586
 7595SOL    HW223685   6.779   3.065   6.537
 7596SOL     OW23686   5.074   4.224   1.730
 7596SOL    HW123687   5.001   4.172   1.774
 7596SOL    HW223688   5.050   4.242   1.635
 7597SOL     OW23689   3.962   5.227   1.636
 7597SOL    HW123690   4.025   5.150   1.624
 7597SOL    HW223691   4.008   5.312   1.612
 7598SOL     OW23692   0.040   0.687   3.374
 7598SOL    HW123693   0.033   0.682   3.275
 7598SOL    HW223694   0.097   0.612   3.408
 7599SOL     OW23695   6.537   1.956   3.167
 7599SOL    HW123696   6.542   1.913   3.077
 7599SOL    HW223697   6.628   1.964   3.206
 7600SOL     OW23698   1.604   1.285   1.989
 7600SOL    HW123699   1.537   1.340   2.040
 7600SOL    HW223700   1.696   1.307   2.021
 7601SOL     OW23701   1.512   6.064   4.287
 7601SOL    HW123702   1.535   5.975   4.326
 7601SOL    HW223703   1.573   6.133   4.324
 7602SOL     OW23704   1.482   4.329   4.680
 7602SOL    HW123705   1.506   4.242   4.723
 7602SOL    HW223706   1.557   4.358   4.621
 7603SOL     OW23707   0.979   6.304   1.388
 7603SOL    HW123708   0.946   6.331   1.478
 7603SOL    HW223709   1.074   6.334   1.376
 7604SOL     OW23710   4.172   5.787   4.989
 7604SOL    HW123711   4.169   5.699   4.943
 7604SOL    HW223712   4.264   5.825   4.983
 7605SOL     OW23713   0.043   4.139   0.083
 7605SOL    HW123714   7.018   4.121   7.022
 7605SOL    HW223715   0.139   4.112   0.073
 7606SOL     OW23716   6.437   2.750   2.295
 7606SOL    HW123717   6.470   2.784   2.383
 7606SOL    HW223718   6.346   2.711   2.306
 7607SOL     OW23719   4.929   0.134   6.475
 7607SOL    HW123720   4.849   0.081   6.503
 7607SOL    HW223721   4.899   0.213   6.421
 7608SOL     OW23722   2.891   3.355   4.491
 7608SOL    HW123723   2.847   3.414   4.559
 7608SOL    HW223724   2.962   3.301   4.535
 7609SOL     OW23725   0.857   3.791   3.485
 7609SOL    HW123726   0.848   3.785   3.386
 7609SOL    HW223727   0.933   3.733   3.516
 7610SOL     OW23728   5.761   0.242   0.804
 7610SOL    HW123729   5.756   0.338   0.833
 7610SOL    HW223730   5.669   0.203   0.803
 7611SOL     OW23731   1.397   1.674   0.298
 7611SOL    HW123732   1.446   1.712   0.219
 7611SOL    HW223733   1.311   1.633   0.268
 7612SOL     OW23734   4.047   2.073   3.495
 7612SOL    HW123735   4.099   2.056   3.578
 7612SOL    HW223736   4.107   2.063   3.415
 7613SOL     OW23737   4.876   0.910   1.359
 7613SOL    HW123738   4.866   1.009   1.359
 7613SOL    HW223739   4.854   0.874   1.450
 7614SOL     OW23740   3.957   1.976   0.968
 7614SOL    HW123741   4.044   1.963   1.016
 7614SOL    HW223742   3.884   1.929   1.019
 7615SOL     OW23743   3.884   5.435   6.216
 7615SOL    HW123744   3.869   5.394   6.126
 7615SOL    HW223745   3.818   5.508   6.231
 7616SOL     OW23746   6.422   3.840   3.431
 7616SOL    HW123747   6.372   3.758   3.401
 7616SOL    HW223748   6.461   3.824   3.522
 7617SOL     OW23749   3.271   4.910   3.118
 7617SOL    HW123750   3.284   4.845   3.193
 7617SOL    HW223751   3.242   4.999   3.156
 7618SOL     OW23752   1.760   2.250   6.518
 7618SOL    HW123753   1.687   2.293   6.570
 7618SOL    HW223754   1.767   2.293   6.428
 7619SOL     OW23755   6.318   3.514   5.262
 7619SOL    HW123756   6.407   3.476   5.234
 7619SOL    HW223757   6.323   3.545   5.357
 7620SOL     OW23758   4.046   0.117   0.550
 7620SOL    HW123759   4.088   0.203   0.578
 7620SOL    HW223760   3.946   0.127   0.550
 7621SOL     OW23761   2.336   0.889   1.235
 7621SOL    HW123762   2.329   0.914   1.139
 7621SOL    HW223763   2.310   0.968   1.292
 7622SOL     OW23764   4.021   3.202   1.091
 7622SOL    HW123765   4.090   3.194   1.019
 7622SOL    HW223766   4.049   3.273   1.156
 7623SOL     OW23767   4.645   6.584   6.014
 7623SOL    HW123768   4.672   6.502   5.964
 7623SOL    HW223769   4.611   6.652   5.949
 7624SOL     OW23770   0.990   1.362   2.821
 7624SOL    HW123771   0.893   1.380   2.803
 7624SOL    HW223772   1.045   1.405   2.750
 7625SOL     OW23773   4.981   0.582   1.422
 7625SOL    HW123774   5.023   0.650   1.363
 7625SOL    HW223775   4.903   0.622   1.469
 7626SOL     OW23776   1.701   6.543   4.213
 7626SOL    HW123777   1.754   6.593   4.144
 7626SOL    HW223778   1.754   6.539   4.298
 7627SOL     OW23779   6.854   3.058   1.224
 7627SOL    HW123780   6.873   2.962   1.245
 7627SOL    HW223781   6.782   3.063   1.155
 7628SOL     OW23782   2.875   1.406   0.653
 7628SOL    HW123783   2.790   1.419   0.704
 7628SOL    HW223784   2.934   1.486   0.666
 7629SOL     OW23785   6.986   5.564   2.886
 7629SOL    HW123786   6.889   5.548   2.872
 7629SOL    HW223787   7.022   5.619   2.810
 7630SOL     OW23788   6.608   0.355   2.107
 7630SOL    HW123789   6.586   0.272   2.056
 7630SOL    HW223790   6.579   0.435   2.055
 7631SOL     OW23791   0.822   1.394   4.312
 7631SOL    HW123792   0.754   1.414   4.241
 7631SOL    HW223793   0.863   1.304   4.294
 7632SOL     OW23794   4.522   2.364   1.117
 7632SOL    HW123795   4.528   2.353   1.018
 7632SOL    HW223796   4.608   2.333   1.159
 7633SOL     OW23797   5.544   3.492   6.424
 7633SOL    HW123798   5.486   3.476   6.504
 7633SOL    HW223799   5.628   3.537   6.452
 7634SOL     OW23800   2.162   0.704   2.420
 7634SOL    HW123801   2.229   0.738   2.354
 7634SOL    HW223802   2.099   0.778   2.446
 7635SOL     OW23803   2.572   5.187   5.843
 7635SOL    HW123804   2.655   5.151   5.800
 7635SOL    HW223805   2.507   5.113   5.858
 7636SOL     OW23806   0.595   0.775   4.080
 7636SOL    HW123807   0.588   0.734   4.170
 7636SOL    HW223808   0.667   0.845   4.081
 7637SOL     OW23809   1.110   6.354   4.093
 7637SOL    HW123810   1.156   6.358   4.004
 7637SOL    HW223811   1.156   6.286   4.150
 7638SOL     OW23812   5.377   5.344   2.180
 7638SOL    HW123813   5.342   5.322   2.088
 7638SOL    HW223814   5.453   5.408   2.172
 7639SOL     OW23815   1.014   1.461   5.196
 7639SOL    HW123816   1.048   1.412   5.115
 7639SOL    HW223817   0.916   1.478   5.185
 7640SOL     OW23818   2.404   1.928   0.218
 7640SOL    HW123819   2.484   1.881   0.254
 7640SOL    HW223820   2.374   1.998   0.283
 7641SOL     OW23821   6.077   3.898   2.544
 7641SOL    HW123822   6.010   3.876   2.473
 7641SOL    HW223823   6.078   3.827   2.614
 7642SOL     OW23824   2.390   1.941   2.189
 7642SOL    HW123825   2.452   1.963   2.264
 7642SOL    HW223826   2.343   2.024   2.159
 7643SOL     OW23827   4.758   2.824   2.817
 7643SOL    HW123828   4.669   2.781   2.833
 7643SOL    HW223829   4.767   2.847   2.720
 7644SOL     OW23830   0.109   2.776   3.086
 7644SOL    HW123831   0.202   2.791   3.119
 7644SOL    HW223832   0.046   2.837   3.134
 7645SOL     OW23833   4.447   4.445   0.013
 7645SOL    HW123834   4.513   4.388   6.988
 7645SOL    HW223835   4.404   4.393   0.086
 7646SOL     OW23836   2.212   2.155   2.163
 7646SOL    HW123837   2.170   2.132   2.074
 7646SOL    HW223838   2.145   2.204   2.219
 7647SOL     OW23839   1.838   3.931   1.555
 7647SOL    HW123840   1.853   3.870   1.478
 7647SOL    HW223841   1.762   3.896   1.611
 7648SOL     OW23842   4.396   1.417   3.842
 7648SOL    HW123843   4.333   1.487   3.808
 7648SOL    HW223844   4.345   1.347   3.891
 7649SOL     OW23845   2.803   0.614   2.213
 7649SOL    HW123846   2.752   0.537   2.250
 7649SOL    HW223847   2.822   0.596   2.116
 7650SOL     OW23848   6.531   3.940   1.917
 7650SOL    HW123849   6.454   3.880   1.893
 7650SOL    HW223850   6.499   4.012   1.978
 7651SOL     OW23851   2.987   0.464   6.619
 7651SOL    HW123852   2.984   0.375   6.574
 7651SOL    HW223853   2.947   0.456   6.710
 7652SOL     OW23854   0.240   3.765   3.397
 7652SOL    HW123855   0.328   3.727   3.370
 7652SOL    HW223856   0.210   3.724   3.483
 7653SOL     OW23857   2.596   1.978   1.578
 7653SOL    HW123858   2.670   2.044   1.562
 7653SOL    HW223859   2.562   1.988   1.671
 7654SOL     OW23860   5.250   3.356   4.139
 7654SOL    HW123861   5.268   3.290   4.212
 7654SOL    HW223862   5.330   3.363   4.080
 7655SOL     OW23863   2.868   6.503   4.946
 7655SOL    HW123864   2.841   6.555   5.027
 7655SOL    HW223865   2.794   6.505   4.879
 7656SOL     OW23866   0.028   6.148   5.516
 7656SOL    HW123867   7.006   6.062   5.538
 7656SOL    HW223868   0.124   6.131   5.497
 7657SOL     OW23869   3.380   1.653   3.628
 7657SOL    HW123870   3.330   1.679   3.546
 7657SOL    HW223871   3.328   1.583   3.678
 7658SOL     OW23872   4.152   1.126   5.863
 7658SOL    HW123873   4.084   1.186   5.819
 7658SOL    HW223874   4.108   1.074   5.935
 7659SOL     OW23875   6.048   6.659   0.783
 7659SOL    HW123876   6.031   6.749   0.742
 7659SOL    HW223877   5.992   6.590   0.738
 7660SOL     OW23878   5.519   5.839   2.986
 7660SOL    HW123879   5.568   5.802   3.064
 7660SOL    HW223880   5.584   5.868   2.916
 7661SOL     OW23881   6.367   3.009   3.525
 7661SOL    HW123882   6.366   3.019   3.426
 7661SOL    HW223883   6.296   3.067   3.566
 7662SOL     OW23884   0.784   4.464   1.965
 7662SOL    HW123885   0.816   4.465   2.060
 7662SOL    HW223886   0.777   4.558   1.932
 7663SOL     OW23887   0.596   4.475   6.295
 7663SOL    HW123888   0.688   4.500   6.266
 7663SOL    HW223889   0.600   4.437   6.387
 7664SOL     OW23890   3.313   5.752   3.652
 7664SOL    HW123891   3.297   5.711   3.742
 7664SOL    HW223892   3.284   5.689   3.580
 7665SOL     OW23893   2.921   0.673   4.344
 7665SOL    HW123894   3.014   0.710   4.351
 7665SOL    HW223895   2.883   0.659   4.435
 7666SOL     OW23896   1.179   0.577   0.866
 7666SOL    HW123897   1.113   0.576   0.940
 7666SOL    HW223898   1.259   0.521   0.890
 7667SOL     OW23899   4.875   0.227   6.778
 7667SOL    HW123900   4.866   0.247   6.681
 7667SOL    HW223901   4.785   0.208   6.817
 7668SOL     OW23902   3.833   4.232   1.131
 7668SOL    HW123903   3.810   4.253   1.036
 7668SOL    HW223904   3.748   4.224   1.184
 7669SOL     OW23905   4.558   0.366   3.772
 7669SOL    HW123906   4.623   0.333   3.841
 7669SOL    HW223907   4.604   0.371   3.683
 7670SOL     OW23908   1.726   5.557   0.434
 7670SOL    HW123909   1.683   5.626   0.375
 7670SOL    HW223910   1.702   5.575   0.529
 7671SOL     OW23911   6.306   1.829   3.743
 7671SOL    HW123912   6.274   1.734   3.749
 7671SOL    HW223913   6.236   1.890   3.779
 7672SOL     OW23914   5.369   0.972   3.763
 7672SOL    HW123915   5.426   1.010   3.690
 7672SOL    HW223916   5.405   1.000   3.852
 7673SOL     OW23917   0.598   4.380   0.573
 7673SOL    HW123918   0.686   4.349   0.609
 7673SOL    HW223919   0.529   4.376   0.645
 7674SOL     OW23920   6.379   1.956   5.132
 7674SOL    HW123921   6.368   2.022   5.207
 7674SOL    HW223922   6.442   1.884   5.160
 7675SOL     OW23923   4.433   0.062   2.350
 7675SOL    HW123924   4.403   0.090   2.259
 7675SOL    HW223925   4.380   7.005   2.378
 7676SOL     OW23926   1.335   0.782   6.745
 7676SOL    HW123927   1.276   0.861   6.724
 7676SOL    HW223928   1.307   0.743   6.833
 7677SOL     OW23929   1.482   3.469   2.732
 7677SOL    HW123930   1.423   3.480   2.812
 7677SOL    HW223931   1.429   3.491   2.650
 7678SOL     OW23932   0.141   0.649   0.857
 7678SOL    HW123933   0.106   0.728   0.908
 7678SOL    HW223934   0.133   0.666   0.759
 7679SOL     OW23935   0.989   5.198   5.081
 7679SOL    HW123936   0.928   5.190   5.003
 7679SOL    HW223937   1.065   5.259   5.059
 7680SOL     OW23938   3.157   3.960   0.270
 7680SOL    HW123939   3.109   3.893   0.212
 7680SOL    HW223940   3.196   3.914   0.349
 7681SOL     OW23941   2.640   1.823   0.293
 7681SOL    HW123942   2.686   1.910   0.276
 7681SOL    HW223943   2.706   1.756   0.328
 7682SOL     OW23944   3.166   6.869   1.907
 7682SOL    HW123945   3.144   6.815   1.826
 7682SOL    HW223946   3.135   6.963   1.894
 7683SOL     OW23947   6.149   2.103   3.031
 7683SOL    HW123948   6.117   2.022   2.982
 7683SOL    HW223949   6.211   2.076   3.104
 7684SOL     OW23950   4.241   1.893   6.447
 7684SOL    HW123951   4.326   1.918   6.493
 7684SOL    HW223952   4.251   1.902   6.348
 7685SOL     OW23953   3.570   3.076   0.664
 7685SOL    HW123954   3.652   3.099   0.611
 7685SOL    HW223955   3.569   3.129   0.749
 7686SOL     OW23956   4.382   0.066   3.763
 7686SOL    HW123957   4.298   0.036   3.809
 7686SOL    HW223958   4.361   0.145   3.705
 7687SOL     OW23959   5.140   5.832   5.610
 7687SOL    HW123960   5.053   5.783   5.613
 7687SOL    HW223961   5.124   5.929   5.631
 7688SOL     OW23962   6.814   6.706   5.107
 7688SOL    HW123963   6.789   6.613   5.131
 7688SOL    HW223964   6.854   6.752   5.186
 7689SOL     OW23965   4.497   6.892   4.771
 7689SOL    HW123966   4.440   6.813   4.749
 7689SOL    HW223967   4.588   6.861   4.798
 7690SOL     OW23968   5.944   4.478   3.133
 7690SOL    HW123969   5.866   4.502   3.190
 7690SOL    HW223970   6.029   4.504   3.179
 7691SOL     OW23971   5.153   2.875   3.984
 7691SOL    HW123972   5.098   2.853   4.064
 7691SOL    HW223973   5.173   2.973   3.982
 7692SOL     OW23974   1.740   6.394   1.890
 7692SOL    HW123975   1.680   6.353   1.959
 7692SOL    HW223976   1.822   6.430   1.934
 7693SOL     OW23977   4.513   1.407   6.446
 7693SOL    HW123978   4.473   1.332   6.394
 7693SOL    HW223979   4.442   1.471   6.474
 7694SOL     OW23980   6.893   4.868   4.313
 7694SOL    HW123981   6.818   4.881   4.249
 7694SOL    HW223982   6.976   4.845   4.263
 7695SOL     OW23983   4.576   6.876   1.195
 7695SOL    HW123984   4.505   6.946   1.191
 7695SOL    HW223985   4.535   6.786   1.179
 7696SOL     OW23986   0.116   2.857   4.876
 7696SOL    HW123987   0.184   2.917   4.918
 7696SOL    HW223988   0.029   2.905   4.867
 7697SOL     OW23989   2.461   1.816   3.363
 7697SOL    HW123990   2.385   1.777   3.310
 7697SOL    HW223991   2.508   1.884   3.307
 7698SOL     OW23992   6.594   2.811   5.288
 7698SOL    HW123993   6.645   2.892   5.257
 7698SOL    HW223994   6.657   2.746   5.331
 7699SOL     OW23995   2.775   6.182   0.282
 7699SOL    HW123996   2.785   6.097   0.230
 7699SOL    HW223997   2.680   6.194   0.309
 7700SOL     OW23998   4.855   6.585   5.218
 7700SOL    HW123999   4.867   6.541   5.129
 7700SOL    HW224000   4.845   6.684   5.205
 7701SOL     OW24001   0.292   1.973   4.954
 7701SOL    HW124002   0.339   1.924   4.881
 7701SOL    HW224003   0.354   2.041   4.993
 7702SOL     OW24004   3.039   5.643   5.950
 7702SOL    HW124005   2.953   5.695   5.950
 7702SOL    HW224006   3.042   5.584   6.031
 7703SOL     OW24007   0.612   1.452   5.615
 7703SOL    HW124008   0.622   1.547   5.587
 7703SOL    HW224009   0.620   1.445   5.714
 7704SOL     OW24010   4.084   4.078   6.664
 7704SOL    HW124011   4.083   3.993   6.717
 7704SOL    HW224012   4.098   4.155   6.726
 7705SOL     OW24013   3.571   5.386   5.069
 7705SOL    HW124014   3.668   5.359   5.072
 7705SOL    HW224015   3.525   5.351   5.150
 7706SOL     OW24016   6.096   0.899   5.162
 7706SOL    HW124017   6.126   0.839   5.237
 7706SOL    HW224018   6.030   0.849   5.105
 7707SOL     OW24019   6.833   5.462   6.383
 7707SOL    HW124020   6.877   5.416   6.460
 7707SOL    HW224021   6.885   5.544   6.359
 7708SOL     OW24022   4.557   6.164   4.429
 7708SOL    HW124023   4.513   6.154   4.340
 7708SOL    HW224024   4.525   6.248   4.473
 7709SOL     OW24025   4.458   2.324   1.737
 7709SOL    HW124026   4.384   2.258   1.754
 7709SOL    HW224027   4.542   2.275   1.718
 7710SOL     OW24028   2.810   0.482   0.722
 7710SOL    HW124029   2.735   0.512   0.781
 7710SOL    HW224030   2.897   0.497   0.770
 7711SOL     OW24031   5.714   6.478   5.634
 7711SOL    HW124032   5.692   6.496   5.538
 7711SOL    HW224033   5.703   6.380   5.653
 7712SOL     OW24034   6.013   5.127   1.072
 7712SOL    HW124035   6.092   5.161   1.020
 7712SOL    HW224036   5.951   5.078   1.011
 7713SOL     OW24037   1.548   4.034   6.399
 7713SOL    HW124038   1.473   4.064   6.457
 7713SOL    HW224039   1.522   3.949   6.352
 7714SOL     OW24040   6.064   4.257   4.121
 7714SOL    HW124041   6.151   4.263   4.169
 7714SOL    HW224042   6.022   4.347   4.117
 7715SOL     OW24043   4.881   0.250   1.657
 7715SOL    HW124044   4.859   0.271   1.562
 7715SOL    HW224045   4.915   0.157   1.664
 7716SOL     OW24046   4.653   2.110   3.016
 7716SOL    HW124047   4.559   2.092   3.044
 7716SOL    HW224048   4.661   2.100   2.917
 7717SOL     OW24049   3.196   1.801   5.495
 7717SOL    HW124050   3.149   1.814   5.408
 7717SOL    HW224051   3.134   1.761   5.561
 7718SOL     OW24052   2.688   1.090   3.552
 7718SOL    HW124053   2.626   1.085   3.630
 7718SOL    HW224054   2.680   1.006   3.499
 7719SOL     OW24055   0.190   1.933   4.472
 7719SOL    HW124056   0.132   1.852   4.483
 7719SOL    HW224057   0.273   1.908   4.423
 7720SOL     OW24058   6.068   6.290   1.161
 7720SOL    HW124059   6.148   6.235   1.137
 7720SOL    HW224060   6.039   6.343   1.082
 7721SOL     OW24061   2.382   4.331   3.675
 7721SOL    HW124062   2.405   4.290   3.763
 7721SOL    HW224063   2.396   4.263   3.602
 7722SOL     OW24064   6.432   4.265   3.620
 7722SOL    HW124065   6.403   4.348   3.668
 7722SOL    HW224066   6.489   4.290   3.542
 7723SOL     OW24067   6.707   3.299   0.616
 7723SOL    HW124068   6.704   3.218   0.674
 7723SOL    HW224069   6.701   3.271   0.520
 7724SOL     OW24070   1.253   4.748   1.085
 7724SOL    HW124071   1.304   4.734   1.000
 7724SOL    HW224072   1.271   4.672   1.147
 7725SOL     OW24073   5.915   3.113   3.451
 7725SOL    HW124074   5.907   3.016   3.426
 7725SOL    HW224075   5.976   3.159   3.387
 7726SOL     OW24076   0.713   4.375   3.249
 7726SOL    HW124077   0.749   4.293   3.295
 7726SOL    HW224078   0.780   4.448   3.253
 7727SOL     OW24079   6.707   3.099   3.165
 7727SOL    HW124080   6.759   3.164   3.110
 7727SOL    HW224081   6.739   3.006   3.147
 7728SOL     OW24082   1.877   3.071   3.393
 7728SOL    HW124083   1.955   3.009   3.390
 7728SOL    HW224084   1.836   3.078   3.302
 7729SOL     OW24085   5.008   2.451   1.240
 7729SOL    HW124086   5.051   2.507   1.311
 7729SOL    HW224087   4.976   2.510   1.166
 7730SOL     OW24088   5.125   6.866   2.845
 7730SOL    HW124089   5.118   6.800   2.771
 7730SOL    HW224090   5.206   6.846   2.900
 7731SOL     OW24091   6.172   1.278   6.876
 7731SOL    HW124092   6.122   1.364   6.860
 7731SOL    HW224093   6.267   1.298   6.899
 7732SOL     OW24094   4.549   6.158   0.224
 7732SOL    HW124095   4.544   6.248   0.267
 7732SOL    HW224096   4.463   6.141   0.175
 7733SOL     OW24097   3.614   0.648   1.161
 7733SOL    HW124098   3.656   0.586   1.095
 7733SOL    HW224099   3.590   0.598   1.244
 7734SOL     OW24100   1.450   2.600   3.930
 7734SOL    HW124101   1.487   2.522   3.980
 7734SOL    HW224102   1.389   2.652   3.989
 7735SOL     OW24103   5.094   4.337   6.464
 7735SOL    HW124104   5.060   4.305   6.375
 7735SOL    HW224105   5.193   4.354   6.457
 7736SOL     OW24106   5.563   4.785   0.167
 7736SOL    HW124107   5.503   4.831   0.102
 7736SOL    HW224108   5.658   4.803   0.143
 7737SOL     OW24109   4.871   1.796   0.766
 7737SOL    HW124110   4.773   1.808   0.782
 7737SOL    HW224111   4.914   1.761   0.849
 7738SOL     OW24112   2.861   5.534   6.971
 7738SOL    HW124113   2.827   5.591   6.896
 7738SOL    HW224114   2.809   5.552   0.030
 7739SOL     OW24115   0.426   2.472   1.439
 7739SOL    HW124116   0.394   2.471   1.344
 7739SOL    HW224117   0.378   2.544   1.490
 7740SOL     OW24118   0.304   0.122   2.804
 7740SOL    HW124119   0.210   0.124   2.769
 7740SOL    HW224120   0.360   0.065   2.745
 7741SOL     OW24121   1.220   6.181   4.256
 7741SOL    HW124122   1.144   6.120   4.277
 7741SOL    HW224123   1.306   6.133   4.266
 7742SOL     OW24124   6.220   2.055   3.491
 7742SOL    HW124125   6.266   2.051   3.403
 7742SOL    HW224126   6.272   2.112   3.554
 7743SOL     OW24127   4.561   2.618   4.737
 7743SOL    HW124128   4.657   2.594   4.752
 7743SOL    HW224129   4.512   2.537   4.703
 7744SOL     OW24130   6.580   0.300   3.036
 7744SOL    HW124131   6.565   0.375   3.101
 7744SOL    HW224132   6.588   0.337   2.943
 7745SOL     OW24133   3.958   3.054   6.097
 7745SOL    HW124134   3.998   3.141   6.122
 7745SOL    HW224135   3.859   3.057   6.112
 7746SOL     OW24136   1.636   0.555   0.150
 7746SOL    HW124137   1.664   0.605   0.232
 7746SOL    HW224138   1.547   0.512   0.166
 7747SOL     OW24139   5.089   6.476   0.963
 7747SOL    HW124140   5.023   6.475   1.039
 7747SOL    HW224141   5.062   6.547   0.898
 7748SOL     OW24142   2.595   4.464   6.101
 7748SOL    HW124143   2.516   4.494   6.047
 7748SOL    HW224144   2.642   4.389   6.054
 7749SOL     OW24145   5.291   2.734   5.766
 7749SOL    HW124146   5.365   2.783   5.721
 7749SOL    HW224147   5.217   2.717   5.700
 7750SOL     OW24148   0.140   5.924   1.679
 7750SOL    HW124149   0.133   6.008   1.734
 7750SOL    HW224150   0.194   5.856   1.728
 7751SOL     OW24151   0.894   2.856   2.158
 7751SOL    HW124152   0.904   2.787   2.231
 7751SOL    HW224153   0.961   2.837   2.086
 7752SOL     OW24154   4.519   1.400   4.319
 7752SOL    HW124155   4.575   1.401   4.236
 7752SOL    HW224156   4.577   1.379   4.398
 7753SOL     OW24157   2.680   1.502   5.205
 7753SOL    HW124158   2.723   1.566   5.270
 7753SOL    HW224159   2.581   1.514   5.207
 7754SOL     OW24160   4.846   6.626   2.004
 7754SOL    HW124161   4.879   6.627   1.910
 7754SOL    HW224162   4.897   6.558   2.057
 7755SOL     OW24163   1.402   4.151   6.018
 7755SOL    HW124164   1.334   4.194   5.958
 7755SOL    HW224165   1.358   4.077   6.070
 7756SOL     OW24166   3.548   5.889   1.498
 7756SOL    HW124167   3.544   5.974   1.446
 7756SOL    HW224168   3.621   5.895   1.566
 7757SOL     OW24169   0.283   4.549   2.527
 7757SOL    HW124170   0.269   4.622   2.594
 7757SOL    HW224171   0.381   4.542   2.505
 7758SOL     OW24172   1.620   0.528   5.247
 7758SOL    HW124173   1.562   0.470   5.190
 7758SOL    HW224174   1.676   0.587   5.189
 7759SOL     OW24175   2.747   2.042   6.481
 7759SOL    HW124176   2.663   2.074   6.437
 7759SOL    HW224177   2.826   2.077   6.431
 7760SOL     OW24178   4.555   3.286   1.195
 7760SOL    HW124179   4.507   3.245   1.272
 7760SOL    HW224180   4.535   3.235   1.112
 7761SOL     OW24181   5.267   5.960   4.445
 7761SOL    HW124182   5.342   6.024   4.426
 7761SOL    HW224183   5.241   5.913   4.361
 7762SOL     OW24184   6.796   0.783   2.695
 7762SOL    HW124185   6.804   0.875   2.656
 7762SOL    HW224186   6.707   0.745   2.672
 7763SOL     OW24187   2.588   0.022   4.560
 7763SOL    HW124188   2.628   6.954   4.565
 7763SOL    HW224189   2.503   0.023   4.613
 7764SOL     OW24190   3.070   3.885   5.261
 7764SOL    HW124191   3.124   3.805   5.234
 7764SOL    HW224192   2.984   3.886   5.211
 7765SOL     OW24193   6.799   3.227   4.510
 7765SOL    HW124194   6.733   3.260   4.442
 7765SOL    HW224195   6.838   3.306   4.559
 7766SOL     OW24196   6.510   3.882   6.656
 7766SOL    HW124197   6.512   3.787   6.625
 7766SOL    HW224198   6.465   3.939   6.586
 7767SOL     OW24199   2.777   0.723   2.840
 7767SOL    HW124200   2.689   0.757   2.873
 7767SOL    HW224201   2.763   0.639   2.787
 7768SOL     OW24202   4.633   5.242   3.321
 7768SOL    HW124203   4.685   5.306   3.377
 7768SOL    HW224204   4.672   5.240   3.229
 7769SOL     OW24205   3.379   2.480   5.389
 7769SOL    HW124206   3.308   2.436   5.334
 7769SOL    HW224207   3.349   2.487   5.484
 7770SOL     OW24208   2.090   3.451   4.753
 7770SOL    HW124209   2.143   3.378   4.710
 7770SOL    HW224210   2.126   3.468   4.845
 7771SOL     OW24211   2.600   2.028   6.091
 7771SOL    HW124212   2.588   1.929   6.085
 7771SOL    HW224213   2.545   2.063   6.167
 7772SOL     OW24214   4.987   6.856   2.006
 7772SOL    HW124215   5.007   6.841   1.909
 7772SOL    HW224216   4.914   6.795   2.035
 7773SOL     OW24217   3.180   6.707   6.985
 7773SOL    HW124218   3.169   6.720   0.060
 7773SOL    HW224219   3.185   6.609   6.965
 7774SOL     OW24220   4.313   2.009   2.769
 7774SOL    HW124221   4.230   2.064   2.775
 7774SOL    HW224222   4.377   2.053   2.706
 7775SOL     OW24223   3.122   0.588   6.890
 7775SOL    HW124224   3.222   0.588   6.881
 7775SOL    HW224225   3.086   0.678   6.865
 7776SOL     OW24226   1.757   1.008   5.036
 7776SOL    HW124227   1.740   1.107   5.037
 7776SOL    HW224228   1.828   0.987   5.103
 7777SOL     OW24229   5.851   5.221   3.523
 7777SOL    HW124230   5.945   5.187   3.535
 7777SOL    HW224231   5.786   5.146   3.537
 7778SOL     OW24232   6.624   5.168   2.628
 7778SOL    HW124233   6.571   5.182   2.712
 7778SOL    HW224234   6.720   5.187   2.647
 7779SOL     OW24235   3.897   5.897   2.347
 7779SOL    HW124236   3.913   5.902   2.248
 7779SOL    HW224237   3.815   5.950   2.370
 7780SOL     OW24238   6.360   6.069   4.551
 7780SOL    HW124239   6.318   6.108   4.469
 7780SOL    HW224240   6.368   5.970   4.540
 7781SOL     OW24241   1.727   2.441   0.585
 7781SOL    HW124242   1.733   2.450   0.486
 7781SOL    HW224243   1.735   2.345   0.611
 7782SOL     OW24244   5.682   3.977   4.158
 7782SOL    HW124245   5.649   3.910   4.224
 7782SOL    HW224246   5.658   3.947   4.065
 7783SOL     OW24247   1.239   0.184   5.062
 7783SOL    HW124248   1.142   0.163   5.058
 7783SOL    HW224249   1.287   0.113   5.113
 7784SOL     OW24250   2.063   2.639   2.585
 7784SOL    HW124251   2.071   2.737   2.565
 7784SOL    HW224252   1.978   2.623   2.636
 7785SOL     OW24253   0.724   6.910   2.270
 7785SOL    HW124254   0.677   6.975   2.330
 7785SOL    HW224255   0.695   6.925   2.175
 7786SOL     OW24256   3.992   0.687   6.355
 7786SOL    HW124257   3.895   0.693   6.381
 7786SOL    HW224258   4.017   0.766   6.300
 7787SOL     OW24259   2.334   2.304   1.063
 7787SOL    HW124260   2.310   2.214   1.099
 7787SOL    HW224261   2.281   2.322   0.980
 7788SOL     OW24262   0.102   4.403   1.623
 7788SOL    HW124263   0.139   4.317   1.587
 7788SOL    HW224264   0.152   4.480   1.583
 7789SOL     OW24265   3.399   1.810   6.308
 7789SOL    HW124266   3.413   1.810   6.407
 7789SOL    HW224267   3.317   1.862   6.285
 7790SOL     OW24268   4.628   4.507   1.659
 7790SOL    HW124269   4.693   4.446   1.703
 7790SOL    HW224270   4.676   4.565   1.593
 7791SOL     OW24271   2.712   4.985   2.120
 7791SOL    HW124272   2.669   5.044   2.052
 7791SOL    HW224273   2.763   5.041   2.185
 7792SOL     OW24274   0.970   1.881   2.392
 7792SOL    HW124275   1.046   1.885   2.457
 7792SOL    HW224276   0.886   1.855   2.439
 7793SOL     OW24277   4.695   0.906   6.457
 7793SOL    HW124278   4.676   0.884   6.553
 7793SOL    HW224279   4.719   1.002   6.448
 7794SOL     OW24280   0.745   6.467   3.633
 7794SOL    HW124281   0.757   6.562   3.604
 7794SOL    HW224282   0.761   6.406   3.556
 7795SOL     OW24283   3.099   5.856   6.708
 7795SOL    HW124284   3.048   5.777   6.674
 7795SOL    HW224285   3.049   5.897   6.785
 7796SOL     OW24286   4.285   3.679   6.232
 7796SOL    HW124287   4.307   3.765   6.279
 7796SOL    HW224288   4.267   3.608   6.299
 7797SOL     OW24289   0.809   6.423   2.661
 7797SOL    HW124290   0.744   6.365   2.611
 7797SOL    HW224291   0.823   6.508   2.611
 7798SOL     OW24292   1.100   3.127   0.800
 7798SOL    HW124293   1.179   3.188   0.809
 7798SOL    HW224294   1.124   3.049   0.743
 7799SOL     OW24295   2.570   5.565   3.470
 7799SOL    HW124296   2.541   5.628   3.398
 7799SOL    HW224297   2.506   5.570   3.546
 7800SOL     OW24298   0.631   6.725   1.571
 7800SOL    HW124299   0.538   6.709   1.604
 7800SOL    HW224300   0.674   6.638   1.547
 7801SOL     OW24301   1.526   2.589   2.728
 7801SOL    HW124302   1.568   2.526   2.662
 7801SOL    HW224303   1.529   2.682   2.692
 7802SOL     OW24304   0.272   3.915   4.368
 7802SOL    HW124305   0.265   3.816   4.382
 7802SOL    HW224306   0.245   3.962   4.453
 7803SOL     OW24307   4.110   2.502   5.654
 7803SOL    HW124308   4.040   2.446   5.610
 7803SOL    HW224309   4.077   2.532   5.744
 7804SOL     OW24310   3.071   1.866   5.256
 7804SOL    HW124311   2.998   1.915   5.208
 7804SOL    HW224312   3.160   1.895   5.220
 7805SOL     OW24313   5.808   2.726   0.510
 7805SOL    HW124314   5.855   2.666   0.446
 7805SOL    HW224315   5.799   2.818   0.470
 7806SOL     OW24316   6.807   2.602   5.315
 7806SOL    HW124317   6.793   2.572   5.220
 7806SOL    HW224318   6.904   2.619   5.330
 7807SOL     OW24319   2.689   4.702   6.211
 7807SOL    HW124320   2.651   4.615   6.181
 7807SOL    HW224321   2.615   4.761   6.244
 7808SOL     OW24322   4.892   3.743   3.049
 7808SOL    HW124323   4.874   3.726   2.952
 7808SOL    HW224324   4.894   3.842   3.065
 7809SOL     OW24325   4.711   4.925   3.586
 7809SOL    HW124326   4.681   4.988   3.657
 7809SOL    HW224327   4.631   4.878   3.547
 7810SOL     OW24328   3.620   6.723   5.516
 7810SOL    HW124329   3.632   6.781   5.596
 7810SOL    HW224330   3.662   6.766   5.436
 7811SOL     OW24331   1.364   5.835   2.875
 7811SOL    HW124332   1.267   5.833   2.900
 7811SOL    HW224333   1.396   5.929   2.872
 7812SOL     OW24334   2.942   1.835   6.003
 7812SOL    HW124335   2.941   1.873   5.910
 7812SOL    HW224336   2.970   1.739   5.999
 7813SOL     OW24337   5.884   0.812   0.644
 7813SOL    HW124338   5.941   0.884   0.604
 7813SOL    HW224339   5.942   0.736   0.675
 7814SOL     OW24340   6.714   3.323   2.034
 7814SOL    HW124341   6.639   3.375   2.074
 7814SOL    HW224342   6.680   3.236   1.999
 7815SOL     OW24343   5.860   3.926   5.108
 7815SOL    HW124344   5.847   3.986   5.029
 7815SOL    HW224345   5.913   3.846   5.080
 7816SOL     OW24346   0.832   0.910   4.968
 7816SOL    HW124347   0.802   0.816   4.982
 7816SOL    HW224348   0.783   0.971   5.030
 7817SOL     OW24349   2.903   2.862   6.488
 7817SOL    HW124350   2.974   2.930   6.470
 7817SOL    HW224351   2.849   2.890   6.566
 7818SOL     OW24352   5.567   1.099   2.323
 7818SOL    HW124353   5.496   1.047   2.276
 7818SOL    HW224354   5.580   1.062   2.415
 7819SOL     OW24355   1.673   3.649   3.998
 7819SOL    HW124356   1.676   3.681   4.093
 7819SOL    HW224357   1.581   3.663   3.961
 7820SOL     OW24358   1.905   6.720   6.157
 7820SOL    HW124359   1.951   6.686   6.075
 7820SOL    HW224360   1.974   6.757   6.221
 7821SOL     OW24361   5.264   5.681   6.538
 7821SOL    HW124362   5.342   5.623   6.561
 7821SOL    HW224363   5.284   5.776   6.563
 7822SOL     OW24364   1.182   0.821   5.214
 7822SOL    HW124365   1.158   0.869   5.298
 7822SOL    HW224366   1.281   0.826   5.201
 7823SOL     OW24367   1.841   3.217   5.585
 7823SOL    HW124368   1.854   3.254   5.493
 7823SOL    HW224369   1.779   3.278   5.636
 7824SOL     OW24370   4.998   2.656   3.278
 7824SOL    HW124371   4.952   2.640   3.366
 7824SOL    HW224372   5.026   2.569   3.238
 7825SOL     OW24373   3.348   3.491   2.460
 7825SOL    HW124374   3.307   3.434   2.532
 7825SOL    HW224375   3.327   3.587   2.478
 7826SOL     OW24376   6.885   0.161   0.694
 7826SOL    HW124377   6.787   0.182   0.695
 7826SOL    HW224378   6.908   0.114   0.609
 7827SOL     OW24379   5.297   4.333   1.198
 7827SOL    HW124380   5.280   4.248   1.249
 7827SOL    HW224381   5.357   4.314   1.121
 7828SOL     OW24382   0.232   6.043   0.768
 7828SOL    HW124383   0.185   6.031   0.856
 7828SOL    HW224384   0.306   6.109   0.778
 7829SOL     OW24385   4.081   2.998   1.724
 7829SOL    HW124386   4.018   2.994   1.802
 7829SOL    HW224387   4.031   3.026   1.642
 7830SOL     OW24388   5.927   2.680   6.677
 7830SOL    HW124389   5.971   2.763   6.711
 7830SOL    HW224390   5.831   2.698   6.659
 7831SOL     OW24391   1.655   2.789   7.005
 7831SOL    HW124392   1.716   2.851   6.955
 7831SOL    HW224393   1.568   2.781   6.955
 7832SOL     OW24394   2.756   2.431   5.400
 7832SOL    HW124395   2.764   2.531   5.403
 7832SOL    HW224396   2.823   2.394   5.335
 7833SOL     OW24397   0.680   6.902   0.339
 7833SOL    HW124398   0.602   6.917   0.400
 7833SOL    HW224399   0.735   6.986   0.334
 7834SOL     OW24400   0.792   0.579   1.244
 7834SOL    HW124401   0.747   0.654   1.197
 7834SOL    HW224402   0.743   0.494   1.226
 7835SOL     OW24403   2.099   2.574   5.249
 7835SOL    HW124404   2.144   2.663   5.259
 7835SOL    HW224405   2.153   2.504   5.295
 7836SOL     OW24406   1.999   6.662   0.235
 7836SOL    HW124407   1.963   6.681   0.326
 7836SOL    HW224408   2.003   6.746   0.181
 7837SOL     OW24409   6.109   0.322   2.590
 7837SOL    HW124410   6.184   0.268   2.628
 7837SOL    HW224411   6.031   0.263   2.572
 7838SOL     OW24412   3.554   0.061   3.987
 7838SOL    HW124413   3.553   0.160   3.981
 7838SOL    HW224414   3.622   0.032   4.053
 7839SOL     OW24415   6.431   4.562   4.464
 7839SOL    HW124416   6.393   4.623   4.394
 7839SOL    HW224417   6.465   4.616   4.541
 7840SOL     OW24418   5.757   3.136   5.247
 7840SOL    HW124419   5.811   3.166   5.168
 7840SOL    HW224420   5.692   3.066   5.218
 7841SOL     OW24421   0.907   1.510   6.500
 7841SOL    HW124422   0.819   1.490   6.457
 7841SOL    HW224423   0.891   1.561   6.585
 7842SOL     OW24424   2.962   0.881   2.682
 7842SOL    HW124425   3.053   0.839   2.684
 7842SOL    HW224426   2.899   0.825   2.736
 7843SOL     OW24427   5.214   3.326   0.903
 7843SOL    HW124428   5.197   3.257   0.974
 7843SOL    HW224429   5.305   3.364   0.914
 7844SOL     OW24430   4.556   0.937   3.674
 7844SOL    HW124431   4.483   1.004   3.689
 7844SOL    HW224432   4.644   0.984   3.669
 7845SOL     OW24433   6.858   1.236   4.066
 7845SOL    HW124434   6.914   1.153   4.077
 7845SOL    HW224435   6.899   1.311   4.118
 7846SOL     OW24436   3.012   6.792   2.435
 7846SOL    HW124437   2.998   6.696   2.410
 7846SOL    HW224438   3.098   6.825   2.396
 7847SOL     OW24439   6.793   0.491   7.005
 7847SOL    HW124440   6.799   0.398   0.016
 7847SOL    HW224441   6.697   0.517   6.995
 7848SOL     OW24442   4.775   4.298   1.417
 7848SOL    HW124443   4.706   4.225   1.414
 7848SOL    HW224444   4.856   4.265   1.466
 7849SOL     OW24445   6.293   3.909   4.972
 7849SOL    HW124446   6.356   3.874   5.041
 7849SOL    HW224447   6.340   3.918   4.885
 7850SOL     OW24448   1.387   0.541   4.877
 7850SOL    HW124449   1.448   0.548   4.957
 7850SOL    HW224450   1.292   0.554   4.906
 7851SOL     OW24451   5.717   6.685   0.026
 7851SOL    HW124452   5.639   6.623   0.017
 7851SOL    HW224453   5.787   6.660   6.984
 7852SOL     OW24454   2.753   5.929   0.129
 7852SOL    HW124455   2.654   5.920   0.130
 7852SOL    HW224456   2.789   5.887   0.046
 7853SOL     OW24457   2.752   3.324   0.598
 7853SOL    HW124458   2.657   3.346   0.572
 7853SOL    HW224459   2.754   3.294   0.693
 7854SOL     OW24460   3.057   4.002   2.277
 7854SOL    HW124461   2.986   4.071   2.291
 7854SOL    HW224462   3.130   4.016   2.343
 7855SOL     OW24463   4.560   6.294   5.823
 7855SOL    HW124464   4.656   6.322   5.832
 7855SOL    HW224465   4.516   6.298   5.913
 7856SOL     OW24466   4.892   3.357   6.382
 7856SOL    HW124467   4.888   3.443   6.433
 7856SOL    HW224468   4.820   3.355   6.313
 7857SOL     OW24469   6.966   1.441   5.610
 7857SOL    HW124470   0.008   1.489   5.553
 7857SOL    HW224471   6.904   1.388   5.552
 7858SOL     OW24472   6.253   3.816   2.953
 7858SOL    HW124473   6.284   3.908   2.974
 7858SOL    HW224474   6.213   3.774   3.035
 7859SOL     OW24475   1.297   5.637   6.964
 7859SOL    HW124476   1.264   5.557   6.915
 7859SOL    HW224477   1.278   5.627   0.038
 7860SOL     OW24478   4.408   6.820   1.842
 7860SOL    HW124479   4.313   6.811   1.874
 7860SOL    HW224480   4.462   6.744   1.877
 7861SOL     OW24481   4.666   4.761   0.468
 7861SOL    HW124482   4.756   4.717   0.477
 7861SOL    HW224483   4.637   4.795   0.557
 7862SOL     OW24484   3.097   4.762   1.801
 7862SOL    HW124485   3.049   4.849   1.810
 7862SOL    HW224486   3.032   4.687   1.809
 7863SOL     OW24487   6.586   5.772   2.005
 7863SOL    HW124488   6.563   5.866   2.027
 7863SOL    HW224489   6.681   5.754   2.029
 7864SOL     OW24490   0.727   5.641   4.834
 7864SOL    HW124491   0.710   5.549   4.799
 7864SOL    HW224492   0.646   5.698   4.822
 7865SOL     OW24493   3.516   0.141   3.081
 7865SOL    HW124494   3.451   0.203   3.125
 7865SOL    HW224495   3.545   0.071   3.147
 7866SOL     OW24496   2.553   2.347   4.317
 7866SOL    HW124497   2.604   2.337   4.232
 7866SOL    HW224498   2.517   2.258   4.345
 7867SOL     OW24499   5.761   4.103   2.026
 7867SOL    HW124500   5.797   4.144   1.942
 7867SOL    HW224501   5.834   4.096   2.094
 7868SOL     OW24502   5.640   6.867   0.529
 7868SOL    HW124503   5.651   6.793   0.462
 7868SOL    HW224504   5.724   6.876   0.582
 7869SOL     OW24505   0.362   3.333   2.101
 7869SOL    HW124506   0.422   3.406   2.134
 7869SOL    HW224507   0.272   3.341   2.145
 7870SOL     OW24508   6.884   6.000   4.001
 7870SOL    HW124509   6.865   5.988   3.904
 7870SOL    HW224510   6.908   6.096   4.019
 7871SOL     OW24511   5.067   2.984   3.249
 7871SOL    HW124512   5.007   3.044   3.195
 7871SOL    HW224513   5.030   2.891   3.247
 7872SOL     OW24514   6.891   3.295   3.039
 7872SOL    HW124515   6.873   3.389   3.008
 7872SOL    HW224516   6.934   3.298   3.129
 7873SOL     OW24517   0.462   4.977   5.327
 7873SOL    HW124518   0.379   4.977   5.383
 7873SOL    HW224519   0.524   4.906   5.360
 7874SOL     OW24520   5.947   1.327   0.494
 7874SOL    HW124521   5.879   1.293   0.560
 7874SOL    HW224522   5.904   1.393   0.433
 7875SOL     OW24523   4.158   3.060   0.075
 7875SOL    HW124524   4.094   2.983   0.070
 7875SOL    HW224525   4.240   3.039   0.022
 7876SOL     OW24526   5.920   0.492   3.679
 7876SOL    HW124527   5.856   0.524   3.609
 7876SOL    HW224528   6.014   0.507   3.647
 7877SOL     OW24529   6.867   2.113   2.691
 7877SOL    HW124530   6.940   2.055   2.654
 7877SOL    HW224531   6.863   2.198   2.639
 7878SOL     OW24532   4.787   3.914   1.667
 7878SOL    HW124533   4.829   3.949   1.584
 7878SOL    HW224534   4.850   3.852   1.713
 7879SOL     OW24535   5.107   0.248   4.137
 7879SOL    HW124536   5.063   0.297   4.062
 7879SOL    HW224537   5.041   0.186   4.180
 7880SOL     OW24538   0.376   0.025   6.416
 7880SOL    HW124539   0.317   0.106   6.421
 7880SOL    HW224540   0.326   6.969   6.451
 7881SOL     OW24541   0.229   4.820   4.176
 7881SOL    HW124542   0.325   4.841   4.156
 7881SOL    HW224543   0.170   4.884   4.127
 7882SOL     OW24544   6.937   3.924   2.590
 7882SOL    HW124545   6.937   3.971   2.679
 7882SOL    HW224546   6.843   3.906   2.562
 7883SOL     OW24547   3.398   1.546   4.355
 7883SOL    HW124548   3.479   1.487   4.345
 7883SOL    HW224549   3.338   1.507   4.425
 7884SOL     OW24550   0.413   4.123   4.231
 7884SOL    HW124551   0.349   4.066   4.281
 7884SOL    HW224552   0.374   4.147   4.142
 7885SOL     OW24553   5.961   5.188   3.259
 7885SOL    HW124554   5.910   5.228   3.335
 7885SOL    HW224555   5.900   5.176   3.181
 7886SOL     OW24556   4.770   2.921   2.564
 7886SOL    HW124557   4.773   3.021   2.558
 7886SOL    HW224558   4.785   2.882   2.473
 7887SOL     OW24559   2.677   3.452   1.044
 7887SOL    HW124560   2.690   3.381   0.974
 7887SOL    HW224561   2.598   3.428   1.101
 7888SOL     OW24562   5.389   2.407   4.394
 7888SOL    HW124563   5.306   2.412   4.340
 7888SOL    HW224564   5.428   2.315   4.389
 7889SOL     OW24565   5.915   5.196   0.587
 7889SOL    HW124566   5.896   5.218   0.491
 7889SOL    HW224567   5.899   5.099   0.602
 7890SOL     OW24568   1.597   3.440   4.561
 7890SOL    HW124569   1.630   3.486   4.479
 7890SOL    HW224570   1.672   3.430   4.627
 7891SOL     OW24571   0.615   1.632   4.374
 7891SOL    HW124572   0.692   1.695   4.385
 7891SOL    HW224573   0.640   1.560   4.309
 7892SOL     OW24574   0.798   2.613   5.638
 7892SOL    HW124575   0.705   2.604   5.604
 7892SOL    HW224576   0.858   2.550   5.590
 7893SOL     OW24577   6.319   0.752   0.390
 7893SOL    HW124578   6.326   0.795   0.480
 7893SOL    HW224579   6.276   0.663   0.398
 7894SOL     OW24580   3.225   1.372   6.443
 7894SOL    HW124581   3.279   1.301   6.489
 7894SOL    HW224582   3.286   1.439   6.402
 7895SOL     OW24583   4.144   6.872   3.837
 7895SOL    HW124584   4.154   6.815   3.755
 7895SOL    HW224585   4.218   6.852   3.901
 7896SOL     OW24586   3.104   2.032   0.979
 7896SOL    HW124587   3.149   2.046   1.067
 7896SOL    HW224588   3.139   2.099   0.913
 7897SOL     OW24589   3.837   3.729   6.899
 7897SOL    HW124590   3.839   3.639   6.942
 7897SOL    HW224591   3.751   3.775   6.920
 7898SOL     OW24592   5.290   0.468   3.957
 7898SOL    HW124593   5.365   0.404   3.945
 7898SOL    HW224594   5.319   0.544   4.015
 7899SOL     OW24595   5.080   4.282   2.089
 7899SOL    HW124596   5.143   4.348   2.131
 7899SOL    HW224597   4.990   4.325   2.078
 7900SOL     OW24598   0.185   4.216   0.869
 7900SOL    HW124599   0.190   4.137   0.929
 7900SOL    HW224600   0.239   4.198   0.786
 7901SOL     OW24601   6.307   1.406   5.906
 7901SOL    HW124602   6.330   1.379   5.813
 7901SOL    HW224603   6.323   1.330   5.968
 7902SOL     OW24604   0.389   6.480   3.271
 7902SOL    HW124605   0.355   6.522   3.187
 7902SOL    HW224606   0.485   6.503   3.284
 7903SOL     OW24607   2.490   2.543   5.189
 7903SOL    HW124608   2.544   2.623   5.213
 7903SOL    HW224609   2.548   2.475   5.142
 7904SOL     OW24610   4.968   0.682   2.384
 7904SOL    HW124611   5.057   0.709   2.418
 7904SOL    HW224612   4.963   0.697   2.285
 7905SOL     OW24613   5.651   0.556   0.454
 7905SOL    HW124614   5.576   0.491   0.463
 7905SOL    HW224615   5.682   0.560   0.359
 7906SOL     OW24616   1.980   5.510   0.729
 7906SOL    HW124617   2.021   5.601   0.723
 7906SOL    HW224618   1.999   5.471   0.819
 7907SOL     OW24619   6.547   0.004   2.794
 7907SOL    HW124620   6.515   0.046   2.710
 7907SOL    HW224621   6.469   7.002   2.851
 7908SOL     OW24622   0.223   0.408   6.773
 7908SOL    HW124623   0.126   0.417   6.798
 7908SOL    HW224624   0.252   0.313   6.786
 7909SOL     OW24625   5.430   4.179   2.064
 7909SOL    HW124626   5.361   4.107   2.075
 7909SOL    HW224627   5.495   4.175   2.140
 7910SOL     OW24628   1.868   3.759   0.442
 7910SOL    HW124629   1.959   3.750   0.485
 7910SOL    HW224630   1.863   3.847   0.394
 7911SOL     OW24631   0.431   3.985   1.058
 7911SOL    HW124632   0.484   4.068   1.075
 7911SOL    HW224633   0.334   4.003   1.075
 7912SOL     OW24634   5.782   5.550   0.700
 7912SOL    HW124635   5.721   5.507   0.634
 7912SOL    HW224636   5.793   5.646   0.677
 7913SOL     OW24637   0.509   3.742   0.983
 7913SOL    HW124638   0.482   3.833   1.013
 7913SOL    HW224639   0.487   3.675   1.054
 7914SOL     OW24640   6.373   5.580   4.895
 7914SOL    HW124641   6.447   5.567   4.961
 7914SOL    HW224642   6.360   5.495   4.843
 7915SOL     OW24643   3.598   6.609   2.688
 7915SOL    HW124644   3.540   6.666   2.631
 7915SOL    HW224645   3.585   6.513   2.666
 7916SOL     OW24646   1.965   0.609   4.304
 7916SOL    HW124647   1.962   0.618   4.204
 7916SOL    HW224648   1.970   0.699   4.346
 7917SOL     OW24649   4.214   3.462   0.950
 7917SOL    HW124650   4.165   3.409   0.880
 7917SOL    HW224651   4.156   3.472   1.031
 7918SOL     OW24652   2.402   1.369   4.683
 7918SOL    HW124653   2.318   1.316   4.675
 7918SOL    HW224654   2.401   1.420   4.769
 7919SOL     OW24655   1.748   5.966   2.637
 7919SOL    HW124656   1.783   5.919   2.718
 7919SOL    HW224657   1.757   6.065   2.649
 7920SOL     OW24658   5.066   6.921   0.969
 7920SOL    HW124659   5.067   7.004   1.026
 7920SOL    HW224660   5.086   6.946   0.875
 7921SOL     OW24661   5.021   1.640   1.824
 7921SOL    HW124662   5.030   1.548   1.785
 7921SOL    HW224663   4.928   1.673   1.811
 7922SOL     OW24664   0.705   6.011   0.996
 7922SOL    HW124665   0.779   6.044   1.054
 7922SOL    HW224666   0.714   5.912   0.983
 7923SOL     OW24667   4.125   1.892   0.435
 7923SOL    HW124668   4.210   1.911   0.486
 7923SOL    HW224669   4.049   1.940   0.478
 7924SOL     OW24670   6.276   0.181   0.494
 7924SOL    HW124671   6.361   0.220   0.456
 7924SOL    HW224672   6.299   0.113   0.563
 7925SOL     OW24673   2.128   6.523   0.587
 7925SOL    HW124674   2.057   6.512   0.518
 7925SOL    HW224675   2.116   6.610   0.635
 7926SOL     OW24676   4.614   5.421   6.677
 7926SOL    HW124677   4.643   5.424   6.581
 7926SOL    HW224678   4.653   5.340   6.721
 7927SOL     OW24679   4.602   7.021   1.799
 7927SOL    HW124680   4.528   6.954   1.794
 7927SOL    HW224681   4.640   7.023   1.892
 7928SOL     OW24682   6.467   1.229   3.230
 7928SOL    HW124683   6.417   1.272   3.155
 7928SOL    HW224684   6.557   1.273   3.240
 7929SOL     OW24685   3.634   4.643   5.642
 7929SOL    HW124686   3.606   4.563   5.695
 7929SOL    HW224687   3.690   4.613   5.565
 7930SOL     OW24688   4.438   6.063   5.419
 7930SOL    HW124689   4.427   6.139   5.483
 7930SOL    HW224690   4.371   6.071   5.346
 7931SOL     OW24691   3.568   2.348   0.450
 7931SOL    HW124692   3.649   2.377   0.397
 7931SOL    HW224693   3.489   2.344   0.389
 7932SOL     OW24694   1.127   5.571   2.345
 7932SOL    HW124695   1.224   5.590   2.333
 7932SOL    HW224696   1.115   5.475   2.373
 7933SOL     OW24697   0.479   0.787   6.227
 7933SOL    HW124698   0.391   0.796   6.181
 7933SOL    HW224699   0.478   0.706   6.285
 7934SOL     OW24700   0.939   4.561   0.697
 7934SOL    HW124701   0.888   4.501   0.759
 7934SOL    HW224702   1.004   4.507   0.644
 7935SOL     OW24703   5.550   3.309   2.969
 7935SOL    HW124704   5.452   3.320   2.984
 7935SOL    HW224705   5.565   3.242   2.896
 7936SOL     OW24706   3.111   6.222   4.352
 7936SOL    HW124707   3.152   6.312   4.367
 7936SOL    HW224708   3.023   6.234   4.305
 7937SOL     OW24709   2.750   6.801   6.940
 7937SOL    HW124710   2.710   6.710   6.950
 7937SOL    HW224711   2.797   6.808   6.853
 7938SOL     OW24712   3.323   6.564   4.819
 7938SOL    HW124713   3.274   6.489   4.864
 7938SOL    HW224714   3.374   6.616   4.888
 7939SOL     OW24715   0.605   1.465   4.144
 7939SOL    HW124716   0.517   1.512   4.151
 7939SOL    HW224717   0.600   1.397   4.070
 7940SOL     OW24718   5.028   0.902   3.230
 7940SOL    HW124719   5.053   0.990   3.269
 7940SOL    HW224720   5.061   0.828   3.289
 7941SOL     OW24721   3.891   6.673   1.590
 7941SOL    HW124722   3.915   6.632   1.678
 7941SOL    HW224723   3.923   6.768   1.589
 7942SOL     OW24724   1.561   4.775   1.509
 7942SOL    HW124725   1.530   4.770   1.604
 7942SOL    HW224726   1.648   4.824   1.504
 7943SOL     OW24727   1.474   5.982   6.441
 7943SOL    HW124728   1.474   5.920   6.363
 7943SOL    HW224729   1.463   5.929   6.526
 7944SOL     OW24730   1.911   2.900   0.665
 7944SOL    HW124731   1.854   2.952   0.729
 7944SOL    HW224732   1.858   2.825   0.627
 7945SOL     OW24733   5.691   4.309   2.795
 7945SOL    HW124734   5.628   4.272   2.727
 7945SOL    HW224735   5.713   4.404   2.772
 7946SOL     OW24736   3.945   1.492   5.479
 7946SOL    HW124737   3.906   1.539   5.558
 7946SOL    HW224738   3.882   1.497   5.402
 7947SOL     OW24739   1.158   3.569   5.267
 7947SOL    HW124740   1.252   3.596   5.248
 7947SOL    HW224741   1.121   3.519   5.189
 7948SOL     OW24742   0.926   4.729   2.035
 7948SOL    HW124743   1.012   4.720   1.984
 7948SOL    HW224744   0.917   4.651   2.098
 7949SOL     OW24745   3.277   5.577   6.728
 7949SOL    HW124746   3.355   5.629   6.761
 7949SOL    HW224747   3.269   5.587   6.628
 7950SOL     OW24748   5.570   5.245   5.299
 7950SOL    HW124749   5.537   5.176   5.235
 7950SOL    HW224750   5.521   5.331   5.284
 7951SOL     OW24751   2.904   5.329   3.083
 7951SOL    HW124752   2.915   5.240   3.040
 7951SOL    HW224753   2.961   5.334   3.165
 7952SOL     OW24754   5.120   3.146   6.917
 7952SOL    HW124755   5.082   3.067   6.868
 7952SOL    HW224756   5.219   3.147   6.906
 7953SOL     OW24757   2.914   1.013   1.010
 7953SOL    HW124758   2.941   0.988   1.103
 7953SOL    HW224759   2.980   1.079   0.973
 7954SOL     OW24760   3.548   3.088   0.055
 7954SOL    HW124761   3.471   3.024   0.050
 7954SOL    HW224762   3.617   3.051   0.117
 7955SOL     OW24763   1.744   0.887   6.784
 7955SOL    HW124764   1.760   0.826   6.862
 7955SOL    HW224765   1.675   0.846   6.724
 7956SOL     OW24766   6.402   6.262   1.098
 7956SOL    HW124767   6.404   6.353   1.140
 7956SOL    HW224768   6.466   6.202   1.146
 7957SOL     OW24769   4.384   0.530   5.723
 7957SOL    HW124770   4.410   0.512   5.628
 7957SOL    HW224771   4.300   0.585   5.725
 7958SOL     OW24772   5.847   2.259   0.573
 7958SOL    HW124773   5.887   2.291   0.487
 7958SOL    HW224774   5.797   2.174   0.557
 7959SOL     OW24775   5.572   1.594   6.176
 7959SOL    HW124776   5.670   1.615   6.178
 7959SOL    HW224777   5.521   1.663   6.227
 7960SOL     OW24778   0.527   0.356   5.390
 7960SOL    HW124779   0.452   0.421   5.381
 7960SOL    HW224780   0.601   0.397   5.444
 7961SOL     OW24781   0.013   0.368   0.402
 7961SOL    HW124782   6.953   0.409   0.368
 7961SOL    HW224783   7.015   0.285   0.453
 7962SOL     OW24784   5.803   0.066   5.823
 7962SOL    HW124785   5.823   0.098   5.730
 7962SOL    HW224786   5.724   0.005   5.821
 7963SOL     OW24787   0.231   4.936   5.090
 7963SOL    HW124788   0.234   4.871   5.014
 7963SOL    HW224789   0.321   4.943   5.132
 7964SOL     OW24790   6.081   3.726   2.747
 7964SOL    HW124791   5.997   3.722   2.801
 7964SOL    HW224792   6.155   3.765   2.802
 7965SOL     OW24793   3.419   1.867   6.622
 7965SOL    HW124794   3.496   1.870   6.559
 7965SOL    HW224795   3.368   1.953   6.615
 7966SOL     OW24796   4.866   3.866   5.169
 7966SOL    HW124797   4.790   3.905   5.221
 7966SOL    HW224798   4.833   3.787   5.117
 7967SOL     OW24799   1.285   4.548   2.736
 7967SOL    HW124800   1.370   4.600   2.739
 7967SOL    HW224801   1.230   4.578   2.658
 7968SOL     OW24802   6.395   2.462   4.257
 7968SOL    HW124803   6.313   2.478   4.312
 7968SOL    HW224804   6.457   2.540   4.266
 7969SOL     OW24805   4.708   5.492   6.966
 7969SOL    HW124806   4.698   5.505   6.868
 7969SOL    HW224807   4.734   5.397   6.985
 7970SOL     OW24808   5.822   2.908   2.500
 7970SOL    HW124809   5.854   2.927   2.407
 7970SOL    HW224810   5.872   2.966   2.565
 7971SOL     OW24811   2.719   0.828   0.033
 7971SOL    HW124812   2.705   0.841   0.131
 7971SOL    HW224813   2.773   0.905   7.021
 7972SOL     OW24814   3.981   3.666   3.210
 7972SOL    HW124815   3.904   3.603   3.216
 7972SOL    HW224816   3.947   3.760   3.213
 7973SOL     OW24817   6.734   3.816   2.849
 7973SOL    HW124818   6.799   3.812   2.924
 7973SOL    HW224819   6.712   3.912   2.829
 7974SOL     OW24820   6.623   2.268   5.584
 7974SOL    HW124821   6.713   2.250   5.545
 7974SOL    HW224822   6.610   2.213   5.666
 7975SOL     OW24823   5.066   0.585   1.061
 7975SOL    HW124824   5.093   0.637   1.142
 7975SOL    HW224825   5.019   0.501   1.090
 7976SOL     OW24826   0.606   0.142   6.526
 7976SOL    HW124827   0.518   0.101   6.505
 7976SOL    HW224828   0.603   0.240   6.506
 7977SOL     OW24829   5.675   5.946   2.816
 7977SOL    HW124830   5.747   5.897   2.766
 7977SOL    HW224831   5.677   6.043   2.790
 7978SOL     OW24832   0.041   4.494   0.601
 7978SOL    HW124833   0.087   4.533   0.681
 7978SOL    HW224834   0.013   4.400   0.620
 7979SOL     OW24835   1.464   3.013   4.650
 7979SOL    HW124836   1.414   3.098   4.636
 7979SOL    HW224837   1.417   2.957   4.718
 7980SOL     OW24838   4.193   5.271   6.810
 7980SOL    HW124839   4.260   5.345   6.804
 7980SOL    HW224840   4.112   5.295   6.756
 7981SOL     OW24841   1.549   4.412   3.220
 7981SOL    HW124842   1.520   4.416   3.124
 7981SOL    HW224843   1.620   4.343   3.230
 7982SOL     OW24844   0.459   1.827   5.566
 7982SOL    HW124845   0.399   1.805   5.489
 7982SOL    HW224846   0.406   1.825   5.651
 7983SOL     OW24847   4.779   0.879   2.164
 7983SOL    HW124848   4.725   0.799   2.190
 7983SOL    HW224849   4.725   0.938   2.103
 7984SOL     OW24850   1.023   2.162   2.227
 7984SOL    HW124851   1.123   2.162   2.233
 7984SOL    HW224852   0.988   2.074   2.259
 7985SOL     OW24853   2.435   2.002   5.450
 7985SOL    HW124854   2.405   2.085   5.401
 7985SOL    HW224855   2.499   2.028   5.522
 7986SOL     OW24856   2.606   1.364   3.811
 7986SOL    HW124857   2.607   1.314   3.898
 7986SOL    HW224858   2.524   1.421   3.806
 7987SOL     OW24859   1.292   3.301   0.838
 7987SOL    HW124860   1.218   3.355   0.878
 7987SOL    HW224861   1.303   3.325   0.742
 7988SOL     OW24862   0.345   1.802   0.643
 7988SOL    HW124863   0.435   1.762   0.654
 7988SOL    HW224864   0.275   1.730   0.650
 7989SOL     OW24865   1.183   4.786   0.415
 7989SOL    HW124866   1.122   4.806   0.338
 7989SOL    HW224867   1.201   4.870   0.465
 7990SOL     OW24868   3.174   4.979   5.340
 7990SOL    HW124869   3.216   4.928   5.265
 7990SOL    HW224870   3.103   4.923   5.382
 7991SOL     OW24871   6.202   2.095   4.383
 7991SOL    HW124872   6.166   2.061   4.296
 7991SOL    HW224873   6.154   2.050   4.458
 7992SOL     OW24874   3.009   0.636   0.811
 7992SOL    HW124875   2.945   0.710   0.793
 7992SOL    HW224876   3.091   0.673   0.856
 7993SOL     OW24877   6.668   6.015   0.816
 7993SOL    HW124878   6.569   6.011   0.826
 7993SOL    HW224879   6.697   6.110   0.805
 7994SOL     OW24880   5.349   0.451   3.066
 7994SOL    HW124881   5.409   0.524   3.101
 7994SOL    HW224882   5.256   0.485   3.059
 7995SOL     OW24883   6.958   4.685   1.300
 7995SOL    HW124884   6.991   4.745   1.227
 7995SOL    HW224885   6.976   4.727   1.388
 7996SOL     OW24886   3.641   0.726   2.566
 7996SOL    HW124887   3.653   0.823   2.548
 7996SOL    HW224888   3.729   0.679   2.555
 7997SOL     OW24889   0.550   2.511   0.442
 7997SOL    HW124890   0.547   2.490   0.539
 7997SOL    HW224891   0.470   2.471   0.397
 7998SOL     OW24892   2.623   0.827   0.281
 7998SOL    HW124893   2.682   0.775   0.344
 7998SOL    HW224894   2.529   0.797   0.292
 7999SOL     OW24895   0.966   0.645   5.265
 7999SOL    HW124896   1.041   0.710   5.249
 7999SOL    HW224897   0.897   0.687   5.323
 8000SOL     OW24898   5.720   5.403   0.228
 8000SOL    HW124899   5.640   5.413   0.170
 8000SOL    HW224900   5.802   5.427   0.176
 8001SOL     OW24901   4.800   6.777   1.090
 8001SOL    HW124902   4.856   6.818   1.018
 8001SOL    HW224903   4.714   6.827   1.099
 8002SOL     OW24904   1.293   6.710   5.516
 8002SOL    HW124905   1.354   6.776   5.559
 8002SOL    HW224906   1.313   6.705   5.418
 8003SOL     OW24907   2.864   6.567   3.137
 8003SOL    HW124908   2.837   6.471   3.145
 8003SOL    HW224909   2.954   6.580   3.179
 8004SOL     OW24910   1.267   3.338   3.669
 8004SOL    HW124911   1.211   3.268   3.626
 8004SOL    HW224912   1.229   3.428   3.647
 8005SOL     OW24913   2.606   0.873   3.390
 8005SOL    HW124914   2.621   0.784   3.347
 8005SOL    HW224915   2.558   0.933   3.325
 8006SOL     OW24916   3.471   4.486   5.288
 8006SOL    HW124917   3.475   4.586   5.295
 8006SOL    HW224918   3.564   4.449   5.296
 8007SOL     OW24919   6.272   0.984   6.918
 8007SOL    HW124920   6.251   1.082   6.926
 8007SOL    HW224921   6.267   0.941   7.008
 8008SOL     OW24922   4.985   6.772   5.888
 8008SOL    HW124923   5.036   6.729   5.814
 8008SOL    HW224924   4.912   6.711   5.918
 8009SOL     OW24925   5.133   1.151   6.976
 8009SOL    HW124926   5.094   1.232   7.019
 8009SOL    HW224927   5.227   1.138   7.008
 8010SOL     OW24928   2.332   2.362   5.383
 8010SOL    HW124929   2.368   2.375   5.476
 8010SOL    HW224930   2.374   2.429   5.322
 8011SOL     OW24931   4.044   1.896   2.122
 8011SOL    HW124932   4.134   1.889   2.166
 8011SOL    HW224933   4.021   1.810   2.078
 8012SOL     OW24934   1.069   2.821   5.199
 8012SOL    HW124935   1.150   2.866   5.236
 8012SOL    HW224936   0.987   2.862   5.238
 8013SOL     OW24937   2.226   2.987   2.869
 8013SOL    HW124938   2.275   2.902   2.888
 8013SOL    HW224939   2.223   3.043   2.952
 8014SOL     OW24940   1.646   0.982   2.809
 8014SOL    HW124941   1.573   0.913   2.813
 8014SOL    HW224942   1.720   0.955   2.870
 8015SOL     OW24943   2.104   6.945   5.274
 8015SOL    HW124944   2.129   6.855   5.239
 8015SOL    HW224945   2.013   6.970   5.240
 8016SOL     OW24946   4.515   1.547   5.070
 8016SOL    HW124947   4.443   1.489   5.108
 8016SOL    HW224948   4.568   1.494   5.003
 8017SOL     OW24949   6.430   6.993   0.610
 8017SOL    HW124950   6.374   6.932   0.666
 8017SOL    HW224951   6.491   6.939   0.552
 8018SOL     OW24952   4.389   2.089   0.323
 8018SOL    HW124953   4.483   2.122   0.332
 8018SOL    HW224954   4.389   2.000   0.277
 8019SOL     OW24955   3.173   3.430   1.216
 8019SOL    HW124956   3.218   3.345   1.190
 8019SOL    HW224957   3.077   3.412   1.236
 8020SOL     OW24958   0.233   0.364   5.244
 8020SOL    HW124959   0.226   0.450   5.195
 8020SOL    HW224960   0.294   0.302   5.194
 8021SOL     OW24961   1.459   2.506   2.420
 8021SOL    HW124962   1.375   2.530   2.372
 8021SOL    HW224963   1.504   2.589   2.452
 8022SOL     OW24964   4.627   1.358   1.717
 8022SOL    HW124965   4.669   1.448   1.702
 8022SOL    HW224966   4.684   1.305   1.780
 8023SOL     OW24967   4.253   6.389   3.477
 8023SOL    HW124968   4.289   6.347   3.393
 8023SOL    HW224969   4.225   6.317   3.540
 8024SOL     OW24970   2.151   6.638   6.355
 8024SOL    HW124971   2.121   6.733   6.359
 8024SOL    HW224972   2.251   6.635   6.361
 8025SOL     OW24973   1.855   5.117   1.334
 8025SOL    HW124974   1.800   5.056   1.391
 8025SOL    HW224975   1.860   5.079   1.241
 8026SOL     OW24976   1.055   5.824   6.883
 8026SOL    HW124977   1.134   5.763   6.875
 8026SOL    HW224978   0.986   5.782   6.941
 8027SOL     OW24979   3.511   6.935   6.902
 8027SOL    HW124980   3.437   6.914   6.966
 8027SOL    HW224981   3.485   6.908   6.810
 8028SOL     OW24982   2.867   5.689   5.157
 8028SOL    HW124983   2.948   5.641   5.122
 8028SOL    HW224984   2.798   5.622   5.184
 8029SOL     OW24985   6.416   0.443   0.642
 8029SOL    HW124986   6.357   0.486   0.574
 8029SOL    HW224987   6.365   0.372   0.690
 8030SOL     OW24988   0.221   4.084   0.476
 8030SOL    HW124989   0.219   4.184   0.468
 8030SOL    HW224990   0.269   4.058   0.560
 8031SOL     OW24991   6.713   0.877   2.426
 8031SOL    HW124992   6.780   0.944   2.459
 8031SOL    HW224993   6.673   0.910   2.340
 8032SOL     OW24994   5.224   2.896   1.389
 8032SOL    HW124995   5.187   2.909   1.481
 8032SOL    HW224996   5.323   2.883   1.394
 8033SOL     OW24997   4.476   3.788   1.053
 8033SOL    HW124998   4.411   3.809   0.981
 8033SOL    HW224999   4.486   3.688   1.062
 8034SOL     OW25000   5.603   0.485   5.480
 8034SOL    HW125001   5.609   0.455   5.575
 8034SOL    HW225002   5.673   0.438   5.426
 8035SOL     OW25003   5.617   1.641   2.671
 8035SOL    HW125004   5.633   1.654   2.573
 8035SOL    HW225005   5.680   1.698   2.724
 8036SOL     OW25006   6.391   2.758   3.630
 8036SOL    HW125007   6.340   2.747   3.715
 8036SOL    HW225008   6.375   2.850   3.593
 8037SOL     OW25009   0.839   2.489   6.301
 8037SOL    HW125010   0.890   2.477   6.216
 8037SOL    HW225011   0.786   2.574   6.296
 8038SOL     OW25012   6.714   5.896   2.583
 8038SOL    HW125013   6.643   5.965   2.568
 8038SOL    HW225014   6.761   5.915   2.669
 8039SOL     OW25015   1.158   1.907   5.413
 8039SOL    HW125016   1.202   1.964   5.344
 8039SOL    HW225017   1.079   1.957   5.451
 8040SOL     OW25018   2.112   5.588   6.458
 8040SOL    HW125019   2.032   5.639   6.429
 8040SOL    HW225020   2.185   5.599   6.390
 8041SOL     OW25021   3.178   1.392   3.103
 8041SOL    HW125022   3.258   1.344   3.139
 8041SOL    HW225023   3.099   1.375   3.162
 8042SOL     OW25024   4.089   4.191   5.559
 8042SOL    HW125025   4.112   4.176   5.463
 8042SOL    HW225026   3.993   4.169   5.575
 8043SOL     OW25027   5.410   4.999   0.325
 8043SOL    HW125028   5.440   4.910   0.360
 8043SOL    HW225029   5.481   5.038   0.266
 8044SOL     OW25030   3.247   4.174   1.470
 8044SOL    HW125031   3.283   4.093   1.424
 8044SOL    HW225032   3.244   4.159   1.569
 8045SOL     OW25033   0.526   1.303   2.959
 8045SOL    HW125034   0.518   1.204   2.942
 8045SOL    HW225035   0.443   1.348   2.927
 8046SOL     OW25036   0.210   5.167   2.374
 8046SOL    HW125037   0.259   5.098   2.320
 8046SOL    HW225038   0.259   5.184   2.459
 8047SOL     OW25039   4.127   6.443   5.715
 8047SOL    HW125040   4.198   6.513   5.705
 8047SOL    HW225041   4.049   6.467   5.656
 8048SOL     OW25042   3.552   3.295   0.263
 8048SOL    HW125043   3.585   3.267   0.173
 8048SOL    HW225044   3.624   3.345   0.311
 8049SOL     OW25045   1.938   0.682   0.834
 8049SOL    HW125046   1.939   0.780   0.815
 8049SOL    HW225047   1.969   0.632   0.752
 8050SOL     OW25048   1.553   4.494   5.620
 8050SOL    HW125049   1.574   4.398   5.640
 8050SOL    HW225050   1.502   4.501   5.535
 8051SOL     OW25051   3.534   5.871   3.928
 8051SOL    HW125052   3.614   5.819   3.958
 8051SOL    HW225053   3.538   5.884   3.829
 8052SOL     OW25054   2.295   2.752   2.058
 8052SOL    HW125055   2.301   2.671   2.117
 8052SOL    HW225056   2.356   2.740   1.979
 8053SOL     OW25057   2.646   2.488   6.392
 8053SOL    HW125058   2.720   2.527   6.446
 8053SOL    HW225059   2.596   2.561   6.346
 8054SOL     OW25060   5.516   3.955   5.072
 8054SOL    HW125061   5.529   4.009   5.155
 8054SOL    HW225062   5.430   3.980   5.028
 8055SOL     OW25063   0.288   0.579   5.070
 8055SOL    HW125064   0.232   0.646   5.118
 8055SOL    HW225065   0.349   0.628   5.007
 8056SOL     OW25066   2.595   1.093   4.646
 8056SOL    HW125067   2.550   1.005   4.630
 8056SOL    HW225068   2.581   1.121   4.741
 8057SOL     OW25069   2.511   2.530   2.103
 8057SOL    HW125070   2.547   2.440   2.126
 8057SOL    HW225071   2.500   2.585   2.185
 8058SOL     OW25072   3.256   6.864   3.090
 8058SOL    HW125073   3.214   6.927   3.155
 8058SOL    HW225074   3.320   6.805   3.137
 8059SOL     OW25075   2.633   3.138   6.359
 8059SOL    HW125076   2.558   3.071   6.366
 8059SOL    HW225077   2.655   3.173   6.451
 8060SOL     OW25078   6.476   0.086   5.563
 8060SOL    HW125079   6.523   7.023   5.548
 8060SOL    HW225080   6.390   0.087   5.512
 8061SOL     OW25081   0.267   1.160   1.718
 8061SOL    HW125082   0.251   1.062   1.729
 8061SOL    HW225083   0.183   1.205   1.689
 8062SOL     OW25084   4.667   6.007   5.242
 8062SOL    HW125085   4.693   6.099   5.214
 8062SOL    HW225086   4.590   6.012   5.307
 8063SOL     OW25087   3.470   6.196   2.938
 8063SOL    HW125088   3.504   6.116   2.987
 8063SOL    HW225089   3.370   6.197   2.941
 8064SOL     OW25090   6.135   2.024   0.380
 8064SOL    HW125091   6.132   1.940   0.325
 8064SOL    HW225092   6.108   2.002   0.474
 8065SOL     OW25093   3.303   6.022   4.914
 8065SOL    HW125094   3.288   5.994   5.009
 8065SOL    HW225095   3.354   6.108   4.912
 8066SOL     OW25096   0.212   0.092   4.541
 8066SOL    HW125097   0.282   0.021   4.543
 8066SOL    HW225098   0.156   0.082   4.459
 8067SOL     OW25099   4.962   3.432   3.395
 8067SOL    HW125100   5.056   3.432   3.363
 8067SOL    HW225101   4.907   3.372   3.337
 8068SOL     OW25102   6.315   4.078   1.153
 8068SOL    HW125103   6.231   4.129   1.172
 8068SOL    HW225104   6.326   4.006   1.222
 8069SOL     OW25105   2.387   4.619   2.318
 8069SOL    HW125106   2.437   4.677   2.253
 8069SOL    HW225107   2.447   4.598   2.396
 8070SOL     OW25108   5.088   5.009   7.011
 8070SOL    HW125109   5.090   5.034   6.914
 8070SOL    HW225110   5.114   5.089   0.042
 8071SOL     OW25111   3.301   6.441   5.868
 8071SOL    HW125112   3.289   6.418   5.965
 8071SOL    HW225113   3.217   6.419   5.818
 8072SOL     OW25114   1.923   2.548   6.321
 8072SOL    HW125115   1.893   2.616   6.254
 8072SOL    HW225116   1.923   2.588   6.412
 8073SOL     OW25117   3.737   0.227   6.164
 8073SOL    HW125118   3.770   0.218   6.070
 8073SOL    HW225119   3.713   0.137   6.200
 8074SOL     OW25120   1.407   1.470   6.974
 8074SOL    HW125121   1.391   1.371   6.975
 8074SOL    HW225122   1.327   1.517   7.011
 8075SOL     OW25123   0.631   6.443   0.395
 8075SOL    HW125124   0.700   6.516   0.388
 8075SOL    HW225125   0.677   6.355   0.404
 8076SOL     OW25126   6.789   6.765   0.270
 8076SOL    HW125127   6.886   6.764   0.245
 8076SOL    HW225128   6.733   6.772   0.187
 8077SOL     OW25129   4.002   5.451   0.798
 8077SOL    HW125130   4.050   5.406   0.722
 8077SOL    HW225131   3.974   5.542   0.770
 8078SOL     OW25132   0.802   0.922   1.713
 8078SOL    HW125133   0.784   0.894   1.808
 8078SOL    HW225134   0.876   0.989   1.712
 8079SOL     OW25135   1.670   1.999   4.807
 8079SOL    HW125136   1.740   2.011   4.737
 8079SOL    HW225137   1.697   2.047   4.890
 8080SOL     OW25138   1.085   3.453   2.704
 8080SOL    HW125139   1.169   3.472   2.652
 8080SOL    HW225140   1.018   3.410   2.644
 8081SOL     OW25141   6.113   5.625   4.831
 8081SOL    HW125142   6.133   5.542   4.779
 8081SOL    HW225143   6.193   5.650   4.886
 8082SOL     OW25144   3.428   2.085   2.072
 8082SOL    HW125145   3.432   2.122   2.165
 8082SOL    HW225146   3.511   2.112   2.022
 8083SOL     OW25147   5.626   2.023   5.175
 8083SOL    HW125148   5.557   2.046   5.106
 8083SOL    HW225149   5.633   2.097   5.241
 8084SOL     OW25150   2.496   0.627   6.284
 8084SOL    HW125151   2.579   0.670   6.248
 8084SOL    HW225152   2.455   0.569   6.214
 8085SOL     OW25153   0.315   6.155   4.632
 8085SOL    HW125154   0.287   6.211   4.554
 8085SOL    HW225155   0.414   6.164   4.646
 8086SOL     OW25156   0.367   1.628   2.229
 8086SOL    HW125157   0.466   1.620   2.215
 8086SOL    HW225158   0.326   1.676   2.151
 8087SOL     OW25159   1.221   0.579   0.272
 8087SOL    HW125160   1.151   0.642   0.239
 8087SOL    HW225161   1.283   0.628   0.334
 8088SOL     OW25162   5.182   6.877   5.257
 8088SOL    HW125163   5.146   6.957   5.210
 8088SOL    HW225164   5.122   6.854   5.333
 8089SOL     OW25165   5.786   2.183   5.962
 8089SOL    HW125166   5.842   2.257   5.927
 8089SOL    HW225167   5.801   2.173   6.061
 8090SOL     OW25168   4.283   1.911   6.174
 8090SOL    HW125169   4.375   1.911   6.134
 8090SOL    HW225170   4.215   1.898   6.102
 8091SOL     OW25171   1.615   4.733   4.919
 8091SOL    HW125172   1.557   4.780   4.986
 8091SOL    HW225173   1.665   4.800   4.865
 8092SOL     OW25174   4.866   2.253   6.061
 8092SOL    HW125175   4.932   2.283   5.992
 8092SOL    HW225176   4.899   2.170   6.105
 8093SOL     OW25177   3.803   6.637   2.165
 8093SOL    HW125178   3.733   6.596   2.223
 8093SOL    HW225179   3.760   6.681   2.087
 8094SOL     OW25180   1.279   4.009   4.059
 8094SOL    HW125181   1.365   4.053   4.086
 8094SOL    HW225182   1.235   3.969   4.139
 8095SOL     OW25183   1.296   4.401   5.803
 8095SOL    HW125184   1.205   4.413   5.762
 8095SOL    HW225185   1.366   4.420   5.734
 8096SOL     OW25186   0.893   6.412   2.172
 8096SOL    HW125187   0.945   6.498   2.174
 8096SOL    HW225188   0.799   6.429   2.202
 8097SOL     OW25189   3.463   5.646   5.412
 8097SOL    HW125190   3.463   5.546   5.417
 8097SOL    HW225191   3.550   5.677   5.374
 8098SOL     OW25192   0.996   5.251   4.638
 8098SOL    HW125193   0.922   5.291   4.584
 8098SOL    HW225194   0.962   5.229   4.730
 8099SOL     OW25195   2.826   5.807   4.449
 8099SOL    HW125196   2.771   5.814   4.366
 8099SOL    HW225197   2.832   5.711   4.478
 8100SOL     OW25198   0.078   0.620   6.079
 8100SOL    HW125199   0.115   0.552   6.016
 8100SOL    HW225200   7.012   0.590   6.111
 8101SOL     OW25201   2.341   6.242   1.695
 8101SOL    HW125202   2.255   6.290   1.709
 8101SOL    HW225203   2.324   6.143   1.698
 8102SOL     OW25204   0.854   2.970   4.272
 8102SOL    HW125205   0.759   2.941   4.278
 8102SOL    HW225206   0.885   3.001   4.362
 8103SOL     OW25207   3.376   1.623   2.036
 8103SOL    HW125208   3.375   1.551   2.105
 8103SOL    HW225209   3.324   1.702   2.069
 8104SOL     OW25210   2.592   6.394   6.634
 8104SOL    HW125211   2.582   6.469   6.700
 8104SOL    HW225212   2.523   6.324   6.652
 8105SOL     OW25213   6.737   1.783   2.581
 8105SOL    HW125214   6.794   1.746   2.655
 8105SOL    HW225215   6.648   1.811   2.619
 8106SOL     OW25216   2.113   5.686   4.962
 8106SOL    HW125217   2.027   5.709   5.007
 8106SOL    HW225218   2.124   5.587   4.960
 8107SOL     OW25219   1.560   5.422   5.085
 8107SOL    HW125220   1.498   5.384   5.154
 8107SOL    HW225221   1.655   5.413   5.116
 8108SOL     OW25222   0.197   0.871   6.793
 8108SOL    HW125223   0.139   0.790   6.782
 8108SOL    HW225224   0.156   0.932   6.861
 8109SOL     OW25225   6.452   3.237   6.856
 8109SOL    HW125226   6.360   3.274   6.869
 8109SOL    HW225227   6.450   3.138   6.867
 8110SOL     OW25228   4.525   5.373   0.804
 8110SOL    HW125229   4.491   5.451   0.857
 8110SOL    HW225230   4.448   5.326   0.761
 8111SOL     OW25231   6.080   0.887   3.039
 8111SOL    HW125232   6.055   0.918   3.131
 8111SOL    HW225233   6.071   0.788   3.034
 8112SOL     OW25234   0.931   2.596   5.389
 8112SOL    HW125235   0.839   2.606   5.351
 8112SOL    HW225236   0.962   2.685   5.423
 8113SOL     OW25237   6.009   2.900   0.616
 8113SOL    HW125238   6.108   2.915   0.606
 8113SOL    HW225239   5.983   2.815   0.569
 8114SOL     OW25240   1.770   4.165   1.827
 8114SOL    HW125241   1.722   4.227   1.765
 8114SOL    HW225242   1.868   4.174   1.813
 8115SOL     OW25243   2.580   6.919   0.201
 8115SOL    HW125244   2.623   6.989   0.143
 8115SOL    HW225245   2.594   6.829   0.160
 8116SOL     OW25246   3.232   4.917   1.384
 8116SOL    HW125247   3.188   4.984   1.443
 8116SOL    HW225248   3.232   4.827   1.428
 8117SOL     OW25249   2.933   6.887   3.013
 8117SOL    HW125250   2.927   6.851   3.106
 8117SOL    HW225251   3.002   6.959   3.010
 8118SOL     OW25252   5.983   3.391   0.182
 8118SOL    HW125253   5.964   3.387   0.280
 8118SOL    HW225254   6.080   3.413   0.168
 8119SOL     OW25255   6.327   5.751   6.156
 8119SOL    HW125256   6.303   5.749   6.253
 8119SOL    HW225257   6.306   5.662   6.114
 8120SOL     OW25258   2.047   6.098   1.112
 8120SOL    HW125259   2.088   6.134   1.028
 8120SOL    HW225260   1.959   6.056   1.090
 8121SOL     OW25261   1.299   3.843   3.216
 8121SOL    HW125262   1.217   3.840   3.159
 8121SOL    HW225263   1.366   3.905   3.175
 8122SOL     OW25264   1.017   4.325   2.412
 8122SOL    HW125265   1.099   4.380   2.394
 8122SOL    HW225266   1.000   4.263   2.336
 8123SOL     OW25267   0.352   2.021   6.368
 8123SOL    HW125268   0.271   2.070   6.336
 8123SOL    HW225269   0.419   2.016   6.293
 8124SOL     OW25270   5.209   4.989   3.845
 8124SOL    HW125271   5.112   4.976   3.866
 8124SOL    HW225272   5.246   4.904   3.808
 8125SOL     OW25273   0.910   0.089   3.055
 8125SOL    HW125274   0.852   0.117   2.979
 8125SOL    HW225275   0.935   0.169   3.109
 8126SOL     OW25276   3.957   5.324   4.041
 8126SOL    HW125277   3.983   5.420   4.048
 8126SOL    HW225278   3.876   5.315   3.983
 8127SOL     OW25279   2.964   3.088   0.629
 8127SOL    HW125280   3.022   3.169   0.639
 8127SOL    HW225281   2.879   3.113   0.583
 8128SOL     OW25282   3.073   3.023   2.326
 8128SOL    HW125283   3.111   3.031   2.418
 8128SOL    HW225284   3.030   2.933   2.315
 8129SOL     OW25285   1.464   2.857   0.635
 8129SOL    HW125286   1.443   2.908   0.552
 8129SOL    HW225287   1.379   2.837   0.684
 8130SOL     OW25288   1.597   5.718   6.626
 8130SOL    HW125289   1.498   5.711   6.610
 8130SOL    HW225290   1.614   5.766   6.712
 8131SOL     OW25291   2.227   3.300   1.018
 8131SOL    HW125292   2.140   3.276   0.976
 8131SOL    HW225293   2.301   3.276   0.955
 8132SOL     OW25294   6.401   0.011   3.875
 8132SOL    HW125295   6.383   6.936   3.867
 8132SOL    HW225296   6.499   0.027   3.873
 8133SOL     OW25297   3.439   4.967   1.206
 8133SOL    HW125298   3.461   4.877   1.169
 8133SOL    HW225299   3.398   4.957   1.297
 8134SOL     OW25300   6.317   0.616   5.112
 8134SOL    HW125301   6.380   0.646   5.041
 8134SOL    HW225302   6.286   0.523   5.092
 8135SOL     OW25303   2.630   6.855   2.217
 8135SOL    HW125304   2.699   6.871   2.147
 8135SOL    HW225305   2.657   6.776   2.273
 8136SOL     OW25306   4.759   4.774   2.270
 8136SOL    HW125307   4.700   4.739   2.343
 8136SOL    HW225308   4.708   4.839   2.214
 8137SOL     OW25309   3.889   1.633   4.700
 8137SOL    HW125310   3.958   1.647   4.770
 8137SOL    HW225311   3.929   1.654   4.610
 8138SOL     OW25312   5.637   0.757   1.993
 8138SOL    HW125313   5.691   0.720   1.917
 8138SOL    HW225314   5.681   0.839   2.028
 8139SOL     OW25315   1.179   1.448   2.646
 8139SOL    HW125316   1.252   1.479   2.585
 8139SOL    HW225317   1.218   1.428   2.736
 8140SOL     OW25318   3.879   1.059   3.800
 8140SOL    HW125319   3.868   0.961   3.810
 8140SOL    HW225320   3.902   1.099   3.889
 8141SOL     OW25321   4.119   5.543   5.556
 8141SOL    HW125322   4.108   5.444   5.543
 8141SOL    HW225323   4.137   5.587   5.468
 8142SOL     OW25324   5.690   5.046   0.391
 8142SOL    HW125325   5.648   4.983   0.457
 8142SOL    HW225326   5.670   5.140   0.418
 8143SOL     OW25327   5.558   4.103   6.010
 8143SOL    HW125328   5.601   4.191   6.030
 8143SOL    HW225329   5.527   4.061   6.095
 8144SOL     OW25330   5.562   6.772   6.851
 8144SOL    HW125331   5.633   6.760   6.921
 8144SOL    HW225332   5.570   6.700   6.783
 8145SOL     OW25333   6.206   5.544   2.591
 8145SOL    HW125334   6.248   5.565   2.502
 8145SOL    HW225335   6.174   5.629   2.632
 8146SOL     OW25336   3.550   1.225   5.847
 8146SOL    HW125337   3.574   1.216   5.943
 8146SOL    HW225338   3.620   1.278   5.799
 8147SOL     OW25339   4.807   2.175   4.379
 8147SOL    HW125340   4.845   2.139   4.294
 8147SOL    HW225341   4.827   2.273   4.385
 8148SOL     OW25342   5.495   2.614   3.120
 8148SOL    HW125343   5.396   2.623   3.123
 8148SOL    HW225344   5.534   2.691   3.070
 8149SOL     OW25345   4.353   4.890   3.029
 8149SOL    HW125346   4.372   4.796   3.061
 8149SOL    HW225347   4.372   4.954   3.104
 8150SOL     OW25348   0.928   5.245   6.952
 8150SOL    HW125349   0.885   5.285   6.871
 8150SOL    HW225350   0.902   5.149   6.959
 8151SOL     OW25351   1.102   2.031   4.844
 8151SOL    HW125352   1.071   2.065   4.755
 8151SOL    HW225353   1.195   1.996   4.835
 8152SOL     OW25354   1.943   0.569   3.496
 8152SOL    HW125355   1.935   0.499   3.424
 8152SOL    HW225356   1.901   0.654   3.464
 8153SOL     OW25357   2.456   6.650   0.971
 8153SOL    HW125358   2.440   6.688   1.062
 8153SOL    HW225359   2.450   6.550   0.975
 8154SOL     OW25360   2.015   6.250   3.559
 8154SOL    HW125361   1.925   6.216   3.531
 8154SOL    HW225362   2.041   6.326   3.499
 8155SOL     OW25363   3.041   3.135   2.995
 8155SOL    HW125364   2.962   3.170   3.044
 8155SOL    HW225365   3.036   3.162   2.899
 8156SOL     OW25366   5.629   0.618   5.001
 8156SOL    HW125367   5.698   0.571   5.056
 8156SOL    HW225368   5.545   0.628   5.055
 8157SOL     OW25369   5.662   4.007   6.889
 8157SOL    HW125370   5.689   4.064   6.811
 8157SOL    HW225371   5.650   3.912   6.858
 8158SOL     OW25372   1.582   5.549   1.520
 8158SOL    HW125373   1.546   5.461   1.489
 8158SOL    HW225374   1.673   5.535   1.559
 8159SOL     OW25375   1.942   5.135   1.906
 8159SOL    HW125376   2.008   5.207   1.884
 8159SOL    HW225377   1.988   5.047   1.910
 8160SOL     OW25378   4.181   2.083   1.594
 8160SOL    HW125379   4.194   2.149   1.667
 8160SOL    HW225380   4.139   2.000   1.630
 8161SOL     OW25381   5.084   0.950   0.142
 8161SOL    HW125382   5.109   1.001   0.060
 8161SOL    HW225383   5.057   1.014   0.214
 8162SOL     OW25384   5.423   6.832   1.276
 8162SOL    HW125385   5.336   6.792   1.250
 8162SOL    HW225386   5.456   6.893   1.204
 8163SOL     OW25387   2.460   4.435   5.123
 8163SOL    HW125388   2.468   4.496   5.045
 8163SOL    HW225389   2.538   4.449   5.184
 8164SOL     OW25390   4.025   2.535   1.738
 8164SOL    HW125391   4.114   2.576   1.715
 8164SOL    HW225392   3.989   2.579   1.821
 8165SOL     OW25393   2.075   4.127   1.242
 8165SOL    HW125394   1.977   4.119   1.224
 8165SOL    HW225395   2.097   4.082   1.329
 8166SOL     OW25396   2.704   0.585   1.717
 8166SOL    HW125397   2.669   0.491   1.712
 8166SOL    HW225398   2.758   0.605   1.636
 8167SOL     OW25399   5.814   2.466   3.920
 8167SOL    HW125400   5.805   2.431   3.826
 8167SOL    HW225401   5.724   2.492   3.955
 8168SOL     OW25402   3.461   1.183   2.984
 8168SOL    HW125403   3.512   1.269   2.979
 8168SOL    HW225404   3.525   1.106   2.979
 8169SOL     OW25405   4.295   3.483   6.465
 8169SOL    HW125406   4.304   3.397   6.415
 8169SOL    HW225407   4.256   3.465   6.555
 8170SOL     OW25408   0.929   5.998   4.064
 8170SOL    HW125409   1.007   6.028   4.010
 8170SOL    HW225410   0.916   5.900   4.051
 8171SOL     OW25411   0.846   1.993   6.034
 8171SOL    HW125412   0.915   1.989   6.106
 8171SOL    HW225413   0.877   2.055   5.962
 8172SOL     OW25414   0.513   6.510   0.687
 8172SOL    HW125415   0.453   6.575   0.641
 8172SOL    HW225416   0.600   6.504   0.637
 8173SOL     OW25417   4.058   2.795   0.026
 8173SOL    HW125418   4.050   2.770   6.954
 8173SOL    HW225419   3.993   2.742   0.080
 8174SOL     OW25420   5.460   0.678   2.170
 8174SOL    HW125421   5.410   0.603   2.127
 8174SOL    HW225422   5.505   0.733   2.100
 8175SOL     OW25423   0.718   2.133   6.368
 8175SOL    HW125424   0.679   2.216   6.408
 8175SOL    HW225425   0.689   2.126   6.273
 8176SOL     OW25426   2.842   5.751   2.126
 8176SOL    HW125427   2.744   5.764   2.112
 8176SOL    HW225428   2.891   5.833   2.094
 8177SOL     OW25429   7.003   6.530   4.975
 8177SOL    HW125430   6.993   6.627   4.999
 8177SOL    HW225431   0.063   6.494   5.015
 8178SOL     OW25432   1.744   6.410   6.651
 8178SOL    HW125433   1.823   6.354   6.623
 8178SOL    HW225434   1.747   6.423   6.751
 8179SOL     OW25435   3.237   2.759   0.244
 8179SOL    HW125436   3.299   2.684   0.264
 8179SOL    HW225437   3.147   2.739   0.282
 8180SOL     OW25438   6.778   6.447   5.225
 8180SOL    HW125439   6.873   6.461   5.251
 8180SOL    HW225440   6.723   6.431   5.307
 8181SOL     OW25441   2.634   2.320   3.257
 8181SOL    HW125442   2.536   2.307   3.241
 8181SOL    HW225443   2.686   2.277   3.183
 8182SOL     OW25444   4.359   2.176   5.131
 8182SOL    HW125445   4.392   2.266   5.157
 8182SOL    HW225446   4.415   2.106   5.174
 8183SOL     OW25447   1.893   3.858   4.453
 8183SOL    HW125448   1.923   3.953   4.458
 8183SOL    HW225449   1.810   3.846   4.507
 8184SOL     OW25450   6.725   6.769   5.359
 8184SOL    HW125451   6.820   6.796   5.375
 8184SOL    HW225452   6.710   6.677   5.395
 8185SOL     OW25453   3.080   1.374   2.056
 8185SOL    HW125454   3.017   1.298   2.068
 8185SOL    HW225455   3.170   1.339   2.032
 8186SOL     OW25456   3.650   6.187   5.789
 8186SOL    HW125457   3.734   6.137   5.809
 8186SOL    HW225458   3.638   6.261   5.856
 8187SOL     OW25459   1.944   1.444   5.118
 8187SOL    HW125460   1.989   1.495   5.045
 8187SOL    HW225461   1.902   1.361   5.080
 8188SOL     OW25462   6.186   2.586   3.168
 8188SOL    HW125463   6.086   2.580   3.164
 8188SOL    HW225464   6.213   2.651   3.238
 8189SOL     OW25465   6.340   4.085   2.976
 8189SOL    HW125466   6.318   4.071   3.073
 8189SOL    HW225467   6.421   4.144   2.968
 8190SOL     OW25468   5.143   3.542   3.766
 8190SOL    HW125469   5.165   3.455   3.722
 8190SOL    HW225470   5.228   3.584   3.799
 8191SOL     OW25471   1.015   5.141   3.759
 8191SOL    HW125472   1.035   5.217   3.698
 8191SOL    HW225473   0.966   5.070   3.708
 8192SOL     OW25474   2.212   5.089   2.152
 8192SOL    HW125475   2.256   5.172   2.118
 8192SOL    HW225476   2.261   5.009   2.118
 8193SOL     OW25477   3.726   6.835   5.303
 8193SOL    HW125478   3.733   6.933   5.317
 8193SOL    HW225479   3.803   6.803   5.248
 8194SOL     OW25480   6.895   0.763   6.926
 8194SOL    HW125481   6.850   0.684   6.967
 8194SOL    HW225482   6.928   0.740   6.834
 8195SOL     OW25483   6.694   6.476   0.406
 8195SOL    HW125484   6.781   6.524   0.396
 8195SOL    HW225485   6.712   6.379   0.427
 8196SOL     OW25486   2.718   6.693   6.148
 8196SOL    HW125487   2.692   6.717   6.055
 8196SOL    HW225488   2.674   6.757   6.212
 8197SOL     OW25489   0.763   0.441   6.125
 8197SOL    HW125490   0.767   0.398   6.215
 8197SOL    HW225491   0.683   0.409   6.076
 8198SOL     OW25492   3.105   0.067   3.204
 8198SOL    HW125493   3.107   0.137   3.133
 8198SOL    HW225494   3.111   0.110   3.294
 8199SOL     OW25495   6.681   3.531   0.271
 8199SOL    HW125496   6.665   3.439   0.235
 8199SOL    HW225497   6.775   3.537   0.305
 8200SOL     OW25498   5.223   4.275   0.745
 8200SOL    HW125499   5.310   4.250   0.702
 8200SOL    HW225500   5.228   4.370   0.778
 8201SOL     OW25501   5.865   0.141   3.367
 8201SOL    HW125502   5.778   0.191   3.367
 8201SOL    HW225503   5.904   0.141   3.275
 8202SOL     OW25504   1.261   3.881   3.803
 8202SOL    HW125505   1.165   3.871   3.828
 8202SOL    HW225506   1.306   3.944   3.866
 8203SOL     OW25507   5.807   3.592   1.502
 8203SOL    HW125508   5.770   3.513   1.453
 8203SOL    HW225509   5.761   3.601   1.590
 8204SOL     OW25510   3.386   0.217   1.636
 8204SOL    HW125511   3.387   0.295   1.698
 8204SOL    HW225512   3.295   0.207   1.595
 8205SOL     OW25513   5.636   5.425   2.086
 8205SOL    HW125514   5.728   5.435   2.048
 8205SOL    HW225515   5.570   5.414   2.012
 8206SOL     OW25516   4.360   2.047   4.539
 8206SOL    HW125517   4.278   1.989   4.533
 8206SOL    HW225518   4.434   1.995   4.581
 8207SOL     OW25519   2.714   5.812   6.591
 8207SOL    HW125520   2.629   5.765   6.615
 8207SOL    HW225521   2.693   5.896   6.541
 8208SOL     OW25522   1.639   4.463   1.147
 8208SOL    HW125523   1.571   4.399   1.113
 8208SOL    HW225524   1.730   4.421   1.142
 8209SOL     OW25525   0.379   0.135   5.073
 8209SOL    HW125526   0.472   0.163   5.047
 8209SOL    HW225527   0.361   0.043   5.038
 8210SOL     OW25528   2.677   1.774   0.001
 8210SOL    HW125529   2.620   1.692   7.012
 8210SOL    HW225530   2.676   1.800   0.097
 8211SOL     OW25531   3.054   3.112   4.604
 8211SOL    HW125532   3.085   3.023   4.638
 8211SOL    HW225533   2.989   3.098   4.530
 8212SOL     OW25534   3.436   0.051   1.146
 8212SOL    HW125535   3.534   0.037   1.159
 8212SOL    HW225536   3.420   0.144   1.111
 8213SOL     OW25537   4.579   4.180   1.658
 8213SOL    HW125538   4.670   4.211   1.686
 8213SOL    HW225539   4.511   4.212   1.724
 8214SOL     OW25540   4.171   5.659   4.601
 8214SOL    HW125541   4.143   5.572   4.562
 8214SOL    HW225542   4.106   5.687   4.672
 8215SOL     OW25543   4.180   6.925   0.011
 8215SOL    HW125544   4.175   6.844   0.070
 8215SOL    HW225545   4.123   6.912   6.954
 8216SOL     OW25546   5.528   5.113   1.670
 8216SOL    HW125547   5.558   5.168   1.592
 8216SOL    HW225548   5.603   5.101   1.734
 8217SOL     OW25549   2.444   6.352   3.762
 8217SOL    HW125550   2.423   6.421   3.832
 8217SOL    HW225551   2.475   6.268   3.807
 8218SOL     OW25552   2.308   0.002   5.118
 8218SOL    HW125553   2.230   6.984   5.165
 8218SOL    HW225554   2.348   6.961   5.054
 8219SOL     OW25555   3.628   4.058   0.999
 8219SOL    HW125556   3.534   4.033   0.975
 8219SOL    HW225557   3.660   4.129   0.937
 8220SOL     OW25558   3.848   3.283   4.165
 8220SOL    HW125559   3.839   3.359   4.101
 8220SOL    HW225560   3.836   3.317   4.258
 8221SOL     OW25561   5.653   3.782   3.223
 8221SOL    HW125562   5.616   3.725   3.297
 8221SOL    HW225563   5.592   3.778   3.145
 8222SOL     OW25564   5.914   3.400   0.450
 8222SOL    HW125565   5.950   3.322   0.501
 8222SOL    HW225566   5.933   3.484   0.500
 8223SOL     OW25567   0.785   5.943   5.557
 8223SOL    HW125568   0.789   5.984   5.649
 8223SOL    HW225569   0.694   5.906   5.541
 8224SOL     OW25570   5.663   1.630   0.670
 8224SOL    HW125571   5.586   1.691   0.690
 8224SOL    HW225572   5.700   1.652   0.580
 8225SOL     OW25573   5.377   1.001   0.628
 8225SOL    HW125574   5.463   0.952   0.609
 8225SOL    HW225575   5.308   0.936   0.658
 8226SOL     OW25576   4.181   0.340   0.565
 8226SOL    HW125577   4.235   0.345   0.482
 8226SOL    HW225578   4.130   0.425   0.577
 8227SOL     OW25579   4.706   2.383   3.136
 8227SOL    HW125580   4.620   2.431   3.153
 8227SOL    HW225581   4.689   2.304   3.077
 8228SOL     OW25582   2.020   0.531   4.648
 8228SOL    HW125583   1.961   0.610   4.635
 8228SOL    HW225584   2.101   0.557   4.700
 8229SOL     OW25585   4.763   4.173   0.527
 8229SOL    HW125586   4.845   4.138   0.574
 8229SOL    HW225587   4.721   4.245   0.584
 8230SOL     OW25588   5.931   0.444   6.098
 8230SOL    HW125589   5.831   0.436   6.101
 8230SOL    HW225590   5.961   0.504   6.172
 8231SOL     OW25591   2.281   1.666   2.498
 8231SOL    HW125592   2.334   1.734   2.448
 8231SOL    HW225593   2.340   1.589   2.521
 8232SOL     OW25594   3.732   5.594   2.826
 8232SOL    HW125595   3.829   5.606   2.806
 8232SOL    HW225596   3.712   5.496   2.839
 8233SOL     OW25597   0.797   1.139   6.186
 8233SOL    HW125598   0.766   1.045   6.198
 8233SOL    HW225599   0.836   1.150   6.095
 8234SOL     OW25600   0.875   2.165   0.757
 8234SOL    HW125601   0.900   2.086   0.701
 8234SOL    HW225602   0.957   2.206   0.797
 8235SOL     OW25603   0.857   6.109   1.210
 8235SOL    HW125604   0.910   6.181   1.256
 8235SOL    HW225605   0.870   6.022   1.258
 8236SOL     OW25606   0.460   6.325   1.182
 8236SOL    HW125607   0.366   6.326   1.146
 8236SOL    HW225608   0.490   6.230   1.193
 8237SOL     OW25609   3.903   5.057   0.215
 8237SOL    HW125610   3.954   5.019   0.138
 8237SOL    HW225611   3.811   5.082   0.184
 8238SOL     OW25612   1.206   4.191   0.400
 8238SOL    HW125613   1.249   4.177   0.489
 8238SOL    HW225614   1.120   4.240   0.413
 8239SOL     OW25615   1.720   1.273   5.048
 8239SOL    HW125616   1.669   1.300   5.130
 8239SOL    HW225617   1.667   1.299   4.967
 8240SOL     OW25618   3.412   3.501   4.808
 8240SOL    HW125619   3.456   3.511   4.897
 8240SOL    HW225620   3.312   3.507   4.819
 8241SOL     OW25621   1.680   3.618   5.958
 8241SOL    HW125622   1.698   3.570   6.044
 8241SOL    HW225623   1.654   3.552   5.888
 8242SOL     OW25624   0.749   3.170   3.357
 8242SOL    HW125625   0.773   3.162   3.453
 8242SOL    HW225626   0.832   3.163   3.301
 8243SOL     OW25627   0.214   5.652   4.262
 8243SOL    HW125628   0.312   5.647   4.242
 8243SOL    HW225629   0.187   5.748   4.271
 8244SOL     OW25630   0.511   0.651   4.558
 8244SOL    HW125631   0.480   0.690   4.471
 8244SOL    HW225632   0.601   0.610   4.546
 8245SOL     OW25633   5.164   2.043   3.598
 8245SOL    HW125634   5.230   2.067   3.527
 8245SOL    HW225635   5.071   2.055   3.563
 8246SOL     OW25636   2.313   5.114   6.704
 8246SOL    HW125637   2.265   5.187   6.656
 8246SOL    HW225638   2.372   5.153   6.774
 8247SOL     OW25639   2.930   5.098   2.924
 8247SOL    HW125640   2.985   5.017   2.905
 8247SOL    HW225641   2.868   5.114   2.847
 8248SOL     OW25642   0.398   5.206   3.052
 8248SOL    HW125643   0.336   5.222   3.128
 8248SOL    HW225644   0.474   5.270   3.056
 8249SOL     OW25645   2.943   1.427   6.469
 8249SOL    HW125646   2.916   1.386   6.556
 8249SOL    HW225647   3.027   1.385   6.436
 8250SOL     OW25648   1.266   1.253   0.479
 8250SOL    HW125649   1.180   1.302   0.493
 8250SOL    HW225650   1.341   1.318   0.470
 8251SOL     OW25651   0.399   2.573   4.587
 8251SOL    HW125652   0.305   2.565   4.554
 8251SOL    HW225653   0.438   2.659   4.552
 8252SOL     OW25654   1.310   2.139   6.255
 8252SOL    HW125655   1.361   2.069   6.205
 8252SOL    HW225656   1.337   2.137   6.351
 8253SOL     OW25657   4.959   5.954   0.177
 8253SOL    HW125658   4.902   5.984   0.253
 8253SOL    HW225659   4.911   5.883   0.125
 8254SOL     OW25660   5.363   5.119   6.337
 8254SOL    HW125661   5.339   5.157   6.247
 8254SOL    HW225662   5.418   5.037   6.325
 8255SOL     OW25663   1.335   0.189   6.413
 8255SOL    HW125664   1.349   0.233   6.502
 8255SOL    HW225665   1.409   0.214   6.351
 8256SOL     OW25666   1.237   4.967   4.344
 8256SOL    HW125667   1.213   4.911   4.264
 8256SOL    HW225668   1.253   5.061   4.314
 8257SOL     OW25669   5.247   3.769   3.242
 8257SOL    HW125670   5.157   3.729   3.260
 8257SOL    HW225671   5.278   3.741   3.151
 8258SOL     OW25672   6.773   3.835   1.976
 8258SOL    HW125673   6.787   3.736   1.976
 8258SOL    HW225674   6.679   3.855   1.948
 8259SOL     OW25675   5.425   1.576   4.447
 8259SOL    HW125676   5.523   1.580   4.467
 8259SOL    HW225677   5.392   1.483   4.457
 8260SOL     OW25678   4.441   1.216   1.263
 8260SOL    HW125679   4.515   1.196   1.200
 8260SOL    HW225680   4.438   1.314   1.282
 8261SOL     OW25681   5.963   0.838   2.576
 8261SOL    HW125682   5.946   0.875   2.668
 8261SOL    HW225683   6.056   0.802   2.571
 8262SOL     OW25684   5.777   3.759   1.834
 8262SOL    HW125685   5.721   3.806   1.903
 8262SOL    HW225686   5.737   3.670   1.813
 8263SOL     OW25687   6.767   2.630   5.772
 8263SOL    HW125688   6.807   2.586   5.692
 8263SOL    HW225689   6.838   2.644   5.841
 8264SOL     OW25690   3.122   0.287   3.048
 8264SOL    HW125691   3.130   0.340   2.964
 8264SOL    HW225692   3.212   0.280   3.092
 8265SOL     OW25693   5.361   0.006   0.161
 8265SOL    HW125694   5.420   0.068   0.212
 8265SOL    HW225695   5.378   6.936   0.189
 8266SOL     OW25696   2.440   0.833   4.008
 8266SOL    HW125697   2.357   0.792   4.046
 8266SOL    HW225698   2.471   0.907   4.068
 8267SOL     OW25699   1.769   4.528   2.745
 8267SOL    HW125700   1.839   4.524   2.673
 8267SOL    HW225701   1.682   4.492   2.709
 8268SOL     OW25702   3.646   5.475   6.372
 8268SOL    HW125703   3.686   5.428   6.451
 8268SOL    HW225704   3.594   5.409   6.317
 8269SOL     OW25705   5.831   2.772   3.664
 8269SOL    HW125706   5.902   2.702   3.666
 8269SOL    HW225707   5.813   2.799   3.569
 8270SOL     OW25708   3.658   6.985   6.231
 8270SOL    HW125709   3.601   6.996   6.312
 8270SOL    HW225710   3.630   6.904   6.180
 8271SOL     OW25711   3.443   6.175   6.089
 8271SOL    HW125712   3.379   6.129   6.028
 8271SOL    HW225713   3.414   6.269   6.103
 8272SOL     OW25714   0.814   0.442   1.728
 8272SOL    HW125715   0.785   0.518   1.670
 8272SOL    HW225716   0.841   0.477   1.818
 8273SOL     OW25717   3.634   0.734   6.699
 8273SOL    HW125718   3.691   0.795   6.645
 8273SOL    HW225719   3.688   0.655   6.729
 8274SOL     OW25720   5.195   6.687   5.711
 8274SOL    HW125721   5.250   6.665   5.631
 8274SOL    HW225722   5.254   6.694   5.791
 8275SOL     OW25723   5.766   0.577   3.455
 8275SOL    HW125724   5.676   0.616   3.475
 8275SOL    HW225725   5.798   0.609   3.366
 8276SOL     OW25726   0.420   2.100   6.615
 8276SOL    HW125727   0.385   2.084   6.523
 8276SOL    HW225728   0.470   2.019   6.647
 8277SOL     OW25729   1.335   6.816   6.576
 8277SOL    HW125730   1.336   6.718   6.596
 8277SOL    HW225731   1.317   6.830   6.479
 8278SOL     OW25732   3.089   1.133   6.887
 8278SOL    HW125733   3.103   1.059   6.953
 8278SOL    HW225734   3.154   1.207   6.906
 8279SOL     OW25735   4.613   4.852   4.972
 8279SOL    HW125736   4.676   4.798   5.028
 8279SOL    HW225737   4.662   4.887   4.892
 8280SOL     OW25738   5.624   3.437   6.885
 8280SOL    HW125739   5.671   3.515   6.925
 8280SOL    HW225740   5.557   3.469   6.817
 8281SOL     OW25741   2.915   5.340   0.177
 8281SOL    HW125742   2.834   5.335   0.118
 8281SOL    HW225743   2.901   5.412   0.245
 8282SOL     OW25744   3.161   3.051   0.851
 8282SOL    HW125745   3.184   3.023   0.757
 8282SOL    HW225746   3.153   2.970   0.908
 8283SOL     OW25747   0.250   5.671   3.414
 8283SOL    HW125748   0.175   5.736   3.431
 8283SOL    HW225749   0.287   5.686   3.323
 8284SOL     OW25750   2.772   1.860   1.930
 8284SOL    HW125751   2.725   1.786   1.883
 8284SOL    HW225752   2.871   1.850   1.919
 8285SOL     OW25753   2.985   4.256   6.034
 8285SOL    HW125754   3.066   4.304   6.000
 8285SOL    HW225755   2.997   4.235   6.131
 8286SOL     OW25756   5.740   1.857   5.460
 8286SOL    HW125757   5.656   1.843   5.407
 8286SOL    HW225758   5.802   1.917   5.409
 8287SOL     OW25759   2.378   0.301   3.551
 8287SOL    HW125760   2.388   0.388   3.599
 8287SOL    HW225761   2.394   0.226   3.616
 8288SOL     OW25762   2.488   0.645   2.846
 8288SOL    HW125763   2.533   0.566   2.804
 8288SOL    HW225764   2.390   0.638   2.833
 8289SOL     OW25765   6.674   1.110   5.805
 8289SOL    HW125766   6.687   1.052   5.885
 8289SOL    HW225767   6.757   1.163   5.789
 8290SOL     OW25768   4.509   2.812   1.736
 8290SOL    HW125769   4.544   2.879   1.802
 8290SOL    HW225770   4.558   2.822   1.649
 8291SOL     OW25771   3.991   5.323   6.639
 8291SOL    HW125772   3.892   5.333   6.626
 8291SOL    HW225773   4.036   5.316   6.550
 8292SOL     OW25774   0.670   3.386   4.485
 8292SOL    HW125775   0.676   3.345   4.394
 8292SOL    HW225776   0.603   3.460   4.484
 8293SOL     OW25777   2.969   4.933   3.632
 8293SOL    HW125778   2.992   5.020   3.674
 8293SOL    HW225779   3.023   4.921   3.549
 8294SOL     OW25780   4.618   3.554   5.612
 8294SOL    HW125781   4.637   3.566   5.515
 8294SOL    HW225782   4.555   3.478   5.625
 8295SOL     OW25783   4.824   4.410   2.203
 8295SOL    HW125784   4.876   4.472   2.262
 8295SOL    HW225785   4.745   4.459   2.165
 8296SOL     OW25786   3.960   6.167   2.074
 8296SOL    HW125787   3.945   6.121   1.987
 8296SOL    HW225788   3.878   6.219   2.098
 8297SOL     OW25789   5.663   4.452   3.167
 8297SOL    HW125790   5.670   4.353   3.182
 8297SOL    HW225791   5.580   4.486   3.211
 8298SOL     OW25792   6.577   6.931   5.979
 8298SOL    HW125793   6.608   6.839   5.954
 8298SOL    HW225794   6.484   6.926   6.016
 8299SOL     OW25795   0.207   3.540   1.112
 8299SOL    HW125796   0.193   3.593   1.028
 8299SOL    HW225797   0.223   3.444   1.089
 8300SOL     OW25798   5.339   4.609   2.691
 8300SOL    HW125799   5.284   4.536   2.732
 8300SOL    HW225800   5.404   4.644   2.758
 8301SOL     OW25801   4.931   6.813   0.274
 8301SOL    HW125802   5.024   6.784   0.251
 8301SOL    HW225803   4.903   6.888   0.214
 8302SOL     OW25804   3.417   6.831   5.304
 8302SOL    HW125805   3.466   6.763   5.248
 8302SOL    HW225806   3.349   6.878   5.247
 8303SOL     OW25807   0.355   5.938   2.946
 8303SOL    HW125808   0.371   6.036   2.938
 8303SOL    HW225809   0.380   5.893   2.860
 8304SOL     OW25810   5.856   4.233   2.988
 8304SOL    HW125811   5.794   4.259   2.914
 8304SOL    HW225812   5.888   4.315   3.036
 8305SOL     OW25813   4.706   6.519   4.799
 8305SOL    HW125814   4.787   6.461   4.803
 8305SOL    HW225815   4.732   6.614   4.816
 8306SOL     OW25816   6.215   1.080   2.106
 8306SOL    HW125817   6.142   1.038   2.051
 8306SOL    HW225818   6.289   1.015   2.118
 8307SOL     OW25819   1.495   3.478   3.153
 8307SOL    HW125820   1.447   3.434   3.229
 8307SOL    HW225821   1.430   3.506   3.083
 8308SOL     OW25822   1.471   5.452   0.678
 8308SOL    HW125823   1.383   5.480   0.717
 8308SOL    HW225824   1.530   5.532   0.668
 8309SOL     OW25825   6.142   5.096   4.881
 8309SOL    HW125826   6.200   5.029   4.928
 8309SOL    HW225827   6.172   5.105   4.786
 8310SOL     OW25828   1.380   6.442   0.798
 8310SOL    HW125829   1.341   6.458   0.889
 8310SOL    HW225830   1.405   6.529   0.756
 8311SOL     OW25831   5.525   6.763   3.432
 8311SOL    HW125832   5.537   6.694   3.361
 8311SOL    HW225833   5.511   6.852   3.390
 8312SOL     OW25834   5.370   1.771   0.443
 8312SOL    HW125835   5.376   1.870   0.429
 8312SOL    HW225836   5.370   1.752   0.541
 8313SOL     OW25837   5.436   2.308   5.356
 8313SOL    HW125838   5.509   2.251   5.394
 8313SOL    HW225839   5.476   2.387   5.310
 8314SOL     OW25840   4.892   6.460   4.495
 8314SOL    HW125841   4.886   6.375   4.547
 8314SOL    HW225842   4.806   6.510   4.501
 8315SOL     OW25843   3.276   4.138   4.863
 8315SOL    HW125844   3.281   4.040   4.883
 8315SOL    HW225845   3.244   4.187   4.944
 8316SOL     OW25846   2.081   2.322   6.434
 8316SOL    HW125847   2.001   2.375   6.404
 8316SOL    HW225848   2.094   2.335   6.532
 8317SOL     OW25849   1.610   1.669   3.513
 8317SOL    HW125850   1.592   1.571   3.522
 8317SOL    HW225851   1.590   1.715   3.599
 8318SOL     OW25852   4.698   0.511   6.962
 8318SOL    HW125853   4.761   0.488   0.012
 8318SOL    HW225854   4.744   0.571   6.896
 8319SOL     OW25855   1.332   6.567   6.738
 8319SOL    HW125856   1.414   6.576   6.794
 8319SOL    HW225857   1.255   6.611   6.784
 8320SOL     OW25858   3.194   2.970   4.891
 8320SOL    HW125859   3.122   2.976   4.961
 8320SOL    HW225860   3.243   2.883   4.902
 8321SOL     OW25861   0.351   6.609   1.209
 8321SOL    HW125862   0.416   6.562   1.268
 8321SOL    HW225863   0.374   6.706   1.204
 8322SOL     OW25864   0.590   0.077   6.983
 8322SOL    HW125865   0.629   0.148   6.925
 8322SOL    HW225866   0.647   7.019   6.979
 8323SOL     OW25867   5.713   4.306   0.846
 8323SOL    HW125868   5.805   4.321   0.809
 8323SOL    HW225869   5.678   4.218   0.813
 8324SOL     OW25870   5.132   5.345   6.238
 8324SOL    HW125871   5.052   5.314   6.289
 8324SOL    HW225872   5.159   5.435   6.270
 8325SOL     OW25873   1.168   5.329   6.580
 8325SOL    HW125874   1.171   5.230   6.571
 8325SOL    HW225875   1.120   5.353   6.664
 8326SOL     OW25876   1.303   3.241   0.320
 8326SOL    HW125877   1.215   3.209   0.283
 8326SOL    HW225878   1.353   3.289   0.249
 8327SOL     OW25879   0.667   6.901   4.694
 8327SOL    HW125880   0.717   6.850   4.624
 8327SOL    HW225881   0.593   6.953   4.651
 8328SOL     OW25882   1.053   0.480   0.465
 8328SOL    HW125883   1.112   0.533   0.404
 8328SOL    HW225884   0.959   0.513   0.457
 8329SOL     OW25885   1.992   2.824   4.762
 8329SOL    HW125886   2.036   2.902   4.806
 8329SOL    HW225887   1.917   2.791   4.820
 8330SOL     OW25888   4.163   1.229   6.741
 8330SOL    HW125889   4.089   1.208   6.678
 8330SOL    HW225890   4.161   1.166   6.818
 8331SOL     OW25891   1.739   2.420   5.922
 8331SOL    HW125892   1.701   2.410   5.831
 8331SOL    HW225893   1.817   2.483   5.919
 8332SOL     OW25894   6.170   5.298   1.239
 8332SOL    HW125895   6.131   5.224   1.184
 8332SOL    HW225896   6.097   5.357   1.274
 8333SOL     OW25897   2.295   4.730   7.020
 8333SOL    HW125898   2.319   4.672   0.074
 8333SOL    HW225899   2.207   4.702   6.983
 8334SOL     OW25900   3.738   2.133   6.417
 8334SOL    HW125901   3.778   2.221   6.445
 8334SOL    HW225902   3.769   2.110   6.325
 8335SOL     OW25903   5.211   3.921   6.283
 8335SOL    HW125904   5.248   3.835   6.318
 8335SOL    HW225905   5.115   3.907   6.256
 8336SOL     OW25906   0.865   4.196   4.190
 8336SOL    HW125907   0.871   4.229   4.096
 8336SOL    HW225908   0.896   4.101   4.194
 8337SOL     OW25909   0.565   0.974   4.560
 8337SOL    HW125910   0.636   0.943   4.622
 8337SOL    HW225911   0.545   1.071   4.578
 8338SOL     OW25912   4.380   5.981   1.909
 8338SOL    HW125913   4.403   5.969   1.812
 8338SOL    HW225914   4.451   5.940   1.966
 8339SOL     OW25915   5.849   0.046   1.016
 8339SOL    HW125916   5.829   0.089   1.104
 8339SOL    HW225917   5.763   0.022   0.971
 8340SOL     OW25918   6.435   2.127   6.570
 8340SOL    HW125919   6.376   2.190   6.520
 8340SOL    HW225920   6.404   2.033   6.555
 8341SOL     OW25921   3.692   0.793   0.601
 8341SOL    HW125922   3.635   0.860   0.648
 8341SOL    HW225923   3.753   0.749   0.667
 8342SOL     OW25924   4.941   0.695   0.283
 8342SOL    HW125925   4.901   0.782   0.314
 8342SOL    HW225926   4.983   0.708   0.193
 8343SOL     OW25927   5.587   4.233   4.157
 8343SOL    HW125928   5.567   4.246   4.060
 8343SOL    HW225929   5.656   4.161   4.167
 8344SOL     OW25930   1.125   5.192   5.485
 8344SOL    HW125931   1.184   5.161   5.559
 8344SOL    HW225932   1.139   5.134   5.404
 8345SOL     OW25933   4.741   0.762   3.442
 8345SOL    HW125934   4.645   0.789   3.433
 8345SOL    HW225935   4.766   0.757   3.538
 8346SOL     OW25936   6.064   3.774   4.983
 8346SOL    HW125937   6.149   3.816   4.953
 8346SOL    HW225938   6.079   3.678   5.004
 8347SOL     OW25939   2.488   0.740   6.949
 8347SOL    HW125940   2.575   0.729   6.997
 8347SOL    HW225941   2.476   0.836   6.924
 8348SOL     OW25942   3.439   6.339   2.123
 8348SOL    HW125943   3.346   6.304   2.134
 8348SOL    HW225944   3.475   6.311   2.034
 8349SOL     OW25945   0.328   6.596   2.210
 8349SOL    HW125946   0.394   6.614   2.284
 8349SOL    HW225947   0.236   6.614   2.244
 8350SOL     OW25948   2.281   0.343   0.736
 8350SOL    HW125949   2.238   0.379   0.819
 8350SOL    HW225950   2.254   0.399   0.658
 8351SOL     OW25951   6.963   3.394   3.292
 8351SOL    HW125952   7.014   3.312   3.319
 8351SOL    HW225953   6.927   3.440   3.373
 8352SOL     OW25954   2.712   6.047   2.109
 8352SOL    HW125955   2.650   6.123   2.089
 8352SOL    HW225956   2.678   5.964   2.065
 8353SOL     OW25957   1.468   4.889   2.161
 8353SOL    HW125958   1.467   4.973   2.216
 8353SOL    HW225959   1.375   4.867   2.133
 8354SOL     OW25960   3.318   0.586   3.130
 8354SOL    HW125961   3.318   0.679   3.168
 8354SOL    HW225962   3.232   0.571   3.080
 8355SOL     OW25963   2.391   6.129   6.403
 8355SOL    HW125964   2.452   6.053   6.379
 8355SOL    HW225965   2.425   6.173   6.486
 8356SOL     OW25966   2.351   5.474   0.709
 8356SOL    HW125967   2.384   5.528   0.632
 8356SOL    HW225968   2.296   5.397   0.675
 8357SOL     OW25969   4.767   6.240   5.151
 8357SOL    HW125970   4.727   6.306   5.087
 8357SOL    HW225971   4.866   6.245   5.146
 8358SOL     OW25972   0.995   1.267   4.728
 8358SOL    HW125973   0.984   1.327   4.649
 8358SOL    HW225974   1.004   1.322   4.811
 8359SOL     OW25975   3.670   1.976   5.327
 8359SOL    HW125976   3.662   2.070   5.294
 8359SOL    HW225977   3.634   1.970   5.420
 8360SOL     OW25978   4.552   0.242   1.622
 8360SOL    HW125979   4.630   0.281   1.572
 8360SOL    HW225980   4.584   0.205   1.709
 8361SOL     OW25981   4.088   0.631   6.947
 8361SOL    HW125982   4.098   0.680   6.860
 8361SOL    HW225983   4.122   0.537   6.937
 8362SOL     OW25984   6.868   4.424   1.346
 8362SOL    HW125985   6.887   4.376   1.431
 8362SOL    HW225986   6.896   4.520   1.354
 8363SOL     OW25987   2.935   3.256   0.058
 8363SOL    HW125988   3.021   3.298   0.027
 8363SOL    HW225989   2.945   3.228   0.154
 8364SOL     OW25990   0.485   3.597   4.554
 8364SOL    HW125991   0.481   3.506   4.596
 8364SOL    HW225992   0.475   3.667   4.625
 8365SOL     OW25993   1.783   2.574   2.463
 8365SOL    HW125994   1.769   2.606   2.369
 8365SOL    HW225995   1.834   2.643   2.514
 8366SOL     OW25996   5.143   4.829   2.091
 8366SOL    HW125997   5.088   4.750   2.121
 8366SOL    HW225998   5.229   4.797   2.052
 8367SOL     OW25999   3.632   5.475   4.091
 8367SOL    HW126000   3.667   5.556   4.045
 8367SOL    HW226001   3.694   5.449   4.165
 8368SOL     OW26002   6.440   6.256   0.145
 8368SOL    HW126003   6.526   6.233   0.190
 8368SOL    HW226004   6.429   6.198   0.064
 8369SOL     OW26005   2.407   6.977   1.419
 8369SOL    HW126006   2.323   6.980   1.473
 8369SOL    HW226007   2.483   6.951   1.478
 8370SOL     OW26008   2.569   3.718   7.015
 8370SOL    HW126009   2.648   3.739   6.957
 8370SOL    HW226010   2.588   3.745   0.085
 8371SOL     OW26011   1.934   3.873   6.269
 8371SOL    HW126012   1.881   3.954   6.246
 8371SOL    HW226013   2.031   3.891   6.254
 8372SOL     OW26014   2.682   5.660   2.736
 8372SOL    HW126015   2.729   5.592   2.792
 8372SOL    HW226016   2.749   5.720   2.693
 8373SOL     OW26017   0.208   1.387   4.119
 8373SOL    HW126018   0.263   1.456   4.167
 8373SOL    HW226019   0.115   1.386   4.157
 8374SOL     OW26020   1.246   0.436   4.263
 8374SOL    HW126021   1.222   0.348   4.303
 8374SOL    HW226022   1.341   0.459   4.284
 8375SOL     OW26023   3.430   0.623   4.846
 8375SOL    HW126024   3.348   0.640   4.900
 8375SOL    HW226025   3.485   0.706   4.840
 8376SOL     OW26026   2.011   0.474   3.159
 8376SOL    HW126027   2.034   0.377   3.172
 8376SOL    HW226028   2.093   0.529   3.170
 8377SOL     OW26029   4.218   5.325   0.122
 8377SOL    HW126030   4.186   5.255   0.058
 8377SOL    HW226031   4.302   5.366   0.088
 8378SOL     OW26032   5.527   6.080   4.347
 8378SOL    HW126033   5.486   6.026   4.274
 8378SOL    HW226034   5.495   6.175   4.340
 8379SOL     OW26035   5.831   0.965   1.692
 8379SOL    HW126036   5.735   0.990   1.702
 8379SOL    HW226037   5.857   0.970   1.595
 8380SOL     OW26038   6.722   5.684   0.348
 8380SOL    HW126039   6.671   5.640   0.422
 8380SOL    HW226040   6.768   5.765   0.383
 8381SOL     OW26041   0.257   2.146   2.445
 8381SOL    HW126042   0.270   2.100   2.357
 8381SOL    HW226043   0.278   2.243   2.435
 8382SOL     OW26044   2.053   0.783   1.395
 8382SOL    HW126045   2.103   0.867   1.374
 8382SOL    HW226046   1.963   0.806   1.431
 8383SOL     OW26047   2.873   6.502   6.243
 8383SOL    HW126048   2.874   6.443   6.163
 8383SOL    HW226049   2.819   6.584   6.224
 8384SOL     OW26050   0.599   3.174   2.207
 8384SOL    HW126051   0.609   3.075   2.190
 8384SOL    HW226052   0.538   3.188   2.284
 8385SOL     OW26053   3.576   3.500   1.360
 8385SOL    HW126054   3.540   3.407   1.352
 8385SOL    HW226055   3.665   3.496   1.406
 8386SOL     OW26056   2.253   6.101   1.999
 8386SOL    HW126057   2.284   6.046   1.921
 8386SOL    HW226058   2.159   6.130   1.982
 8387SOL     OW26059   1.572   1.348   2.565
 8387SOL    HW126060   1.525   1.299   2.639
 8387SOL    HW226061   1.509   1.414   2.525
 8388SOL     OW26062   3.933   6.327   1.479
 8388SOL    HW126063   3.859   6.388   1.451
 8388SOL    HW226064   3.997   6.316   1.404
 8389SOL     OW26065   0.507   2.514   3.992
 8389SOL    HW126066   0.531   2.530   4.088
 8389SOL    HW226067   0.563   2.440   3.956
 8390SOL     OW26068   3.571   1.110   6.093
 8390SOL    HW126069   3.537   1.016   6.084
 8390SOL    HW226070   3.562   1.139   6.188
 8391SOL     OW26071   5.250   5.614   1.366
 8391SOL    HW126072   5.260   5.592   1.269
 8391SOL    HW226073   5.247   5.713   1.378
 8392SOL     OW26074   5.354   6.359   5.755
 8392SOL    HW126075   5.336   6.364   5.657
 8392SOL    HW226076   5.441   6.402   5.775
 8393SOL     OW26077   6.896   5.699   3.179
 8393SOL    HW126078   6.880   5.796   3.160
 8393SOL    HW226079   6.845   5.643   3.114
 8394SOL     OW26080   0.585   1.907   3.008
 8394SOL    HW126081   0.665   1.965   2.995
 8394SOL    HW226082   0.505   1.949   2.964
 8395SOL     OW26083   0.057   5.853   5.740
 8395SOL    HW126084   0.015   5.781   5.795
 8395SOL    HW226085   0.005   5.865   5.656
 8396SOL     OW26086   4.823   3.324   1.625
 8396SOL    HW126087   4.835   3.420   1.598
 8396SOL    HW226088   4.853   3.264   1.551
 8397SOL     OW26089   2.069   5.705   3.377
 8397SOL    HW126090   2.116   5.772   3.433
 8397SOL    HW226091   2.097   5.715   3.282
 8398SOL     OW26092   4.490   1.964   0.755
 8398SOL    HW126093   4.393   1.957   0.780
 8398SOL    HW226094   4.530   1.873   0.750
 8399SOL     OW26095   5.508   5.844   0.731
 8399SOL    HW126096   5.601   5.857   0.697
 8399SOL    HW226097   5.463   5.933   0.740
 8400SOL     OW26098   6.530   0.746   2.659
 8400SOL    HW126099   6.448   0.696   2.627
 8400SOL    HW226100   6.502   0.822   2.717
 8401SOL     OW26101   2.889   4.574   6.484
 8401SOL    HW126102   2.880   4.544   6.578
 8401SOL    HW226103   2.974   4.538   6.445
 8402SOL     OW26104   4.364   1.909   0.107
 8402SOL    HW126105   4.279   1.877   0.149
 8402SOL    HW226106   4.360   1.894   0.008
 8403SOL     OW26107   2.150   1.540   4.612
 8403SOL    HW126108   2.233   1.499   4.574
 8403SOL    HW226109   2.070   1.506   4.563
 8404SOL     OW26110   4.451   5.096   5.643
 8404SOL    HW126111   4.458   5.180   5.589
 8404SOL    HW226112   4.382   5.109   5.715
 8405SOL     OW26113   0.661   2.595   5.309
 8405SOL    HW126114   0.665   2.686   5.267
 8405SOL    HW226115   0.669   2.525   5.238
 8406SOL     OW26116   5.405   3.310   1.296
 8406SOL    HW126117   5.310   3.292   1.322
 8406SOL    HW226118   5.449   3.224   1.269
 8407SOL     OW26119   4.696   4.171   2.898
 8407SOL    HW126120   4.704   4.091   2.957
 8407SOL    HW226121   4.720   4.145   2.805
 8408SOL     OW26122   4.875   2.289   4.898
 8408SOL    HW126123   4.776   2.278   4.895
 8408SOL    HW226124   4.904   2.310   4.991
 8409SOL     OW26125   1.042   1.731   3.986
 8409SOL    HW126126   1.004   1.661   4.046
 8409SOL    HW226127   1.057   1.692   3.895
 8410SOL     OW26128   3.999   7.000   1.612
 8410SOL    HW126129   4.039   6.991   1.704
 8410SOL    HW226130   4.072   7.009   1.545
 8411SOL     OW26131   1.744   3.578   4.377
 8411SOL    HW126132   1.823   3.547   4.325
 8411SOL    HW226133   1.701   3.655   4.329
 8412SOL     OW26134   5.466   2.337   3.957
 8412SOL    HW126135   5.530   2.411   3.980
 8412SOL    HW226136   5.514   2.249   3.960
 8413SOL     OW26137   3.467   4.756   0.767
 8413SOL    HW126138   3.565   4.767   0.786
 8413SOL    HW226139   3.454   4.746   0.668
 8414SOL     OW26140   3.999   6.677   2.867
 8414SOL    HW126141   3.931   6.641   2.931
 8414SOL    HW226142   3.964   6.668   2.773
 8415SOL     OW26143   6.808   4.110   2.819
 8415SOL    HW126144   6.858   4.188   2.781
 8415SOL    HW226145   6.825   4.103   2.917
 8416SOL     OW26146   5.214   3.782   2.567
 8416SOL    HW126147   5.257   3.789   2.657
 8416SOL    HW226148   5.130   3.728   2.574
 8417SOL     OW26149   2.817   5.859   6.093
 8417SOL    HW126150   2.763   5.942   6.091
 8417SOL    HW226151   2.913   5.882   6.112
 8418SOL     OW26152   6.573   5.313   2.996
 8418SOL    HW126153   6.503   5.244   2.977
 8418SOL    HW226154   6.661   5.269   3.008
 8419SOL     OW26155   4.465   0.532   3.508
 8419SOL    HW126156   4.436   0.601   3.441
 8419SOL    HW226157   4.463   0.571   3.600
 8420SOL     OW26158   4.034   1.012   6.537
 8420SOL    HW126159   3.951   0.991   6.589
 8420SOL    HW226160   4.064   0.929   6.489
 8421SOL     OW26161   2.392   6.849   2.014
 8421SOL    HW126162   2.464   6.846   2.083
 8421SOL    HW226163   2.338   6.766   2.019
 8422SOL     OW26164   4.271   6.923   0.714
 8422SOL    HW126165   4.245   6.849   0.651
 8422SOL    HW226166   4.219   7.005   0.692
 8423SOL     OW26167   3.440   3.948   1.382
 8423SOL    HW126168   3.477   3.860   1.351
 8423SOL    HW226169   3.411   4.002   1.303
 8424SOL     OW26170   3.318   1.211   2.285
 8424SOL    HW126171   3.347   1.201   2.190
 8424SOL    HW226172   3.333   1.305   2.314
 8425SOL     OW26173   6.084   4.497   6.854
 8425SOL    HW126174   6.070   4.407   6.814
 8425SOL    HW226175   6.176   4.502   6.893
 8426SOL     OW26176   4.106   3.802   3.399
 8426SOL    HW126177   4.085   3.745   3.319
 8426SOL    HW226178   4.092   3.898   3.376
 8427SOL     OW26179   2.198   4.065   6.727
 8427SOL    HW126180   2.280   4.090   6.675
 8427SOL    HW226181   2.142   4.003   6.672
 8428SOL     OW26182   6.443   4.045   2.387
 8428SOL    HW126183   6.538   4.044   2.419
 8428SOL    HW226184   6.383   4.074   2.461
 8429SOL     OW26185   2.144   6.283   2.996
 8429SOL    HW126186   2.241   6.263   3.011
 8429SOL    HW226187   2.132   6.323   2.905
 8430SOL     OW26188   4.352   4.602   3.091
 8430SOL    HW126189   4.306   4.534   3.033
 8430SOL    HW226190   4.419   4.556   3.149
 8431SOL     OW26191   3.442   4.670   1.440
 8431SOL    HW126192   3.439   4.766   1.467
 8431SOL    HW226193   3.448   4.664   1.341
 8432SOL     OW26194   4.051   6.925   6.791
 8432SOL    HW126195   3.974   6.864   6.807
 8432SOL    HW226196   4.121   6.877   6.738
 8433SOL     OW26197   1.243   2.406   6.220
 8433SOL    HW126198   1.252   2.308   6.233
 8433SOL    HW226199   1.148   2.428   6.197
 8434SOL     OW26200   5.382   0.114   5.339
 8434SOL    HW126201   5.286   0.102   5.361
 8434SOL    HW226202   5.398   0.208   5.309
 8435SOL     OW26203   4.220   1.662   1.339
 8435SOL    HW126204   4.163   1.688   1.262
 8435SOL    HW226205   4.165   1.662   1.423
 8436SOL     OW26206   4.248   4.266   1.590
 8436SOL    HW126207   4.158   4.223   1.596
 8436SOL    HW226208   4.285   4.277   1.682
 8437SOL     OW26209   0.350   0.940   1.116
 8437SOL    HW126210   0.427   0.979   1.166
 8437SOL    HW226211   0.316   0.859   1.164
 8438SOL     OW26212   1.390   6.109   1.665
 8438SOL    HW126213   1.368   6.156   1.750
 8438SOL    HW226214   1.486   6.125   1.641
 8439SOL     OW26215   0.053   5.585   2.545
 8439SOL    HW126216   0.136   5.632   2.576
 8439SOL    HW226217   0.049   5.494   2.587
 8440SOL     OW26218   0.888   0.774   2.391
 8440SOL    HW126219   0.919   0.680   2.378
 8440SOL    HW226220   0.885   0.821   2.303
 8441SOL     OW26221   4.678   5.444   6.407
 8441SOL    HW126222   4.585   5.465   6.378
 8441SOL    HW226223   4.741   5.512   6.369
 8442SOL     OW26224   2.495   4.627   6.767
 8442SOL    HW126225   2.416   4.687   6.759
 8442SOL    HW226226   2.544   4.646   6.852
 8443SOL     OW26227   1.745   0.323   3.248
 8443SOL    HW126228   1.841   0.333   3.274
 8443SOL    HW226229   1.711   0.411   3.214
 8444SOL     OW26230   3.731   6.170   3.365
 8444SOL    HW126231   3.803   6.183   3.433
 8444SOL    HW226232   3.709   6.258   3.322
 8445SOL     OW26233   3.946   5.049   2.569
 8445SOL    HW126234   3.896   4.965   2.592
 8445SOL    HW226235   4.027   5.025   2.516
 8446SOL     OW26236   5.795   4.453   2.415
 8446SOL    HW126237   5.848   4.403   2.483
 8446SOL    HW226238   5.841   4.540   2.395
 8447SOL     OW26239   4.460   2.429   2.348
 8447SOL    HW126240   4.549   2.473   2.330
 8447SOL    HW226241   4.387   2.490   2.318
 8448SOL     OW26242   0.737   3.611   6.628
 8448SOL    HW126243   0.806   3.541   6.615
 8448SOL    HW226244   0.754   3.688   6.566
 8449SOL     OW26245   1.805   2.883   4.584
 8449SOL    HW126246   1.838   2.836   4.502
 8449SOL    HW226247   1.868   2.865   4.660
 8450SOL     OW26248   2.004   5.304   2.644
 8450SOL    HW126249   2.009   5.227   2.580
 8450SOL    HW226250   2.060   5.284   2.724
 8451SOL     OW26251   3.607   2.349   1.218
 8451SOL    HW126252   3.661   2.386   1.293
 8451SOL    HW226253   3.624   2.402   1.135
 8452SOL     OW26254   6.298   6.129   0.374
 8452SOL    HW126255   6.374   6.070   0.401
 8452SOL    HW226256   6.334   6.209   0.326
 8453SOL     OW26257   6.238   3.865   6.366
 8453SOL    HW126258   6.157   3.846   6.422
 8453SOL    HW226259   6.302   3.922   6.418
 8454SOL     OW26260   1.666   6.900   4.363
 8454SOL    HW126261   1.707   6.902   4.272
 8454SOL    HW226262   1.719   6.838   4.422
 8455SOL     OW26263   5.112   1.342   1.138
 8455SOL    HW126264   5.195   1.291   1.115
 8455SOL    HW226265   5.032   1.283   1.123
 8456SOL     OW26266   5.661   5.740   3.209
 8456SOL    HW126267   5.642   5.732   3.307
 8456SOL    HW226268   5.751   5.702   3.190
 8457SOL     OW26269   6.992   5.640   5.992
 8457SOL    HW126270   6.959   5.549   6.017
 8457SOL    HW226271   0.056   5.658   6.037
 8458SOL     OW26272   1.358   1.789   0.677
 8458SOL    HW126273   1.431   1.789   0.608
 8458SOL    HW226274   1.379   1.722   0.748
 8459SOL     OW26275   3.369   5.687   2.153
 8459SOL    HW126276   3.351   5.770   2.099
 8459SOL    HW226277   3.405   5.713   2.243
 8460SOL     OW26278   4.547   1.256   0.667
 8460SOL    HW126279   4.507   1.187   0.727
 8460SOL    HW226280   4.507   1.345   0.689
 8461SOL     OW26281   6.237   4.098   1.632
 8461SOL    HW126282   6.277   4.033   1.697
 8461SOL    HW226283   6.269   4.190   1.654
 8462SOL     OW26284   3.120   5.044   6.917
 8462SOL    HW126285   3.208   5.003   6.893
 8462SOL    HW226286   3.098   5.117   6.853
 8463SOL     OW26287   6.757   1.530   0.400
 8463SOL    HW126288   6.758   1.597   0.474
 8463SOL    HW226289   6.807   1.566   0.321
 8464SOL     OW26290   0.209   3.603   0.009
 8464SOL    HW126291   0.263   3.615   6.950
 8464SOL    HW226292   0.174   3.692   0.040
 8465SOL     OW26293   4.145   3.184   1.360
 8465SOL    HW126294   4.240   3.184   1.389
 8465SOL    HW226295   4.130   3.107   1.298
 8466SOL     OW26296   6.052   1.065   5.965
 8466SOL    HW126297   6.034   0.978   5.919
 8466SOL    HW226298   5.990   1.076   6.042
 8467SOL     OW26299   3.296   1.034   1.335
 8467SOL    HW126300   3.206   1.038   1.292
 8467SOL    HW226301   3.310   1.115   1.392
 8468SOL     OW26302   6.217   3.375   6.817
 8468SOL    HW126303   6.206   3.388   6.718
 8468SOL    HW226304   6.215   3.464   6.862
 8469SOL     OW26305   4.144   2.995   5.857
 8469SOL    HW126306   4.094   3.002   5.770
 8469SOL    HW226307   4.089   3.034   5.931
 8470SOL     OW26308   1.505   5.283   1.446
 8470SOL    HW126309   1.435   5.278   1.517
 8470SOL    HW226310   1.540   5.191   1.426
 8471SOL     OW26311   3.689   2.215   5.162
 8471SOL    HW126312   3.737   2.224   5.074
 8471SOL    HW226313   3.597   2.180   5.146
 8472SOL     OW26314   5.528   1.598   5.889
 8472SOL    HW126315   5.614   1.561   5.852
 8472SOL    HW226316   5.532   1.599   5.989
 8473SOL     OW26317   4.602   4.741   6.238
 8473SOL    HW126318   4.682   4.693   6.274
 8473SOL    HW226319   4.619   4.767   6.142
 8474SOL     OW26320   3.629   3.753   2.831
 8474SOL    HW126321   3.716   3.802   2.829
 8474SOL    HW226322   3.646   3.656   2.852
 8475SOL     OW26323   6.610   2.735   1.852
 8475SOL    HW126324   6.646   2.798   1.784
 8475SOL    HW226325   6.685   2.687   1.898
 8476SOL     OW26326   6.142   6.704   1.844
 8476SOL    HW126327   6.080   6.700   1.923
 8476SOL    HW226328   6.129   6.790   1.795
 8477SOL     OW26329   5.990   6.424   1.587
 8477SOL    HW126330   5.974   6.410   1.685
 8477SOL    HW226331   5.903   6.439   1.541
 8478SOL     OW26332   6.446   0.191   5.123
 8478SOL    HW126333   6.379   0.147   5.063
 8478SOL    HW226334   6.536   0.148   5.110
 8479SOL     OW26335   0.760   2.564   1.707
 8479SOL    HW126336   0.754   2.548   1.805
 8479SOL    HW226337   0.761   2.663   1.690
 8480SOL     OW26338   4.997   4.534   0.242
 8480SOL    HW126339   4.995   4.471   0.320
 8480SOL    HW226340   5.040   4.489   0.164
 8481SOL     OW26341   3.813   1.971   3.596
 8481SOL    HW126342   3.899   2.005   3.561
 8481SOL    HW226343   3.799   1.877   3.565
 8482SOL     OW26344   4.622   1.255   0.026
 8482SOL    HW126345   4.608   1.300   6.962
 8482SOL    HW226346   4.535   1.247   0.074
 8483SOL     OW26347   3.088   5.307   3.287
 8483SOL    HW126348   3.169   5.249   3.274
 8483SOL    HW226349   3.044   5.283   3.374
 8484SOL     OW26350   5.952   6.294   3.910
 8484SOL    HW126351   6.049   6.299   3.932
 8484SOL    HW226352   5.936   6.329   3.818
 8485SOL     OW26353   2.773   2.717   0.571
 8485SOL    HW126354   2.701   2.674   0.517
 8485SOL    HW226355   2.764   2.817   0.565
 8486SOL     OW26356   1.053   1.002   2.500
 8486SOL    HW126357   1.068   1.071   2.429
 8486SOL    HW226358   0.955   0.989   2.514
 8487SOL     OW26359   6.355   1.811   5.881
 8487SOL    HW126360   6.273   1.758   5.862
 8487SOL    HW226361   6.436   1.753   5.869
 8488SOL     OW26362   5.104   4.531   1.690
 8488SOL    HW126363   5.150   4.596   1.751
 8488SOL    HW226364   5.124   4.438   1.720
 8489SOL     OW26365   4.891   1.164   1.351
 8489SOL    HW126366   4.936   1.232   1.408
 8489SOL    HW226367   4.801   1.198   1.324
 8490SOL     OW26368   2.059   0.547   6.884
 8490SOL    HW126369   2.110   0.622   6.842
 8490SOL    HW226370   2.012   0.580   6.966
 8491SOL     OW26371   3.442   5.768   2.410
 8491SOL    HW126372   3.526   5.787   2.461
 8491SOL    HW226373   3.386   5.704   2.463
 8492SOL     OW26374   6.083   5.781   4.330
 8492SOL    HW126375   6.080   5.796   4.428
 8492SOL    HW226376   6.010   5.832   4.285
 8493SOL     OW26377   3.822   0.342   6.932
 8493SOL    HW126378   3.893   0.272   6.925
 8493SOL    HW226379   3.807   0.365   0.004
 8494SOL     OW26380   5.980   5.077   2.538
 8494SOL    HW126381   5.992   5.014   2.461
 8494SOL    HW226382   5.963   5.026   2.622
 8495SOL     OW26383   6.534   5.646   0.126
 8495SOL    HW126384   6.609   5.660   0.190
 8495SOL    HW226385   6.448   5.636   0.177
 8496SOL     OW26386   5.203   2.094   2.762
 8496SOL    HW126387   5.123   2.137   2.722
 8496SOL    HW226388   5.284   2.118   2.708
 8497SOL     OW26389   6.218   0.895   3.852
 8497SOL    HW126390   6.314   0.891   3.824
 8497SOL    HW226391   6.200   0.982   3.897
 8498SOL     OW26392   4.874   0.462   4.117
 8498SOL    HW126393   4.919   0.426   4.198
 8498SOL    HW226394   4.786   0.417   4.105
 8499SOL     OW26395   6.193   6.529   6.304
 8499SOL    HW126396   6.217   6.432   6.311
 8499SOL    HW226397   6.232   6.578   6.382
 8500SOL     OW26398   1.557   0.806   4.896
 8500SOL    HW126399   1.473   0.768   4.935
 8500SOL    HW226400   1.538   0.898   4.861
 8501SOL     OW26401   0.807   1.750   6.177
 8501SOL    HW126402   0.879   1.747   6.245
 8501SOL    HW226403   0.807   1.840   6.132
 8502SOL     OW26404   0.415   2.777   6.953
 8502SOL    HW126405   0.410   2.869   6.991
 8502SOL    HW226406   0.339   2.762   6.890
 8503SOL     OW26407   5.672   6.962   4.397
 8503SOL    HW126408   5.762   6.992   4.366
 8503SOL    HW226409   5.654   7.000   4.488
 8504SOL     OW26410   1.909   5.054   2.892
 8504SOL    HW126411   2.002   5.079   2.864
 8504SOL    HW226412   1.884   4.968   2.849
 8505SOL     OW26413   5.298   2.908   2.907
 8505SOL    HW126414   5.259   2.879   2.820
 8505SOL    HW226415   5.397   2.893   2.907
 8506SOL     OW26416   2.318   6.923   0.186
 8506SOL    HW126417   2.413   6.940   0.212
 8506SOL    HW226418   2.260   6.994   0.225
 8507SOL     OW26419   4.565   5.981   5.658
 8507SOL    HW126420   4.545   5.883   5.665
 8507SOL    HW226421   4.547   6.012   5.565
 8508SOL     OW26422   3.355   1.628   6.983
 8508SOL    HW126423   3.436   1.575   7.007
 8508SOL    HW226424   3.367   1.723   7.010
 8509SOL     OW26425   5.213   0.719   3.795
 8509SOL    HW126426   5.181   0.696   3.887
 8509SOL    HW226427   5.285   0.788   3.801
 8510SOL     OW26428   6.458   1.908   4.543
 8510SOL    HW126429   6.449   1.821   4.592
 8510SOL    HW226430   6.429   1.983   4.603
 8511SOL     OW26431   6.091   2.696   2.159
 8511SOL    HW126432   6.041   2.610   2.175
 8511SOL    HW226433   6.133   2.693   2.069
 8512SOL     OW26434   1.702   6.834   4.704
 8512SOL    HW126435   1.668   6.747   4.740
 8512SOL    HW226436   1.627   6.882   4.658
 8513SOL     OW26437   5.545   5.920   6.399
 8513SOL    HW126438   5.492   5.898   6.481
 8513SOL    HW226439   5.609   5.994   6.419
 8514SOL     OW26440   2.196   5.772   4.095
 8514SOL    HW126441   2.179   5.867   4.121
 8514SOL    HW226442   2.133   5.712   4.143
 8515SOL     OW26443   4.911   2.027   1.428
 8515SOL    HW126444   4.899   2.079   1.513
 8515SOL    HW226445   4.915   1.930   1.450
 8516SOL     OW26446   7.008   2.154   2.301
 8516SOL    HW126447   6.954   2.075   2.329
 8516SOL    HW226448   0.075   2.149   2.343
 8517SOL     OW26449   2.494   2.244   6.714
 8517SOL    HW126450   2.462   2.242   6.809
 8517SOL    HW226451   2.593   2.262   6.712
 8518SOL     OW26452   3.511   5.718   0.696
 8518SOL    HW126453   3.461   5.670   0.769
 8518SOL    HW226454   3.455   5.793   0.661
 8519SOL     OW26455   0.909   5.853   3.121
 8519SOL    HW126456   0.963   5.888   3.198
 8519SOL    HW226457   0.879   5.929   3.064
 8520SOL     OW26458   3.637   0.987   6.897
 8520SOL    HW126459   3.660   0.929   6.976
 8520SOL    HW226460   3.555   0.951   6.853
 8521SOL     OW26461   1.158   6.195   6.326
 8521SOL    HW126462   1.102   6.202   6.243
 8521SOL    HW226463   1.254   6.210   6.303
 8522SOL     OW26464   1.254   5.849   5.254
 8522SOL    HW126465   1.348   5.879   5.238
 8522SOL    HW226466   1.245   5.753   5.226
 8523SOL     OW26467   1.520   0.082   6.909
 8523SOL    HW126468   1.480   0.092   7.000
 8523SOL    HW226469   1.606   0.132   6.904
 8524SOL     OW26470   1.143   3.030   6.405
 8524SOL    HW126471   1.150   2.966   6.329
 8524SOL    HW226472   1.176   3.120   6.376
 8525SOL     OW26473   5.925   3.130   3.112
 8525SOL    HW126474   5.986   3.054   3.090
 8525SOL    HW226475   5.978   3.207   3.146
 8526SOL     OW26476   2.068   2.898   2.540
 8526SOL    HW126477   2.117   2.946   2.468
 8526SOL    HW226478   2.085   2.943   2.628
 8527SOL     OW26479   4.427   0.747   4.463
 8527SOL    HW126480   4.363   0.678   4.431
 8527SOL    HW226481   4.521   0.717   4.444
 8528SOL     OW26482   4.903   2.605   6.490
 8528SOL    HW126483   4.890   2.645   6.581
 8528SOL    HW226484   4.909   2.678   6.422
 8529SOL     OW26485   0.510   4.575   0.152
 8529SOL    HW126486   0.548   4.500   0.207
 8529SOL    HW226487   0.555   4.661   0.178
 8530SOL     OW26488   1.839   3.603   5.476
 8530SOL    HW126489   1.873   3.682   5.424
 8530SOL    HW226490   1.835   3.523   5.416
 8531SOL     OW26491   4.643   4.723   2.659
 8531SOL    HW126492   4.730   4.678   2.680
 8531SOL    HW226493   4.575   4.654   2.636
 8532SOL     OW26494   2.547   3.763   6.291
 8532SOL    HW126495   2.466   3.714   6.324
 8532SOL    HW226496   2.556   3.750   6.193
 8533SOL     OW26497   3.538   0.351   5.197
 8533SOL    HW126498   3.544   0.329   5.100
 8533SOL    HW226499   3.479   0.432   5.209
 8534SOL     OW26500   1.471   2.910   3.154
 8534SOL    HW126501   1.463   2.840   3.084
 8534SOL    HW226502   1.417   2.990   3.128
 8535SOL     OW26503   0.278   2.328   4.730
 8535SOL    HW126504   0.322   2.412   4.699
 8535SOL    HW226505   0.336   2.249   4.708
 8536SOL     OW26506   0.333   1.391   5.967
 8536SOL    HW126507   0.394   1.319   6.000
 8536SOL    HW226508   0.379   1.479   5.973
 8537SOL     OW26509   5.520   0.236   2.329
 8537SOL    HW126510   5.456   0.164   2.357
 8537SOL    HW226511   5.562   0.212   2.242
 8538SOL     OW26512   5.818   1.309   4.644
 8538SOL    HW126513   5.728   1.271   4.663
 8538SOL    HW226514   5.888   1.240   4.662
 8539SOL     OW26515   6.820   3.567   1.999
 8539SOL    HW126516   6.916   3.583   1.979
 8539SOL    HW226517   6.803   3.468   2.002
 8540SOL     OW26518   4.794   0.011   0.111
 8540SOL    HW126519   4.827   0.092   0.160
 8540SOL    HW226520   4.722   0.038   0.047
 8541SOL     OW26521   3.188   0.500   5.200
 8541SOL    HW126522   3.263   0.540   5.252
 8541SOL    HW226523   3.178   0.550   5.113
 8542SOL     OW26524   1.775   4.498   6.818
 8542SOL    HW126525   1.838   4.438   6.768
 8542SOL    HW226526   1.688   4.451   6.831
 8543SOL     OW26527   2.213   1.998   6.403
 8543SOL    HW126528   2.245   1.977   6.495
 8543SOL    HW226529   2.164   2.086   6.405
 8544SOL     OW26530   5.490   4.172   5.611
 8544SOL    HW126531   5.404   4.208   5.647
 8544SOL    HW226532   5.474   4.131   5.521
 8545SOL     OW26533   2.936   0.780   6.594
 8545SOL    HW126534   2.947   0.680   6.599
 8545SOL    HW226535   2.848   0.802   6.553
 8546SOL     OW26536   5.297   0.225   1.498
 8546SOL    HW126537   5.321   0.192   1.590
 8546SOL    HW226538   5.221   0.289   1.505
 8547SOL     OW26539   5.914   6.298   5.139
 8547SOL    HW126540   5.879   6.274   5.230
 8547SOL    HW226541   5.991   6.362   5.149
 8548SOL     OW26542   0.145   3.180   5.895
 8548SOL    HW126543   0.136   3.266   5.846
 8548SOL    HW226544   0.229   3.180   5.949
 8549SOL     OW26545   2.029   0.253   3.308
 8549SOL    HW126546   2.038   0.156   3.285
 8549SOL    HW226547   2.103   0.279   3.370
 8550SOL     OW26548   6.558   4.239   6.309
 8550SOL    HW126549   6.570   4.176   6.232
 8550SOL    HW226550   6.596   4.328   6.285
 8551SOL     OW26551   2.055   1.329   6.425
 8551SOL    HW126552   1.996   1.385   6.367
 8551SOL    HW226553   2.006   1.245   6.450
 8552SOL     OW26554   2.748   1.994   2.943
 8552SOL    HW126555   2.649   1.989   2.950
 8552SOL    HW226556   2.788   1.908   2.974
 8553SOL     OW26557   4.874   3.292   6.899
 8553SOL    HW126558   4.887   3.379   6.852
 8553SOL    HW226559   4.956   3.236   6.890
 8554SOL     OW26560   1.291   0.816   0.892
 8554SOL    HW126561   1.240   0.731   0.903
 8554SOL    HW226562   1.381   0.795   0.853
 8555SOL     OW26563   4.623   1.379   4.023
 8555SOL    HW126564   4.662   1.470   4.014
 8555SOL    HW226565   4.541   1.372   3.966
 8556SOL     OW26566   2.179   6.050   0.613
 8556SOL    HW126567   2.160   6.068   0.710
 8556SOL    HW226568   2.092   6.047   0.563
 8557SOL     OW26569   0.237   0.539   0.500
 8557SOL    HW126570   0.302   0.540   0.424
 8557SOL    HW226571   0.162   0.477   0.477
 8558SOL     OW26572   3.068   5.621   4.352
 8558SOL    HW126573   3.032   5.670   4.273
 8558SOL    HW226574   3.001   5.622   4.426
 8559SOL     OW26575   1.193   5.464   2.760
 8559SOL    HW126576   1.284   5.501   2.780
 8559SOL    HW226577   1.123   5.524   2.799
 8560SOL     OW26578   3.075   4.457   1.662
 8560SOL    HW126579   3.092   4.359   1.672
 8560SOL    HW226580   3.022   4.490   1.740
 8561SOL     OW26581   4.613   0.094   2.071
 8561SOL    HW126582   4.654   0.183   2.052
 8561SOL    HW226583   4.662   0.051   2.147
 8562SOL     OW26584   4.824   2.009   6.805
 8562SOL    HW126585   4.844   2.090   6.749
 8562SOL    HW226586   4.905   1.950   6.808
 8563SOL     OW26587   2.329   4.829   2.029
 8563SOL    HW126588   2.412   4.780   2.052
 8563SOL    HW226589   2.255   4.764   2.010
 8564SOL     OW26590   4.492   0.355   6.853
 8564SOL    HW126591   4.509   0.371   6.756
 8564SOL    HW226592   4.551   0.413   6.908
 8565SOL     OW26593   2.380   4.959   1.007
 8565SOL    HW126594   2.313   4.963   0.934
 8565SOL    HW226595   2.391   4.864   1.038
 8566SOL     OW26596   3.290   1.086   2.508
 8566SOL    HW126597   3.296   1.146   2.428
 8566SOL    HW226598   3.324   1.135   2.589
 8567SOL     OW26599   2.219   2.670   1.455
 8567SOL    HW126600   2.194   2.630   1.544
 8567SOL    HW226601   2.251   2.598   1.394
 8568SOL     OW26602   6.504   0.454   6.397
 8568SOL    HW126603   6.546   0.534   6.352
 8568SOL    HW226604   6.421   0.429   6.349
 8569SOL     OW26605   4.503   2.404   6.240
 8569SOL    HW126606   4.557   2.388   6.157
 8569SOL    HW226607   4.467   2.497   6.239
 8570SOL     OW26608   1.615   2.563   3.395
 8570SOL    HW126609   1.678   2.489   3.372
 8570SOL    HW226610   1.628   2.640   3.332
 8571SOL     OW26611   1.632   0.555   3.156
 8571SOL    HW126612   1.673   0.628   3.211
 8571SOL    HW226613   1.636   0.581   3.059
 8572SOL     OW26614   2.893   4.133   5.575
 8572SOL    HW126615   2.889   4.038   5.546
 8572SOL    HW226616   2.941   4.188   5.506
 8573SOL     OW26617   3.674   6.118   0.547
 8573SOL    HW126618   3.596   6.063   0.577
 8573SOL    HW226619   3.759   6.073   0.574
 8574SOL     OW26620   5.294   0.633   4.895
 8574SOL    HW126621   5.351   0.561   4.857
 8574SOL    HW226622   5.289   0.710   4.831
 8575SOL     OW26623   3.022   6.258   3.364
 8575SOL    HW126624   3.061   6.201   3.292
 8575SOL    HW226625   2.955   6.205   3.416
 8576SOL     OW26626   1.078   5.053   3.059
 8576SOL    HW126627   1.152   5.115   3.083
 8576SOL    HW226628   1.115   4.961   3.042
 8577SOL     OW26629   1.783   1.800   0.672
 8577SOL    HW126630   1.710   1.813   0.604
 8577SOL    HW226631   1.744   1.765   0.757
 8578SOL     OW26632   6.925   6.777   5.895
 8578SOL    HW126633   6.956   6.859   5.943
 8578SOL    HW226634   6.980   6.764   5.812
 8579SOL     OW26635   3.175   6.171   2.922
 8579SOL    HW126636   3.135   6.240   2.860
 8579SOL    HW226637   3.147   6.080   2.892
 8580SOL     OW26638   2.624   0.833   1.359
 8580SOL    HW126639   2.702   0.800   1.412
 8580SOL    HW226640   2.549   0.767   1.366
 8581SOL     OW26641   3.096   5.119   1.568
 8581SOL    HW126642   3.094   5.174   1.484
 8581SOL    HW226643   3.144   5.169   1.640
 8582SOL     OW26644   3.947   4.418   5.938
 8582SOL    HW126645   3.988   4.444   6.025
 8582SOL    HW226646   3.897   4.332   5.949
 8583SOL     OW26647   4.623   0.535   2.801
 8583SOL    HW126648   4.588   0.569   2.714
 8583SOL    HW226649   4.602   0.601   2.874
 8584SOL     OW26650   6.799   1.595   4.659
 8584SOL    HW126651   6.848   1.655   4.596
 8584SOL    HW226652   6.705   1.625   4.667
 8585SOL     OW26653   5.394   2.151   2.598
 8585SOL    HW126654   5.363   2.233   2.549
 8585SOL    HW226655   5.436   2.088   2.532
 8586SOL     OW26656   6.075   5.788   0.940
 8586SOL    HW126657   6.103   5.763   0.848
 8586SOL    HW226658   6.009   5.863   0.935
 8587SOL     OW26659   1.190   1.636   7.021
 8587SOL    HW126660   1.142   1.704   0.054
 8587SOL    HW226661   1.191   1.666   6.926
 8588SOL     OW26662   2.404   1.628   6.980
 8588SOL    HW126663   2.330   1.599   0.017
 8588SOL    HW226664   2.402   1.573   6.896
 8589SOL     OW26665   6.686   2.802   6.569
 8589SOL    HW126666   6.676   2.820   6.471
 8589SOL    HW226667   6.747   2.871   6.608
 8590SOL     OW26668   1.451   1.006   3.442
 8590SOL    HW126669   1.420   1.052   3.359
 8590SOL    HW226670   1.532   1.053   3.478
 8591SOL     OW26671   6.312   4.227   6.750
 8591SOL    HW126672   6.222   4.265   6.729
 8591SOL    HW226673   6.314   4.201   6.847
 8592SOL     OW26674   1.231   1.586   6.143
 8592SOL    HW126675   1.309   1.648   6.138
 8592SOL    HW226676   1.208   1.568   6.238
 8593SOL     OW26677   3.841   1.267   0.331
 8593SOL    HW126678   3.819   1.183   0.381
 8593SOL    HW226679   3.886   1.331   0.392
 8594SOL     OW26680   6.169   2.822   5.553
 8594SOL    HW126681   6.214   2.734   5.536
 8594SOL    HW226682   6.201   2.889   5.486
 8595SOL     OW26683   6.595   6.513   2.152
 8595SOL    HW126684   6.595   6.466   2.064
 8595SOL    HW226685   6.525   6.472   2.211
 8596SOL     OW26686   1.289   1.117   4.059
 8596SOL    HW126687   1.205   1.083   4.018
 8596SOL    HW226688   1.304   1.073   4.148
 8597SOL     OW26689   5.544   3.278   0.076
 8597SOL    HW126690   5.595   3.194   0.095
 8597SOL    HW226691   5.599   3.338   0.017
 8598SOL     OW26692   6.266   6.652   4.444
 8598SOL    HW126693   6.357   6.649   4.403
 8598SOL    HW226694   6.232   6.746   4.443
 8599SOL     OW26695   0.600   3.162   3.923
 8599SOL    HW126696   0.558   3.135   4.010
 8599SOL    HW226697   0.695   3.133   3.921
 8600SOL     OW26698   4.069   2.141   1.346
 8600SOL    HW126699   4.125   2.062   1.321
 8600SOL    HW226700   4.085   2.163   1.442
 8601SOL     OW26701   1.109   6.588   2.998
 8601SOL    HW126702   1.014   6.618   2.990
 8601SOL    HW226703   1.142   6.559   2.908
 8602SOL     OW26704   2.151   6.704   5.177
 8602SOL    HW126705   2.163   6.628   5.241
 8602SOL    HW226706   2.236   6.719   5.127
 8603SOL     OW26707   6.909   0.423   0.744
 8603SOL    HW126708   6.989   0.446   0.799
 8603SOL    HW226709   6.917   0.329   0.712
 8604SOL     OW26710   0.254   4.143   6.354
 8604SOL    HW126711   0.317   4.194   6.296
 8604SOL    HW226712   0.176   4.201   6.378
 8605SOL     OW26713   6.846   5.457   4.473
 8605SOL    HW126714   6.831   5.358   4.468
 8605SOL    HW226715   6.940   5.478   4.447
 8606SOL     OW26716   1.665   2.473   0.293
 8606SOL    HW126717   1.591   2.407   0.293
 8606SOL    HW226718   1.692   2.493   0.198
 8607SOL     OW26719   2.378   4.208   1.419
 8607SOL    HW126720   2.470   4.244   1.428
 8607SOL    HW226721   2.312   4.276   1.451
 8608SOL     OW26722   2.152   5.181   2.839
 8608SOL    HW126723   2.218   5.107   2.852
 8608SOL    HW226724   2.168   5.253   2.907
 8609SOL     OW26725   4.869   1.538   3.765
 8609SOL    HW126726   4.918   1.509   3.682
 8609SOL    HW226727   4.913   1.498   3.845
 8610SOL     OW26728   0.553   6.235   2.810
 8610SOL    HW126729   0.469   6.247   2.863
 8610SOL    HW226730   0.536   6.170   2.736
 8611SOL     OW26731   3.092   1.390   4.801
 8611SOL    HW126732   3.044   1.417   4.717
 8611SOL    HW226733   3.041   1.316   4.845
 8612SOL     OW26734   3.655   4.069   3.955
 8612SOL    HW126735   3.753   4.057   3.942
 8612SOL    HW226736   3.610   4.076   3.866
 8613SOL     OW26737   3.544   2.739   1.480
 8613SOL    HW126738   3.596   2.728   1.564
 8613SOL    HW226739   3.450   2.709   1.494
 8614SOL     OW26740   1.392   2.339   3.044
 8614SOL    HW126741   1.384   2.239   3.048
 8614SOL    HW226742   1.475   2.364   2.994
 8615SOL     OW26743   4.294   1.329   4.107
 8615SOL    HW126744   4.310   1.246   4.054
 8615SOL    HW226745   4.380   1.360   4.148
 8616SOL     OW26746   4.613   4.414   2.886
 8616SOL    HW126747   4.617   4.316   2.908
 8616SOL    HW226748   4.668   4.431   2.804
 8617SOL     OW26749   3.683   0.315   3.818
 8617SOL    HW126750   3.707   0.218   3.815
 8617SOL    HW226751   3.675   0.345   3.912
 8618SOL     OW26752   5.568   4.846   0.528
 8618SOL    HW126753   5.627   4.774   0.564
 8618SOL    HW226754   5.475   4.811   0.518
 8619SOL     OW26755   4.953   4.572   0.743
 8619SOL    HW126756   4.951   4.611   0.651
 8619SOL    HW226757   5.047   4.565   0.774
 8620SOL     OW26758   2.095   6.991   4.618
 8620SOL    HW126759   2.036   0.028   4.565
 8620SOL    HW226760   2.184   0.010   4.631
 8621SOL     OW26761   5.258   2.567   1.681
 8621SOL    HW126762   5.270   2.642   1.746
 8621SOL    HW226763   5.346   2.525   1.661
 8622SOL     OW26764   6.621   4.796   2.674
 8622SOL    HW126765   6.689   4.834   2.737
 8622SOL    HW226766   6.529   4.822   2.704
 8623SOL     OW26767   0.720   3.356   4.202
 8623SOL    HW126768   0.748   3.321   4.113
 8623SOL    HW226769   0.785   3.426   4.232
 8624SOL     OW26770   2.826   4.092   5.252
 8624SOL    HW126771   2.865   4.003   5.278
 8624SOL    HW226772   2.738   4.105   5.299
 8625SOL     OW26773   3.939   2.311   5.561
 8625SOL    HW126774   3.855   2.352   5.597
 8625SOL    HW226775   3.932   2.212   5.567
 8626SOL     OW26776   3.895   4.234   0.535
 8626SOL    HW126777   3.894   4.146   0.486
 8626SOL    HW226778   3.910   4.217   0.632
 8627SOL     OW26779   1.872   0.539   2.398
 8627SOL    HW126780   1.793   0.477   2.396
 8627SOL    HW226781   1.933   0.518   2.322
 8628SOL     OW26782   0.877   6.444   0.855
 8628SOL    HW126783   0.913   6.482   0.769
 8628SOL    HW226784   0.795   6.391   0.836
 8629SOL     OW26785   6.592   6.779   4.950
 8629SOL    HW126786   6.673   6.804   5.005
 8629SOL    HW226787   6.622   6.731   4.868
 8630SOL     OW26788   5.092   2.977   2.512
 8630SOL    HW126789   5.111   2.909   2.582
 8630SOL    HW226790   4.998   2.966   2.480
 8631SOL     OW26791   2.920   6.888   0.247
 8631SOL    HW126792   2.866   6.924   0.171
 8631SOL    HW226793   2.907   6.789   0.254
 8632SOL     OW26794   5.359   4.838   5.776
 8632SOL    HW126795   5.281   4.885   5.817
 8632SOL    HW226796   5.427   4.906   5.747
 8633SOL     OW26797   5.462   4.178   6.503
 8633SOL    HW126798   5.423   4.121   6.574
 8633SOL    HW226799   5.516   4.122   6.441
 8634SOL     OW26800   4.776   3.534   0.200
 8634SOL    HW126801   4.798   3.580   0.287
 8634SOL    HW226802   4.724   3.597   0.142
 8635SOL     OW26803   5.625   2.175   6.340
 8635SOL    HW126804   5.537   2.169   6.387
 8635SOL    HW226805   5.639   2.268   6.308
 8636SOL     OW26806   5.352   6.247   1.336
 8636SOL    HW126807   5.358   6.333   1.387
 8636SOL    HW226808   5.297   6.261   1.254
 8637SOL     OW26809   1.270   1.953   0.325
 8637SOL    HW126810   1.171   1.966   0.326
 8637SOL    HW226811   1.292   1.858   0.350
 8638SOL     OW26812   4.831   2.564   4.704
 8638SOL    HW126813   4.858   2.480   4.751
 8638SOL    HW226814   4.909   2.626   4.700
 8639SOL     OW26815   3.476   4.238   6.647
 8639SOL    HW126816   3.470   4.234   6.747
 8639SOL    HW226817   3.529   4.160   6.614
 8640SOL     OW26818   2.844   3.887   1.245
 8640SOL    HW126819   2.878   3.803   1.203
 8640SOL    HW226820   2.878   3.893   1.339
 8641SOL     OW26821   4.418   6.389   2.351
 8641SOL    HW126822   4.446   6.295   2.373
 8641SOL    HW226823   4.426   6.445   2.434
 8642SOL     OW26824   1.026   5.753   3.818
 8642SOL    HW126825   1.123   5.758   3.840
 8642SOL    HW226826   1.014   5.747   3.718
 8643SOL     OW26827   4.007   6.051   1.008
 8643SOL    HW126828   4.064   6.108   1.068
 8643SOL    HW226829   3.940   6.002   1.063
 8644SOL     OW26830   6.520   1.563   6.867
 8644SOL    HW126831   6.514   1.514   6.954
 8644SOL    HW226832   6.586   1.638   6.875
 8645SOL     OW26833   5.955   3.789   2.333
 8645SOL    HW126834   5.979   3.717   2.397
 8645SOL    HW226835   6.000   3.773   2.245
 8646SOL     OW26836   0.464   2.143   5.088
 8646SOL    HW126837   0.435   2.220   5.146
 8646SOL    HW226838   0.543   2.098   5.129
 8647SOL     OW26839   2.587   5.171   1.968
 8647SOL    HW126840   2.646   5.212   1.898
 8647SOL    HW226841   2.512   5.121   1.924
 8648SOL     OW26842   5.204   5.363   0.462
 8648SOL    HW126843   5.210   5.422   0.382
 8648SOL    HW226844   5.129   5.393   0.521
 8649SOL     OW26845   4.078   0.352   1.411
 8649SOL    HW126846   4.097   0.265   1.457
 8649SOL    HW226847   4.151   0.417   1.432
 8650SOL     OW26848   2.039   6.850   4.835
 8650SOL    HW126849   2.046   6.903   4.750
 8650SOL    HW226850   1.989   6.904   4.903
 8651SOL     OW26851   3.571   1.794   0.758
 8651SOL    HW126852   3.588   1.888   0.786
 8651SOL    HW226853   3.571   1.735   0.840
 8652SOL     OW26854   1.052   3.579   3.488
 8652SOL    HW126855   0.978   3.518   3.458
 8652SOL    HW226856   1.120   3.587   3.416
 8653SOL     OW26857   6.971   1.485   6.102
 8653SOL    HW126858   0.003   1.497   6.020
 8653SOL    HW226859   6.900   1.556   6.104
 8654SOL     OW26860   0.314   4.571   1.527
 8654SOL    HW126861   0.401   4.524   1.511
 8654SOL    HW226862   0.313   4.607   1.620
 8655SOL     OW26863   0.710   0.182   5.068
 8655SOL    HW126864   0.801   0.142   5.068
 8655SOL    HW226865   0.717   0.282   5.063
 8656SOL     OW26866   4.726   0.058   0.900
 8656SOL    HW126867   4.686   0.131   0.844
 8656SOL    HW226868   4.684   6.994   0.875
 8657SOL     OW26869   4.939   1.520   3.154
 8657SOL    HW126870   4.871   1.457   3.117
 8657SOL    HW226871   5.030   1.478   3.147
 8658SOL     OW26872   6.862   4.672   0.465
 8658SOL    HW126873   6.842   4.688   0.562
 8658SOL    HW226874   6.944   4.615   0.457
 8659SOL     OW26875   4.375   0.928   2.502
 8659SOL    HW126876   4.402   1.025   2.506
 8659SOL    HW226877   4.293   0.914   2.557
 8660SOL     OW26878   6.315   3.783   1.894
 8660SOL    HW126879   6.227   3.819   1.863
 8660SOL    HW226880   6.306   3.686   1.914
 8661SOL     OW26881   6.426   3.597   2.706
 8661SOL    HW126882   6.485   3.522   2.737
 8661SOL    HW226883   6.337   3.590   2.750
 8662SOL     OW26884   2.535   4.526   3.159
 8662SOL    HW126885   2.451   4.475   3.177
 8662SOL    HW226886   2.594   4.523   3.240
 8663SOL     OW26887   4.016   5.481   2.822
 8663SOL    HW126888   4.059   5.479   2.912
 8663SOL    HW226889   4.015   5.575   2.788
 8664SOL     OW26890   3.231   5.874   4.044
 8664SOL    HW126891   3.264   5.907   4.132
 8664SOL    HW226892   3.301   5.890   3.974
 8665SOL     OW26893   5.192   3.279   6.576
 8665SOL    HW126894   5.254   3.273   6.654
 8665SOL    HW226895   5.187   3.189   6.531
 8666SOL     OW26896   4.920   6.222   2.819
 8666SOL    HW126897   4.833   6.234   2.868
 8666SOL    HW226898   4.996   6.234   2.883
 8667SOL     OW26899   5.049   2.241   3.778
 8667SOL    HW126900   5.112   2.197   3.716
 8667SOL    HW226901   4.961   2.193   3.777
 8668SOL     OW26902   4.897   2.790   5.242
 8668SOL    HW126903   4.934   2.704   5.277
 8668SOL    HW226904   4.808   2.773   5.199
 8669SOL     OW26905   5.898   6.360   5.843
 8669SOL    HW126906   5.886   6.383   5.746
 8669SOL    HW226907   5.970   6.291   5.852
 8670SOL     OW26908   6.102   4.143   5.760
 8670SOL    HW126909   6.023   4.187   5.803
 8670SOL    HW226910   6.170   4.213   5.738
 8671SOL     OW26911   6.937   1.698   2.755
 8671SOL    HW126912   6.978   1.695   2.847
 8671SOL    HW226913   6.995   1.751   2.694
 8672SOL     OW26914   0.751   0.900   3.461
 8672SOL    HW126915   0.808   0.979   3.481
 8672SOL    HW226916   0.721   0.858   3.547
 8673SOL     OW26917   0.781   1.076   1.027
 8673SOL    HW126918   0.732   1.041   0.947
 8673SOL    HW226919   0.739   1.040   1.110
 8674SOL     OW26920   6.716   4.648   3.517
 8674SOL    HW126921   6.660   4.715   3.467
 8674SOL    HW226922   6.682   4.640   3.611
 8675SOL     OW26923   3.531   1.936   5.592
 8675SOL    HW126924   3.588   1.952   5.673
 8675SOL    HW226925   3.481   1.850   5.603
 8676SOL     OW26926   5.579   1.393   0.593
 8676SOL    HW126927   5.543   1.396   0.499
 8676SOL    HW226928   5.614   1.483   0.618
 8677SOL     OW26929   1.714   6.560   5.941
 8677SOL    HW126930   1.774   6.602   6.009
 8677SOL    HW226931   1.619   6.562   5.973
 8678SOL     OW26932   1.864   1.150   1.080
 8678SOL    HW126933   1.948   1.202   1.063
 8678SOL    HW226934   1.810   1.196   1.150
 8679SOL     OW26935   1.885   1.459   4.515
 8679SOL    HW126936   1.854   1.412   4.598
 8679SOL    HW226937   1.829   1.431   4.437
 8680SOL     OW26938   6.509   1.404   6.644
 8680SOL    HW126939   6.420   1.415   6.600
 8680SOL    HW226940   6.523   1.476   6.712
 8681SOL     OW26941   5.812   5.960   2.093
 8681SOL    HW126942   5.742   5.899   2.131
 8681SOL    HW226943   5.783   5.992   2.003
 8682SOL     OW26944   1.165   0.939   1.204
 8682SOL    HW126945   1.189   1.018   1.147
 8682SOL    HW226946   1.085   0.894   1.165
 8683SOL     OW26947   1.737   4.374   4.578
 8683SOL    HW126948   1.768   4.392   4.671
 8683SOL    HW226949   1.742   4.458   4.524
 8684SOL     OW26950   0.856   3.914   5.188
 8684SOL    HW126951   0.911   3.894   5.269
 8684SOL    HW226952   0.759   3.907   5.211
 8685SOL     OW26953   4.942   2.521   5.256
 8685SOL    HW126954   5.010   2.457   5.294
 8685SOL    HW226955   4.856   2.472   5.239
 8686SOL     OW26956   0.170   5.404   2.764
 8686SOL    HW126957   0.125   5.460   2.834
 8686SOL    HW226958   0.129   5.313   2.763
 8687SOL     OW26959   5.746   3.135   4.734
 8687SOL    HW126960   5.765   3.057   4.793
 8687SOL    HW226961   5.686   3.199   4.781
 8688SOL     OW26962   0.731   4.135   6.315
 8688SOL    HW126963   0.659   4.160   6.380
 8688SOL    HW226964   0.693   4.072   6.247
 8689SOL     OW26965   4.410   3.814   6.778
 8689SOL    HW126966   4.471   3.892   6.765
 8689SOL    HW226967   4.439   3.739   6.719
 8690SOL     OW26968   1.873   2.423   3.334
 8690SOL    HW126969   1.912   2.354   3.394
 8690SOL    HW226970   1.830   2.379   3.256
 8691SOL     OW26971   3.051   2.559   5.402
 8691SOL    HW126972   3.108   2.496   5.350
 8691SOL    HW226973   3.079   2.557   5.498
 8692SOL     OW26974   4.285   1.795   5.544
 8692SOL    HW126975   4.309   1.750   5.457
 8692SOL    HW226976   4.341   1.877   5.555
 8693SOL     OW26977   6.766   0.049   6.469
 8693SOL    HW126978   6.726   0.045   6.561
 8693SOL    HW226979   6.698   0.084   6.404
 8694SOL     OW26980   6.124   3.375   4.341
 8694SOL    HW126981   6.087   3.465   4.362
 8694SOL    HW226982   6.223   3.381   4.330
 8695SOL     OW26983   3.786   4.193   5.972
 8695SOL    HW126984   3.759   4.106   5.930
 8695SOL    HW226985   3.784   4.183   6.071
 8696SOL     OW26986   3.681   5.747   6.311
 8696SOL    HW126987   3.600   5.801   6.332
 8696SOL    HW226988   3.667   5.652   6.340
 8697SOL     OW26989   1.364   3.368   5.804
 8697SOL    HW126990   1.355   3.339   5.899
 8697SOL    HW226991   1.296   3.439   5.784
 8698SOL     OW26992   5.756   5.895   5.358
 8698SOL    HW126993   5.841   5.878   5.408
 8698SOL    HW226994   5.776   5.901   5.260
 8699SOL     OW26995   1.884   3.083   6.731
 8699SOL    HW126996   1.923   3.174   6.744
 8699SOL    HW226997   1.907   3.024   6.808
 8700SOL     OW26998   1.026   6.870   5.152
 8700SOL    HW126999   1.068   6.780   5.161
 8700SOL    HW227000   1.007   6.907   5.243
 8701SOL     OW27001   1.005   2.702   0.166
 8701SOL    HW127002   0.996   2.684   0.068
 8701SOL    HW227003   0.975   2.621   0.217
 8702SOL     OW27004   5.569   4.434   1.768
 8702SOL    HW127005   5.472   4.443   1.791
 8702SOL    HW227006   5.598   4.340   1.785
 8703SOL     OW27007   2.965   5.275   1.382
 8703SOL    HW127008   2.944   5.250   1.287
 8703SOL    HW227009   2.913   5.356   1.407
 8704SOL     OW27010   0.403   0.976   4.155
 8704SOL    HW127011   0.414   0.877   4.162
 8704SOL    HW227012   0.355   0.998   4.070
 8705SOL     OW27013   4.300   2.733   0.189
 8705SOL    HW127014   4.380   2.715   0.132
 8705SOL    HW227015   4.222   2.755   0.130
 8706SOL     OW27016   4.464   3.348   6.704
 8706SOL    HW127017   4.364   3.343   6.704
 8706SOL    HW227018   4.497   3.359   6.797
 8707SOL     OW27019   1.973   1.908   4.791
 8707SOL    HW127020   2.069   1.922   4.768
 8707SOL    HW227021   1.936   1.834   4.735
 8708SOL     OW27022   6.120   2.324   1.726
 8708SOL    HW127023   6.056   2.333   1.802
 8708SOL    HW227024   6.118   2.230   1.691
 8709SOL     OW27025   6.780   0.265   5.370
 8709SOL    HW127026   6.879   0.263   5.384
 8709SOL    HW227027   6.750   0.179   5.331
 8710SOL     OW27028   2.542   1.261   3.058
 8710SOL    HW127029   2.538   1.256   3.158
 8710SOL    HW227030   2.522   1.354   3.028
 8711SOL     OW27031   1.653   0.618   1.727
 8711SOL    HW127032   1.707   0.578   1.653
 8711SOL    HW227033   1.698   0.702   1.758
 8712SOL     OW27034   1.757   2.977   5.642
 8712SOL    HW127035   1.758   2.909   5.569
 8712SOL    HW227036   1.801   3.061   5.610
 8713SOL     OW27037   0.245   5.308   1.600
 8713SOL    HW127038   0.231   5.329   1.697
 8713SOL    HW227039   0.266   5.392   1.550
 8714SOL     OW27040   0.208   5.973   7.022
 8714SOL    HW127041   0.180   6.060   6.980
 8714SOL    HW227042   0.302   5.981   0.031
 8715SOL     OW27043   2.302   3.405   1.381
 8715SOL    HW127044   2.336   3.446   1.297
 8715SOL    HW227045   2.293   3.306   1.369
 8716SOL     OW27046   6.615   6.776   1.822
 8716SOL    HW127047   6.526   6.801   1.784
 8716SOL    HW227048   6.644   6.689   1.782
 8717SOL     OW27049   2.597   4.615   0.817
 8717SOL    HW127050   2.635   4.567   0.896
 8717SOL    HW227051   2.586   4.712   0.840
 8718SOL     OW27052   2.565   4.633   6.484
 8718SOL    HW127053   2.665   4.621   6.478
 8718SOL    HW227054   2.536   4.624   6.579
 8719SOL     OW27055   3.906   0.123   5.690
 8719SOL    HW127056   3.852   0.180   5.629
 8719SOL    HW227057   3.931   0.038   5.644
 8720SOL     OW27058   6.787   4.911   5.133
 8720SOL    HW127059   6.694   4.934   5.107
 8720SOL    HW227060   6.809   4.818   5.103
 8721SOL     OW27061   0.720   6.939   6.436
 8721SOL    HW127062   0.701   6.876   6.511
 8721SOL    HW227063   0.686   0.007   6.459
 8722SOL     OW27064   3.833   1.254   1.530
 8722SOL    HW127065   3.767   1.201   1.583
 8722SOL    HW227066   3.785   1.328   1.482
 8723SOL     OW27067   4.739   0.033   2.343
 8723SOL    HW127068   4.644   0.036   2.375
 8723SOL    HW227069   4.800   0.061   2.417
 8724SOL     OW27070   4.135   1.148   5.059
 8724SOL    HW127071   4.111   1.189   4.971
 8724SOL    HW227072   4.191   1.066   5.043
 8725SOL     OW27073   0.169   6.386   3.651
 8725SOL    HW127074   0.260   6.395   3.691
 8725SOL    HW227075   0.103   6.364   3.722
 8726SOL     OW27076   0.670   0.919   0.824
 8726SOL    HW127077   0.689   0.939   0.728
 8726SOL    HW227078   0.573   0.900   0.836
 8727SOL     OW27079   4.425   5.278   6.010
 8727SOL    HW127080   4.382   5.204   5.958
 8727SOL    HW227081   4.435   5.249   6.106
 8728SOL     OW27082   6.830   0.477   3.595
 8728SOL    HW127083   6.930   0.478   3.589
 8728SOL    HW227084   6.791   0.491   3.504
 8729SOL     OW27085   3.952   6.291   6.672
 8729SOL    HW127086   3.926   6.264   6.765
 8729SOL    HW227087   4.051   6.294   6.664
 8730SOL     OW27088   4.789   5.068   2.140
 8730SOL    HW127089   4.789   4.992   2.075
 8730SOL    HW227090   4.855   5.050   2.213
 8731SOL     OW27091   0.735   1.431   3.305
 8731SOL    HW127092   0.761   1.472   3.392
 8731SOL    HW227093   0.696   1.500   3.245
 8732SOL     OW27094   5.523   6.529   0.689
 8732SOL    HW127095   5.467   6.490   0.762
 8732SOL    HW227096   5.572   6.455   0.642
 8733SOL     OW27097   6.246   5.278   1.618
 8733SOL    HW127098   6.309   5.243   1.549
 8733SOL    HW227099   6.263   5.376   1.632
 8734SOL     OW27100   0.310   3.628   2.179
 8734SOL    HW127101   0.335   3.567   2.255
 8734SOL    HW227102   0.218   3.665   2.195
 8735SOL     OW27103   1.373   3.603   5.506
 8735SOL    HW127104   1.459   3.608   5.556
 8735SOL    HW227105   1.391   3.604   5.408
 8736SOL     OW27106   1.160   6.068   3.233
 8736SOL    HW127107   1.205   6.134   3.173
 8736SOL    HW227108   1.194   5.976   3.214
 8737SOL     OW27109   1.711   6.488   6.945
 8737SOL    HW127110   1.688   6.567   6.887
 8737SOL    HW227111   1.806   6.497   6.976
 8738SOL     OW27112   1.169   3.094   3.444
 8738SOL    HW127113   1.095   3.049   3.495
 8738SOL    HW227114   1.246   3.031   3.434
 8739SOL     OW27115   5.111   4.376   5.350
 8739SOL    HW127116   5.022   4.387   5.304
 8739SOL    HW227117   5.101   4.401   5.446
 8740SOL     OW27118   3.126   0.913   4.968
 8740SOL    HW127119   3.117   1.006   4.932
 8740SOL    HW227120   3.159   0.917   5.062
 8741SOL     OW27121   0.907   0.192   2.570
 8741SOL    HW127122   1.000   0.190   2.605
 8741SOL    HW227123   0.843   0.200   2.646
 8742SOL     OW27124   2.694   1.636   2.837
 8742SOL    HW127125   2.645   1.551   2.820
 8742SOL    HW227126   2.721   1.677   2.750
 8743SOL     OW27127   0.596   1.794   1.756
 8743SOL    HW127128   0.694   1.799   1.772
 8743SOL    HW227129   0.573   1.704   1.718
 8744SOL     OW27130   3.162   4.513   6.358
 8744SOL    HW127131   3.141   4.418   6.334
 8744SOL    HW227132   3.210   4.515   6.446
 8745SOL     OW27133   5.771   1.485   5.799
 8745SOL    HW127134   5.770   1.424   5.720
 8745SOL    HW227135   5.846   1.459   5.860
 8746SOL     OW27136   4.357   5.057   4.674
 8746SOL    HW127137   4.328   5.020   4.586
 8746SOL    HW227138   4.305   5.015   4.747
 8747SOL     OW27139   0.667   1.043   1.531
 8747SOL    HW127140   0.594   1.091   1.580
 8747SOL    HW227141   0.725   0.994   1.597
 8748SOL     OW27142   0.278   2.140   3.573
 8748SOL    HW127143   0.272   2.070   3.645
 8748SOL    HW227144   0.337   2.214   3.603
 8749SOL     OW27145   2.926   1.432   5.088
 8749SOL    HW127146   2.999   1.498   5.103
 8749SOL    HW227147   2.846   1.457   5.142
 8750SOL     OW27148   4.067   3.122   6.526
 8750SOL    HW127149   4.054   3.043   6.586
 8750SOL    HW227150   3.984   3.178   6.526
 8751SOL     OW27151   1.419   5.850   1.826
 8751SOL    HW127152   1.398   5.948   1.831
 8751SOL    HW227153   1.461   5.830   1.737
 8752SOL     OW27154   5.450   3.797   6.645
 8752SOL    HW127155   5.465   3.810   6.547
 8752SOL    HW227156   5.403   3.877   6.682
 8753SOL     OW27157   2.727   2.784   0.230
 8753SOL    HW127158   2.658   2.856   0.238
 8753SOL    HW227159   2.688   2.697   0.262
 8754SOL     OW27160   2.530   5.319   0.336
 8754SOL    HW127161   2.558   5.386   0.405
 8754SOL    HW227162   2.470   5.251   0.377
 8755SOL     OW27163   6.617   2.343   2.487
 8755SOL    HW127164   6.717   2.339   2.488
 8755SOL    HW227165   6.585   2.383   2.401
 8756SOL     OW27166   1.633   1.759   2.637
 8756SOL    HW127167   1.688   1.684   2.600
 8756SOL    HW227168   1.691   1.837   2.656
 8757SOL     OW27169   5.296   6.621   5.438
 8757SOL    HW127170   5.282   6.546   5.373
 8757SOL    HW227171   5.303   6.707   5.389
 8758SOL     OW27172   3.318   6.200   4.658
 8758SOL    HW127173   3.355   6.226   4.568
 8758SOL    HW227174   3.343   6.105   4.678
 8759SOL     OW27175   6.030   0.838   0.315
 8759SOL    HW127176   6.124   0.842   0.348
 8759SOL    HW227177   6.012   0.918   0.257
 8760SOL     OW27178   2.307   2.399   4.181
 8760SOL    HW127179   2.326   2.491   4.147
 8760SOL    HW227180   2.363   2.381   4.262
 8761SOL     OW27181   4.643   0.645   2.189
 8761SOL    HW127182   4.554   0.675   2.224
 8761SOL    HW227183   4.671   0.562   2.236
 8762SOL     OW27184   1.476   4.760   2.717
 8762SOL    HW127185   1.521   4.785   2.803
 8762SOL    HW227186   1.500   4.827   2.647
 8763SOL     OW27187   0.735   0.843   6.211
 8763SOL    HW127188   0.763   0.798   6.126
 8763SOL    HW227189   0.637   0.832   6.224
 8764SOL     OW27190   3.295   4.855   5.566
 8764SOL    HW127191   3.290   4.756   5.578
 8764SOL    HW227192   3.203   4.892   5.557
 8765SOL     OW27193   4.921   0.825   4.941
 8765SOL    HW127194   4.933   0.824   4.841
 8765SOL    HW227195   4.939   0.733   4.977
 8766SOL     OW27196   5.024   5.603   5.900
 8766SOL    HW127197   4.965   5.683   5.887
 8766SOL    HW227198   5.088   5.596   5.824
 8767SOL     OW27199   3.093   0.901   4.211
 8767SOL    HW127200   3.136   0.834   4.271
 8767SOL    HW227201   2.997   0.914   4.238
 8768SOL     OW27202   6.402   2.117   6.867
 8768SOL    HW127203   6.429   2.108   6.771
 8768SOL    HW227204   6.307   2.147   6.872
 8769SOL     OW27205   6.619   0.604   0.571
 8769SOL    HW127206   6.710   0.564   0.576
 8769SOL    HW227207   6.551   0.530   0.576
 8770SOL     OW27208   4.906   3.880   0.827
 8770SOL    HW127209   4.969   3.802   0.828
 8770SOL    HW227210   4.958   3.965   0.824
 8771SOL     OW27211   0.483   3.814   0.589
 8771SOL    HW127212   0.392   3.774   0.599
 8771SOL    HW227213   0.493   3.850   0.496
 8772SOL     OW27214   5.691   6.853   4.117
 8772SOL    HW127215   5.736   6.769   4.086
 8772SOL    HW227216   5.605   6.829   4.162
 8773SOL     OW27217   0.107   1.508   3.847
 8773SOL    HW127218   0.064   1.485   3.760
 8773SOL    HW227219   0.108   1.427   3.905
 8774SOL     OW27220   1.720   1.402   0.905
 8774SOL    HW127221   1.778   1.352   0.969
 8774SOL    HW227222   1.642   1.346   0.880
 8775SOL     OW27223   5.262   1.980   4.052
 8775SOL    HW127224   5.297   1.954   3.962
 8775SOL    HW227225   5.194   2.053   4.042
 8776SOL     OW27226   4.272   2.917   0.663
 8776SOL    HW127227   4.185   2.962   0.684
 8776SOL    HW227228   4.341   2.987   0.640
 8777SOL     OW27229   0.785   2.047   3.653
 8777SOL    HW127230   0.754   1.962   3.695
 8777SOL    HW227231   0.874   2.073   3.690
 8778SOL     OW27232   3.782   5.087   6.657
 8778SOL    HW127233   3.840   5.014   6.621
 8778SOL    HW227234   3.807   5.105   6.753
 8779SOL     OW27235   4.034   4.784   3.869
 8779SOL    HW127236   4.070   4.835   3.791
 8779SOL    HW227237   4.044   4.686   3.853
 8780SOL     OW27238   5.865   5.252   3.789
 8780SOL    HW127239   5.949   5.201   3.810
 8780SOL    HW227240   5.848   5.249   3.691
 8781SOL     OW27241   3.419   6.781   1.857
 8781SOL    HW127242   3.455   6.829   1.777
 8781SOL    HW227243   3.329   6.818   1.880
 8782SOL     OW27244   5.385   1.420   1.659
 8782SOL    HW127245   5.368   1.489   1.589
 8782SOL    HW227246   5.482   1.415   1.679
 8783SOL     OW27247   4.894   3.266   4.961
 8783SOL    HW127248   4.876   3.267   5.059
 8783SOL    HW227249   4.905   3.360   4.928
 8784SOL     OW27250   5.475   0.564   0.684
 8784SOL    HW127251   5.545   0.616   0.634
 8784SOL    HW227252   5.475   0.469   0.652
 8785SOL     OW27253   0.566   4.837   6.252
 8785SOL    HW127254   0.655   4.828   6.296
 8785SOL    HW227255   0.495   4.800   6.312
 8786SOL     OW27256   4.599   1.797   2.256
 8786SOL    HW127257   4.686   1.748   2.258
 8786SOL    HW227258   4.572   1.812   2.161
 8787SOL     OW27259   3.652   6.425   1.135
 8787SOL    HW127260   3.740   6.448   1.176
 8787SOL    HW227261   3.595   6.507   1.130
 8788SOL     OW27262   0.467   0.491   4.176
 8788SOL    HW127263   0.425   0.436   4.248
 8788SOL    HW227264   0.416   0.478   4.091
 8789SOL     OW27265   6.776   3.525   5.440
 8789SOL    HW127266   6.868   3.495   5.464
 8789SOL    HW227267   6.721   3.446   5.413
 8790SOL     OW27268   5.629   3.098   6.101
 8790SOL    HW127269   5.606   3.148   6.185
 8790SOL    HW227270   5.546   3.081   6.048
 8791SOL     OW27271   3.578   5.437   5.727
 8791SOL    HW127272   3.639   5.516   5.727
 8791SOL    HW227273   3.489   5.463   5.765
 8792SOL     OW27274   5.243   5.149   1.198
 8792SOL    HW127275   5.155   5.136   1.244
 8792SOL    HW227276   5.313   5.096   1.245
 8793SOL     OW27277   6.954   5.222   4.234
 8793SOL    HW127278   6.994   5.313   4.241
 8793SOL    HW227279   6.928   5.204   4.139
 8794SOL     OW27280   0.270   0.895   2.243
 8794SOL    HW127281   0.344   0.938   2.294
 8794SOL    HW227282   0.249   0.951   2.162
 8795SOL     OW27283   1.413   5.480   6.499
 8795SOL    HW127284   1.328   5.432   6.523
 8795SOL    HW227285   1.402   5.578   6.514
 8796SOL     OW27286   6.610   3.855   3.235
 8796SOL    HW127287   6.532   3.863   3.297
 8796SOL    HW227288   6.579   3.822   3.146
 8797SOL     OW27289   4.689   6.934   4.116
 8797SOL    HW127290   4.739   6.856   4.152
 8797SOL    HW227291   4.751   6.991   4.062
 8798SOL     OW27292   3.418   6.112   5.678
 8798SOL    HW127293   3.457   6.042   5.618
 8798SOL    HW227294   3.490   6.148   5.738
 8799SOL     OW27295   1.428   5.443   2.112
 8799SOL    HW127296   1.513   5.413   2.069
 8799SOL    HW227297   1.378   5.503   2.048
 8800SOL     OW27298   6.874   5.410   6.101
 8800SOL    HW127299   6.857   5.396   6.198
 8800SOL    HW227300   6.799   5.371   6.048
 8801SOL     OW27301   6.019   3.001   5.396
 8801SOL    HW127302   6.006   2.917   5.344
 8801SOL    HW227303   5.944   3.065   5.375
 8802SOL     OW27304   1.166   6.502   6.267
 8802SOL    HW127305   1.220   6.577   6.228
 8802SOL    HW227306   1.224   6.421   6.277
 8803SOL     OW27307   6.099   0.066   6.684
 8803SOL    HW127308   6.151   0.060   6.599
 8803SOL    HW227309   6.001   0.072   6.663
 8804SOL     OW27310   1.616   6.285   2.724
 8804SOL    HW127311   1.564   6.368   2.702
 8804SOL    HW227312   1.713   6.301   2.706
 8805SOL     OW27313   5.357   5.147   3.260
 8805SOL    HW127314   5.304   5.104   3.333
 8805SOL    HW227315   5.401   5.230   3.295
 8806SOL     OW27316   2.171   0.429   0.998
 8806SOL    HW127317   2.078   0.437   0.964
 8806SOL    HW227318   2.172   0.439   1.097
 8807SOL     OW27319   5.043   2.388   1.781
 8807SOL    HW127320   4.972   2.458   1.785
 8807SOL    HW227321   5.121   2.421   1.728
 8808SOL     OW27322   2.229   2.584   0.599
 8808SOL    HW127323   2.193   2.655   0.660
 8808SOL    HW227324   2.154   2.530   0.562
 8809SOL     OW27325   0.291   3.775   2.990
 8809SOL    HW127326   0.234   3.712   3.043
 8809SOL    HW227327   0.380   3.733   2.971
 8810SOL     OW27328   0.826   0.680   6.016
 8810SOL    HW127329   0.808   0.582   6.019
 8810SOL    HW227330   0.924   0.695   6.000
 8811SOL     OW27331   3.655   5.491   2.387
 8811SOL    HW127332   3.583   5.556   2.366
 8811SOL    HW227333   3.732   5.539   2.430
 8812SOL     OW27334   5.163   1.502   6.399
 8812SOL    HW127335   5.223   1.548   6.465
 8812SOL    HW227336   5.218   1.438   6.343
 8813SOL     OW27337   2.079   4.406   3.457
 8813SOL    HW127338   2.121   4.485   3.412
 8813SOL    HW227339   2.117   4.395   3.548
 8814SOL     OW27340   5.259   6.677   6.017
 8814SOL    HW127341   5.194   6.742   6.056
 8814SOL    HW227342   5.211   6.594   5.991
 8815SOL     OW27343   5.821   1.499   0.051
 8815SOL    HW127344   5.905   1.497   7.021
 8815SOL    HW227345   5.768   1.416   0.032
 8816SOL     OW27346   0.869   6.532   4.858
 8816SOL    HW127347   0.953   6.506   4.810
 8816SOL    HW227348   0.880   6.625   4.895
 8817SOL     OW27349   1.528   2.939   3.616
 8817SOL    HW127350   1.540   2.851   3.661
 8817SOL    HW227351   1.470   2.929   3.536
 8818SOL     OW27352   1.486   0.096   4.364
 8818SOL    HW127353   1.396   0.092   4.320
 8818SOL    HW227354   1.537   0.013   4.343
 8819SOL     OW27355   5.472   3.992   6.254
 8819SOL    HW127356   5.533   3.929   6.300
 8819SOL    HW227357   5.381   3.951   6.247
 8820SOL     OW27358   3.465   0.347   4.862
 8820SOL    HW127359   3.447   0.442   4.837
 8820SOL    HW227360   3.394   0.315   4.925
 8821SOL     OW27361   0.604   4.188   6.895
 8821SOL    HW127362   0.529   4.249   6.873
 8821SOL    HW227363   0.609   4.174   6.994
 8822SOL     OW27364   6.405   6.753   4.051
 8822SOL    HW127365   6.306   6.760   4.049
 8822SOL    HW227366   6.442   6.820   4.116
 8823SOL     OW27367   4.144   0.963   2.742
 8823SOL    HW127368   4.236   0.984   2.773
 8823SOL    HW227369   4.112   0.880   2.787
 8824SOL     OW27370   2.209   0.991   2.463
 8824SOL    HW127371   2.156   1.053   2.520
 8824SOL    HW227372   2.251   0.921   2.521
 8825SOL     OW27373   0.027   5.902   0.187
 8825SOL    HW127374   0.067   5.934   0.102
 8825SOL    HW227375   0.075   5.820   0.219
 8826SOL     OW27376   1.265   3.467   0.538
 8826SOL    HW127377   1.291   3.418   0.455
 8826SOL    HW227378   1.226   3.556   0.513
 8827SOL     OW27379   4.135   6.405   2.058
 8827SOL    HW127380   4.207   6.356   2.009
 8827SOL    HW227381   4.073   6.339   2.101
 8828SOL     OW27382   3.476   3.287   6.477
 8828SOL    HW127383   3.558   3.229   6.481
 8828SOL    HW227384   3.416   3.265   6.553
 8829SOL     OW27385   6.943   1.565   2.289
 8829SOL    HW127386   6.894   1.486   2.325
 8829SOL    HW227387   0.017   1.544   2.281
 8830SOL     OW27388   2.890   1.174   3.923
 8830SOL    HW127389   2.836   1.114   3.982
 8830SOL    HW227390   2.851   1.175   3.831
 8831SOL     OW27391   0.381   2.328   2.310
 8831SOL    HW127392   0.378   2.326   2.210
 8831SOL    HW227393   0.309   2.388   2.344
 8832SOL     OW27394   5.804   1.017   4.101
 8832SOL    HW127395   5.798   0.929   4.148
 8832SOL    HW227396   5.832   1.087   4.166
 8833SOL     OW27397   3.366   2.724   0.909
 8833SOL    HW127398   3.427   2.654   0.946
 8833SOL    HW227399   3.340   2.787   0.982
 8834SOL     OW27400   5.334   3.827   5.414
 8834SOL    HW127401   5.374   3.737   5.429
 8834SOL    HW227402   5.237   3.818   5.393
 8835SOL     OW27403   6.962   0.752   5.890
 8835SOL    HW127404   6.877   0.785   5.932
 8835SOL    HW227405   6.997   0.675   5.943
 8836SOL     OW27406   4.576   1.649   1.017
 8836SOL    HW127407   4.480   1.621   1.019
 8836SOL    HW227408   4.598   1.700   1.100
 8837SOL     OW27409   5.237   7.018   1.356
 8837SOL    HW127410   5.274   0.072   1.408
 8837SOL    HW227411   5.313   6.964   1.319
 8838SOL     OW27412   0.145   3.762   2.681
 8838SOL    HW127413   0.093   3.785   2.763
 8838SOL    HW227414   0.103   3.805   2.601
 8839SOL     OW27415   4.851   5.666   3.135
 8839SOL    HW127416   4.762   5.641   3.097
 8839SOL    HW227417   4.899   5.584   3.165
 8840SOL     OW27418   6.932   1.095   0.976
 8840SOL    HW127419   6.836   1.075   0.997
 8840SOL    HW227420   6.936   1.170   0.910
 8841SOL     OW27421   2.733   1.533   1.510
 8841SOL    HW127422   2.814   1.529   1.568
 8841SOL    HW227423   2.652   1.513   1.564
 8842SOL     OW27424   3.733   2.908   3.954
 8842SOL    HW127425   3.648   2.864   3.983
 8842SOL    HW227426   3.797   2.909   4.031
 8843SOL     OW27427   2.890   4.932   6.910
 8843SOL    HW127428   2.831   5.011   6.898
 8843SOL    HW227429   2.986   4.961   6.908
 8844SOL     OW27430   4.493   1.777   4.949
 8844SOL    HW127431   4.572   1.836   4.966
 8844SOL    HW227432   4.511   1.687   4.988
 8845SOL     OW27433   0.168   5.015   1.634
 8845SOL    HW127434   0.185   5.032   1.731
 8845SOL    HW227435   0.185   5.099   1.582
 8846SOL     OW27436   5.492   4.740   4.032
 8846SOL    HW127437   5.413   4.801   4.038
 8846SOL    HW227438   5.571   4.784   4.074
 8847SOL     OW27439   2.608   1.983   3.240
 8847SOL    HW127440   2.580   2.068   3.194
 8847SOL    HW227441   2.708   1.980   3.245
 8848SOL     OW27442   3.663   1.688   0.981
 8848SOL    HW127443   3.745   1.630   0.983
 8848SOL    HW227444   3.672   1.761   1.048
 8849SOL     OW27445   2.416   5.013   4.696
 8849SOL    HW127446   2.482   5.049   4.631
 8849SOL    HW227447   2.336   4.978   4.648
 8850SOL     OW27448   3.240   1.080   1.705
 8850SOL    HW127449   3.174   1.039   1.642
 8850SOL    HW227450   3.285   1.157   1.660
 8851SOL     OW27451   0.289   5.005   2.818
 8851SOL    HW127452   0.357   4.931   2.815
 8851SOL    HW227453   0.336   5.091   2.836
 8852SOL     OW27454   5.137   2.640   5.593
 8852SOL    HW127455   5.143   2.625   5.494
 8852SOL    HW227456   5.052   2.601   5.628
 8853SOL     OW27457   4.508   1.064   5.821
 8853SOL    HW127458   4.607   1.047   5.821
 8853SOL    HW227459   4.482   1.105   5.908
 8854SOL     OW27460   1.361   2.057   6.537
 8854SOL    HW127461   1.327   2.115   6.611
 8854SOL    HW227462   1.437   2.002   6.570
 8855SOL     OW27463   6.223   4.830   6.652
 8855SOL    HW127464   6.300   4.767   6.662
 8855SOL    HW227465   6.223   4.869   6.559
 8856SOL     OW27466   5.998   1.031   4.842
 8856SOL    HW127467   6.098   1.038   4.832
 8856SOL    HW227468   5.964   1.113   4.889
 8857SOL     OW27469   6.838   2.222   4.099
 8857SOL    HW127470   6.748   2.266   4.099
 8857SOL    HW227471   6.829   2.129   4.134
 8858SOL     OW27472   0.127   3.274   6.692
 8858SOL    HW127473   0.160   3.188   6.653
 8858SOL    HW227474   0.150   3.278   6.789
 8859SOL     OW27475   1.864   5.726   5.844
 8859SOL    HW127476   1.917   5.758   5.766
 8859SOL    HW227477   1.766   5.733   5.824
 8860SOL     OW27478   1.510   2.249   2.516
 8860SOL    HW127479   1.592   2.221   2.465
 8860SOL    HW227480   1.488   2.344   2.495
 8861SOL     OW27481   3.609   3.888   6.971
 8861SOL    HW127482   3.556   3.804   6.982
 8861SOL    HW227483   3.547   3.967   6.967
 8862SOL     OW27484   5.882   1.749   4.245
 8862SOL    HW127485   5.813   1.733   4.174
 8862SOL    HW227486   5.962   1.794   4.204
 8863SOL     OW27487   2.243   5.502   5.394
 8863SOL    HW127488   2.336   5.538   5.398
 8863SOL    HW227489   2.232   5.429   5.462
 8864SOL     OW27490   1.286   2.272   6.730
 8864SOL    HW127491   1.366   2.332   6.723
 8864SOL    HW227492   1.211   2.322   6.775
 8865SOL     OW27493   3.414   2.602   6.321
 8865SOL    HW127494   3.501   2.553   6.323
 8865SOL    HW227495   3.397   2.634   6.228
 8866SOL     OW27496   3.508   6.523   4.582
 8866SOL    HW127497   3.543   6.431   4.563
 8866SOL    HW227498   3.440   6.519   4.655
 8867SOL     OW27499   0.113   3.157   3.676
 8867SOL    HW127500   0.182   3.091   3.705
 8867SOL    HW227501   0.023   3.128   3.709
 8868SOL     OW27502   4.057   3.883   6.865
 8868SOL    HW127503   3.973   3.828   6.857
 8868SOL    HW227504   4.136   3.822   6.870
 8869SOL     OW27505   5.032   2.809   3.680
 8869SOL    HW127506   5.038   2.851   3.771
 8869SOL    HW227507   5.122   2.775   3.653
 8870SOL     OW27508   3.958   1.016   0.580
 8870SOL    HW127509   3.903   0.934   0.567
 8870SOL    HW227510   4.055   0.994   0.562
 8871SOL     OW27511   2.508   1.687   3.992
 8871SOL    HW127512   2.469   1.668   3.903
 8871SOL    HW227513   2.569   1.767   3.986
 8872SOL     OW27514   1.616   3.957   4.528
 8872SOL    HW127515   1.668   3.955   4.613
 8872SOL    HW227516   1.523   3.923   4.545
 8873SOL     OW27517   0.331   5.457   4.482
 8873SOL    HW127518   0.408   5.521   4.484
 8873SOL    HW227519   0.247   5.504   4.511
 8874SOL     OW27520   3.305   0.668   0.433
 8874SOL    HW127521   3.214   0.634   0.458
 8874SOL    HW227522   3.359   0.594   0.393
 8875SOL     OW27523   2.176   2.374   4.484
 8875SOL    HW127524   2.110   2.299   4.477
 8875SOL    HW227525   2.266   2.337   4.505
 8876SOL     OW27526   0.753   0.649   4.972
 8876SOL    HW127527   0.851   0.631   4.977
 8876SOL    HW227528   0.704   0.587   5.032
 8877SOL     OW27529   2.747   0.050   4.962
 8877SOL    HW127530   2.719   7.020   5.041
 8877SOL    HW227531   2.677   0.118   4.942
 8878SOL     OW27532   6.411   4.056   6.492
 8878SOL    HW127533   6.469   4.115   6.436
 8878SOL    HW227534   6.359   4.113   6.557
 8879SOL     OW27535   4.776   6.502   5.595
 8879SOL    HW127536   4.866   6.513   5.552
 8879SOL    HW227537   4.725   6.431   5.548
 8880SOL     OW27538   6.912   5.229   5.047
 8880SOL    HW127539   6.916   5.176   5.131
 8880SOL    HW227540   6.880   5.170   4.972
 8881SOL     OW27541   6.293   1.017   0.860
 8881SOL    HW127542   6.306   1.020   0.959
 8881SOL    HW227543   6.274   1.109   0.825
 8882SOL     OW27544   5.733   1.575   6.724
 8882SOL    HW127545   5.713   1.478   6.736
 8882SOL    HW227546   5.647   1.627   6.726
 8883SOL     OW27547   6.660   1.031   5.490
 8883SOL    HW127548   6.561   1.024   5.503
 8883SOL    HW227549   6.706   0.963   5.547
 8884SOL     OW27550   6.726   0.336   5.984
 8884SOL    HW127551   6.670   0.272   6.036
 8884SOL    HW227552   6.684   0.352   5.895
 8885SOL     OW27553   5.411   3.789   1.789
 8885SOL    HW127554   5.383   3.867   1.732
 8885SOL    HW227555   5.436   3.822   1.880
 8886SOL     OW27556   3.037   6.882   6.253
 8886SOL    HW127557   3.019   6.889   6.155
 8886SOL    HW227558   3.040   6.786   6.280
 8887SOL     OW27559   2.644   1.463   0.789
 8887SOL    HW127560   2.677   1.498   0.877
 8887SOL    HW227561   2.556   1.505   0.767
 8888SOL     OW27562   3.269   1.855   2.131
 8888SOL    HW127563   3.235   1.867   2.225
 8888SOL    HW227564   3.339   1.923   2.112
 8889SOL     OW27565   3.801   6.812   4.754
 8889SOL    HW127566   3.807   6.716   4.728
 8889SOL    HW227567   3.749   6.820   4.840
 8890SOL     OW27568   1.089   5.021   4.561
 8890SOL    HW127569   1.140   5.023   4.475
 8890SOL    HW227570   1.065   5.114   4.588
 8891SOL     OW27571   4.567   3.101   6.261
 8891SOL    HW127572   4.604   3.027   6.317
 8891SOL    HW227573   4.622   3.184   6.276
 8892SOL     OW27574   1.801   6.586   2.592
 8892SOL    HW127575   1.865   6.629   2.656
 8892SOL    HW227576   1.823   6.489   2.583
 8893SOL     OW27577   0.602   1.569   1.218
 8893SOL    HW127578   0.672   1.506   1.253
 8893SOL    HW227579   0.528   1.517   1.176
 8894SOL     OW27580   4.215   2.554   6.443
 8894SOL    HW127581   4.251   2.461   6.446
 8894SOL    HW227582   4.238   2.602   6.527
 8895SOL     OW27583   0.902   0.100   1.992
 8895SOL    HW127584   0.903   0.159   2.073
 8895SOL    HW227585   0.981   0.121   1.934
 8896SOL     OW27586   1.923   3.203   4.574
 8896SOL    HW127587   1.904   3.257   4.655
 8896SOL    HW227588   1.838   3.187   4.523
 8897SOL     OW27589   1.408   2.588   1.636
 8897SOL    HW127590   1.402   2.664   1.572
 8897SOL    HW227591   1.456   2.512   1.593
 8898SOL     OW27592   5.225   3.598   4.290
 8898SOL    HW127593   5.281   3.524   4.254
 8898SOL    HW227594   5.144   3.609   4.232
 8899SOL     OW27595   1.545   4.356   6.921
 8899SOL    HW127596   1.576   4.273   6.875
 8899SOL    HW227597   1.472   4.399   6.867
 8900SOL     OW27598   5.644   2.100   3.933
 8900SOL    HW127599   5.733   2.101   3.977
 8900SOL    HW227600   5.633   2.015   3.881
 8901SOL     OW27601   1.899   0.044   2.959
 8901SOL    HW127602   1.946   0.129   2.935
 8901SOL    HW227603   1.815   0.036   2.905
 8902SOL     OW27604   1.487   4.993   6.395
 8902SOL    HW127605   1.454   5.077   6.352
 8902SOL    HW227606   1.552   5.016   6.468
 8903SOL     OW27607   2.158   1.398   3.369
 8903SOL    HW127608   2.127   1.322   3.312
 8903SOL    HW227609   2.102   1.478   3.350
 8904SOL     OW27610   1.006   6.340   3.444
 8904SOL    HW127611   1.048   6.374   3.360
 8904SOL    HW227612   0.986   6.242   3.435
 8905SOL     OW27613   2.582   3.780   5.321
 8905SOL    HW127614   2.519   3.831   5.262
 8905SOL    HW227615   2.538   3.696   5.351
 8906SOL     OW27616   6.247   6.051   5.381
 8906SOL    HW127617   6.224   6.143   5.350
 8906SOL    HW227618   6.174   6.017   5.441
 8907SOL     OW27619   3.234   2.854   5.777
 8907SOL    HW127620   3.330   2.829   5.766
 8907SOL    HW227621   3.223   2.953   5.762
 8908SOL     OW27622   0.747   2.822   1.612
 8908SOL    HW127623   0.728   2.902   1.668
 8908SOL    HW227624   0.789   2.850   1.526
 8909SOL     OW27625   1.996   0.808   6.480
 8909SOL    HW127626   2.062   0.755   6.427
 8909SOL    HW227627   1.906   0.803   6.437
 8910SOL     OW27628   3.499   3.625   6.911
 8910SOL    HW127629   3.480   3.640   6.814
 8910SOL    HW227630   3.480   3.530   6.935
 8911SOL     OW27631   3.885   2.141   3.885
 8911SOL    HW127632   3.979   2.172   3.873
 8911SOL    HW227633   3.862   2.075   3.814
 8912SOL     OW27634   4.717   2.974   5.966
 8912SOL    HW127635   4.658   2.942   6.040
 8912SOL    HW227636   4.776   3.047   5.999
 8913SOL     OW27637   5.449   4.261   0.950
 8913SOL    HW127638   5.420   4.177   0.903
 8913SOL    HW227639   5.518   4.308   0.895
 8914SOL     OW27640   3.385   1.906   4.674
 8914SOL    HW127641   3.449   1.974   4.637
 8914SOL    HW227642   3.353   1.936   4.764
 8915SOL     OW27643   1.162   4.632   1.921
 8915SOL    HW127644   1.217   4.554   1.950
 8915SOL    HW227645   1.136   4.621   1.825
 8916SOL     OW27646   6.753   3.292   2.563
 8916SOL    HW127647   6.831   3.353   2.573
 8916SOL    HW227648   6.695   3.324   2.487
 8917SOL     OW27649   6.001   5.696   6.919
 8917SOL    HW127650   6.000   5.603   6.883
 8917SOL    HW227651   6.075   5.747   6.876
 8918SOL     OW27652   5.843   5.359   6.350
 8918SOL    HW127653   5.828   5.264   6.320
 8918SOL    HW227654   5.761   5.413   6.332
 8919SOL     OW27655   3.000   5.093   0.817
 8919SOL    HW127656   3.085   5.054   0.783
 8919SOL    HW227657   3.016   5.188   0.844
 8920SOL     OW27658   5.997   5.857   5.453
 8920SOL    HW127659   6.031   5.857   5.548
 8920SOL    HW227660   6.004   5.765   5.416
 8921SOL     OW27661   1.592   6.945   3.946
 8921SOL    HW127662   1.520   7.007   3.975
 8921SOL    HW227663   1.559   6.890   3.869
 8922SOL     OW27664   0.606   4.155   0.130
 8922SOL    HW127665   0.633   4.079   0.189
 8922SOL    HW227666   0.533   4.207   0.175
 8923SOL     OW27667   2.063   4.288   6.106
 8923SOL    HW127668   2.014   4.266   6.021
 8923SOL    HW227669   2.148   4.335   6.084
 8924SOL     OW27670   2.590   5.282   5.375
 8924SOL    HW127671   2.627   5.190   5.380
 8924SOL    HW227672   2.617   5.334   5.455
 8925SOL     OW27673   6.841   0.076   2.110
 8925SOL    HW127674   6.863   0.174   2.113
 8925SOL    HW227675   6.752   0.061   2.154
 8926SOL     OW27676   5.421   2.336   0.763
 8926SOL    HW127677   5.352   2.273   0.728
 8926SOL    HW227678   5.475   2.372   0.688
 8927SOL     OW27679   2.387   2.239   4.644
 8927SOL    HW127680   2.480   2.272   4.629
 8927SOL    HW227681   2.356   2.266   4.735
 8928SOL     OW27682   1.024   6.650   5.506
 8928SOL    HW127683   0.952   6.714   5.534
 8928SOL    HW227684   1.113   6.694   5.517
 8929SOL     OW27685   5.746   3.773   3.542
 8929SOL    HW127686   5.698   3.692   3.510
 8929SOL    HW227687   5.764   3.834   3.465
 8930SOL     OW27688   1.050   5.010   5.266
 8930SOL    HW127689   1.016   5.082   5.205
 8930SOL    HW227690   1.105   4.945   5.215
 8931SOL     OW27691   4.393   1.149   0.862
 8931SOL    HW127692   4.293   1.147   0.854
 8931SOL    HW227693   4.424   1.064   0.905
 8932SOL     OW27694   6.979   0.408   6.796
 8932SOL    HW127695   6.932   0.440   6.878
 8932SOL    HW227696   6.929   0.331   6.757
 8933SOL     OW27697   1.764   0.622   4.850
 8933SOL    HW127698   1.687   0.685   4.864
 8933SOL    HW227699   1.754   0.577   4.761
 8934SOL     OW27700   3.115   5.907   2.887
 8934SOL    HW127701   3.059   5.824   2.886
 8934SOL    HW227702   3.181   5.903   2.812
 8935SOL     OW27703   4.807   2.472   3.605
 8935SOL    HW127704   4.805   2.562   3.560
 8935SOL    HW227705   4.888   2.467   3.663
 8936SOL     OW27706   1.012   5.228   2.160
 8936SOL    HW127707   1.100   5.221   2.208
 8936SOL    HW227708   0.956   5.298   2.203
 8937SOL     OW27709   5.109   6.968   4.054
 8937SOL    HW127710   5.098   6.998   4.148
 8937SOL    HW227711   5.164   0.011   4.004
 8938SOL     OW27712   6.192   1.075   1.179
 8938SOL    HW127713   6.223   1.155   1.230
 8938SOL    HW227714   6.098   1.053   1.205
 8939SOL     OW27715   0.382   2.962   4.082
 8939SOL    HW127716   0.299   3.017   4.073
 8939SOL    HW227717   0.373   2.879   4.027
 8940SOL     OW27718   6.459   2.817   0.977
 8940SOL    HW127719   6.457   2.769   1.065
 8940SOL    HW227720   6.462   2.750   0.903
 8941SOL     OW27721   4.241   2.719   1.734
 8941SOL    HW127722   4.189   2.804   1.742
 8941SOL    HW227723   4.339   2.739   1.731
 8942SOL     OW27724   5.971   4.739   4.408
 8942SOL    HW127725   5.937   4.654   4.366
 8942SOL    HW227726   5.929   4.751   4.498
 8943SOL     OW27727   4.661   3.813   0.195
 8943SOL    HW127728   4.614   3.817   0.283
 8943SOL    HW227729   4.730   3.885   0.190
 8944SOL     OW27730   5.518   5.926   4.856
 8944SOL    HW127731   5.443   5.885   4.805
 8944SOL    HW227732   5.604   5.880   4.833
 8945SOL     OW27733   5.692   4.281   5.344
 8945SOL    HW127734   5.641   4.195   5.343
 8945SOL    HW227735   5.630   4.356   5.367
 8946SOL     OW27736   5.158   1.414   4.688
 8946SOL    HW127737   5.062   1.393   4.707
 8946SOL    HW227738   5.170   1.429   4.590
 8947SOL     OW27739   1.693   5.211   7.002
 8947SOL    HW127740   1.746   5.177   0.056
 8947SOL    HW227741   1.643   5.293   0.006
 8948SOL     OW27742   0.014   0.636   2.701
 8948SOL    HW127743   0.030   0.599   2.610
 8948SOL    HW227744   6.968   0.707   2.697
 8949SOL     OW27745   3.471   6.478   0.674
 8949SOL    HW127746   3.422   6.565   0.670
 8949SOL    HW227747   3.554   6.489   0.730
 8950SOL     OW27748   4.360   3.715   0.356
 8950SOL    HW127749   4.340   3.760   0.269
 8950SOL    HW227750   4.416   3.776   0.413
 8951SOL     OW27751   2.036   1.770   4.534
 8951SOL    HW127752   2.081   1.686   4.565
 8951SOL    HW227753   2.093   1.849   4.557
 8952SOL     OW27754   1.881   3.824   3.960
 8952SOL    HW127755   1.814   3.750   3.948
 8952SOL    HW227756   1.971   3.792   3.933
 8953SOL     OW27757   1.127   4.794   1.499
 8953SOL    HW127758   1.156   4.835   1.413
 8953SOL    HW227759   1.137   4.861   1.573
 8954SOL     OW27760   1.940   4.921   5.834
 8954SOL    HW127761   1.844   4.915   5.805
 8954SOL    HW227762   1.996   4.862   5.776
 8955SOL     OW27763   5.759   2.975   4.082
 8955SOL    HW127764   5.806   2.903   4.030
 8955SOL    HW227765   5.662   2.955   4.085
 8956SOL     OW27766   0.944   5.354   6.343
 8956SOL    HW127767   0.886   5.387   6.269
 8956SOL    HW227768   0.977   5.431   6.397
 8957SOL     OW27769   0.900   6.117   3.250
 8957SOL    HW127770   0.890   6.197   3.190
 8957SOL    HW227771   0.996   6.090   3.253
 8958SOL     OW27772   1.457   3.575   5.233
 8958SOL    HW127773   1.501   3.609   5.150
 8958SOL    HW227774   1.496   3.487   5.258
 8959SOL     OW27775   6.764   2.814   3.172
 8959SOL    HW127776   6.703   2.749   3.218
 8959SOL    HW227777   6.839   2.839   3.234
 8960SOL     OW27778   5.454   4.470   3.350
 8960SOL    HW127779   5.448   4.390   3.409
 8960SOL    HW227780   5.502   4.544   3.397
 8961SOL     OW27781   2.123   0.526   5.694
 8961SOL    HW127782   2.057   0.464   5.650
 8961SOL    HW227783   2.074   0.590   5.752
 8962SOL     OW27784   0.606   5.764   1.956
 8962SOL    HW127785   0.561   5.828   2.018
 8962SOL    HW227786   0.594   5.795   1.862
 8963SOL     OW27787   4.544   6.476   4.584
 8963SOL    HW127788   4.467   6.420   4.614
 8963SOL    HW227789   4.618   6.471   4.651
 8964SOL     OW27790   1.055   3.244   4.458
 8964SOL    HW127791   1.078   3.210   4.367
 8964SOL    HW227792   1.025   3.167   4.515
 8965SOL     OW27793   3.806   5.804   6.973
 8965SOL    HW127794   3.803   5.704   6.976
 8965SOL    HW227795   3.746   5.837   6.901
 8966SOL     OW27796   4.831   5.268   5.485
 8966SOL    HW127797   4.885   5.292   5.404
 8966SOL    HW227798   4.770   5.191   5.463
 8967SOL     OW27799   2.826   0.357   3.692
 8967SOL    HW127800   2.875   0.273   3.666
 8967SOL    HW227801   2.816   0.360   3.791
 8968SOL     OW27802   4.170   5.234   2.192
 8968SOL    HW127803   4.194   5.181   2.274
 8968SOL    HW227804   4.118   5.177   2.129
 8969SOL     OW27805   0.461   0.762   2.609
 8969SOL    HW127806   0.552   0.762   2.649
 8969SOL    HW227807   0.435   0.668   2.587
 8970SOL     OW27808   1.687   0.579   4.586
 8970SOL    HW127809   1.712   0.535   4.500
 8970SOL    HW227810   1.617   0.649   4.569
 8971SOL     OW27811   4.082   5.571   0.080
 8971SOL    HW127812   4.137   5.632   0.137
 8971SOL    HW227813   4.117   5.478   0.088
 8972SOL     OW27814   6.080   4.798   0.182
 8972SOL    HW127815   6.148   4.821   0.112
 8972SOL    HW227816   6.066   4.700   0.184
 8973SOL     OW27817   1.348   2.907   3.425
 8973SOL    HW127818   1.300   2.820   3.420
 8973SOL    HW227819   1.411   2.916   3.348
 8974SOL     OW27820   2.215   4.123   4.533
 8974SOL    HW127821   2.204   4.076   4.621
 8974SOL    HW227822   2.250   4.060   4.465
 8975SOL     OW27823   6.829   6.220   6.103
 8975SOL    HW127824   6.855   6.300   6.157
 8975SOL    HW227825   6.881   6.140   6.135
 8976SOL     OW27826   6.990   6.484   1.891
 8976SOL    HW127827   7.010   6.572   1.932
 8976SOL    HW227828   0.011   6.478   1.801
 8977SOL     OW27829   6.730   5.165   5.986
 8977SOL    HW127830   6.665   5.210   5.924
 8977SOL    HW227831   6.707   5.069   5.996
 8978SOL     OW27832   5.808   5.675   6.392
 8978SOL    HW127833   5.738   5.613   6.357
 8978SOL    HW227834   5.800   5.683   6.491
 8979SOL     OW27835   1.049   4.945   5.745
 8979SOL    HW127836   1.139   4.902   5.759
 8979SOL    HW227837   1.000   4.896   5.672
 8980SOL     OW27838   3.581   0.609   5.605
 8980SOL    HW127839   3.492   0.564   5.615
 8980SOL    HW227840   3.577   0.699   5.649
 8981SOL     OW27841   4.106   3.198   0.301
 8981SOL    HW127842   4.152   3.287   0.292
 8981SOL    HW227843   4.128   3.142   0.221
 8982SOL     OW27844   0.548   1.559   1.638
 8982SOL    HW127845   0.454   1.529   1.654
 8982SOL    HW227846   0.552   1.613   1.553
 8983SOL     OW27847   0.940   6.843   2.035
 8983SOL    HW127848   1.023   6.898   2.031
 8983SOL    HW227849   0.860   6.902   2.026
 8984SOL     OW27850   6.308   0.690   4.009
 8984SOL    HW127851   6.236   0.622   4.020
 8984SOL    HW227852   6.274   0.765   3.951
 8985SOL     OW27853   4.654   2.605   0.911
 8985SOL    HW127854   4.582   2.668   0.879
 8985SOL    HW227855   4.698   2.643   0.992
 8986SOL     OW27856   0.611   5.521   0.193
 8986SOL    HW127857   0.585   5.608   0.152
 8986SOL    HW227858   0.708   5.503   0.175
 8987SOL     OW27859   2.172   0.837   1.947
 8987SOL    HW127860   2.234   0.761   1.969
 8987SOL    HW227861   2.189   0.914   2.008
 8988SOL     OW27862   1.797   5.456   1.688
 8988SOL    HW127863   1.839   5.534   1.734
 8988SOL    HW227864   1.869   5.396   1.653
 8989SOL     OW27865   5.639   1.404   1.764
 8989SOL    HW127866   5.609   1.338   1.833
 8989SOL    HW227867   5.722   1.371   1.720
 8990SOL     OW27868   3.565   0.538   1.704
 8990SOL    HW127869   3.647   0.552   1.648
 8990SOL    HW227870   3.582   0.464   1.769
 8991SOL     OW27871   2.033   2.408   0.543
 8991SOL    HW127872   2.045   2.385   0.640
 8991SOL    HW227873   2.040   2.325   0.488
 8992SOL     OW27874   0.808   3.881   0.403
 8992SOL    HW127875   0.884   3.932   0.364
 8992SOL    HW227876   0.741   3.859   0.332
 8993SOL     OW27877   6.296   3.720   4.363
 8993SOL    HW127878   6.205   3.678   4.363
 8993SOL    HW227879   6.288   3.815   4.395
 8994SOL     OW27880   1.238   5.260   3.109
 8994SOL    HW127881   1.317   5.237   3.165
 8994SOL    HW227882   1.266   5.278   3.015
 8995SOL     OW27883   2.183   3.969   4.755
 8995SOL    HW127884   2.226   3.965   4.845
 8995SOL    HW227885   2.139   3.882   4.735
 8996SOL     OW27886   0.869   4.210   1.909
 8996SOL    HW127887   0.844   4.306   1.902
 8996SOL    HW227888   0.923   4.184   1.829
 8997SOL     OW27889   4.650   1.510   5.805
 8997SOL    HW127890   4.566   1.464   5.775
 8997SOL    HW227891   4.632   1.608   5.818
 8998SOL     OW27892   0.934   2.728   6.485
 8998SOL    HW127893   1.019   2.768   6.519
 8998SOL    HW227894   0.950   2.632   6.462
 8999SOL     OW27895   6.445   1.287   4.276
 8999SOL    HW127896   6.444   1.329   4.185
 8999SOL    HW227897   6.520   1.220   4.280
 9000SOL     OW27898   2.991   4.462   0.746
 9000SOL    HW127899   2.894   4.443   0.761
 9000SOL    HW227900   3.005   4.561   0.743
 9001SOL     OW27901   1.444   4.652   3.649
 9001SOL    HW127902   1.420   4.581   3.714
 9001SOL    HW227903   1.543   4.663   3.646
 9002SOL     OW27904   4.959   4.491   5.044
 9002SOL    HW127905   5.012   4.560   5.093
 9002SOL    HW227906   5.004   4.470   4.957
 9003SOL     OW27907   5.821   2.665   6.320
 9003SOL    HW127908   5.832   2.732   6.247
 9003SOL    HW227909   5.900   2.603   6.320
 9004SOL     OW27910   4.486   6.306   1.166
 9004SOL    HW127911   4.556   6.332   1.233
 9004SOL    HW227912   4.493   6.365   1.086
 9005SOL     OW27913   4.766   1.810   2.616
 9005SOL    HW127914   4.859   1.775   2.618
 9005SOL    HW227915   4.702   1.734   2.626
 9006SOL     OW27916   1.189   6.047   1.293
 9006SOL    HW127917   1.225   6.113   1.227
 9006SOL    HW227918   1.253   6.038   1.370
 9007SOL     OW27919   2.513   6.412   4.593
 9007SOL    HW127920   2.447   6.486   4.578
 9007SOL    HW227921   2.548   6.417   4.687
 9008SOL     OW27922   6.344   4.661   2.448
 9008SOL    HW127923   6.417   4.614   2.497
 9008SOL    HW227924   6.256   4.619   2.471
 9009SOL     OW27925   3.548   6.686   1.126
 9009SOL    HW127926   3.564   6.742   1.045
 9009SOL    HW227927   3.596   6.725   1.204
 9010SOL     OW27928   1.396   6.151   4.655
 9010SOL    HW127929   1.313   6.096   4.665
 9010SOL    HW227930   1.375   6.233   4.601
 9011SOL     OW27931   4.360   2.115   1.220
 9011SOL    HW127932   4.399   2.073   1.302
 9011SOL    HW227933   4.400   2.205   1.205
 9012SOL     OW27934   6.924   5.838   1.410
 9012SOL    HW127935   6.846   5.899   1.392
 9012SOL    HW227936   6.966   5.862   1.497
 9013SOL     OW27937   5.757   5.493   3.685
 9013SOL    HW127938   5.802   5.579   3.710
 9013SOL    HW227939   5.792   5.419   3.742
 9014SOL     OW27940   2.627   1.107   1.287
 9014SOL    HW127941   2.721   1.140   1.284
 9014SOL    HW227942   2.626   1.010   1.308
 9015SOL     OW27943   0.400   1.031   5.718
 9015SOL    HW127944   0.429   1.004   5.810
 9015SOL    HW227945   0.474   1.083   5.675
 9016SOL     OW27946   6.562   6.134   6.626
 9016SOL    HW127947   6.499   6.200   6.586
 9016SOL    HW227948   6.540   6.122   6.723
 9017SOL     OW27949   6.775   3.002   3.427
 9017SOL    HW127950   6.746   3.074   3.490
 9017SOL    HW227951   6.724   3.011   3.341
 9018SOL     OW27952   3.674   2.413   5.350
 9018SOL    HW127953   3.579   2.416   5.379
 9018SOL    HW227954   3.683   2.357   5.268
 9019SOL     OW27955   2.080   0.145   1.102
 9019SOL    HW127956   2.125   0.060   1.131
 9019SOL    HW227957   2.149   0.211   1.074
 9020SOL     OW27958   0.382   4.951   3.134
 9020SOL    HW127959   0.404   5.048   3.132
 9020SOL    HW227960   0.420   4.906   3.053
 9021SOL     OW27961   6.670   5.572   4.858
 9021SOL    HW127962   6.632   5.523   4.780
 9021SOL    HW227963   6.767   5.550   4.868
 9022SOL     OW27964   3.084   0.501   0.142
 9022SOL    HW127965   3.082   0.535   0.048
 9022SOL    HW227966   3.022   0.556   0.199
 9023SOL     OW27967   3.550   3.141   3.254
 9023SOL    HW127968   3.472   3.150   3.191
 9023SOL    HW227969   3.623   3.203   3.225
 9024SOL     OW27970   2.077   6.755   0.705
 9024SOL    HW127971   2.007   6.761   0.775
 9024SOL    HW227972   2.153   6.815   0.728
 9025SOL     OW27973   6.108   4.972   0.711
 9025SOL    HW127974   6.023   4.984   0.763
 9025SOL    HW227975   6.093   4.911   0.634
 9026SOL     OW27976   3.437   2.846   5.064
 9026SOL    HW127977   3.373   2.774   5.090
 9026SOL    HW227978   3.531   2.810   5.070
 9027SOL     OW27979   2.034   2.840   3.451
 9027SOL    HW127980   1.970   2.790   3.510
 9027SOL    HW227981   2.076   2.915   3.502
 9028SOL     OW27982   2.704   4.770   4.673
 9028SOL    HW127983   2.608   4.754   4.698
 9028SOL    HW227984   2.759   4.776   4.757
 9029SOL     OW27985   5.281   5.954   3.107
 9029SOL    HW127986   5.374   5.917   3.108
 9029SOL    HW227987   5.215   5.880   3.109
 9030SOL     OW27988   2.463   1.460   1.563
 9030SOL    HW127989   2.462   1.390   1.635
 9030SOL    HW227990   2.393   1.438   1.495
 9031SOL     OW27991   2.428   6.667   6.419
 9031SOL    HW127992   2.482   6.698   6.342
 9031SOL    HW227993   2.481   6.677   6.503
 9032SOL     OW27994   1.738   1.769   1.862
 9032SOL    HW127995   1.769   1.851   1.814
 9032SOL    HW227996   1.815   1.727   1.910
 9033SOL     OW27997   1.384   3.850   2.742
 9033SOL    HW127998   1.292   3.859   2.780
 9033SOL    HW227999   1.442   3.801   2.807
 9034SOL     OW28000   2.968   6.660   6.010
 9034SOL    HW128001   2.870   6.671   6.025
 9034SOL    HW228002   2.991   6.563   6.007
 9035SOL     OW28003   0.016   1.322   4.487
 9035SOL    HW128004   0.066   1.309   4.572
 9035SOL    HW228005   6.942   1.302   4.502
 9036SOL     OW28006   1.425   1.806   5.073
 9036SOL    HW128007   1.517   1.775   5.096
 9036SOL    HW228008   1.358   1.741   5.108
 9037SOL     OW28009   2.002   3.418   6.151
 9037SOL    HW128010   1.903   3.416   6.166
 9037SOL    HW228011   2.045   3.478   6.218
 9038SOL     OW28012   5.224   6.424   5.219
 9038SOL    HW128013   5.187   6.446   5.128
 9038SOL    HW228014   5.317   6.389   5.209
 9039SOL     OW28015   1.816   5.455   5.838
 9039SOL    HW128016   1.814   5.429   5.741
 9039SOL    HW228017   1.825   5.554   5.845
 9040SOL     OW28018   2.110   1.221   2.621
 9040SOL    HW128019   2.042   1.269   2.566
 9040SOL    HW228020   2.199   1.266   2.612
 9041SOL     OW28021   2.162   3.140   0.004
 9041SOL    HW128022   2.148   3.169   6.934
 9041SOL    HW228023   2.150   3.219   0.065
 9042SOL     OW28024   3.107   4.935   3.406
 9042SOL    HW128025   3.054   4.975   3.331
 9042SOL    HW228026   3.179   4.999   3.434
 9043SOL     OW28027   0.123   2.404   5.813
 9043SOL    HW128028   0.127   2.314   5.769
 9043SOL    HW228029   0.051   2.404   5.882
 9044SOL     OW28030   6.498   5.910   0.384
 9044SOL    HW128031   6.557   5.929   0.305
 9044SOL    HW228032   6.447   5.826   0.367
 9045SOL     OW28033   3.165   6.512   4.455
 9045SOL    HW128034   3.069   6.535   4.465
 9045SOL    HW228035   3.220   6.596   4.456
 9046SOL     OW28036   3.240   3.853   4.935
 9046SOL    HW128037   3.274   3.907   5.012
 9046SOL    HW228038   3.142   3.869   4.924
 9047SOL     OW28039   1.259   4.892   5.108
 9047SOL    HW128040   1.286   4.872   5.014
 9047SOL    HW228041   1.326   4.852   5.171
 9048SOL     OW28042   1.020   2.974   4.525
 9048SOL    HW128043   0.967   2.947   4.606
 9048SOL    HW228044   1.081   2.900   4.498
 9049SOL     OW28045   5.589   5.487   6.321
 9049SOL    HW128046   5.575   5.458   6.416
 9049SOL    HW228047   5.513   5.454   6.265
 9050SOL     OW28048   0.292   4.806   6.128
 9050SOL    HW128049   0.335   4.796   6.218
 9050SOL    HW228050   0.361   4.802   6.057
 9051SOL     OW28051   5.329   6.607   6.267
 9051SOL    HW128052   5.384   6.681   6.306
 9051SOL    HW228053   5.338   6.607   6.168
 9052SOL     OW28054   1.862   4.914   5.100
 9052SOL    HW128055   1.870   4.913   5.000
 9052SOL    HW228056   1.877   5.007   5.133
 9053SOL     OW28057   3.338   1.882   3.433
 9053SOL    HW128058   3.307   1.955   3.494
 9053SOL    HW228059   3.414   1.915   3.378
 9054SOL     OW28060   2.960   0.438   1.022
 9054SOL    HW128061   3.002   0.511   0.967
 9054SOL    HW228062   2.979   0.350   0.980
 9055SOL     OW28063   1.514   2.205   3.764
 9055SOL    HW128064   1.446   2.252   3.708
 9055SOL    HW228065   1.568   2.273   3.815
 9056SOL     OW28066   5.279   0.984   3.052
 9056SOL    HW128067   5.245   0.935   3.132
 9056SOL    HW228068   5.276   1.082   3.069
 9057SOL     OW28069   5.101   5.267   5.956
 9057SOL    HW128070   5.027   5.325   5.920
 9057SOL    HW228071   5.113   5.285   6.054
 9058SOL     OW28072   1.667   3.145   4.477
 9058SOL    HW128073   1.599   3.205   4.518
 9058SOL    HW228074   1.664   3.055   4.522
 9059SOL     OW28075   0.712   1.333   2.239
 9059SOL    HW128076   0.732   1.353   2.335
 9059SOL    HW228077   0.620   1.364   2.217
 9060SOL     OW28078   0.419   4.375   0.803
 9060SOL    HW128079   0.323   4.350   0.819
 9060SOL    HW228080   0.429   4.475   0.808
 9061SOL     OW28081   5.746   4.572   1.635
 9061SOL    HW128082   5.679   4.520   1.689
 9061SOL    HW228083   5.828   4.517   1.620
 9062SOL     OW28084   0.416   5.624   3.768
 9062SOL    HW128085   0.496   5.600   3.714
 9062SOL    HW228086   0.438   5.620   3.865
 9063SOL     OW28087   3.983   1.478   1.783
 9063SOL    HW128088   3.906   1.425   1.749
 9063SOL    HW228089   3.950   1.546   1.849
 9064SOL     OW28090   0.513   4.729   3.286
 9064SOL    HW128091   0.506   4.817   3.238
 9064SOL    HW228092   0.474   4.739   3.378
 9065SOL     OW28093   2.444   4.932   5.557
 9065SOL    HW128094   2.396   4.969   5.637
 9065SOL    HW228095   2.525   4.883   5.586
 9066SOL     OW28096   4.997   4.744   5.180
 9066SOL    HW128097   5.038   4.818   5.234
 9066SOL    HW228098   4.928   4.697   5.235
 9067SOL     OW28099   7.018   0.109   4.357
 9067SOL    HW128100   0.035   0.068   4.276
 9067SOL    HW228101   6.925   0.073   4.368
 9068SOL     OW28102   4.813   6.788   4.767
 9068SOL    HW128103   4.819   6.821   4.673
 9068SOL    HW228104   4.905   6.776   4.804
 9069SOL     OW28105   5.283   1.717   1.867
 9069SOL    HW128106   5.304   1.632   1.916
 9069SOL    HW228107   5.193   1.710   1.825
 9070SOL     OW28108   1.360   1.902   6.054
 9070SOL    HW128109   1.452   1.933   6.031
 9070SOL    HW228110   1.366   1.820   6.111
 9071SOL     OW28111   5.053   1.808   5.376
 9071SOL    HW128112   5.006   1.734   5.329
 9071SOL    HW228113   5.151   1.803   5.358
 9072SOL     OW28114   4.936   1.117   2.941
 9072SOL    HW128115   4.912   1.059   2.864
 9072SOL    HW228116   4.875   1.097   3.018
 9073SOL     OW28117   4.736   1.482   6.590
 9073SOL    HW128118   4.660   1.459   6.530
 9073SOL    HW228119   4.802   1.539   6.541
 9074SOL     OW28120   2.029   6.739   1.928
 9074SOL    HW128121   2.050   6.704   1.837
 9074SOL    HW228122   1.940   6.785   1.926
 9075SOL     OW28123   6.481   0.039   1.434
 9075SOL    HW128124   6.518   0.038   1.527
 9075SOL    HW228125   6.508   6.979   1.387
 9076SOL     OW28126   6.784   0.690   2.094
 9076SOL    HW128127   6.731   0.745   2.029
 9076SOL    HW228128   6.862   0.744   2.127
 9077SOL     OW28129   6.535   1.565   5.995
 9077SOL    HW128130   6.450   1.523   5.962
 9077SOL    HW228131   6.613   1.519   5.953
 9078SOL     OW28132   5.271   5.920   6.894
 9078SOL    HW128133   5.216   5.983   6.950
 9078SOL    HW228134   5.348   5.886   6.948
 9079SOL     OW28135   1.073   0.620   6.607
 9079SOL    HW128136   1.017   0.702   6.622
 9079SOL    HW228137   1.114   0.591   6.694
 9080SOL     OW28138   5.948   3.314   1.296
 9080SOL    HW128139   5.983   3.390   1.241
 9080SOL    HW228140   5.849   3.325   1.309
 9081SOL     OW28141   3.611   2.037   0.490
 9081SOL    HW128142   3.616   2.127   0.446
 9081SOL    HW228143   3.597   2.049   0.588
 9082SOL     OW28144   3.116   5.611   5.571
 9082SOL    HW128145   3.144   5.707   5.581
 9082SOL    HW228146   3.033   5.595   5.625
 9083SOL     OW28147   4.114   5.100   7.000
 9083SOL    HW128148   4.152   5.151   6.923
 9083SOL    HW228149   4.015   5.089   6.987
 9084SOL     OW28150   0.546   2.722   5.980
 9084SOL    HW128151   0.612   2.779   5.930
 9084SOL    HW228152   0.462   2.715   5.927
 9085SOL     OW28153   2.859   5.094   6.539
 9085SOL    HW128154   2.854   5.013   6.481
 9085SOL    HW228155   2.769   5.114   6.577
 9086SOL     OW28156   6.670   4.364   0.345
 9086SOL    HW128157   6.731   4.345   0.268
 9086SOL    HW228158   6.668   4.463   0.361
 9087SOL     OW28159   6.110   1.275   1.447
 9087SOL    HW128160   6.133   1.226   1.532
 9087SOL    HW228161   6.050   1.218   1.392
 9088SOL     OW28162   6.672   0.062   0.356
 9088SOL    HW128163   6.750   0.018   0.311
 9088SOL    HW228164   6.593   7.024   0.354
 9089SOL     OW28165   4.905   5.896   3.894
 9089SOL    HW128166   4.908   5.963   3.820
 9089SOL    HW228167   4.957   5.815   3.868
 9090SOL     OW28168   5.964   6.535   4.703
 9090SOL    HW128169   5.927   6.546   4.610
 9090SOL    HW228170   5.930   6.449   4.741
 9091SOL     OW28171   2.230   1.777   1.418
 9091SOL    HW128172   2.281   1.860   1.396
 9091SOL    HW228173   2.237   1.712   1.343
 9092SOL     OW28174   0.991   6.221   5.804
 9092SOL    HW128175   0.900   6.261   5.792
 9092SOL    HW228176   1.057   6.271   5.748
 9093SOL     OW28177   1.804   5.124   0.208
 9093SOL    HW128178   1.825   5.035   0.249
 9093SOL    HW228179   1.720   5.159   0.248
 9094SOL     OW28180   0.099   5.652   2.267
 9094SOL    HW128181   0.064   5.746   2.260
 9094SOL    HW228182   0.078   5.615   2.358
 9095SOL     OW28183   3.820   3.263   0.160
 9095SOL    HW128184   3.779   3.171   0.163
 9095SOL    HW228185   3.908   3.261   0.208
 9096SOL     OW28186   5.614   2.849   2.972
 9096SOL    HW128187   5.632   2.870   2.876
 9096SOL    HW228188   5.612   2.934   3.025
 9097SOL     OW28189   1.422   3.701   6.695
 9097SOL    HW128190   1.469   3.698   6.784
 9097SOL    HW228191   1.471   3.644   6.630
 9098SOL     OW28192   3.875   3.917   1.852
 9098SOL    HW128193   3.855   3.869   1.767
 9098SOL    HW228194   3.958   3.972   1.840
 9099SOL     OW28195   2.631   3.736   1.289
 9099SOL    HW128196   2.634   3.723   1.388
 9099SOL    HW228197   2.699   3.804   1.263
 9100SOL     OW28198   1.034   3.070   1.073
 9100SOL    HW128199   1.042   3.123   0.988
 9100SOL    HW228200   1.079   2.982   1.062
 9101SOL     OW28201   1.510   2.770   2.538
 9101SOL    HW128202   1.443   2.842   2.523
 9101SOL    HW228203   1.600   2.800   2.507
 9102SOL     OW28204   4.273   5.466   2.090
 9102SOL    HW128205   4.250   5.526   2.167
 9102SOL    HW228206   4.248   5.372   2.113
 9103SOL     OW28207   6.830   3.933   0.766
 9103SOL    HW128208   6.784   4.006   0.715
 9103SOL    HW228209   6.777   3.849   0.758
 9104SOL     OW28210   4.676   6.380   1.329
 9104SOL    HW128211   4.658   6.456   1.392
 9104SOL    HW228212   4.687   6.295   1.382
 9105SOL     OW28213   1.465   1.346   6.312
 9105SOL    HW128214   1.551   1.331   6.362
 9105SOL    HW228215   1.485   1.394   6.227
 9106SOL     OW28216   5.913   5.153   0.041
 9106SOL    HW128217   5.833   5.127   7.011
 9106SOL    HW228218   5.924   5.089   0.118
 9107SOL     OW28219   3.272   6.944   0.807
 9107SOL    HW128220   3.342   7.005   0.770
 9107SOL    HW228221   3.182   6.971   0.771
 9108SOL     OW28222   4.678   5.064   5.426
 9108SOL    HW128223   4.610   5.018   5.484
 9108SOL    HW228224   4.642   5.072   5.333
 9109SOL     OW28225   2.936   2.262   3.735
 9109SOL    HW128226   2.892   2.276   3.647
 9109SOL    HW228227   2.954   2.164   3.749
 9110SOL     OW28228   1.805   4.630   3.715
 9110SOL    HW128229   1.762   4.601   3.800
 9110SOL    HW228230   1.887   4.683   3.735
 9111SOL     OW28231   4.024   4.265   1.319
 9111SOL    HW128232   4.084   4.332   1.275
 9111SOL    HW228233   3.952   4.239   1.254
 9112SOL     OW28234   0.930   4.496   2.626
 9112SOL    HW128235   0.950   4.461   2.717
 9112SOL    HW228236   0.914   4.420   2.564
 9113SOL     OW28237   5.518   0.215   0.196
 9113SOL    HW128238   5.478   0.292   0.245
 9113SOL    HW228239   5.606   0.243   0.157
 9114SOL     OW28240   2.171   4.441   2.254
 9114SOL    HW128241   2.240   4.506   2.286
 9114SOL    HW228242   2.202   4.348   2.274
 9115SOL     OW28243   1.409   4.867   4.601
 9115SOL    HW128244   1.319   4.909   4.603
 9115SOL    HW228245   1.401   4.770   4.621
 9116SOL     OW28246   6.867   1.466   6.896
 9116SOL    HW128247   6.958   1.499   6.922
 9116SOL    HW228248   6.859   1.464   6.797
 9117SOL     OW28249   6.629   2.904   6.301
 9117SOL    HW128250   6.611   2.999   6.274
 9117SOL    HW228251   6.551   2.847   6.275
 9118SOL     OW28252   6.424   0.292   1.266
 9118SOL    HW128253   6.498   0.336   1.215
 9118SOL    HW228254   6.445   0.194   1.276
 9119SOL     OW28255   6.042   0.622   1.923
 9119SOL    HW128256   5.960   0.649   1.872
 9119SOL    HW228257   6.042   0.523   1.938
 9120SOL     OW28258   5.285   1.634   5.757
 9120SOL    HW128259   5.366   1.657   5.811
 9120SOL    HW228260   5.294   1.674   5.665
 9121SOL     OW28261   0.538   2.594   5.563
 9121SOL    HW128262   0.478   2.667   5.595
 9121SOL    HW228263   0.560   2.608   5.467
 9122SOL     OW28264   1.551   3.165   2.832
 9122SOL    HW128265   1.650   3.154   2.843
 9122SOL    HW228266   1.533   3.240   2.768
 9123SOL     OW28267   2.745   6.239   5.567
 9123SOL    HW128268   2.750   6.211   5.471
 9123SOL    HW228269   2.650   6.263   5.590
 9124SOL     OW28270   6.519   6.053   5.558
 9124SOL    HW128271   6.543   6.107   5.477
 9124SOL    HW228272   6.425   6.075   5.585
 9125SOL     OW28273   4.541   4.442   3.655
 9125SOL    HW128274   4.538   4.458   3.556
 9125SOL    HW228275   4.599   4.363   3.675
 9126SOL     OW28276   6.161   0.922   1.610
 9126SOL    HW128277   6.247   0.898   1.655
 9126SOL    HW228278   6.149   0.865   1.529
 9127SOL     OW28279   5.765   6.863   6.137
 9127SOL    HW128280   5.716   6.832   6.219
 9127SOL    HW228281   5.778   6.962   6.141
 9128SOL     OW28282   3.675   1.235   5.328
 9128SOL    HW128283   3.632   1.323   5.308
 9128SOL    HW228284   3.770   1.236   5.295
 9129SOL     OW28285   1.484   2.727   6.781
 9129SOL    HW128286   1.436   2.709   6.695
 9129SOL    HW228287   1.418   2.753   6.851
 9130SOL     OW28288   6.842   4.737   6.956
 9130SOL    HW128289   6.862   4.706   6.863
 9130SOL    HW228290   6.750   4.709   6.981
 9131SOL     OW28291   0.396   4.250   4.737
 9131SOL    HW128292   0.400   4.253   4.837
 9131SOL    HW228293   0.395   4.343   4.700
 9132SOL     OW28294   6.500   3.819   3.695
 9132SOL    HW128295   6.445   3.748   3.741
 9132SOL    HW228296   6.529   3.887   3.762
 9133SOL     OW28297   2.433   4.720   1.108
 9133SOL    HW128298   2.425   4.634   1.057
 9133SOL    HW228299   2.526   4.729   1.143
 9134SOL     OW28300   3.750   6.653   0.074
 9134SOL    HW128301   3.796   6.580   0.126
 9134SOL    HW228302   3.653   6.654   0.099
 9135SOL     OW28303   6.978   0.104   2.421
 9135SOL    HW128304   0.030   0.161   2.452
 9135SOL    HW228305   6.909   0.161   2.376
 9136SOL     OW28306   5.341   5.220   5.688
 9136SOL    HW128307   5.391   5.290   5.738
 9136SOL    HW228308   5.395   5.135   5.687
 9137SOL     OW28309   5.108   1.334   1.430
 9137SOL    HW128310   5.184   1.269   1.436
 9137SOL    HW228311   5.070   1.332   1.338
 9138SOL     OW28312   6.229   5.106   6.210
 9138SOL    HW128313   6.178   5.192   6.201
 9138SOL    HW228314   6.227   5.057   6.123
 9139SOL     OW28315   3.079   1.400   5.770
 9139SOL    HW128316   3.125   1.312   5.768
 9139SOL    HW228317   3.099   1.450   5.686
 9140SOL     OW28318   6.354   2.526   2.940
 9140SOL    HW128319   6.336   2.573   2.853
 9140SOL    HW228320   6.292   2.562   3.010
 9141SOL     OW28321   5.415   0.092   6.105
 9141SOL    HW128322   5.345   0.072   6.174
 9141SOL    HW228323   5.371   0.108   6.016
 9142SOL     OW28324   0.174   3.073   5.416
 9142SOL    HW128325   0.254   3.109   5.464
 9142SOL    HW228326   0.117   3.020   5.478
 9143SOL     OW28327   4.281   3.397   0.309
 9143SOL    HW128328   4.381   3.396   0.315
 9143SOL    HW228329   4.246   3.475   0.361
 9144SOL     OW28330   2.043   5.952   6.297
 9144SOL    HW128331   2.119   6.014   6.278
 9144SOL    HW228332   2.017   5.905   6.212
 9145SOL     OW28333   0.226   4.801   0.431
 9145SOL    HW128334   0.252   4.705   0.437
 9145SOL    HW228335   0.177   4.827   0.515
 9146SOL     OW28336   5.113   2.620   1.438
 9146SOL    HW128337   5.154   2.707   1.410
 9146SOL    HW228338   5.147   2.595   1.529
 9147SOL     OW28339   5.091   6.690   4.271
 9147SOL    HW128340   5.094   6.675   4.370
 9147SOL    HW228341   5.170   6.647   4.228
 9148SOL     OW28342   6.247   6.252   2.226
 9148SOL    HW128343   6.308   6.174   2.243
 9148SOL    HW228344   6.167   6.244   2.285
 9149SOL     OW28345   4.747   2.737   3.905
 9149SOL    HW128346   4.753   2.829   3.866
 9149SOL    HW228347   4.839   2.704   3.927
 9150SOL     OW28348   4.385   6.298   3.252
 9150SOL    HW128349   4.444   6.379   3.259
 9150SOL    HW228350   4.362   6.282   3.156
 9151SOL     OW28351   1.405   4.090   2.269
 9151SOL    HW128352   1.394   4.184   2.238
 9151SOL    HW228353   1.500   4.075   2.298
 9152SOL     OW28354   2.680   5.695   3.880
 9152SOL    HW128355   2.714   5.639   3.956
 9152SOL    HW228356   2.598   5.652   3.842
 9153SOL     OW28357   1.610   2.789   0.282
 9153SOL    HW128358   1.654   2.768   0.369
 9153SOL    HW228359   1.663   2.749   0.207
 9154SOL     OW28360   2.838   6.045   6.433
 9154SOL    HW128361   2.810   6.141   6.443
 9154SOL    HW228362   2.938   6.040   6.430
 9155SOL     OW28363   2.490   3.296   6.822
 9155SOL    HW128364   2.483   3.394   6.801
 9155SOL    HW228365   2.557   3.283   6.895
 9156SOL     OW28366   2.835   2.590   1.112
 9156SOL    HW128367   2.754   2.636   1.074
 9156SOL    HW228368   2.822   2.491   1.108
 9157SOL     OW28369   5.796   4.607   5.539
 9157SOL    HW128370   5.750   4.552   5.608
 9157SOL    HW228371   5.851   4.548   5.480
 9158SOL     OW28372   6.831   3.489   4.619
 9158SOL    HW128373   6.888   3.535   4.552
 9158SOL    HW228374   6.866   3.506   4.711
 9159SOL     OW28375   0.310   6.202   3.252
 9159SOL    HW128376   0.343   6.287   3.293
 9159SOL    HW228377   0.327   6.126   3.316
 9160SOL     OW28378   6.997   6.816   5.339
 9160SOL    HW128379   7.000   6.912   5.314
 9160SOL    HW228380   0.060   6.772   5.314
 9161SOL     OW28381   4.846   3.978   4.717
 9161SOL    HW128382   4.781   4.053   4.729
 9161SOL    HW228383   4.928   3.996   4.772
 9162SOL     OW28384   5.002   2.042   3.059
 9162SOL    HW128385   5.061   1.974   3.016
 9162SOL    HW228386   4.912   2.003   3.076
 9163SOL     OW28387   2.131   3.035   3.609
 9163SOL    HW128388   2.108   3.088   3.690
 9163SOL    HW228389   2.205   2.971   3.631
 9164SOL     OW28390   2.537   1.128   6.393
 9164SOL    HW128391   2.446   1.142   6.431
 9164SOL    HW228392   2.547   1.182   6.310
 9165SOL     OW28393   6.000   0.812   5.834
 9165SOL    HW128394   5.906   0.782   5.816
 9165SOL    HW228395   6.052   0.737   5.873
 9166SOL     OW28396   4.959   6.143   1.085
 9166SOL    HW128397   4.929   6.053   1.115
 9166SOL    HW228398   4.915   6.167   0.999
 9167SOL     OW28399   2.035   2.619   5.957
 9167SOL    HW128400   2.125   2.621   5.914
 9167SOL    HW228401   1.968   2.662   5.898
 9168SOL     OW28402   1.898   6.617   5.685
 9168SOL    HW128403   1.805   6.626   5.721
 9168SOL    HW228404   1.912   6.683   5.612
 9169SOL     OW28405   0.072   0.777   4.822
 9169SOL    HW128406   0.057   0.685   4.857
 9169SOL    HW228407   0.077   0.842   4.898
 9170SOL     OW28408   0.245   4.830   6.658
 9170SOL    HW128409   0.202   4.772   6.729
 9170SOL    HW228410   0.269   4.918   6.698
 9171SOL     OW28411   3.223   5.832   0.094
 9171SOL    HW128412   3.196   5.742   0.061
 9171SOL    HW228413   3.300   5.822   0.157
 9172SOL     OW28414   3.712   0.750   4.828
 9172SOL    HW128415   3.756   0.839   4.820
 9172SOL    HW228416   3.723   0.716   4.921
 9173SOL     OW28417   5.634   4.751   4.478
 9173SOL    HW128418   5.552   4.803   4.503
 9173SOL    HW228419   5.715   4.799   4.513
 9174SOL     OW28420   6.002   3.613   0.589
 9174SOL    HW128421   5.961   3.611   0.680
 9174SOL    HW228422   6.102   3.618   0.598
 9175SOL     OW28423   2.412   6.484   5.113
 9175SOL    HW128424   2.313   6.471   5.101
 9175SOL    HW228425   2.440   6.448   5.202
 9176SOL     OW28426   2.007   1.285   5.589
 9176SOL    HW128427   2.025   1.353   5.659
 9176SOL    HW228428   1.988   1.330   5.501
 9177SOL     OW28429   0.920   4.522   4.602
 9177SOL    HW128430   0.832   4.500   4.643
 9177SOL    HW228431   0.931   4.470   4.517
 9178SOL     OW28432   2.105   4.921   0.883
 9178SOL    HW128433   2.077   4.977   0.805
 9178SOL    HW228434   2.114   4.826   0.854
 9179SOL     OW28435   2.912   5.115   4.230
 9179SOL    HW128436   2.889   5.117   4.327
 9179SOL    HW228437   2.983   5.046   4.214
 9180SOL     OW28438   6.397   2.363   3.580
 9180SOL    HW128439   6.444   2.305   3.514
 9180SOL    HW228440   6.440   2.454   3.580
 9181SOL     OW28441   4.341   2.407   2.954
 9181SOL    HW128442   4.418   2.375   2.900
 9181SOL    HW228443   4.373   2.438   3.043
 9182SOL     OW28444   3.029   0.039   2.565
 9182SOL    HW128445   3.097   0.068   2.632
 9182SOL    HW228446   3.058   6.977   2.522
 9183SOL     OW28447   5.217   5.804   0.567
 9183SOL    HW128448   5.210   5.898   0.602
 9183SOL    HW228449   5.165   5.743   0.626
 9184SOL     OW28450   5.357   1.183   0.439
 9184SOL    HW128451   5.287   1.247   0.470
 9184SOL    HW228452   5.339   1.093   0.478
 9185SOL     OW28453   4.348   6.873   5.148
 9185SOL    HW128454   4.281   6.869   5.222
 9185SOL    HW228455   4.402   6.957   5.157
 9186SOL     OW28456   5.924   1.489   3.889
 9186SOL    HW128457   5.960   1.509   3.981
 9186SOL    HW228458   5.980   1.419   3.845
 9187SOL     OW28459   2.386   0.486   1.799
 9187SOL    HW128460   2.469   0.432   1.791
 9187SOL    HW228461   2.356   0.514   1.707
 9188SOL     OW28462   2.260   6.634   2.049
 9188SOL    HW128463   2.241   6.542   2.013
 9188SOL    HW228464   2.187   6.696   2.022
 9189SOL     OW28465   5.721   5.818   2.397
 9189SOL    HW128466   5.761   5.740   2.348
 9189SOL    HW228467   5.735   5.806   2.495
 9190SOL     OW28468   1.480   4.896   0.344
 9190SOL    HW128469   1.422   4.930   0.417
 9190SOL    HW228470   1.490   4.966   0.273
 9191SOL     OW28471   6.054   0.917   5.591
 9191SOL    HW128472   6.110   0.856   5.534
 9191SOL    HW228473   6.027   0.868   5.674
 9192SOL     OW28474   0.437   4.042   5.019
 9192SOL    HW128475   0.468   4.018   4.927
 9192SOL    HW228476   0.484   4.125   5.049
 9193SOL     OW28477   4.371   3.925   0.100
 9193SOL    HW128478   4.471   3.918   0.097
 9193SOL    HW228479   4.332   3.896   0.013
 9194SOL     OW28480   3.156   0.994   3.404
 9194SOL    HW128481   3.094   0.971   3.479
 9194SOL    HW228482   3.125   1.078   3.360
 9195SOL     OW28483   1.840   2.212   4.119
 9195SOL    HW128484   1.889   2.190   4.203
 9195SOL    HW228485   1.863   2.145   4.049
 9196SOL     OW28486   4.204   0.880   4.893
 9196SOL    HW128487   4.206   0.801   4.954
 9196SOL    HW228488   4.248   0.857   4.807
 9197SOL     OW28489   1.641   4.311   1.621
 9197SOL    HW128490   1.594   4.241   1.566
 9197SOL    HW228491   1.665   4.389   1.562
 9198SOL     OW28492   6.356   5.546   5.263
 9198SOL    HW128493   6.286   5.543   5.191
 9198SOL    HW228494   6.354   5.636   5.307
 9199SOL     OW28495   0.866   3.838   6.511
 9199SOL    HW128496   0.879   3.836   6.610
 9199SOL    HW228497   0.955   3.836   6.466
 9200SOL     OW28498   2.394   0.136   1.202
 9200SOL    HW128499   2.380   0.083   1.285
 9200SOL    HW228500   2.391   0.076   1.122
 9201SOL     OW28501   0.588   3.334   0.410
 9201SOL    HW128502   0.537   3.360   0.328
 9201SOL    HW228503   0.534   3.271   0.465
 9202SOL     OW28504   2.398   6.817   3.660
 9202SOL    HW128505   2.422   6.721   3.670
 9202SOL    HW228506   2.354   6.831   3.571
 9203SOL     OW28507   0.423   5.318   6.551
 9203SOL    HW128508   0.448   5.277   6.638
 9203SOL    HW228509   0.337   5.278   6.519
 9204SOL     OW28510   4.856   2.721   6.732
 9204SOL    HW128511   4.797   2.793   6.769
 9204SOL    HW228512   4.896   2.669   6.808
 9205SOL     OW28513   6.292   4.084   2.614
 9205SOL    HW128514   6.228   4.007   2.609
 9205SOL    HW228515   6.344   4.080   2.699
 9206SOL     OW28516   3.758   5.248   1.454
 9206SOL    HW128517   3.841   5.257   1.509
 9206SOL    HW228518   3.700   5.176   1.492
 9207SOL     OW28519   4.230   4.697   0.208
 9207SOL    HW128520   4.325   4.703   0.177
 9207SOL    HW228521   4.208   4.777   0.263
 9208SOL     OW28522   6.126   4.494   4.471
 9208SOL    HW128523   6.170   4.565   4.525
 9208SOL    HW228524   6.037   4.472   4.511
 9209SOL     OW28525   3.140   0.889   0.079
 9209SOL    HW128526   3.235   0.858   0.076
 9209SOL    HW228527   3.093   0.860   7.020
 9210SOL     OW28528   6.617   1.048   2.911
 9210SOL    HW128529   6.628   1.056   2.812
 9210SOL    HW228530   6.591   1.136   2.949
 9211SOL     OW28531   6.823   2.865   4.149
 9211SOL    HW128532   6.908   2.818   4.125
 9211SOL    HW228533   6.844   2.943   4.209
 9212SOL     OW28534   4.108   5.488   4.355
 9212SOL    HW128535   4.099   5.398   4.398
 9212SOL    HW228536   4.062   5.487   4.266
 9213SOL     OW28537   5.776   2.691   5.100
 9213SOL    HW128538   5.803   2.665   5.007
 9213SOL    HW228539   5.688   2.649   5.122
 9214SOL     OW28540   6.917   5.561   5.527
 9214SOL    HW128541   7.015   5.570   5.544
 9214SOL    HW228542   6.871   5.646   5.551
 9215SOL     OW28543   0.929   2.506   0.331
 9215SOL    HW128544   0.867   2.578   0.365
 9215SOL    HW228545   0.928   2.429   0.395
 9216SOL     OW28546   3.033   0.201   3.422
 9216SOL    HW128547   3.003   0.152   3.504
 9216SOL    HW228548   2.953   0.225   3.367
 9217SOL     OW28549   0.292   0.775   5.687
 9217SOL    HW128550   0.204   0.776   5.640
 9217SOL    HW228551   0.347   0.853   5.656
 9218SOL     OW28552   3.841   6.454   0.248
 9218SOL    HW128553   3.755   6.448   0.299
 9218SOL    HW228554   3.917   6.467   0.311
 9219SOL     OW28555   0.541   2.985   0.090
 9219SOL    HW128556   0.569   3.017   7.023
 9219SOL    HW228557   0.622   2.951   0.139
 9220SOL     OW28558   2.847   6.507   1.350
 9220SOL    HW128559   2.759   6.465   1.327
 9220SOL    HW228560   2.905   6.506   1.269
 9221SOL     OW28561   3.450   0.406   4.313
 9221SOL    HW128562   3.355   0.380   4.294
 9221SOL    HW228563   3.452   0.465   4.393
 9222SOL     OW28564   2.234   0.392   6.613
 9222SOL    HW128565   2.272   0.388   6.521
 9222SOL    HW228566   2.297   0.348   6.677
 9223SOL     OW28567   1.888   1.917   5.074
 9223SOL    HW128568   1.894   1.962   4.985
 9223SOL    HW228569   1.903   1.984   5.147
 9224SOL     OW28570   3.105   5.192   4.517
 9224SOL    HW128571   3.078   5.248   4.596
 9224SOL    HW228572   3.167   5.243   4.459
 9225SOL     OW28573   3.605   6.613   6.155
 9225SOL    HW128574   3.578   6.694   6.103
 9225SOL    HW228575   3.616   6.536   6.092
 9226SOL     OW28576   5.479   6.336   1.718
 9226SOL    HW128577   5.461   6.378   1.807
 9226SOL    HW228578   5.455   6.401   1.645
 9227SOL     OW28579   0.760   5.035   3.045
 9227SOL    HW128580   0.696   5.086   2.987
 9227SOL    HW228581   0.853   5.051   3.014
 9228SOL     OW28582   1.320   0.877   6.090
 9228SOL    HW128583   1.312   0.778   6.097
 9228SOL    HW228584   1.237   0.920   6.126
 9229SOL     OW28585   1.974   5.677   4.650
 9229SOL    HW128586   1.932   5.614   4.715
 9229SOL    HW228587   2.031   5.743   4.698
 9230SOL     OW28588   5.852   0.392   2.434
 9230SOL    HW128589   5.930   0.353   2.385
 9230SOL    HW228590   5.813   0.323   2.495
 9231SOL     OW28591   1.888   3.407   4.021
 9231SOL    HW128592   1.950   3.485   4.020
 9231SOL    HW228593   1.814   3.421   3.956
 9232SOL     OW28594   3.456   5.266   1.187
 9232SOL    HW128595   3.456   5.167   1.191
 9232SOL    HW228596   3.418   5.303   1.272
 9233SOL     OW28597   5.776   5.090   1.772
 9233SOL    HW128598   5.854   5.138   1.813
 9233SOL    HW228599   5.784   5.094   1.672
 9234SOL     OW28600   3.243   5.614   3.880
 9234SOL    HW128601   3.250   5.678   3.957
 9234SOL    HW228602   3.146   5.596   3.862
 9235SOL     OW28603   1.533   1.820   3.279
 9235SOL    HW128604   1.585   1.764   3.214
 9235SOL    HW228605   1.539   1.779   3.370
 9236SOL     OW28606   3.615   4.182   5.413
 9236SOL    HW128607   3.678   4.122   5.462
 9236SOL    HW228608   3.664   4.229   5.339
 9237SOL     OW28609   1.804   4.622   4.439
 9237SOL    HW128610   1.845   4.683   4.506
 9237SOL    HW228611   1.848   4.636   4.350
 9238SOL     OW28612   4.008   2.072   6.183
 9238SOL    HW128613   4.018   2.070   6.084
 9238SOL    HW228614   4.052   2.154   6.220
 9239SOL     OW28615   0.196   3.941   1.374
 9239SOL    HW128616   0.284   3.910   1.408
 9239SOL    HW228617   0.141   3.862   1.345
 9240SOL     OW28618   6.196   1.196   0.486
 9240SOL    HW128619   6.104   1.226   0.511
 9240SOL    HW228620   6.200   1.178   0.387
 9241SOL     OW28621   6.563   5.448   6.390
 9241SOL    HW128622   6.659   5.423   6.379
 9241SOL    HW228623   6.547   5.475   6.485
 9242SOL     OW28624   0.034   5.274   0.419
 9242SOL    HW128625   7.002   5.355   0.403
 9242SOL    HW228626   0.034   5.217   0.337
 9243SOL     OW28627   6.320   5.459   2.980
 9243SOL    HW128628   6.418   5.468   2.994
 9243SOL    HW228629   6.274   5.545   3.003
 9244SOL     OW28630   4.642   5.618   6.149
 9244SOL    HW128631   4.644   5.559   6.069
 9244SOL    HW228632   4.717   5.683   6.145
 9245SOL     OW28633   1.139   5.352   2.486
 9245SOL    HW128634   1.065   5.285   2.482
 9245SOL    HW228635   1.166   5.365   2.581
 9246SOL     OW28636   5.927   4.863   3.711
 9246SOL    HW128637   5.836   4.887   3.676
 9246SOL    HW228638   5.996   4.896   3.647
 9247SOL     OW28639   0.631   6.588   3.350
 9247SOL    HW128640   0.680   6.631   3.425
 9247SOL    HW228641   0.661   6.494   3.339
 9248SOL     OW28642   2.522   2.296   6.073
 9248SOL    HW128643   2.560   2.372   6.021
 9248SOL    HW228644   2.584   2.273   6.148
 9249SOL     OW28645   5.735   2.052   5.702
 9249SOL    HW128646   5.783   2.064   5.789
 9249SOL    HW228647   5.676   1.971   5.706
 9250SOL     OW28648   5.278   3.979   4.489
 9250SOL    HW128649   5.341   3.957   4.563
 9250SOL    HW228650   5.299   3.924   4.408
 9251SOL     OW28651   3.922   1.822   3.348
 9251SOL    HW128652   3.854   1.799   3.417
 9251SOL    HW228653   3.880   1.819   3.257
 9252SOL     OW28654   6.847   0.574   4.264
 9252SOL    HW128655   6.885   0.517   4.336
 9252SOL    HW228656   6.748   0.584   4.278
 9253SOL     OW28657   3.895   6.161   6.009
 9253SOL    HW128658   3.992   6.178   5.990
 9253SOL    HW228659   3.879   6.163   6.107
 9254SOL     OW28660   5.480   3.750   1.459
 9254SOL    HW128661   5.419   3.688   1.509
 9254SOL    HW228662   5.504   3.710   1.371
 9255SOL     OW28663   5.244   2.805   6.909
 9255SOL    HW128664   5.159   2.856   6.894
 9255SOL    HW228665   5.304   2.816   6.830
 9256SOL     OW28666   4.027   4.784   3.013
 9256SOL    HW128667   3.957   4.802   2.944
 9256SOL    HW228668   4.117   4.781   2.969
 9257SOL     OW28669   0.717   4.264   2.847
 9257SOL    HW128670   0.810   4.242   2.876
 9257SOL    HW228671   0.681   4.191   2.789
 9258SOL     OW28672   3.589   3.116   3.539
 9258SOL    HW128673   3.662   3.067   3.587
 9258SOL    HW228674   3.605   3.112   3.440
 9259SOL     OW28675   0.947   2.341   1.275
 9259SOL    HW128676   1.003   2.264   1.302
 9259SOL    HW228677   0.884   2.365   1.349
 9260SOL     OW28678   5.034   2.220   5.653
 9260SOL    HW128679   4.991   2.169   5.727
 9260SOL    HW228680   5.106   2.164   5.612
 9261SOL     OW28681   4.257   0.413   6.573
 9261SOL    HW128682   4.317   0.494   6.579
 9261SOL    HW228683   4.300   0.345   6.513
 9262SOL     OW28684   6.025   1.892   5.719
 9262SOL    HW128685   5.979   1.810   5.685
 9262SOL    HW228686   6.023   1.892   5.819
 9263SOL     OW28687   6.093   3.731   1.575
 9263SOL    HW128688   6.048   3.666   1.514
 9263SOL    HW228689   6.144   3.797   1.521
 9264SOL     OW28690   5.851   3.742   0.287
 9264SOL    HW128691   5.844   3.795   0.372
 9264SOL    HW228692   5.943   3.706   0.277
 9265SOL     OW28693   3.129   1.619   0.151
 9265SOL    HW128694   3.209   1.618   0.092
 9265SOL    HW228695   3.094   1.712   0.160
 9266SOL     OW28696   2.851   5.968   3.218
 9266SOL    HW128697   2.941   6.008   3.203
 9266SOL    HW228698   2.854   5.870   3.200
 9267SOL     OW28699   0.199   3.958   5.120
 9267SOL    HW128700   0.187   3.957   5.220
 9267SOL    HW228701   0.290   3.992   5.097
 9268SOL     OW28702   0.649   6.825   2.790
 9268SOL    HW128703   0.636   6.729   2.812
 9268SOL    HW228704   0.745   6.842   2.767
 9269SOL     OW28705   2.763   2.085   0.305
 9269SOL    HW128706   2.683   2.145   0.313
 9269SOL    HW228707   2.818   2.112   0.227
 9270SOL     OW28708   5.899   6.966   5.156
 9270SOL    HW128709   5.889   6.894   5.088
 9270SOL    HW228710   5.856   6.938   5.241
 9271SOL     OW28711   1.565   6.161   1.083
 9271SOL    HW128712   1.562   6.133   0.987
 9271SOL    HW228713   1.472   6.168   1.118
 9272SOL     OW28714   3.296   4.204   6.035
 9272SOL    HW128715   3.369   4.227   6.099
 9272SOL    HW228716   3.253   4.118   6.064
 9273SOL     OW28717   4.777   5.645   3.671
 9273SOL    HW128718   4.809   5.645   3.576
 9273SOL    HW228719   4.834   5.708   3.724
 9274SOL     OW28720   5.989   1.917   6.329
 9274SOL    HW128721   5.969   2.009   6.294
 9274SOL    HW228722   5.917   1.889   6.392
 9275SOL     OW28723   0.680   1.122   0.102
 9275SOL    HW128724   0.669   1.150   0.006
 9275SOL    HW228725   0.717   1.198   0.155
 9276SOL     OW28726   2.532   5.056   4.390
 9276SOL    HW128727   2.540   5.153   4.369
 9276SOL    HW228728   2.624   5.016   4.401
 9277SOL     OW28729   3.602   3.530   0.613
 9277SOL    HW128730   3.653   3.530   0.698
 9277SOL    HW228731   3.661   3.501   0.538
 9278SOL     OW28732   1.580   1.497   4.007
 9278SOL    HW128733   1.632   1.559   4.065
 9278SOL    HW228734   1.557   1.542   3.921
 9279SOL     OW28735   4.459   0.478   1.993
 9279SOL    HW128736   4.523   0.432   1.931
 9279SOL    HW228737   4.477   0.448   2.087
 9280SOL     OW28738   1.482   6.834   3.723
 9280SOL    HW128739   1.460   6.921   3.680
 9280SOL    HW228740   1.397   6.791   3.755
 9281SOL     OW28741   3.054   3.613   0.754
 9281SOL    HW128742   3.003   3.560   0.687
 9281SOL    HW228743   2.991   3.654   0.820
 9282SOL     OW28744   4.979   2.336   4.606
 9282SOL    HW128745   4.922   2.387   4.542
 9282SOL    HW228746   4.924   2.311   4.686
 9283SOL     OW28747   6.349   1.170   2.743
 9283SOL    HW128748   6.419   1.139   2.679
 9283SOL    HW228749   6.278   1.220   2.693
 9284SOL     OW28750   4.055   4.312   6.798
 9284SOL    HW128751   4.107   4.384   6.845
 9284SOL    HW228752   3.968   4.349   6.765
 9285SOL     OW28753   5.200   2.735   0.157
 9285SOL    HW128754   5.215   2.782   0.071
 9285SOL    HW228755   5.117   2.771   0.200
 9286SOL     OW28756   5.859   0.155   5.584
 9286SOL    HW128757   5.883   0.079   5.524
 9286SOL    HW228758   5.914   0.235   5.561
 9287SOL     OW28759   3.362   6.121   1.101
 9287SOL    HW128760   3.451   6.134   1.058
 9287SOL    HW228761   3.298   6.082   1.035
 9288SOL     OW28762   3.912   1.269   5.809
 9288SOL    HW128763   3.869   1.195   5.860
 9288SOL    HW228764   3.848   1.304   5.740
 9289SOL     OW28765   4.160   1.777   2.448
 9289SOL    HW128766   4.141   1.726   2.365
 9289SOL    HW228767   4.216   1.857   2.425
 9290SOL     OW28768   4.266   1.382   5.071
 9290SOL    HW128769   4.212   1.298   5.068
 9290SOL    HW228770   4.217   1.451   5.125
 9291SOL     OW28771   1.944   0.689   5.337
 9291SOL    HW128772   2.037   0.682   5.301
 9291SOL    HW228773   1.881   0.714   5.263
 9292SOL     OW28774   6.302   3.135   6.123
 9292SOL    HW128775   6.243   3.199   6.073
 9292SOL    HW228776   6.381   3.184   6.160
 9293SOL     OW28777   5.926   4.208   0.641
 9293SOL    HW128778   5.901   4.118   0.607
 9293SOL    HW228779   6.025   4.217   0.645
 9294SOL     OW28780   3.991   6.605   6.316
 9294SOL    HW128781   3.915   6.560   6.363
 9294SOL    HW228782   4.032   6.541   6.251
 9295SOL     OW28783   5.115   1.759   3.565
 9295SOL    HW128784   5.092   1.754   3.468
 9295SOL    HW228785   5.146   1.852   3.587
 9296SOL     OW28786   6.924   6.588   6.486
 9296SOL    HW128787   7.011   6.551   6.517
 9296SOL    HW228788   6.861   6.595   6.564
 9297SOL     OW28789   0.169   0.579   1.397
 9297SOL    HW128790   0.234   0.655   1.405
 9297SOL    HW228791   0.209   0.497   1.439
 9298SOL     OW28792   2.123   6.073   5.960
 9298SOL    HW128793   2.180   6.076   6.041
 9298SOL    HW228794   2.060   6.151   5.960
 9299SOL     OW28795   1.195   3.110   4.211
 9299SOL    HW128796   1.171   3.188   4.153
 9299SOL    HW228797   1.295   3.101   4.214
 9300SOL     OW28798   6.567   5.004   4.460
 9300SOL    HW128799   6.503   5.069   4.420
 9300SOL    HW228800   6.587   4.932   4.394
 9301SOL     OW28801   4.906   4.473   3.175
 9301SOL    HW128802   4.929   4.434   3.264
 9301SOL    HW228803   4.972   4.546   3.153
 9302SOL     OW28804   2.291   2.840   3.691
 9302SOL    HW128805   2.365   2.811   3.631
 9302SOL    HW228806   2.296   2.789   3.777
 9303SOL     OW28807   3.592   6.425   0.358
 9303SOL    HW128808   3.536   6.423   0.441
 9303SOL    HW228809   3.613   6.331   0.330
 9304SOL     OW28810   3.876   3.733   0.406
 9304SOL    HW128811   3.825   3.792   0.344
 9304SOL    HW228812   3.938   3.675   0.353
 9305SOL     OW28813   4.977   1.731   1.465
 9305SOL    HW128814   5.015   1.698   1.379
 9305SOL    HW228815   5.029   1.693   1.541
 9306SOL     OW28816   0.406   5.033   4.773
 9306SOL    HW128817   0.313   5.065   4.756
 9306SOL    HW228818   0.467   5.069   4.703
 9307SOL     OW28819   1.210   2.726   0.733
 9307SOL    HW128820   1.242   2.715   0.827
 9307SOL    HW228821   1.171   2.640   0.701
 9308SOL     OW28822   0.528   4.423   1.451
 9308SOL    HW128823   0.576   4.463   1.373
 9308SOL    HW228824   0.593   4.375   1.510
 9309SOL     OW28825   3.846   5.314   5.078
 9309SOL    HW128826   3.838   5.220   5.109
 9309SOL    HW228827   3.907   5.319   4.998
 9310SOL     OW28828   4.665   6.325   6.507
 9310SOL    HW128829   4.707   6.258   6.568
 9310SOL    HW228830   4.696   6.310   6.414
 9311SOL     OW28831   5.855   4.271   1.084
 9311SOL    HW128832   5.841   4.351   1.143
 9311SOL    HW228833   5.772   4.254   1.030
 9312SOL     OW28834   1.957   4.359   0.773
 9312SOL    HW128835   1.923   4.343   0.680
 9312SOL    HW228836   1.923   4.447   0.806
 9313SOL     OW28837   6.949   0.912   1.230
 9313SOL    HW128838   6.973   0.824   1.189
 9313SOL    HW228839   6.979   0.987   1.170
 9314SOL     OW28840   4.211   5.081   6.568
 9314SOL    HW128841   4.188   4.987   6.590
 9314SOL    HW228842   4.143   5.143   6.607
 9315SOL     OW28843   6.173   0.267   5.291
 9315SOL    HW128844   6.260   0.316   5.279
 9315SOL    HW228845   6.192   0.175   5.326
 9316SOL     OW28846   4.825   5.536   4.854
 9316SOL    HW128847   4.789   5.506   4.765
 9316SOL    HW228848   4.848   5.456   4.909
 9317SOL     OW28849   5.944   5.891   3.030
 9317SOL    HW128850   5.990   5.934   2.952
 9317SOL    HW228851   5.847   5.878   3.008
 9318SOL     OW28852   6.838   1.144   4.978
 9318SOL    HW128853   6.797   1.106   5.060
 9318SOL    HW228854   6.934   1.119   4.974
 9319SOL     OW28855   0.706   2.719   6.221
 9319SOL    HW128856   0.762   2.802   6.219
 9319SOL    HW228857   0.633   2.726   6.154
 9320SOL     OW28858   4.043   2.102   5.852
 9320SOL    HW128859   4.012   2.023   5.799
 9320SOL    HW228860   4.121   2.144   5.806
 9321SOL     OW28861   6.407   0.089   2.526
 9321SOL    HW128862   6.500   0.072   2.494
 9321SOL    HW228863   6.362   0.002   2.546
 9322SOL     OW28864   6.914   5.987   6.217
 9322SOL    HW128865   6.906   5.949   6.124
 9322SOL    HW228866   6.995   5.948   6.261
 9323SOL     OW28867   1.419   0.136   5.585
 9323SOL    HW128868   1.451   0.171   5.497
 9323SOL    HW228869   1.475   0.174   5.659
 9324SOL     OW28870   2.132   5.186   0.223
 9324SOL    HW128871   2.037   5.205   0.248
 9324SOL    HW228872   2.160   5.099   0.263
 9325SOL     OW28873   5.248   2.030   1.447
 9325SOL    HW128874   5.148   2.030   1.437
 9325SOL    HW228875   5.281   2.124   1.448
 9326SOL     OW28876   2.655   6.658   0.793
 9326SOL    HW128877   2.564   6.671   0.831
 9326SOL    HW228878   2.721   6.650   0.867
 9327SOL     OW28879   5.005   6.571   3.124
 9327SOL    HW128880   4.990   6.557   3.222
 9327SOL    HW228881   5.003   6.669   3.104
 9328SOL     OW28882   3.893   1.492   6.450
 9328SOL    HW128883   3.961   1.565   6.458
 9328SOL    HW228884   3.940   1.404   6.444
 9329SOL     OW28885   0.107   3.156   2.956
 9329SOL    HW128886   0.016   3.180   2.990
 9329SOL    HW228887   0.115   3.057   2.947
 9330SOL     OW28888   0.317   5.662   0.535
 9330SOL    HW128889   0.398   5.617   0.572
 9330SOL    HW228890   0.330   5.761   0.537
 9331SOL     OW28891   0.520   1.153   6.486
 9331SOL    HW128892   0.595   1.119   6.543
 9331SOL    HW228893   0.467   1.076   6.451
 9332SOL     OW28894   3.452   4.151   3.340
 9332SOL    HW128895   3.551   4.166   3.333
 9332SOL    HW228896   3.410   4.227   3.388
 9333SOL     OW28897   5.163   4.135   0.997
 9333SOL    HW128898   5.093   4.205   0.984
 9333SOL    HW228899   5.243   4.156   0.940
 9334SOL     OW28900   3.866   0.243   3.109
 9334SOL    HW128901   3.792   0.306   3.089
 9334SOL    HW228902   3.846   0.153   3.070
 9335SOL     OW28903   1.297   1.607   6.511
 9335SOL    HW128904   1.346   1.580   6.427
 9335SOL    HW228905   1.311   1.537   6.581
 9336SOL     OW28906   3.035   6.165   6.138
 9336SOL    HW128907   3.099   6.102   6.094
 9336SOL    HW228908   3.086   6.240   6.181
 9337SOL     OW28909   5.210   0.198   2.797
 9337SOL    HW128910   5.181   0.196   2.701
 9337SOL    HW228911   5.150   0.139   2.852
 9338SOL     OW28912   4.191   0.597   2.328
 9338SOL    HW128913   4.125   0.545   2.274
 9338SOL    HW228914   4.190   0.563   2.423
 9339SOL     OW28915   5.906   6.857   0.587
 9339SOL    HW128916   5.927   6.878   0.492
 9339SOL    HW228917   5.959   6.916   0.647
 9340SOL     OW28918   5.176   3.571   5.526
 9340SOL    HW128919   5.174   3.551   5.624
 9340SOL    HW228920   5.266   3.547   5.489
 9341SOL     OW28921   1.582   5.906   6.845
 9341SOL    HW128922   1.486   5.887   6.826
 9341SOL    HW228923   1.613   5.982   6.788
 9342SOL     OW28924   2.668   0.471   4.307
 9342SOL    HW128925   2.647   0.382   4.348
 9342SOL    HW228926   2.756   0.466   4.260
 9343SOL     OW28927   6.164   4.729   4.638
 9343SOL    HW128928   6.230   4.774   4.697
 9343SOL    HW228929   6.095   4.794   4.607
 9344SOL     OW28930   4.887   6.000   0.807
 9344SOL    HW128931   4.948   5.951   0.869
 9344SOL    HW228932   4.938   6.027   0.725
 9345SOL     OW28933   6.396   3.099   2.486
 9345SOL    HW128934   6.441   3.017   2.522
 9345SOL    HW228935   6.431   3.119   2.394
 9346SOL     OW28936   5.584   0.723   0.910
 9346SOL    HW128937   5.520   0.653   0.876
 9346SOL    HW228938   5.576   0.730   1.009
 9347SOL     OW28939   1.531   5.332   1.081
 9347SOL    HW128940   1.585   5.416   1.078
 9347SOL    HW228941   1.486   5.325   1.171
 9348SOL     OW28942   4.080   5.662   1.018
 9348SOL    HW128943   4.133   5.613   1.087
 9348SOL    HW228944   4.079   5.609   0.932
 9349SOL     OW28945   0.362   7.022   1.984
 9349SOL    HW128946   0.284   0.043   2.027
 9349SOL    HW228947   0.411   6.967   2.051
 9350SOL     OW28948   0.795   2.546   5.919
 9350SOL    HW128949   0.702   2.537   5.956
 9350SOL    HW228950   0.793   2.527   5.821
 9351SOL     OW28951   3.016   2.380   6.789
 9351SOL    HW128952   3.019   2.413   6.695
 9351SOL    HW228953   3.109   2.367   6.823
 9352SOL     OW28954   2.540   4.034   6.945
 9352SOL    HW128955   2.453   3.989   6.968
 9352SOL    HW228956   2.562   4.015   6.849
 9353SOL     OW28957   0.773   5.374   1.891
 9353SOL    HW128958   0.703   5.442   1.870
 9353SOL    HW228959   0.734   5.303   1.950
 9354SOL     OW28960   6.500   2.559   6.896
 9354SOL    HW128961   6.515   2.461   6.908
 9354SOL    HW228962   6.588   2.606   6.895
 9355SOL     OW28963   0.838   1.568   4.800
 9355SOL    HW128964   0.755   1.622   4.785
 9355SOL    HW228965   0.912   1.630   4.828
 9356SOL     OW28966   4.323   6.550   1.351
 9356SOL    HW128967   4.383   6.481   1.391
 9356SOL    HW228968   4.326   6.633   1.406
 9357SOL     OW28969   1.057   2.224   0.073
 9357SOL    HW128970   1.137   2.229   0.134
 9357SOL    HW228971   1.075   2.159   7.023
 9358SOL     OW28972   0.386   4.215   2.344
 9358SOL    HW128973   0.435   4.140   2.390
 9358SOL    HW228974   0.449   4.292   2.331
 9359SOL     OW28975   1.717   5.978   6.143
 9359SOL    HW128976   1.806   5.951   6.107
 9359SOL    HW228977   1.728   6.056   6.204
 9360SOL     OW28978   1.725   6.983   6.524
 9360SOL    HW128979   1.652   6.963   6.590
 9360SOL    HW228980   1.737   0.058   6.516
 9361SOL     OW28981   1.762   6.184   3.447
 9361SOL    HW128982   1.718   6.214   3.362
 9361SOL    HW228983   1.699   6.197   3.524
 9362SOL     OW28984   2.056   1.218   2.190
 9362SOL    HW128985   2.095   1.307   2.214
 9362SOL    HW228986   2.130   1.152   2.177
 9363SOL     OW28987   3.398   5.228   2.385
 9363SOL    HW128988   3.450   5.282   2.318
 9363SOL    HW228989   3.301   5.231   2.362
 9364SOL     OW28990   2.257   2.447   1.867
 9364SOL    HW128991   2.263   2.388   1.948
 9364SOL    HW228992   2.328   2.517   1.872
 9365SOL     OW28993   3.157   2.149   4.121
 9365SOL    HW128994   3.229   2.184   4.181
 9365SOL    HW228995   3.157   2.200   4.035
 9366SOL     OW28996   3.386   5.956   0.657
 9366SOL    HW128997   3.399   6.052   0.684
 9366SOL    HW228998   3.310   5.951   0.592
 9367SOL     OW28999   5.030   6.744   1.393
 9367SOL    HW129000   4.933   6.730   1.375
 9367SOL    HW229001   5.079   6.757   1.307
 9368SOL     OW29002   4.062   0.699   2.711
 9368SOL    HW129003   4.065   0.748   2.623
 9368SOL    HW229004   4.133   0.629   2.713
 9369SOL     OW29005   1.038   5.098   6.445
 9369SOL    HW129006   1.038   5.184   6.394
 9369SOL    HW229007   1.083   5.027   6.390
 9370SOL     OW29008   4.009   1.558   4.417
 9370SOL    HW129009   4.068   1.483   4.448
 9370SOL    HW229010   4.059   1.616   4.352
 9371SOL     OW29011   3.758   6.124   1.399
 9371SOL    HW129012   3.663   6.147   1.418
 9371SOL    HW229013   3.815   6.205   1.412
 9372SOL     OW29014   4.908   6.619   1.742
 9372SOL    HW129015   4.973   6.693   1.724
 9372SOL    HW229016   4.914   6.552   1.669
 9373SOL     OW29017   6.270   1.666   6.873
 9373SOL    HW129018   6.357   1.618   6.862
 9373SOL    HW229019   6.286   1.756   6.914
 9374SOL     OW29020   0.549   4.420   5.949
 9374SOL    HW129021   0.550   4.358   6.027
 9374SOL    HW229022   0.548   4.514   5.982
 9375SOL     OW29023   6.884   1.689   6.436
 9375SOL    HW129024   6.961   1.626   6.425
 9375SOL    HW229025   6.918   1.783   6.437
 9376SOL     OW29026   2.107   3.572   2.423
 9376SOL    HW129027   2.190   3.622   2.396
 9376SOL    HW229028   2.102   3.486   2.373
 9377SOL     OW29029   2.128   5.567   2.248
 9377SOL    HW129030   2.221   5.534   2.263
 9377SOL    HW229031   2.072   5.493   2.212
 9378SOL     OW29032   3.858   0.689   3.705
 9378SOL    HW129033   3.902   0.733   3.626
 9378SOL    HW229034   3.759   0.694   3.695
 9379SOL     OW29035   4.036   5.944   4.814
 9379SOL    HW129036   3.940   5.922   4.833
 9379SOL    HW229037   4.095   5.891   4.876
 9380SOL     OW29038   4.886   5.644   6.306
 9380SOL    HW129039   4.965   5.692   6.268
 9380SOL    HW229040   4.900   5.631   6.404
 9381SOL     OW29041   5.468   1.995   4.961
 9381SOL    HW129042   5.524   1.943   4.896
 9381SOL    HW229043   5.385   1.945   4.981
 9382SOL     OW29044   3.660   0.350   4.079
 9382SOL    HW129045   3.593   0.382   4.147
 9382SOL    HW229046   3.745   0.327   4.125
 9383SOL     OW29047   4.743   4.094   3.477
 9383SOL    HW129048   4.788   4.008   3.504
 9383SOL    HW229049   4.727   4.150   3.558
 9384SOL     OW29050   1.867   0.060   2.117
 9384SOL    HW129051   1.960   0.049   2.152
 9384SOL    HW229052   1.869   0.054   2.017
 9385SOL     OW29053   4.064   1.070   3.558
 9385SOL    HW129054   3.992   1.081   3.627
 9385SOL    HW229055   4.081   1.158   3.514
 9386SOL     OW29056   4.242   6.102   5.231
 9386SOL    HW129057   4.163   6.042   5.245
 9386SOL    HW229058   4.230   6.186   5.284
 9387SOL     OW29059   3.641   2.275   0.052
 9387SOL    HW129060   3.588   2.359   0.058
 9387SOL    HW229061   3.738   2.296   0.063
 9388SOL     OW29062   1.984   6.762   4.291
 9388SOL    HW129063   2.060   6.704   4.259
 9388SOL    HW229064   1.934   6.798   4.213
 9389SOL     OW29065   3.645   5.248   1.919
 9389SOL    HW129066   3.633   5.154   1.886
 9389SOL    HW229067   3.723   5.289   1.872
 9390SOL     OW29068   4.860   4.573   5.381
 9390SOL    HW129069   4.798   4.495   5.373
 9390SOL    HW229070   4.854   4.610   5.473
 9391SOL     OW29071   0.966   6.488   4.474
 9391SOL    HW129072   0.977   6.551   4.397
 9391SOL    HW229073   0.870   6.460   4.480
 9392SOL     OW29074   5.384   3.918   2.742
 9392SOL    HW129075   5.431   3.936   2.656
 9392SOL    HW229076   5.441   3.945   2.819
 9393SOL     OW29077   2.984   6.395   5.956
 9393SOL    HW129078   3.005   6.302   5.983
 9393SOL    HW229079   2.937   6.394   5.867
 9394SOL     OW29080   5.091   0.119   1.138
 9394SOL    HW129081   5.149   0.180   1.084
 9394SOL    HW229082   5.136   0.098   1.225
 9395SOL     OW29083   2.626   1.949   0.645
 9395SOL    HW129084   2.621   1.849   0.645
 9395SOL    HW229085   2.675   1.980   0.726
 9396SOL     OW29086   1.380   6.271   6.817
 9396SOL    HW129087   1.393   6.350   6.877
 9396SOL    HW229088   1.464   6.256   6.764
 9397SOL     OW29089   3.743   0.423   6.371
 9397SOL    HW129090   3.746   0.334   6.325
 9397SOL    HW229091   3.831   0.440   6.416
 9398SOL     OW29092   6.804   1.447   6.608
 9398SOL    HW129093   6.810   1.537   6.565
 9398SOL    HW229094   6.712   1.410   6.595
 9399SOL     OW29095   1.974   2.561   3.842
 9399SOL    HW129096   2.001   2.546   3.937
 9399SOL    HW229097   1.948   2.656   3.830
 9400SOL     OW29098   5.583   0.838   0.538
 9400SOL    HW129099   5.619   0.746   0.521
 9400SOL    HW229100   5.659   0.902   0.546
 9401SOL     OW29101   0.385   1.487   2.779
 9401SOL    HW129102   0.364   1.431   2.700
 9401SOL    HW229103   0.300   1.525   2.817
 9402SOL     OW29104   1.427   5.539   3.143
 9402SOL    HW129105   1.431   5.569   3.048
 9402SOL    HW229106   1.361   5.465   3.153
 9403SOL     OW29107   6.266   2.461   1.911
 9403SOL    HW129108   6.230   2.395   1.845
 9403SOL    HW229109   6.279   2.416   1.999
 9404SOL     OW29110   2.180   3.319   0.713
 9404SOL    HW129111   2.148   3.236   0.669
 9404SOL    HW229112   2.102   3.377   0.736
 9405SOL     OW29113   0.425   4.855   5.761
 9405SOL    HW129114   0.461   4.813   5.678
 9405SOL    HW229115   0.370   4.789   5.812
 9406SOL     OW29116   0.037   3.036   6.951
 9406SOL    HW129117   0.048   3.088   0.012
 9406SOL    HW229118   6.971   3.056   6.912
 9407SOL     OW29119   1.709   4.684   5.725
 9407SOL    HW129120   1.651   4.616   5.679
 9407SOL    HW229121   1.752   4.742   5.656
 9408SOL     OW29122   6.711   4.876   4.832
 9408SOL    HW129123   6.776   4.937   4.786
 9408SOL    HW229124   6.757   4.790   4.856
 9409SOL     OW29125   6.574   4.930   2.177
 9409SOL    HW129126   6.499   4.867   2.154
 9409SOL    HW229127   6.605   4.976   2.094
 9410SOL     OW29128   4.271   0.916   1.897
 9410SOL    HW129129   4.361   0.879   1.874
 9410SOL    HW229130   4.218   0.848   1.947
 9411SOL     OW29131   3.103   3.003   3.878
 9411SOL    HW129132   3.139   2.975   3.967
 9411SOL    HW229133   3.178   3.010   3.813
 9412SOL     OW29134   6.351   6.799   1.679
 9412SOL    HW129135   6.306   6.763   1.760
 9412SOL    HW229136   6.282   6.832   1.614
 9413SOL     OW29137   3.755   4.910   3.881
 9413SOL    HW129138   3.753   4.985   3.946
 9413SOL    HW229139   3.843   4.862   3.888
 9414SOL     OW29140   2.221   2.013   4.619
 9414SOL    HW129141   2.268   2.099   4.638
 9414SOL    HW229142   2.289   1.942   4.601
 9415SOL     OW29143   3.937   1.253   2.162
 9415SOL    HW129144   4.016   1.298   2.121
 9415SOL    HW229145   3.962   1.161   2.191
 9416SOL     OW29146   6.585   5.150   6.541
 9416SOL    HW129147   6.617   5.241   6.564
 9416SOL    HW229148   6.620   5.124   6.451
 9417SOL     OW29149   3.928   5.993   1.853
 9417SOL    HW129150   3.839   6.020   1.816
 9417SOL    HW229151   3.994   5.984   1.778
 9418SOL     OW29152   3.169   2.166   4.584
 9418SOL    HW129153   3.108   2.088   4.567
 9418SOL    HW229154   3.235   2.174   4.509
 9419SOL     OW29155   2.410   2.981   6.763
 9419SOL    HW129156   2.365   3.049   6.705
 9419SOL    HW229157   2.405   3.010   6.859
 9420SOL     OW29158   5.369   3.764   6.999
 9420SOL    HW129159   5.373   3.818   0.059
 9420SOL    HW229160   5.461   3.755   6.961
 9421SOL     OW29161   3.628   6.304   5.529
 9421SOL    HW129162   3.654   6.246   5.607
 9421SOL    HW229163   3.706   6.314   5.468
 9422SOL     OW29164   2.410   5.526   4.483
 9422SOL    HW129165   2.422   5.599   4.551
 9422SOL    HW229166   2.364   5.448   4.524
 9423SOL     OW29167   4.455   5.053   3.215
 9423SOL    HW129168   4.546   5.092   3.228
 9423SOL    HW229169   4.438   4.984   3.287
 9424SOL     OW29170   5.624   0.721   4.716
 9424SOL    HW129171   5.609   0.643   4.656
 9424SOL    HW229172   5.627   0.691   4.811
 9425SOL     OW29173   7.006   5.126   0.207
 9425SOL    HW129174   6.937   5.154   0.141
 9425SOL    HW229175   6.986   5.033   0.240
 9426SOL     OW29176   0.152   2.632   6.466
 9426SOL    HW129177   0.138   2.560   6.399
 9426SOL    HW229178   0.079   2.631   6.534
 9427SOL     OW29179   4.018   5.671   3.080
 9427SOL    HW129180   4.038   5.603   3.151
 9427SOL    HW229181   4.102   5.722   3.059
 9428SOL     OW29182   6.506   0.201   6.076
 9428SOL    HW129183   6.423   0.252   6.098
 9428SOL    HW229184   6.491   0.147   5.994
 9429SOL     OW29185   2.139   1.877   3.882
 9429SOL    HW129186   2.202   1.889   3.959
 9429SOL    HW229187   2.145   1.783   3.849
 9430SOL     OW29188   0.375   2.094   4.600
 9430SOL    HW129189   0.285   2.084   4.558
 9430SOL    HW229190   0.404   2.006   4.638
 9431SOL     OW29191   0.235   4.487   6.107
 9431SOL    HW129192   0.268   4.542   6.031
 9431SOL    HW229193   0.227   4.544   6.189
 9432SOL     OW29194   7.013   1.465   3.604
 9432SOL    HW129195   6.946   1.398   3.573
 9432SOL    HW229196   0.003   1.534   3.533
 9433SOL     OW29197   3.772   6.196   2.897
 9433SOL    HW129198   3.834   6.231   2.827
 9433SOL    HW229199   3.739   6.271   2.954
 9434SOL     OW29200   5.339   5.307   4.135
 9434SOL    HW129201   5.378   5.385   4.088
 9434SOL    HW229202   5.355   5.224   4.081
 9435SOL     OW29203   0.734   3.092   1.766
 9435SOL    HW129204   0.820   3.108   1.814
 9435SOL    HW229205   0.659   3.128   1.820
 9436SOL     OW29206   1.551   0.585   3.683
 9436SOL    HW129207   1.599   0.527   3.617
 9436SOL    HW229208   1.504   0.659   3.634
 9437SOL     OW29209   6.745   5.897   4.708
 9437SOL    HW129210   6.677   5.824   4.713
 9437SOL    HW229211   6.712   5.978   4.755
 9438SOL     OW29212   3.627   6.044   2.410
 9438SOL    HW129213   3.530   6.036   2.386
 9438SOL    HW229214   3.637   6.046   2.509
 9439SOL     OW29215   1.147   2.949   0.611
 9439SOL    HW129216   1.215   2.969   0.540
 9439SOL    HW229217   1.168   2.862   0.655
 9440SOL     OW29218   2.590   5.228   3.128
 9440SOL    HW129219   2.560   5.242   3.034
 9440SOL    HW229220   2.641   5.142   3.135
 9441SOL     OW29221   6.867   6.493   4.753
 9441SOL    HW129222   6.910   6.519   4.840
 9441SOL    HW229223   6.856   6.394   4.749
 9442SOL     OW29224   4.147   3.570   0.504
 9442SOL    HW129225   4.097   3.610   0.581
 9442SOL    HW229226   4.220   3.633   0.477
 9443SOL     OW29227   2.130   4.371   2.815
 9443SOL    HW129228   2.050   4.318   2.845
 9443SOL    HW229229   2.206   4.309   2.796
 9444SOL     OW29230   1.264   4.415   0.183
 9444SOL    HW129231   1.259   4.335   0.243
 9444SOL    HW229232   1.306   4.388   0.096
 9445SOL     OW29233   0.359   1.631   4.124
 9445SOL    HW129234   0.348   1.681   4.038
 9445SOL    HW229235   0.360   1.696   4.200
 9446SOL     OW29236   6.548   5.052   2.877
 9446SOL    HW129237   6.631   4.997   2.868
 9446SOL    HW229238   6.500   5.027   2.961
 9447SOL     OW29239   5.426   4.612   1.990
 9447SOL    HW129240   5.383   4.543   2.048
 9447SOL    HW229241   5.521   4.587   1.973
 9448SOL     OW29242   5.044   0.101   5.238
 9448SOL    HW129243   5.068   0.197   5.221
 9448SOL    HW229244   5.020   0.090   5.334
 9449SOL     OW29245   6.198   0.046   2.043
 9449SOL    HW129246   6.136   6.994   2.023
 9449SOL    HW229247   6.207   0.056   2.142
 9450SOL     OW29248   1.987   6.149   3.827
 9450SOL    HW129249   2.004   6.193   3.739
 9450SOL    HW229250   1.976   6.050   3.812
 9451SOL     OW29251   3.951   6.086   6.472
 9451SOL    HW129252   3.953   6.172   6.523
 9451SOL    HW229253   4.042   6.046   6.470
 9452SOL     OW29254   6.667   4.112   0.511
 9452SOL    HW129255   6.688   4.189   0.451
 9452SOL    HW229256   6.645   4.146   0.603
 9453SOL     OW29257   4.386   6.504   2.963
 9453SOL    HW129258   4.422   6.479   2.873
 9453SOL    HW229259   4.297   6.460   2.976
 9454SOL     OW29260   4.859   3.659   0.426
 9454SOL    HW129261   4.791   3.692   0.492
 9454SOL    HW229262   4.897   3.572   0.458
 9455SOL     OW29263   2.783   2.251   2.316
 9455SOL    HW129264   2.810   2.301   2.233
 9455SOL    HW229265   2.843   2.173   2.328
 9456SOL     OW29266   6.663   3.043   1.995
 9456SOL    HW129267   6.583   2.997   2.032
 9456SOL    HW229268   6.693   2.997   1.911
 9457SOL     OW29269   0.228   5.493   3.614
 9457SOL    HW129270   0.291   5.521   3.686
 9457SOL    HW229271   0.234   5.558   3.538
 9458SOL     OW29272   6.145   3.644   6.950
 9458SOL    HW129273   6.209   3.710   6.913
 9458SOL    HW229274   6.052   3.670   6.926
 9459SOL     OW29275   4.896   4.839   4.953
 9459SOL    HW129276   4.974   4.809   4.897
 9459SOL    HW229277   4.916   4.824   5.050
 9460SOL     OW29278   1.283   1.908   3.179
 9460SOL    HW129279   1.224   1.850   3.234
 9460SOL    HW229280   1.377   1.904   3.214
 9461SOL     OW29281   1.126   2.436   3.071
 9461SOL    HW129282   1.203   2.375   3.052
 9461SOL    HW229283   1.096   2.480   2.986
 9462SOL     OW29284   1.663   1.466   4.339
 9462SOL    HW129285   1.582   1.424   4.379
 9462SOL    HW229286   1.639   1.556   4.303
 9463SOL     OW29287   5.696   5.546   0.974
 9463SOL    HW129288   5.720   5.544   0.877
 9463SOL    HW229289   5.618   5.608   0.988
 9464SOL     OW29290   1.155   0.954   1.459
 9464SOL    HW129291   1.156   0.963   1.359
 9464SOL    HW229292   1.087   1.018   1.496
 9465SOL     OW29293   6.434   4.356   0.887
 9465SOL    HW129294   6.437   4.351   0.987
 9465SOL    HW229295   6.430   4.451   0.858
 9466SOL     OW29296   3.453   5.135   6.265
 9466SOL    HW129297   3.485   5.099   6.177
 9466SOL    HW229298   3.514   5.104   6.338
 9467SOL     OW29299   2.425   3.334   0.824
 9467SOL    HW129300   2.473   3.415   0.791
 9467SOL    HW229301   2.339   3.323   0.774
 9468SOL     OW29302   6.355   2.178   0.418
 9468SOL    HW129303   6.317   2.215   0.503
 9468SOL    HW229304   6.288   2.117   0.376
 9469SOL     OW29305   1.149   6.610   1.531
 9469SOL    HW129306   1.172   6.513   1.534
 9469SOL    HW229307   1.070   6.625   1.472
 9470SOL     OW29308   3.721   4.306   0.884
 9470SOL    HW129309   3.622   4.312   0.897
 9470SOL    HW229310   3.749   4.371   0.814
 9471SOL     OW29311   5.954   2.983   5.035
 9471SOL    HW129312   5.971   2.905   5.096
 9471SOL    HW229313   5.897   2.954   4.958
 9472SOL     OW29314   1.567   2.922   6.490
 9472SOL    HW129315   1.630   2.896   6.565
 9472SOL    HW229316   1.513   3.001   6.519
 9473SOL     OW29317   3.233   4.922   0.691
 9473SOL    HW129318   3.249   5.004   0.635
 9473SOL    HW229319   3.318   4.871   0.701
 9474SOL     OW29320   5.492   2.795   1.386
 9474SOL    HW129321   5.514   2.729   1.458
 9474SOL    HW229322   5.568   2.861   1.377
 9475SOL     OW29323   4.715   3.882   6.034
 9475SOL    HW129324   4.633   3.879   5.978
 9475SOL    HW229325   4.689   3.891   6.130
 9476SOL     OW29326   3.604   4.000   6.265
 9476SOL    HW129327   3.614   3.904   6.291
 9476SOL    HW229328   3.510   4.029   6.280
 9477SOL     OW29329   2.188   4.374   1.182
 9477SOL    HW129330   2.144   4.284   1.187
 9477SOL    HW229331   2.240   4.381   1.097
 9478SOL     OW29332   5.530   1.990   0.109
 9478SOL    HW129333   5.436   1.996   0.075
 9478SOL    HW229334   5.591   1.966   0.034
 9479SOL     OW29335   3.704   0.916   1.450
 9479SOL    HW129336   3.777   0.852   1.474
 9479SOL    HW229337   3.734   0.974   1.375
 9480SOL     OW29338   6.102   6.926   0.094
 9480SOL    HW129339   6.120   6.972   0.008
 9480SOL    HW229340   6.110   6.827   0.082
 9481SOL     OW29341   4.086   1.317   3.481
 9481SOL    HW129342   4.179   1.349   3.498
 9481SOL    HW229343   4.025   1.396   3.475
 9482SOL     OW29344   6.256   0.021   0.883
 9482SOL    HW129345   6.245   6.950   0.852
 9482SOL    HW229346   6.307   0.021   0.969
 9483SOL     OW29347   6.967   0.870   0.536
 9483SOL    HW129348   6.933   0.776   0.542
 9483SOL    HW229349   6.904   0.931   0.584
 9484SOL     OW29350   3.593   5.892   4.806
 9484SOL    HW129351   3.604   5.804   4.853
 9484SOL    HW229352   3.504   5.894   4.760
 9485SOL     OW29353   0.107   1.315   6.495
 9485SOL    HW129354   0.036   1.281   6.557
 9485SOL    HW229355   0.073   1.395   6.446
 9486SOL     OW29356   5.193   5.641   6.916
 9486SOL    HW129357   5.186   5.704   6.838
 9486SOL    HW229358   5.112   5.582   6.918
 9487SOL     OW29359   3.160   3.388   3.671
 9487SOL    HW129360   3.071   3.407   3.630
 9487SOL    HW229361   3.152   3.390   3.770
 9488SOL     OW29362   0.955   1.935   0.632
 9488SOL    HW129363   1.036   1.922   0.689
 9488SOL    HW229364   0.873   1.910   0.683
 9489SOL     OW29365   4.907   4.280   0.343
 9489SOL    HW129366   4.878   4.234   0.427
 9489SOL    HW229367   4.827   4.311   0.292
 9490SOL     OW29368   5.654   3.908   3.777
 9490SOL    HW129369   5.577   3.862   3.821
 9490SOL    HW229370   5.684   3.855   3.698
 9491SOL     OW29371   5.104   6.361   2.999
 9491SOL    HW129372   5.103   6.282   3.060
 9491SOL    HW229373   5.083   6.444   3.050
 9492SOL     OW29374   5.031   2.735   4.632
 9492SOL    HW129375   5.124   2.702   4.613
 9492SOL    HW229376   5.030   2.781   4.721
 9493SOL     OW29377   4.252   0.086   3.231
 9493SOL    HW129378   4.318   0.057   3.301
 9493SOL    HW229379   4.296   0.085   3.142
 9494SOL     OW29380   5.331   2.204   1.940
 9494SOL    HW129381   5.328   2.109   1.908
 9494SOL    HW229382   5.295   2.209   2.033
 9495SOL     OW29383   1.354   1.163   2.311
 9495SOL    HW129384   1.351   1.251   2.263
 9495SOL    HW229385   1.429   1.108   2.276
 9496SOL     OW29386   4.505   2.244   2.547
 9496SOL    HW129387   4.494   2.312   2.475
 9496SOL    HW229388   4.550   2.163   2.511
 9497SOL     OW29389   5.267   5.140   4.574
 9497SOL    HW129390   5.348   5.189   4.605
 9497SOL    HW229391   5.206   5.124   4.651
 9498SOL     OW29392   6.829   5.607   3.902
 9498SOL    HW129393   6.887   5.609   3.983
 9498SOL    HW229394   6.879   5.561   3.828
 9499SOL     OW29395   6.063   6.147   5.868
 9499SOL    HW129396   6.031   6.067   5.920
 9499SOL    HW229397   6.163   6.142   5.858
 9500SOL     OW29398   4.114   1.058   0.868
 9500SOL    HW129399   4.063   1.096   0.945
 9500SOL    HW229400   4.106   0.958   0.868
 9501SOL     OW29401   1.644   3.062   4.879
 9501SOL    HW129402   1.576   3.115   4.929
 9501SOL    HW229403   1.613   3.046   4.785
 9502SOL     OW29404   5.556   4.678   5.229
 9502SOL    HW129405   5.461   4.670   5.200
 9502SOL    HW229406   5.562   4.673   5.329
 9503SOL     OW29407   0.488   2.138   6.901
 9503SOL    HW129408   0.445   2.090   6.825
 9503SOL    HW229409   0.539   2.216   6.866
 9504SOL     OW29410   6.556   5.311   1.840
 9504SOL    HW129411   6.468   5.306   1.888
 9504SOL    HW229412   6.577   5.406   1.819
 9505SOL     OW29413   4.408   4.933   5.246
 9505SOL    HW129414   4.468   4.870   5.297
 9505SOL    HW229415   4.384   5.010   5.305
 9506SOL     OW29416   3.240   1.719   1.226
 9506SOL    HW129417   3.176   1.782   1.181
 9506SOL    HW229418   3.263   1.644   1.163
 9507SOL     OW29419   5.679   7.023   2.121
 9507SOL    HW129420   5.580   0.015   2.121
 9507SOL    HW229421   5.702   6.961   2.195
 9508SOL     OW29422   5.272   1.500   2.989
 9508SOL    HW129423   5.307   1.432   2.925
 9508SOL    HW229424   5.260   1.587   2.941
 9509SOL     OW29425   7.020   6.858   2.783
 9509SOL    HW129426   0.023   6.953   2.773
 9509SOL    HW229427   0.061   6.811   2.844
 9510SOL     OW29428   0.723   2.385   3.810
 9510SOL    HW129429   0.815   2.416   3.835
 9510SOL    HW229430   0.731   2.304   3.751
 9511SOL     OW29431   1.745   1.688   0.913
 9511SOL    HW129432   1.694   1.696   0.999
 9511SOL    HW229433   1.758   1.591   0.891
 9512SOL     OW29434   6.445   2.222   1.026
 9512SOL    HW129435   6.526   2.278   1.040
 9512SOL    HW229436   6.364   2.279   1.025
 9513SOL     OW29437   3.859   5.164   6.921
 9513SOL    HW129438   3.900   5.245   6.964
 9513SOL    HW229439   3.773   5.142   6.967
 9514SOL     OW29440   3.157   3.450   0.337
 9514SOL    HW129441   3.173   3.361   0.295
 9514SOL    HW229442   3.175   3.522   0.270
 9515SOL     OW29443   2.127   5.315   3.868
 9515SOL    HW129444   2.215   5.324   3.914
 9515SOL    HW229445   2.072   5.397   3.885
 9516SOL     OW29446   6.577   3.870   0.579
 9516SOL    HW129447   6.631   3.817   0.513
 9516SOL    HW229448   6.608   3.965   0.578
 9517SOL     OW29449   1.396   4.574   0.656
 9517SOL    HW129450   1.444   4.604   0.574
 9517SOL    HW229451   1.307   4.538   0.631
 9518SOL     OW29452   1.583   1.240   0.301
 9518SOL    HW129453   1.542   1.316   0.352
 9518SOL    HW229454   1.594   1.266   0.205
 9519SOL     OW29455   1.302   2.636   5.138
 9519SOL    HW129456   1.213   2.666   5.173
 9519SOL    HW229457   1.373   2.699   5.171
 9520SOL     OW29458   2.180   6.777   2.265
 9520SOL    HW129459   2.204   6.690   2.223
 9520SOL    HW229460   2.105   6.763   2.330
 9521SOL     OW29461   5.411   5.565   4.299
 9521SOL    HW129462   5.498   5.541   4.342
 9521SOL    HW229463   5.344   5.494   4.316
 9522SOL     OW29464   3.778   6.053   0.840
 9522SOL    HW129465   3.857   6.051   0.901
 9522SOL    HW229466   3.723   5.971   0.855
 9523SOL     OW29467   3.320   5.989   4.301
 9523SOL    HW129468   3.406   6.036   4.324
 9523SOL    HW229469   3.265   5.977   4.384
 9524SOL     OW29470   4.169   3.143   0.872
 9524SOL    HW129471   4.109   3.065   0.856
 9524SOL    HW229472   4.134   3.223   0.823
 9525SOL     OW29473   3.039   0.927   6.221
 9525SOL    HW129474   2.982   0.845   6.223
 9525SOL    HW229475   2.986   1.005   6.252
 9526SOL     OW29476   5.372   5.066   2.658
 9526SOL    HW129477   5.364   5.106   2.750
 9526SOL    HW229478   5.311   4.987   2.652
 9527SOL     OW29479   0.076   1.856   1.969
 9527SOL    HW129480   7.000   1.855   1.966
 9527SOL    HW229481   0.108   1.949   1.987
 9528SOL     OW29482   6.639   1.019   2.177
 9528SOL    HW129483   6.690   1.085   2.232
 9528SOL    HW229484   6.697   0.987   2.101
 9529SOL     OW29485   0.501   3.008   6.196
 9529SOL    HW129486   0.456   2.920   6.211
 9529SOL    HW229487   0.453   3.059   6.125
 9530SOL     OW29488   1.320   1.891   3.528
 9530SOL    HW129489   1.375   1.913   3.609
 9530SOL    HW229490   1.308   1.973   3.472
 9531SOL     OW29491   3.632   6.830   2.893
 9531SOL    HW129492   3.539   6.856   2.917
 9531SOL    HW229493   3.631   6.745   2.841
 9532SOL     OW29494   2.008   7.008   1.756
 9532SOL    HW129495   1.936   0.033   1.806
 9532SOL    HW229496   1.965   6.944   1.692
 9533SOL     OW29497   1.609   1.181   5.906
 9533SOL    HW129498   1.578   1.264   5.859
 9533SOL    HW229499   1.534   1.115   5.909
 9534SOL     OW29500   5.168   2.425   4.837
 9534SOL    HW129501   5.139   2.427   4.741
 9534SOL    HW229502   5.257   2.379   4.843
 9535SOL     OW29503   2.446   1.072   5.627
 9535SOL    HW129504   2.410   0.990   5.671
 9535SOL    HW229505   2.467   1.141   5.696
 9536SOL     OW29506   1.540   5.987   5.904
 9536SOL    HW129507   1.600   5.984   5.984
 9536SOL    HW229508   1.505   5.895   5.886
 9537SOL     OW29509   2.872   6.943   1.339
 9537SOL    HW129510   2.838   6.859   1.381
 9537SOL    HW229511   2.830   7.022   1.383
 9538SOL     OW29512   6.816   2.768   4.482
 9538SOL    HW129513   6.731   2.813   4.455
 9538SOL    HW229514   6.887   2.783   4.413
 9539SOL     OW29515   0.860   6.018   0.618
 9539SOL    HW129516   0.804   5.941   0.647
 9539SOL    HW229517   0.957   5.995   0.626
 9540SOL     OW29518   5.044   4.374   4.807
 9540SOL    HW129519   5.108   4.341   4.876
 9540SOL    HW229520   5.001   4.296   4.762
 9541SOL     OW29521   2.071   2.562   4.109
 9541SOL    HW129522   2.129   2.575   4.189
 9541SOL    HW229523   1.976   2.553   4.139
 9542SOL     OW29524   4.964   3.541   4.173
 9542SOL    HW129525   4.936   3.516   4.081
 9542SOL    HW229526   4.985   3.459   4.225
 9543SOL     OW29527   5.457   1.787   2.467
 9543SOL    HW129528   5.374   1.838   2.489
 9543SOL    HW229529   5.472   1.789   2.368
 9544SOL     OW29530   4.313   1.604   2.192
 9544SOL    HW129531   4.232   1.590   2.247
 9544SOL    HW229532   4.357   1.690   2.217
 9545SOL     OW29533   6.734   0.885   3.875
 9545SOL    HW129534   6.725   0.814   3.806
 9545SOL    HW229535   6.800   0.953   3.844
 9546SOL     OW29536   2.668   5.294   0.614
 9546SOL    HW129537   2.643   5.321   0.707
 9546SOL    HW229538   2.587   5.259   0.567
 9547SOL     OW29539   0.489   6.456   3.773
 9547SOL    HW129540   0.478   6.357   3.772
 9547SOL    HW229541   0.566   6.481   3.714
 9548SOL     OW29542   4.570   6.076   3.524
 9548SOL    HW129543   4.660   6.082   3.482
 9548SOL    HW229544   4.505   6.036   3.459
 9549SOL     OW29545   2.277   5.807   0.633
 9549SOL    HW129546   2.311   5.809   0.727
 9549SOL    HW229547   2.227   5.892   0.614
 9550SOL     OW29548   1.029   1.399   0.514
 9550SOL    HW129549   1.024   1.347   0.600
 9550SOL    HW229550   0.944   1.451   0.502
 9551SOL     OW29551   1.296   6.351   4.496
 9551SOL    HW129552   1.277   6.449   4.508
 9551SOL    HW229553   1.288   6.327   4.400
 9552SOL     OW29554   1.705   5.407   3.185
 9552SOL    HW129555   1.746   5.317   3.171
 9552SOL    HW229556   1.654   5.434   3.103
 9553SOL     OW29557   5.604   4.421   5.667
 9553SOL    HW129558   5.576   4.424   5.763
 9553SOL    HW229559   5.590   4.329   5.631
 9554SOL     OW29560   1.845   1.357   2.095
 9554SOL    HW129561   1.888   1.434   2.047
 9554SOL    HW229562   1.916   1.295   2.129
 9555SOL     OW29563   6.990   2.371   0.631
 9555SOL    HW129564   6.966   2.450   0.575
 9555SOL    HW229565   6.941   2.290   0.598
 9556SOL     OW29566   2.017   2.109   1.611
 9556SOL    HW129567   2.092   2.176   1.615
 9556SOL    HW229568   1.985   2.100   1.517
 9557SOL     OW29569   5.318   1.146   1.996
 9557SOL    HW129570   5.341   1.100   2.082
 9557SOL    HW229571   5.224   1.122   1.970
 9558SOL     OW29572   6.312   5.048   2.719
 9558SOL    HW129573   6.274   5.141   2.721
 9558SOL    HW229574   6.389   5.042   2.782
 9559SOL     OW29575   6.897   2.821   2.196
 9559SOL    HW129576   6.821   2.761   2.218
 9559SOL    HW229577   6.883   2.863   2.106
 9560SOL     OW29578   3.191   1.574   4.197
 9560SOL    HW129579   3.274   1.571   4.252
 9560SOL    HW229580   3.137   1.492   4.214
 9561SOL     OW29581   3.993   6.610   0.893
 9561SOL    HW129582   4.044   6.595   0.977
 9561SOL    HW229583   4.056   6.633   0.819
 9562SOL     OW29584   5.423   5.441   2.935
 9562SOL    HW129585   5.451   5.401   2.848
 9562SOL    HW229586   5.391   5.535   2.920
 9563SOL     OW29587   6.500   6.110   6.945
 9563SOL    HW129588   6.498   6.011   6.932
 9563SOL    HW229589   6.594   6.143   6.937
 9564SOL     OW29590   2.465   7.016   6.905
 9564SOL    HW129591   2.507   6.969   6.828
 9564SOL    HW229592   2.398   6.956   6.949
 9565SOL     OW29593   3.917   5.963   4.332
 9565SOL    HW129594   3.930   6.053   4.376
 9565SOL    HW229595   4.006   5.917   4.325
 9566SOL     OW29596   2.795   4.786   5.257
 9566SOL    HW129597   2.786   4.744   5.347
 9566SOL    HW229598   2.813   4.715   5.189
 9567SOL     OW29599   6.235   5.623   5.540
 9567SOL    HW129600   6.279   5.695   5.487
 9567SOL    HW229601   6.140   5.613   5.510
 9568SOL     OW29602   4.510   3.593   6.607
 9568SOL    HW129603   4.466   3.594   6.517
 9568SOL    HW229604   4.512   3.500   6.643
 9569SOL     OW29605   6.328   0.955   0.594
 9569SOL    HW129606   6.323   0.977   0.691
 9569SOL    HW229607   6.286   1.029   0.541
 9570SOL     OW29608   0.212   0.792   0.609
 9570SOL    HW129609   0.235   0.706   0.563
 9570SOL    HW229610   0.128   0.830   0.569
 9571SOL     OW29611   2.190   3.892   0.154
 9571SOL    HW129612   2.261   3.906   0.085
 9571SOL    HW229613   2.219   3.821   0.218
 9572SOL     OW29614   1.640   4.514   1.428
 9572SOL    HW129615   1.649   4.473   1.337
 9572SOL    HW229616   1.577   4.591   1.424
 9573SOL     OW29617   0.686   2.064   1.186
 9573SOL    HW129618   0.678   2.158   1.219
 9573SOL    HW229619   0.748   2.013   1.245
 9574SOL     OW29620   2.259   1.857   5.625
 9574SOL    HW129621   2.304   1.913   5.555
 9574SOL    HW229622   2.323   1.838   5.699
 9575SOL     OW29623   5.689   0.515   2.137
 9575SOL    HW129624   5.641   0.602   2.128
 9575SOL    HW229625   5.686   0.485   2.232
 9576SOL     OW29626   3.505   2.158   6.063
 9576SOL    HW129627   3.420   2.132   6.108
 9576SOL    HW229628   3.494   2.156   5.964
 9577SOL     OW29629   0.898   6.330   3.109
 9577SOL    HW129630   0.960   6.401   3.141
 9577SOL    HW229631   0.917   6.309   3.013
 9578SOL     OW29632   6.036   3.411   1.969
 9578SOL    HW129633   5.943   3.404   1.933
 9578SOL    HW229634   6.046   3.349   2.047
 9579SOL     OW29635   0.886   6.622   2.473
 9579SOL    HW129636   0.912   6.679   2.552
 9579SOL    HW229637   0.908   6.670   2.389
 9580SOL     OW29638   4.433   3.830   5.940
 9580SOL    HW129639   4.370   3.753   5.930
 9580SOL    HW229640   4.400   3.890   6.013
 9581SOL     OW29641   1.435   4.368   6.210
 9581SOL    HW129642   1.402   4.275   6.191
 9581SOL    HW229643   1.393   4.401   6.295
 9582SOL     OW29644   4.687   5.191   4.714
 9582SOL    HW129645   4.785   5.204   4.702
 9582SOL    HW229646   4.662   5.099   4.683
 9583SOL     OW29647   2.027   4.236   1.811
 9583SOL    HW129648   2.065   4.325   1.837
 9583SOL    HW229649   2.101   4.169   1.805
 9584SOL     OW29650   6.049   5.621   6.229
 9584SOL    HW129651   5.982   5.656   6.295
 9584SOL    HW229652   6.130   5.588   6.278
 9585SOL     OW29653   6.032   0.317   4.440
 9585SOL    HW129654   5.967   0.269   4.381
 9585SOL    HW229655   6.083   0.384   4.385
 9586SOL     OW29656   5.569   3.582   3.408
 9586SOL    HW129657   5.474   3.577   3.439
 9586SOL    HW229658   5.612   3.492   3.421
 9587SOL     OW29659   5.036   6.416   1.984
 9587SOL    HW129660   5.061   6.441   1.891
 9587SOL    HW229661   4.985   6.331   1.984
 9588SOL     OW29662   6.992   0.873   2.153
 9588SOL    HW129663   0.047   0.873   2.214
 9588SOL    HW229664   6.971   0.966   2.124
 9589SOL     OW29665   2.695   1.495   6.194
 9589SOL    HW129666   2.770   1.429   6.188
 9589SOL    HW229667   2.702   1.545   6.281
 9590SOL     OW29668   6.831   4.655   4.994
 9590SOL    HW129669   6.751   4.611   5.035
 9590SOL    HW229670   6.908   4.647   5.057
 9591SOL     OW29671   1.422   4.731   1.793
 9591SOL    HW129672   1.510   4.715   1.837
 9591SOL    HW229673   1.368   4.796   1.847
 9592SOL     OW29674   5.016   5.072   2.306
 9592SOL    HW129675   5.106   5.074   2.262
 9592SOL    HW229676   5.007   4.988   2.358
 9593SOL     OW29677   0.848   2.716   3.834
 9593SOL    HW129678   0.795   2.792   3.796
 9593SOL    HW229679   0.926   2.753   3.885
 9594SOL     OW29680   6.026   6.845   2.083
 9594SOL    HW129681   6.008   6.923   2.143
 9594SOL    HW229682   5.948   6.831   2.022
 9595SOL     OW29683   0.729   4.466   4.825
 9595SOL    HW129684   0.761   4.373   4.804
 9595SOL    HW229685   0.800   4.515   4.876
 9596SOL     OW29686   5.157   6.651   4.543
 9596SOL    HW129687   5.134   6.698   4.628
 9596SOL    HW229688   5.105   6.565   4.537
 9597SOL     OW29689   2.249   3.992   1.064
 9597SOL    HW129690   2.179   4.029   1.126
 9597SOL    HW229691   2.325   3.955   1.119
 9598SOL     OW29692   6.917   5.441   5.764
 9598SOL    HW129693   6.903   5.481   5.674
 9598SOL    HW229694   6.835   5.455   5.820
 9599SOL     OW29695   5.062   1.695   4.853
 9599SOL    HW129696   5.008   1.735   4.779
 9599SOL    HW229697   5.119   1.622   4.816
 9600SOL     OW29698   1.389   6.485   7.008
 9600SOL    HW129699   1.349   6.460   0.072
 9600SOL    HW229700   1.487   6.503   7.020
 9601SOL     OW29701   0.696   4.900   5.892
 9601SOL    HW129702   0.680   4.923   5.796
 9601SOL    HW229703   0.671   4.979   5.949
 9602SOL     OW29704   1.619   5.696   0.659
 9602SOL    HW129705   1.677   5.772   0.630
 9602SOL    HW229706   1.579   5.717   0.749
 9603SOL     OW29707   1.410   5.157   3.930
 9603SOL    HW129708   1.399   5.058   3.916
 9603SOL    HW229709   1.503   5.177   3.961
 9604SOL     OW29710   0.053   0.903   0.052
 9604SOL    HW129711   0.002   0.842   7.015
 9604SOL    HW229712   7.017   0.934   0.126
 9605SOL     OW29713   2.246   5.716   6.682
 9605SOL    HW129714   2.172   5.677   6.628
 9605SOL    HW229715   2.212   5.742   6.772
 9606SOL     OW29716   6.424   6.486   4.144
 9606SOL    HW129717   6.380   6.530   4.066
 9606SOL    HW229718   6.477   6.553   4.196
 9607SOL     OW29719   0.998   2.682   1.954
 9607SOL    HW129720   0.916   2.636   1.989
 9607SOL    HW229721   1.027   2.637   1.869
 9608SOL     OW29722   6.822   6.358   2.845
 9608SOL    HW129723   6.868   6.445   2.827
 9608SOL    HW229724   6.828   6.299   2.765
 9609SOL     OW29725   1.800   2.788   3.824
 9609SOL    HW129726   1.778   2.788   3.726
 9609SOL    HW229727   1.821   2.881   3.854
 9610SOL     OW29728   3.114   1.621   6.223
 9610SOL    HW129729   3.187   1.564   6.186
 9610SOL    HW229730   3.030   1.568   6.231
 9611SOL     OW29731   6.431   6.619   0.944
 9611SOL    HW129732   6.471   6.532   0.916
 9611SOL    HW229733   6.390   6.610   1.035
 9612SOL     OW29734   5.597   2.931   2.279
 9612SOL    HW129735   5.617   2.927   2.182
 9612SOL    HW229736   5.682   2.924   2.331
 9613SOL     OW29737   5.542   6.679   5.753
 9613SOL    HW129738   5.610   6.682   5.680
 9613SOL    HW229739   5.565   6.604   5.816
 9614SOL     OW29740   3.502   3.223   2.437
 9614SOL    HW129741   3.419   3.233   2.492
 9614SOL    HW229742   3.572   3.178   2.491
 9615SOL     OW29743   1.033   6.683   3.754
 9615SOL    HW129744   0.943   6.673   3.711
 9615SOL    HW229745   1.092   6.607   3.726
 9616SOL     OW29746   3.311   3.471   1.466
 9616SOL    HW129747   3.239   3.494   1.531
 9616SOL    HW229748   3.276   3.481   1.372
 9617SOL     OW29749   0.941   3.845   3.224
 9617SOL    HW129750   1.028   3.809   3.190
 9617SOL    HW229751   0.945   3.945   3.228
 9618SOL     OW29752   4.317   5.681   6.923
 9618SOL    HW129753   4.394   5.744   6.933
 9618SOL    HW229754   4.233   5.733   6.909
 9619SOL     OW29755   1.848   6.995   1.048
 9619SOL    HW129756   1.883   6.961   1.135
 9619SOL    HW229757   1.923   0.011   0.996
 9620SOL     OW29758   3.672   1.226   6.700
 9620SOL    HW129759   3.597   1.203   6.637
 9620SOL    HW229760   3.716   1.142   6.732
 9621SOL     OW29761   0.945   1.962   1.305
 9621SOL    HW129762   0.942   1.922   1.396
 9621SOL    HW229763   0.964   1.891   1.238
 9622SOL     OW29764   6.378   0.140   5.815
 9622SOL    HW129765   6.283   0.165   5.794
 9622SOL    HW229766   6.417   0.092   5.737
 9623SOL     OW29767   4.135   6.672   6.590
 9623SOL    HW129768   4.049   6.649   6.544
 9623SOL    HW229769   4.150   6.609   6.666
 9624SOL     OW29770   4.293   4.970   4.445
 9624SOL    HW129771   4.258   4.885   4.407
 9624SOL    HW229772   4.300   5.039   4.373
 9625SOL     OW29773   4.902   3.677   5.670
 9625SOL    HW129774   4.907   3.607   5.741
 9625SOL    HW229775   4.813   3.672   5.625
 9626SOL     OW29776   2.368   3.613   6.443
 9626SOL    HW129777   2.394   3.631   6.537
 9626SOL    HW229778   2.399   3.522   6.416
 9627SOL     OW29779   0.765   5.340   6.715
 9627SOL    HW129780   0.756   5.428   6.669
 9627SOL    HW229781   0.765   5.267   6.647
 9628SOL     OW29782   6.205   1.592   6.111
 9628SOL    HW129783   6.185   1.571   6.016
 9628SOL    HW229784   6.301   1.569   6.131
 9629SOL     OW29785   6.439   5.562   4.013
 9629SOL    HW129786   6.476   5.655   4.012
 9629SOL    HW229787   6.499   5.502   3.961
 9630SOL     OW29788   5.929   6.362   6.134
 9630SOL    HW129789   5.924   6.347   6.035
 9630SOL    HW229790   5.886   6.449   6.156
 9631SOL     OW29791   3.887   0.864   0.288
 9631SOL    HW129792   3.962   0.834   0.229
 9631SOL    HW229793   3.865   0.791   0.353
 9632SOL     OW29794   3.606   6.060   2.076
 9632SOL    HW129795   3.512   6.026   2.071
 9632SOL    HW229796   3.645   6.036   2.165
 9633SOL     OW29797   3.350   2.931   2.737
 9633SOL    HW129798   3.446   2.959   2.746
 9633SOL    HW229799   3.312   2.912   2.828
 9634SOL     OW29800   5.316   4.726   3.042
 9634SOL    HW129801   5.278   4.635   3.056
 9634SOL    HW229802   5.255   4.780   2.984
 9635SOL     OW29803   0.172   5.224   3.943
 9635SOL    HW129804   0.270   5.235   3.922
 9635SOL    HW229805   0.153   5.258   4.035
 9636SOL     OW29806   4.844   3.222   3.965
 9636SOL    HW129807   4.851   3.321   3.949
 9636SOL    HW229808   4.791   3.205   4.048
 9637SOL     OW29809   2.906   2.923   0.025
 9637SOL    HW129810   2.928   3.018   0.049
 9637SOL    HW229811   2.853   2.882   0.100
 9638SOL     OW29812   5.903   5.173   5.386
 9638SOL    HW129813   5.858   5.133   5.307
 9638SOL    HW229814   5.983   5.226   5.356
 9639SOL     OW29815   3.728   1.653   2.667
 9639SOL    HW129816   3.750   1.672   2.572
 9639SOL    HW229817   3.760   1.562   2.692
 9640SOL     OW29818   4.777   0.130   2.764
 9640SOL    HW129819   4.719   0.162   2.839
 9640SOL    HW229820   4.832   0.207   2.731
 9641SOL     OW29821   5.955   3.551   3.396
 9641SOL    HW129822   5.995   3.562   3.487
 9641SOL    HW229823   5.877   3.489   3.401
 9642SOL     OW29824   1.685   0.089   3.758
 9642SOL    HW129825   1.611   0.080   3.691
 9642SOL    HW229826   1.669   0.025   3.834
 9643SOL     OW29827   4.853   4.855   4.141
 9643SOL    HW129828   4.813   4.916   4.209
 9643SOL    HW229829   4.785   4.789   4.111
 9644SOL     OW29830   1.270   5.885   4.746
 9644SOL    HW129831   1.366   5.858   4.757
 9644SOL    HW229832   1.241   5.937   4.826
 9645SOL     OW29833   0.379   4.733   6.405
 9645SOL    HW129834   0.347   4.639   6.395
 9645SOL    HW229835   0.319   4.783   6.468
 9646SOL     OW29836   3.089   5.774   6.213
 9646SOL    HW129837   3.001   5.744   6.248
 9646SOL    HW229838   3.149   5.695   6.200
 9647SOL     OW29839   6.358   0.080   3.600
 9647SOL    HW129840   6.265   0.059   3.571
 9647SOL    HW229841   6.363   0.078   3.700
 9648SOL     OW29842   3.757   1.883   1.139
 9648SOL    HW129843   3.767   1.879   1.239
 9648SOL    HW229844   3.705   1.964   1.114
 9649SOL     OW29845   1.541   5.881   0.094
 9649SOL    HW129846   1.443   5.876   0.115
 9649SOL    HW229847   1.554   5.903   7.022
 9650SOL     OW29848   6.932   5.177   4.749
 9650SOL    HW129849   7.000   5.249   4.739
 9650SOL    HW229850   6.870   5.178   4.671
 9651SOL     OW29851   4.411   1.524   0.604
 9651SOL    HW129852   4.428   1.586   0.528
 9651SOL    HW229853   4.343   1.456   0.578
 9652SOL     OW29854   7.002   3.703   0.531
 9652SOL    HW129855   6.962   3.664   0.614
 9652SOL    HW229856   6.965   3.656   0.451
 9653SOL     OW29857   4.239   4.309   6.135
 9653SOL    HW129858   4.330   4.304   6.094
 9653SOL    HW229859   4.243   4.368   6.216
 9654SOL     OW29860   3.731   3.635   3.704
 9654SOL    HW129861   3.701   3.542   3.724
 9654SOL    HW229862   3.828   3.644   3.723
 9655SOL     OW29863   4.266   1.036   1.645
 9655SOL    HW129864   4.170   1.024   1.620
 9655SOL    HW229865   4.283   0.994   1.734
 9656SOL     OW29866   5.656   3.881   0.742
 9656SOL    HW129867   5.563   3.914   0.723
 9656SOL    HW229868   5.677   3.896   0.839
 9657SOL     OW29869   5.496   4.084   2.928
 9657SOL    HW129870   5.583   4.039   2.946
 9657SOL    HW229871   5.513   4.181   2.910
 9658SOL     OW29872   5.020   2.255   2.663
 9658SOL    HW129873   4.962   2.291   2.590
 9658SOL    HW229874   5.094   2.319   2.682
 9659SOL     OW29875   2.476   3.342   0.504
 9659SOL    HW129876   2.391   3.345   0.453
 9659SOL    HW229877   2.477   3.261   0.562
 9660SOL     OW29878   0.574   5.806   1.449
 9660SOL    HW129879   0.657   5.761   1.419
 9660SOL    HW229880   0.580   5.904   1.429
 9661SOL     OW29881   5.217   4.921   0.842
 9661SOL    HW129882   5.285   4.994   0.836
 9661SOL    HW229883   5.262   4.835   0.866
 9662SOL     OW29884   5.704   5.210   5.993
 9662SOL    HW129885   5.675   5.125   5.948
 9662SOL    HW229886   5.707   5.196   6.092
 9663SOL     OW29887   0.743   5.125   3.308
 9663SOL    HW129888   0.747   5.105   3.210
 9663SOL    HW229889   0.662   5.182   3.327
 9664SOL     OW29890   4.748   4.181   3.232
 9664SOL    HW129891   4.756   4.135   3.321
 9664SOL    HW229892   4.656   4.219   3.223
 9665SOL     OW29893   5.730   5.633   6.692
 9665SOL    HW129894   5.797   5.560   6.679
 9665SOL    HW229895   5.757   5.690   6.769
 9666SOL     OW29896   5.242   3.378   0.632
 9666SOL    HW129897   5.246   3.346   0.726
 9666SOL    HW229898   5.324   3.432   0.611
 9667SOL     OW29899   6.231   6.274   6.380
 9667SOL    HW129900   6.139   6.235   6.375
 9667SOL    HW229901   6.298   6.207   6.349
 9668SOL     OW29902   0.367   0.151   5.764
 9668SOL    HW129903   0.333   0.122   5.854
 9668SOL    HW229904   0.467   0.153   5.766
 9669SOL     OW29905   3.966   0.384   0.309
 9669SOL    HW129906   4.064   0.367   0.303
 9669SOL    HW229907   3.946   0.431   0.395
 9670SOL     OW29908   6.938   6.947   6.859
 9670SOL    HW129909   6.845   6.950   6.823
 9670SOL    HW229910   6.941   6.889   6.941
 9671SOL     OW29911   1.321   5.773   6.574
 9671SOL    HW129912   1.332   5.818   6.663
 9671SOL    HW229913   1.226   5.781   6.544
 9672SOL     OW29914   0.879   3.138   4.011
 9672SOL    HW129915   0.877   3.062   4.076
 9672SOL    HW229916   0.957   3.197   4.033
 9673SOL     OW29917   2.275   3.907   0.621
 9673SOL    HW129918   2.327   3.975   0.673
 9673SOL    HW229919   2.337   3.836   0.588
 9674SOL     OW29920   2.811   6.008   4.624
 9674SOL    HW129921   2.758   6.080   4.581
 9674SOL    HW229922   2.818   5.930   4.561
 9675SOL     OW29923   4.851   3.577   1.119
 9675SOL    HW129924   4.948   3.550   1.112
 9675SOL    HW229925   4.845   3.673   1.143
 9676SOL     OW29926   0.589   2.708   6.499
 9676SOL    HW129927   0.623   2.714   6.405
 9676SOL    HW229928   0.633   2.630   6.545
 9677SOL     OW29929   6.678   5.307   0.677
 9677SOL    HW129930   6.717   5.340   0.763
 9677SOL    HW229931   6.623   5.226   0.694
 9678SOL     OW29932   3.904   3.242   4.897
 9678SOL    HW129933   3.985   3.294   4.922
 9678SOL    HW229934   3.910   3.215   4.801
 9679SOL     OW29935   2.128   1.546   4.891
 9679SOL    HW129936   2.131   1.534   4.792
 9679SOL    HW229937   2.183   1.475   4.934
 9680SOL     OW29938   4.679   5.512   2.648
 9680SOL    HW129939   4.731   5.592   2.617
 9680SOL    HW229940   4.726   5.429   2.619
 9681SOL     OW29941   1.467   1.781   2.877
 9681SOL    HW129942   1.522   1.786   2.794
 9681SOL    HW229943   1.512   1.832   2.950
 9682SOL     OW29944   5.396   5.449   5.295
 9682SOL    HW129945   5.346   5.472   5.212
 9682SOL    HW229946   5.463   5.521   5.314
 9683SOL     OW29947   3.346   5.977   2.002
 9683SOL    HW129948   3.310   5.919   1.929
 9683SOL    HW229949   3.309   6.070   1.992
 9684SOL     OW29950   0.783   3.618   5.525
 9684SOL    HW129951   0.810   3.562   5.447
 9684SOL    HW229952   0.727   3.564   5.588
 9685SOL     OW29953   3.832   4.680   1.296
 9685SOL    HW129954   3.783   4.721   1.218
 9685SOL    HW229955   3.930   4.683   1.278
 9686SOL     OW29956   0.058   1.760   5.782
 9686SOL    HW129957   0.085   1.668   5.810
 9686SOL    HW229958   6.989   1.779   5.812
 9687SOL     OW29959   5.722   1.009   2.094
 9687SOL    HW129960   5.809   0.994   2.141
 9687SOL    HW229961   5.670   1.080   2.142
 9688SOL     OW29962   0.022   4.393   1.026
 9688SOL    HW129963   7.003   4.402   1.115
 9688SOL    HW229964   0.046   4.298   1.008
 9689SOL     OW29965   1.554   6.290   0.648
 9689SOL    HW129966   1.496   6.346   0.707
 9689SOL    HW229967   1.639   6.340   0.628
 9690SOL     OW29968   6.129   5.327   5.326
 9690SOL    HW129969   6.219   5.306   5.365
 9690SOL    HW229970   6.137   5.338   5.227
 9691SOL     OW29971   3.115   3.920   2.038
 9691SOL    HW129972   3.199   3.958   1.999
 9691SOL    HW229973   3.100   3.957   2.129
 9692SOL     OW29974   4.959   5.080   1.341
 9692SOL    HW129975   4.936   5.149   1.409
 9692SOL    HW229976   4.878   5.063   1.284
 9693SOL     OW29977   5.424   3.918   4.719
 9693SOL    HW129978   5.467   4.006   4.739
 9693SOL    HW229979   5.340   3.908   4.773
 9694SOL     OW29980   3.385   6.986   2.246
 9694SOL    HW129981   3.472   6.972   2.295
 9694SOL    HW229982   3.333   6.901   2.245
 9695SOL     OW29983   0.849   2.327   3.501
 9695SOL    HW129984   0.820   2.235   3.475
 9695SOL    HW229985   0.930   2.353   3.448
 9696SOL     OW29986   5.909   2.373   2.469
 9696SOL    HW129987   5.878   2.461   2.503
 9696SOL    HW229988   5.837   2.305   2.483
 9697SOL     OW29989   1.226   6.179   0.750
 9697SOL    HW129990   1.233   6.249   0.679
 9697SOL    HW229991   1.264   6.093   0.716
 9698SOL     OW29992   5.520   3.025   0.654
 9698SOL    HW129993   5.498   3.045   0.749
 9698SOL    HW229994   5.536   2.927   0.643
 9699SOL     OW29995   1.282   5.301   1.229
 9699SOL    HW129996   1.232   5.230   1.178
 9699SOL    HW229997   1.280   5.279   1.327
 9700SOL     OW29998   5.450   0.364   5.213
 9700SOL    HW129999   5.456   0.310   5.129
 9700SOL    HW230000   5.406   0.452   5.193
 9701SOL     OW30001   4.318   3.247   6.330
 9701SOL    HW130002   4.264   3.190   6.392
 9701SOL    HW230003   4.411   3.209   6.324
 9702SOL     OW30004   3.843   3.035   1.221
 9702SOL    HW130005   3.748   3.046   1.191
 9702SOL    HW230006   3.902   3.095   1.167
 9703SOL     OW30007   6.898   4.113   4.800
 9703SOL    HW130008   6.851   4.135   4.886
 9703SOL    HW230009   6.882   4.186   4.734
 9704SOL     OW30010   2.308   4.157   2.821
 9704SOL    HW130011   2.283   4.081   2.761
 9704SOL    HW230012   2.291   4.130   2.916
 9705SOL     OW30013   6.384   3.148   5.590
 9705SOL    HW130014   6.296   3.165   5.546
 9705SOL    HW230015   6.371   3.140   5.689
 9706SOL     OW30016   1.353   1.515   2.453
 9706SOL    HW130017   1.294   1.493   2.375
 9706SOL    HW230018   1.388   1.608   2.443
 9707SOL     OW30019   7.018   5.271   2.513
 9707SOL    HW130020   0.065   5.254   2.444
 9707SOL    HW230021   0.009   5.212   2.592
 9708SOL     OW30022   2.329   0.245   2.619
 9708SOL    HW130023   2.295   0.176   2.555
 9708SOL    HW230024   2.267   0.324   2.619
 9709SOL     OW30025   5.833   1.750   2.316
 9709SOL    HW130026   5.879   1.827   2.361
 9709SOL    HW230027   5.877   1.732   2.228
 9710SOL     OW30028   6.251   5.775   3.850
 9710SOL    HW130029   6.159   5.765   3.813
 9710SOL    HW230030   6.246   5.811   3.943
 9711SOL     OW30031   4.018   0.180   6.830
 9711SOL    HW130032   4.097   0.240   6.815
 9711SOL    HW230033   4.050   0.086   6.844
 9712SOL     OW30034   5.566   1.647   0.050
 9712SOL    HW130035   5.637   1.580   0.068
 9712SOL    HW230036   5.489   1.632   0.112
 9713SOL     OW30037   1.079   6.491   3.232
 9713SOL    HW130038   1.099   6.557   3.305
 9713SOL    HW230039   1.117   6.525   3.146
 9714SOL     OW30040   2.336   4.650   4.206
 9714SOL    HW130041   2.405   4.660   4.278
 9714SOL    HW230042   2.335   4.555   4.174
 9715SOL     OW30043   6.117   3.769   0.162
 9715SOL    HW130044   6.171   3.708   0.220
 9715SOL    HW230045   6.113   3.733   0.069
 9716SOL     OW30046   2.618   5.234   0.102
 9716SOL    HW130047   2.657   5.142   0.111
 9716SOL    HW230048   2.572   5.259   0.187
 9717SOL     OW30049   4.334   1.017   5.346
 9717SOL    HW130050   4.320   1.028   5.445
 9717SOL    HW230051   4.262   0.959   5.309
 9718SOL     OW30052   3.499   2.517   0.023
 9718SOL    HW130053   3.473   2.553   0.113
 9718SOL    HW230054   3.436   2.553   6.978
 9719SOL     OW30055   4.588   6.382   5.013
 9719SOL    HW130056   4.586   6.445   5.091
 9719SOL    HW230057   4.607   6.433   4.930
 9720SOL     OW30058   2.212   3.927   3.311
 9720SOL    HW130059   2.272   3.858   3.270
 9720SOL    HW230060   2.119   3.891   3.317
 9721SOL     OW30061   0.771   1.535   0.470
 9721SOL    HW130062   0.712   1.522   0.549
 9721SOL    HW230063   0.756   1.626   0.431
 9722SOL     OW30064   4.034   2.978   5.361
 9722SOL    HW130065   4.104   2.916   5.326
 9722SOL    HW230066   4.047   3.069   5.321
 9723SOL     OW30067   6.600   6.095   4.397
 9723SOL    HW130068   6.513   6.134   4.368
 9723SOL    HW230069   6.585   6.035   4.476
 9724SOL     OW30070   1.301   5.397   0.164
 9724SOL    HW130071   1.274   5.300   0.168
 9724SOL    HW230072   1.260   5.446   0.240
 9725SOL     OW30073   3.408   5.261   5.227
 9725SOL    HW130074   3.309   5.264   5.211
 9725SOL    HW230075   3.426   5.276   5.324
 9726SOL     OW30076   6.109   1.457   4.130
 9726SOL    HW130077   6.199   1.493   4.105
 9726SOL    HW230078   6.067   1.516   4.199
 9727SOL     OW30079   0.778   1.296   0.296
 9727SOL    HW130080   0.800   1.394   0.301
 9727SOL    HW230081   0.858   1.242   0.322
 9728SOL     OW30082   4.575   0.808   5.707
 9728SOL    HW130083   4.644   0.879   5.717
 9728SOL    HW230084   4.488   0.839   5.744
 9729SOL     OW30085   0.232   5.214   3.283
 9729SOL    HW130086   0.160   5.282   3.294
 9729SOL    HW230087   0.234   5.155   3.364
 9730SOL     OW30088   6.805   4.321   3.601
 9730SOL    HW130089   6.861   4.241   3.622
 9730SOL    HW230090   6.771   4.361   3.687
 9731SOL     OW30091   4.974   3.419   2.316
 9731SOL    HW130092   4.949   3.484   2.244
 9731SOL    HW230093   4.932   3.330   2.296
 9732SOL     OW30094   1.036   2.900   2.579
 9732SOL    HW130095   1.123   2.909   2.529
 9732SOL    HW230096   1.022   2.805   2.604
 9733SOL     OW30097   6.723   4.875   2.422
 9733SOL    HW130098   6.669   4.843   2.344
 9733SOL    HW230099   6.689   4.832   2.506
 9734SOL     OW30100   6.366   6.084   5.833
 9734SOL    HW130101   6.465   6.090   5.844
 9734SOL    HW230102   6.327   6.028   5.906
 9735SOL     OW30103   1.424   2.590   2.129
 9735SOL    HW130104   1.466   2.503   2.153
 9735SOL    HW230105   1.410   2.594   2.030
 9736SOL     OW30106   4.638   2.033   4.915
 9736SOL    HW130107   4.734   2.008   4.905
 9736SOL    HW230108   4.630   2.118   4.966
 9737SOL     OW30109   5.835   2.613   2.554
 9737SOL    HW130110   5.742   2.597   2.586
 9737SOL    HW230111   5.842   2.706   2.517
 9738SOL     OW30112   1.769   5.564   2.082
 9738SOL    HW130113   1.698   5.634   2.087
 9738SOL    HW230114   1.804   5.546   2.174
 9739SOL     OW30115   5.751   0.048   0.191
 9739SOL    HW130116   5.714   0.007   0.108
 9739SOL    HW230117   5.820   0.116   0.166
 9740SOL     OW30118   6.674   0.875   1.914
 9740SOL    HW130119   6.653   0.960   1.865
 9740SOL    HW230120   6.733   0.817   1.857
 9741SOL     OW30121   2.738   1.473   4.851
 9741SOL    HW130122   2.800   1.467   4.930
 9741SOL    HW230123   2.782   1.433   4.771
 9742SOL     OW30124   4.175   2.263   6.297
 9742SOL    HW130125   4.184   2.338   6.231
 9742SOL    HW230126   4.245   2.274   6.369
 9743SOL     OW30127   5.875   3.399   3.981
 9743SOL    HW130128   5.846   3.314   4.026
 9743SOL    HW230129   5.974   3.408   3.988
 9744SOL     OW30130   1.979   0.408   3.906
 9744SOL    HW130131   1.987   0.367   3.815
 9744SOL    HW230132   2.005   0.341   3.975
 9745SOL     OW30133   6.671   0.953   5.224
 9745SOL    HW130134   6.675   0.994   5.316
 9745SOL    HW230135   6.757   0.904   5.207
 9746SOL     OW30136   4.146   5.622   6.241
 9746SOL    HW130137   4.075   5.554   6.255
 9746SOL    HW230138   4.206   5.593   6.166
 9747SOL     OW30139   2.332   2.740   2.993
 9747SOL    HW130140   2.427   2.711   2.992
 9747SOL    HW230141   2.312   2.788   3.079
 9748SOL     OW30142   1.255   0.764   2.908
 9748SOL    HW130143   1.300   0.852   2.927
 9748SOL    HW230144   1.218   0.765   2.815
 9749SOL     OW30145   6.765   1.498   1.856
 9749SOL    HW130146   6.736   1.402   1.862
 9749SOL    HW230147   6.853   1.503   1.808
 9750SOL     OW30148   6.931   4.748   3.984
 9750SOL    HW130149   6.965   4.700   4.065
 9750SOL    HW230150   7.007   4.798   3.942
 9751SOL     OW30151   2.459   1.277   1.747
 9751SOL    HW130152   2.483   1.208   1.680
 9751SOL    HW230153   2.489   1.247   1.838
 9752SOL     OW30154   3.408   3.295   6.956
 9752SOL    HW130155   3.453   3.208   6.972
 9752SOL    HW230156   3.327   3.302   7.014
 9753SOL     OW30157   6.349   6.005   4.891
 9753SOL    HW130158   6.302   5.968   4.971
 9753SOL    HW230159   6.368   5.931   4.826
 9754SOL     OW30160   3.500   1.330   1.191
 9754SOL    HW130161   3.531   1.248   1.143
 9754SOL    HW230162   3.460   1.304   1.279
 9755SOL     OW30163   2.987   4.276   6.359
 9755SOL    HW130164   3.010   4.250   6.453
 9755SOL    HW230165   2.892   4.253   6.340
 9756SOL     OW30166   6.174   0.282   6.053
 9756SOL    HW130167   6.114   0.361   6.043
 9756SOL    HW230168   6.207   0.254   5.963
 9757SOL     OW30169   5.102   4.262   3.810
 9757SOL    HW130170   5.088   4.327   3.885
 9757SOL    HW230171   5.046   4.180   3.826
 9758SOL     OW30172   1.755   0.707   1.325
 9758SOL    HW130173   1.711   0.757   1.250
 9758SOL    HW230174   1.848   0.682   1.298
 9759SOL     OW30175   0.406   0.700   0.924
 9759SOL    HW130176   0.311   0.728   0.914
 9759SOL    HW230177   0.436   0.654   0.840
 9760SOL     OW30178   4.654   2.164   0.307
 9760SOL    HW130179   4.700   2.202   0.227
 9760SOL    HW230180   4.714   2.170   0.387
 9761SOL     OW30181   1.050   2.549   1.503
 9761SOL    HW130182   0.965   2.512   1.465
 9761SOL    HW230183   1.093   2.609   1.435
 9762SOL     OW30184   2.414   1.559   5.549
 9762SOL    HW130185   2.396   1.617   5.469
 9762SOL    HW230186   2.334   1.503   5.568
 9763SOL     OW30187   6.274   1.297   0.812
 9763SOL    HW130188   6.186   1.342   0.796
 9763SOL    HW230189   6.322   1.344   0.886
 9764SOL     OW30190   5.497   2.161   2.299
 9764SOL    HW130191   5.410   2.150   2.252
 9764SOL    HW230192   5.548   2.075   2.297
 9765SOL     OW30193   6.688   0.939   1.113
 9765SOL    HW130194   6.604   0.954   1.167
 9765SOL    HW230195   6.765   0.925   1.175
 9766SOL     OW30196   2.155   1.196   4.640
 9766SOL    HW130197   2.123   1.124   4.578
 9766SOL    HW230198   2.081   1.262   4.655
 9767SOL     OW30199   2.125   3.021   5.933
 9767SOL    HW130200   2.210   2.979   5.964
 9767SOL    HW230201   2.141   3.072   5.849
 9768SOL     OW30202   6.050   2.301   1.150
 9768SOL    HW130203   5.951   2.293   1.138
 9768SOL    HW230204   6.075   2.273   1.243
 9769SOL     OW30205   3.027   1.845   4.906
 9769SOL    HW130206   2.942   1.793   4.895
 9769SOL    HW230207   3.006   1.941   4.924
 9770SOL     OW30208   2.996   2.084   6.163
 9770SOL    HW130209   2.957   2.174   6.145
 9770SOL    HW230210   2.961   2.019   6.096
 9771SOL     OW30211   3.090   6.070   3.175
 9771SOL    HW130212   3.163   6.003   3.185
 9771SOL    HW230213   3.101   6.119   3.089
 9772SOL     OW30214   1.161   6.940   1.619
 9772SOL    HW130215   1.225   6.912   1.690
 9772SOL    HW230216   1.076   6.889   1.629
 9773SOL     OW30217   5.025   5.174   2.016
 9773SOL    HW130218   4.936   5.193   2.058
 9773SOL    HW230219   5.058   5.084   2.047
 9774SOL     OW30220   0.828   5.445   4.509
 9774SOL    HW130221   0.749   5.418   4.454
 9774SOL    HW230222   0.889   5.501   4.452
 9775SOL     OW30223   2.052   1.258   3.945
 9775SOL    HW130224   1.974   1.196   3.958
 9775SOL    HW230225   2.059   1.321   4.022
 9776SOL     OW30226   1.635   6.099   6.639
 9776SOL    HW130227   1.730   6.120   6.614
 9776SOL    HW230228   1.578   6.103   6.557
 9777SOL     OW30229   4.671   0.571   5.844
 9777SOL    HW130230   4.660   0.663   5.806
 9777SOL    HW230231   4.583   0.523   5.839
 9778SOL     OW30232   0.306   2.901   4.382
 9778SOL    HW130233   0.371   2.858   4.319
 9778SOL    HW230234   0.272   2.833   4.447
 9779SOL     OW30235   1.654   0.910   3.892
 9779SOL    HW130236   1.606   0.833   3.936
 9779SOL    HW230237   1.587   0.968   3.845
 9780SOL     OW30238   1.928   2.459   1.613
 9780SOL    HW130239   1.888   2.512   1.539
 9780SOL    HW230240   1.977   2.520   1.676
 9781SOL     OW30241   1.778   2.760   3.560
 9781SOL    HW130242   1.771   2.847   3.513
 9781SOL    HW230243   1.691   2.710   3.551
 9782SOL     OW30244   0.218   2.588   1.704
 9782SOL    HW130245   0.184   2.656   1.639
 9782SOL    HW230246   0.291   2.629   1.759
 9783SOL     OW30247   3.265   1.541   2.882
 9783SOL    HW130248   3.251   1.480   2.960
 9783SOL    HW230249   3.176   1.570   2.846
 9784SOL     OW30250   2.180   1.493   0.076
 9784SOL    HW130251   2.140   1.580   0.107
 9784SOL    HW230252   2.179   1.428   0.152
 9785SOL     OW30253   0.192   2.512   4.197
 9785SOL    HW130254   0.110   2.465   4.231
 9785SOL    HW230255   0.174   2.610   4.192
 9786SOL     OW30256   2.206   4.682   1.239
 9786SOL    HW130257   2.193   4.584   1.227
 9786SOL    HW230258   2.282   4.713   1.183
 9787SOL     OW30259   3.848   3.365   2.789
 9787SOL    HW130260   3.946   3.379   2.776
 9787SOL    HW230261   3.818   3.414   2.871
 9788SOL     OW30262   6.362   6.552   1.218
 9788SOL    HW130263   6.421   6.576   1.295
 9788SOL    HW230264   6.266   6.562   1.246
 9789SOL     OW30265   3.527   0.424   6.570
 9789SOL    HW130266   3.575   0.482   6.636
 9789SOL    HW230267   3.592   0.391   6.501
 9790SOL     OW30268   0.282   4.443   4.531
 9790SOL    HW130269   0.307   4.518   4.592
 9790SOL    HW230270   0.308   4.466   4.437
 9791SOL     OW30271   1.218   6.419   1.326
 9791SOL    HW130272   1.302   6.413   1.380
 9791SOL    HW230273   1.207   6.513   1.291
 9792SOL     OW30274   3.623   5.877   0.982
 9792SOL    HW130275   3.604   5.780   0.996
 9792SOL    HW230276   3.537   5.928   0.981
 9793SOL     OW30277   4.559   1.580   2.696
 9793SOL    HW130278   4.535   1.638   2.618
 9793SOL    HW230279   4.548   1.632   2.781
 9794SOL     OW30280   5.110   4.567   4.624
 9794SOL    HW130281   5.207   4.551   4.605
 9794SOL    HW230282   5.078   4.500   4.691
 9795SOL     OW30283   1.457   3.672   3.821
 9795SOL    HW130284   1.393   3.748   3.811
 9795SOL    HW230285   1.475   3.632   3.731
 9796SOL     OW30286   3.163   3.326   3.164
 9796SOL    HW130287   3.096   3.278   3.221
 9796SOL    HW230288   3.170   3.422   3.194
 9797SOL     OW30289   3.417   6.770   6.297
 9797SOL    HW130290   3.381   6.709   6.367
 9797SOL    HW230291   3.503   6.733   6.261
 9798SOL     OW30292   1.081   3.162   0.186
 9798SOL    HW130293   1.082   3.104   0.104
 9798SOL    HW230294   0.988   3.191   0.205
 9799SOL     OW30295   2.335   7.007   6.140
 9799SOL    HW130296   2.380   6.920   6.124
 9799SOL    HW230297   2.374   0.053   6.079
 9800SOL     OW30298   6.187   3.443   4.943
 9800SOL    HW130299   6.096   3.483   4.932
 9800SOL    HW230300   6.181   3.363   5.003
 9801SOL     OW30301   6.473   5.830   6.942
 9801SOL    HW130302   6.489   5.772   7.023
 9801SOL    HW230303   6.385   5.808   6.902
 9802SOL     OW30304   4.328   4.668   0.510
 9802SOL    HW130305   4.394   4.614   0.458
 9802SOL    HW230306   4.364   4.685   0.602
 9803SOL     OW30307   0.505   3.911   6.664
 9803SOL    HW130308   0.586   3.926   6.722
 9803SOL    HW230309   0.534   3.876   6.575
 9804SOL     OW30310   6.803   5.387   2.023
 9804SOL    HW130311   6.851   5.309   1.982
 9804SOL    HW230312   6.783   5.454   1.951
 9805SOL     OW30313   0.730   6.664   3.905
 9805SOL    HW130314   0.795   6.597   3.942
 9805SOL    HW230315   0.675   6.622   3.833
 9806SOL     OW30316   3.184   2.299   5.928
 9806SOL    HW130317   3.159   2.203   5.942
 9806SOL    HW230318   3.158   2.352   6.009
 9807SOL     OW30319   2.884   3.672   2.040
 9807SOL    HW130320   2.916   3.717   2.124
 9807SOL    HW230321   2.947   3.691   1.966
 9808SOL     OW30322   4.921   6.633   3.703
 9808SOL    HW130323   4.887   6.725   3.682
 9808SOL    HW230324   4.882   6.602   3.790
 9809SOL     OW30325   6.983   3.038   0.746
 9809SOL    HW130326   7.014   3.132   0.730
 9809SOL    HW230327   0.018   2.994   0.813
 9810SOL     OW30328   1.901   1.510   6.330
 9810SOL    HW130329   1.924   1.607   6.321
 9810SOL    HW230330   1.884   1.471   6.240
 9811SOL     OW30331   5.951   4.088   3.924
 9811SOL    HW130332   6.043   4.077   3.886
 9811SOL    HW230333   5.952   4.156   3.997
 9812SOL     OW30334   2.716   6.194   4.815
 9812SOL    HW130335   2.730   6.102   4.777
 9812SOL    HW230336   2.761   6.261   4.756
 9813SOL     OW30337   4.761   2.053   1.204
 9813SOL    HW130338   4.727   2.147   1.202
 9813SOL    HW230339   4.802   2.034   1.293
 9814SOL     OW30340   5.640   0.858   0.139
 9814SOL    HW130341   5.595   0.945   0.158
 9814SOL    HW230342   5.738   0.872   0.127
 9815SOL     OW30343   4.090   2.212   4.727
 9815SOL    HW130344   4.118   2.270   4.651
 9815SOL    HW230345   4.032   2.138   4.692
 9816SOL     OW30346   1.381   0.079   0.595
 9816SOL    HW130347   1.384   0.037   0.686
 9816SOL    HW230348   1.322   0.160   0.598
 9817SOL     OW30349   0.293   0.067   3.707
 9817SOL    HW130350   0.328   0.007   3.779
 9817SOL    HW230351   0.367   0.088   3.643
 9818SOL     OW30352   6.286   2.750   4.484
 9818SOL    HW130353   6.250   2.808   4.410
 9818SOL    HW230354   6.260   2.655   4.466
 9819SOL     OW30355   3.789   1.702   3.566
 9819SOL    HW130356   3.810   1.635   3.637
 9819SOL    HW230357   3.699   1.682   3.527
 9820SOL     OW30358   4.065   4.137   6.231
 9820SOL    HW130359   4.122   4.203   6.182
 9820SOL    HW230360   3.971   4.171   6.235
 9821SOL     OW30361   5.346   5.933   6.597
 9821SOL    HW130362   5.318   6.004   6.532
 9821SOL    HW230363   5.309   5.954   6.687
 9822SOL     OW30364   0.838   6.915   3.230
 9822SOL    HW130365   0.810   6.942   3.322
 9822SOL    HW230366   0.866   6.996   3.179
 9823SOL     OW30367   3.482   0.754   1.826
 9823SOL    HW130368   3.516   0.672   1.780
 9823SOL    HW230369   3.550   0.827   1.817
 9824SOL     OW30370   1.543   4.258   5.151
 9824SOL    HW130371   1.561   4.309   5.068
 9824SOL    HW230372   1.583   4.306   5.229
 9825SOL     OW30373   3.801   4.595   5.410
 9825SOL    HW130374   3.757   4.662   5.350
 9825SOL    HW230375   3.890   4.631   5.440
 9826SOL     OW30376   4.528   6.661   6.277
 9826SOL    HW130377   4.433   6.641   6.253
 9826SOL    HW230378   4.589   6.626   6.205
 9827SOL     OW30379   1.683   4.036   5.104
 9827SOL    HW130380   1.626   4.114   5.130
 9827SOL    HW230381   1.773   4.069   5.075
 9828SOL     OW30382   4.317   2.328   0.151
 9828SOL    HW130383   4.400   2.376   0.123
 9828SOL    HW230384   4.339   2.235   0.180
 9829SOL     OW30385   2.605   6.222   6.908
 9829SOL    HW130386   2.544   6.202   6.985
 9829SOL    HW230387   2.559   6.196   6.823
 9830SOL     OW30388   5.662   1.373   1.103
 9830SOL    HW130389   5.628   1.280   1.120
 9830SOL    HW230390   5.758   1.379   1.129
 9831SOL     OW30391   1.376   6.392   1.539
 9831SOL    HW130392   1.404   6.300   1.567
 9831SOL    HW230393   1.436   6.460   1.582
 9832SOL     OW30394   4.424   5.281   1.522
 9832SOL    HW130395   4.399   5.186   1.537
 9832SOL    HW230396   4.518   5.287   1.490
 9833SOL     OW30397   3.607   3.928   5.151
 9833SOL    HW130398   3.621   3.936   5.250
 9833SOL    HW230399   3.509   3.930   5.132
 9834SOL     OW30400   1.885   4.081   5.529
 9834SOL    HW130401   1.803   4.138   5.529
 9834SOL    HW230402   1.966   4.139   5.526
 9835SOL     OW30403   5.400   1.790   4.188
 9835SOL    HW130404   5.380   1.836   4.275
 9835SOL    HW230405   5.352   1.836   4.114
 9836SOL     OW30406   5.288   3.709   2.955
 9836SOL    HW130407   5.293   3.801   2.917
 9836SOL    HW230408   5.380   3.673   2.968
 9837SOL     OW30409   2.179   6.854   3.916
 9837SOL    HW130410   2.142   6.762   3.906
 9837SOL    HW230411   2.114   6.910   3.967
 9838SOL     OW30412   0.864   6.426   6.420
 9838SOL    HW130413   0.943   6.488   6.419
 9838SOL    HW230414   0.836   6.407   6.326
 9839SOL     OW30415   6.453   1.881   1.813
 9839SOL    HW130416   6.454   1.781   1.802
 9839SOL    HW230417   6.547   1.913   1.829
 9840SOL     OW30418   0.221   0.395   0.899
 9840SOL    HW130419   0.318   0.406   0.921
 9840SOL    HW230420   0.179   0.484   0.884
 9841SOL     OW30421   1.529   4.130   4.836
 9841SOL    HW130422   1.474   4.079   4.902
 9841SOL    HW230423   1.613   4.080   4.817
 9842SOL     OW30424   3.368   3.177   3.059
 9842SOL    HW130425   3.344   3.081   3.043
 9842SOL    HW230426   3.284   3.229   3.076
 9843SOL     OW30427   6.699   1.566   1.294
 9843SOL    HW130428   6.702   1.655   1.250
 9843SOL    HW230429   6.686   1.578   1.393
 9844SOL     OW30430   4.663   6.792   2.540
 9844SOL    HW130431   4.728   6.773   2.613
 9844SOL    HW230432   4.705   6.769   2.452
 9845SOL     OW30433   2.518   1.687   4.672
 9845SOL    HW130434   2.533   1.782   4.700
 9845SOL    HW230435   2.446   1.647   4.729
 9846SOL     OW30436   2.975   3.682   3.403
 9846SOL    HW130437   2.927   3.623   3.338
 9846SOL    HW230438   2.955   3.652   3.497
 9847SOL     OW30439   2.667   2.805   6.358
 9847SOL    HW130440   2.759   2.841   6.377
 9847SOL    HW230441   2.616   2.799   6.444
 9848SOL     OW30442   4.723   2.947   6.496
 9848SOL    HW130443   4.808   2.908   6.531
 9848SOL    HW230444   4.712   3.041   6.530
 9849SOL     OW30445   6.435   0.246   6.713
 9849SOL    HW130446   6.372   0.316   6.682
 9849SOL    HW230447   6.438   0.171   6.647
 9850SOL     OW30448   4.273   6.671   2.771
 9850SOL    HW130449   4.321   6.647   2.855
 9850SOL    HW230450   4.176   6.683   2.790
 9851SOL     OW30451   4.703   2.018   5.490
 9851SOL    HW130452   4.738   2.024   5.396
 9851SOL    HW230453   4.753   2.083   5.548
 9852SOL     OW30454   4.588   2.113   3.579
 9852SOL    HW130455   4.489   2.106   3.571
 9852SOL    HW230456   4.622   2.182   3.515
 9853SOL     OW30457   5.206   4.015   2.078
 9853SOL    HW130458   5.144   4.083   2.038
 9853SOL    HW230459   5.182   4.001   2.174
 9854SOL     OW30460   5.851   5.669   4.860
 9854SOL    HW130461   5.834   5.764   4.834
 9854SOL    HW230462   5.947   5.658   4.885
 9855SOL     OW30463   0.929   4.237   1.087
 9855SOL    HW130464   0.963   4.285   1.168
 9855SOL    HW230465   0.906   4.143   1.111
 9856SOL     OW30466   3.983   4.089   0.747
 9856SOL    HW130467   4.008   4.055   0.837
 9856SOL    HW230468   3.941   4.016   0.694
 9857SOL     OW30469   5.505   1.917   2.817
 9857SOL    HW130470   5.491   2.016   2.815
 9857SOL    HW230471   5.602   1.897   2.826
 9858SOL     OW30472   4.768   0.621   1.929
 9858SOL    HW130473   4.727   0.645   2.017
 9858SOL    HW230474   4.742   0.689   1.860
 9859SOL     OW30475   5.762   0.527   1.309
 9859SOL    HW130476   5.694   0.456   1.291
 9859SOL    HW230477   5.817   0.541   1.227
 9860SOL     OW30478   0.314   0.834   1.424
 9860SOL    HW130479   0.399   0.860   1.469
 9860SOL    HW230480   0.237   0.850   1.487
 9861SOL     OW30481   3.724   6.107   4.908
 9861SOL    HW130482   3.677   6.194   4.893
 9861SOL    HW230483   3.683   6.037   4.850
 9862SOL     OW30484   2.484   3.765   0.556
 9862SOL    HW130485   2.548   3.841   0.546
 9862SOL    HW230486   2.524   3.696   0.617
 9863SOL     OW30487   3.605   7.008   2.652
 9863SOL    HW130488   3.591   6.939   2.722
 9863SOL    HW230489   3.538   0.058   2.664
 9864SOL     OW30490   4.665   6.003   3.752
 9864SOL    HW130491   4.629   5.999   3.658
 9864SOL    HW230492   4.763   5.982   3.751
 9865SOL     OW30493   0.622   0.428   3.654
 9865SOL    HW130494   0.533   0.462   3.686
 9865SOL    HW230495   0.678   0.403   3.733
 9866SOL     OW30496   4.828   4.022   4.440
 9866SOL    HW130497   4.849   3.946   4.377
 9866SOL    HW230498   4.862   4.000   4.531
 9867SOL     OW30499   4.197   1.416   0.468
 9867SOL    HW130500   4.213   1.377   0.378
 9867SOL    HW230501   4.111   1.382   0.505
 9868SOL     OW30502   0.774   4.538   7.003
 9868SOL    HW130503   0.766   4.461   6.940
 9868SOL    HW230504   0.682   4.569   0.006
 9869SOL     OW30505   1.792   3.960   3.689
 9869SOL    HW130506   1.876   3.983   3.639
 9869SOL    HW230507   1.816   3.925   3.780
 9870SOL     OW30508   4.884   5.768   2.639
 9870SOL    HW130509   4.933   5.721   2.713
 9870SOL    HW230510   4.950   5.817   2.582
 9871SOL     OW30511   1.514   0.615   5.879
 9871SOL    HW130512   1.450   0.608   5.803
 9871SOL    HW230513   1.583   0.685   5.858
 9872SOL     OW30514   2.649   4.948   3.054
 9872SOL    HW130515   2.730   4.892   3.036
 9872SOL    HW230516   2.578   4.891   3.095
 9873SOL     OW30517   2.323   3.019   0.413
 9873SOL    HW130518   2.241   3.069   0.386
 9873SOL    HW230519   2.356   3.054   0.501
 9874SOL     OW30520   0.853   1.970   3.967
 9874SOL    HW130521   0.893   1.881   3.945
 9874SOL    HW230522   0.753   1.964   3.958
 9875SOL     OW30523   0.492   0.993   1.881
 9875SOL    HW130524   0.579   0.963   1.921
 9875SOL    HW230525   0.507   1.075   1.826
 9876SOL     OW30526   6.354   0.540   2.200
 9876SOL    HW130527   6.430   0.583   2.249
 9876SOL    HW230528   6.305   0.478   2.262
 9877SOL     OW30529   2.972   6.518   2.756
 9877SOL    HW130530   2.873   6.532   2.763
 9877SOL    HW230531   3.019   6.575   2.823
 9878SOL     OW30532   1.937   5.645   6.241
 9878SOL    HW130533   1.933   5.680   6.147
 9878SOL    HW230534   1.850   5.660   6.286
 9879SOL     OW30535   5.491   5.293   4.657
 9879SOL    HW130536   5.557   5.329   4.591
 9879SOL    HW230537   5.445   5.369   4.702
 9880SOL     OW30538   1.633   3.025   5.299
 9880SOL    HW130539   1.724   3.054   5.268
 9880SOL    HW230540   1.607   3.076   5.381
 9881SOL     OW30541   1.580   2.397   4.807
 9881SOL    HW130542   1.511   2.450   4.855
 9881SOL    HW230543   1.670   2.416   4.845
 9882SOL     OW30544   0.964   2.478   4.101
 9882SOL    HW130545   0.966   2.575   4.127
 9882SOL    HW230546   1.046   2.457   4.048
 9883SOL     OW30547   1.256   0.060   1.409
 9883SOL    HW130548   1.217   7.014   1.469
 9883SOL    HW230549   1.184   0.123   1.380
 9884SOL     OW30550   4.102   1.536   3.712
 9884SOL    HW130551   4.016   1.492   3.738
 9884SOL    HW230552   4.088   1.589   3.629
 9885SOL     OW30553   6.603   4.534   5.160
 9885SOL    HW130554   6.529   4.597   5.135
 9885SOL    HW230555   6.583   4.443   5.125
 9886SOL     OW30556   0.683   4.974   2.681
 9886SOL    HW130557   0.774   4.991   2.719
 9886SOL    HW230558   0.629   5.058   2.689
 9887SOL     OW30559   4.129   1.099   6.977
 9887SOL    HW130560   4.110   1.160   0.030
 9887SOL    HW230561   4.057   1.030   6.971
 9888SOL     OW30562   0.077   3.912   0.774
 9888SOL    HW130563   7.003   3.935   0.767
 9888SOL    HW230564   0.129   3.973   0.714
 9889SOL     OW30565   6.591   4.858   0.901
 9889SOL    HW130566   6.615   4.867   0.998
 9889SOL    HW230567   6.569   4.949   0.865
 9890SOL     OW30568   1.742   2.183   0.689
 9890SOL    HW130569   1.802   2.103   0.693
 9890SOL    HW230570   1.658   2.160   0.640
 9891SOL     OW30571   5.935   2.537   0.368
 9891SOL    HW130572   5.979   2.449   0.350
 9891SOL    HW230573   5.858   2.549   0.305
 9892SOL     OW30574   6.776   5.438   0.109
 9892SOL    HW130575   6.755   5.394   0.022
 9892SOL    HW230576   6.695   5.439   0.167
 9893SOL     OW30577   1.651   0.635   0.923
 9893SOL    HW130578   1.631   0.588   0.837
 9893SOL    HW230579   1.743   0.674   0.919
 9894SOL     OW30580   2.247   2.061   1.149
 9894SOL    HW130581   2.310   2.012   1.088
 9894SOL    HW230582   2.295   2.083   1.234
 9895SOL     OW30583   5.804   3.390   5.023
 9895SOL    HW130584   5.726   3.342   4.982
 9895SOL    HW230585   5.781   3.417   5.116
 9896SOL     OW30586   6.174   6.793   6.799
 9896SOL    HW130587   6.151   6.889   6.780
 9896SOL    HW230588   6.093   6.746   6.835
 9897SOL     OW30589   5.614   5.665   3.463
 9897SOL    HW130590   5.529   5.629   3.424
 9897SOL    HW230591   5.653   5.597   3.525
 9898SOL     OW30592   2.221   6.136   6.194
 9898SOL    HW130593   2.185   6.227   6.175
 9898SOL    HW230594   2.288   6.141   6.268
 9899SOL     OW30595   7.016   5.679   0.650
 9899SOL    HW130596   7.023   5.779   0.661
 9899SOL    HW230597   0.061   5.635   0.706
 9900SOL     OW30598   1.543   3.611   3.527
 9900SOL    HW130599   1.608   3.683   3.502
 9900SOL    HW230600   1.590   3.523   3.530
 9901SOL     OW30601   2.764   2.116   5.897
 9901SOL    HW130602   2.739   2.213   5.903
 9901SOL    HW230603   2.705   2.063   5.957
 9902SOL     OW30604   2.764   5.006   0.129
 9902SOL    HW130605   2.808   4.951   0.058
 9902SOL    HW230606   2.827   5.016   0.206
 9903SOL     OW30607   4.827   1.433   2.484
 9903SOL    HW130608   4.812   1.513   2.426
 9903SOL    HW230609   4.913   1.443   2.533
 9904SOL     OW30610   1.168   2.852   6.607
 9904SOL    HW130611   1.170   2.928   6.542
 9904SOL    HW230612   1.250   2.796   6.596
 9905SOL     OW30613   3.412   0.818   6.804
 9905SOL    HW130614   3.499   0.786   6.768
 9905SOL    HW230615   3.346   0.828   6.729
 9906SOL     OW30616   3.669   2.850   2.475
 9906SOL    HW130617   3.702   2.770   2.525
 9906SOL    HW230618   3.725   2.864   2.393
 9907SOL     OW30619   6.586   0.855   0.694
 9907SOL    HW130620   6.504   0.857   0.752
 9907SOL    HW230621   6.584   0.774   0.637
 9908SOL     OW30622   5.225   1.847   3.218
 9908SOL    HW130623   5.226   1.873   3.121
 9908SOL    HW230624   5.133   1.819   3.244
 9909SOL     OW30625   3.598   7.019   3.718
 9909SOL    HW130626   3.692   0.022   3.696
 9909SOL    HW230627   3.577   0.023   3.812
 9910SOL     OW30628   0.927   3.610   2.419
 9910SOL    HW130629   0.833   3.643   2.424
 9910SOL    HW230630   0.929   3.512   2.437
 9911SOL     OW30631   3.650   6.772   2.005
 9911SOL    HW130632   3.687   6.853   1.960
 9911SOL    HW230633   3.560   6.751   1.966
 9912SOL     OW30634   3.889   1.817   1.432
 9912SOL    HW130635   3.836   1.842   1.513
 9912SOL    HW230636   3.977   1.779   1.462
 9913SOL     OW30637   5.844   3.830   0.553
 9913SOL    HW130638   5.781   3.840   0.631
 9913SOL    HW230639   5.901   3.750   0.567
 9914SOL     OW30640   6.540   3.477   4.628
 9914SOL    HW130641   6.626   3.438   4.661
 9914SOL    HW230642   6.558   3.541   4.554
 9915SOL     OW30643   4.304   0.693   3.137
 9915SOL    HW130644   4.255   0.771   3.098
 9915SOL    HW230645   4.294   0.614   3.075
 9916SOL     OW30646   2.272   2.853   3.252
 9916SOL    HW130647   2.353   2.800   3.278
 9916SOL    HW230648   2.199   2.838   3.319
 9917SOL     OW30649   5.789   3.575   0.037
 9917SOL    HW130650   5.827   3.656   7.014
 9917SOL    HW230651   5.864   3.524   0.080
 9918SOL     OW30652   3.479   1.477   2.709
 9918SOL    HW130653   3.469   1.486   2.610
 9918SOL    HW230654   3.397   1.513   2.754
 9919SOL     OW30655   5.830   5.399   1.884
 9919SOL    HW130656   5.888   5.318   1.887
 9919SOL    HW230657   5.871   5.468   1.825
 9920SOL     OW30658   4.724   1.729   1.848
 9920SOL    HW130659   4.705   1.743   1.750
 9920SOL    HW230660   4.645   1.686   1.891
 9921SOL     OW30661   4.362   5.903   6.140
 9921SOL    HW130662   4.375   5.808   6.110
 9921SOL    HW230663   4.280   5.940   6.096
 9922SOL     OW30664   1.314   4.700   0.151
 9922SOL    HW130665   1.275   4.615   0.185
 9922SOL    HW230666   1.325   4.765   0.226
 9923SOL     OW30667   4.830   4.619   6.329
 9923SOL    HW130668   4.923   4.656   6.330
 9923SOL    HW230669   4.793   4.620   6.421
 9924SOL     OW30670   0.085   2.228   4.894
 9924SOL    HW130671   0.044   2.146   4.852
 9924SOL    HW230672   0.155   2.265   4.832
 9925SOL     OW30673   6.836   4.524   4.349
 9925SOL    HW130674   6.808   4.444   4.296
 9925SOL    HW230675   6.882   4.589   4.290
 9926SOL     OW30676   2.709   3.925   0.552
 9926SOL    HW130677   2.754   3.846   0.510
 9926SOL    HW230678   2.698   3.997   0.483
 9927SOL     OW30679   6.121   6.621   2.204
 9927SOL    HW130680   6.096   6.710   2.165
 9927SOL    HW230681   6.046   6.556   2.188
 9928SOL     OW30682   4.920   5.264   1.807
 9928SOL    HW130683   4.892   5.354   1.839
 9928SOL    HW230684   4.974   5.219   1.879
 9929SOL     OW30685   1.751   5.390   5.573
 9929SOL    HW130686   1.754   5.467   5.511
 9929SOL    HW230687   1.656   5.360   5.585
 9930SOL     OW30688   6.299   0.708   4.821
 9930SOL    HW130689   6.203   0.683   4.830
 9930SOL    HW230690   6.328   0.696   4.727
 9931SOL     OW30691   1.099   4.677   5.147
 9931SOL    HW130692   1.150   4.762   5.158
 9931SOL    HW230693   1.162   4.600   5.149
 9932SOL     OW30694   1.872   5.550   6.978
 9932SOL    HW130695   1.817   5.545   6.895
 9932SOL    HW230696   1.965   5.517   6.959
 9933SOL     OW30697   1.837   4.795   2.847
 9933SOL    HW130698   1.785   4.713   2.821
 9933SOL    HW230699   1.884   4.779   2.934
 9934SOL     OW30700   6.183   1.978   5.401
 9934SOL    HW130701   6.156   1.886   5.371
 9934SOL    HW230702   6.150   2.045   5.335
 9935SOL     OW30703   2.756   0.491   0.128
 9935SOL    HW130704   2.769   0.441   0.214
 9935SOL    HW230705   2.680   0.555   0.139
 9936SOL     OW30706   6.335   4.889   4.926
 9936SOL    HW130707   6.409   4.877   4.860
 9936SOL    HW230708   6.349   4.826   5.003
 9937SOL     OW30709   6.577   2.469   5.963
 9937SOL    HW130710   6.653   2.448   6.024
 9937SOL    HW230711   6.601   2.547   5.906
 9938SOL     OW30712   6.634   5.687   3.384
 9938SOL    HW130713   6.592   5.657   3.470
 9938SOL    HW230714   6.732   5.701   3.398
 9939SOL     OW30715   3.384   2.420   0.641
 9939SOL    HW130716   3.448   2.384   0.573
 9939SOL    HW230717   3.403   2.378   0.730
 9940SOL     OW30718   0.596   0.749   1.128
 9940SOL    HW130719   0.552   0.764   1.039
 9940SOL    HW230720   0.543   0.684   1.181
 9941SOL     OW30721   3.334   3.985   5.163
 9941SOL    HW130722   3.291   3.949   5.246
 9941SOL    HW230723   3.337   4.084   5.168
 9942SOL     OW30724   2.027   5.658   2.626
 9942SOL    HW130725   1.991   5.565   2.609
 9942SOL    HW230726   1.981   5.697   2.705
 9943SOL     OW30727   6.903   5.921   5.521
 9943SOL    HW130728   6.897   5.875   5.433
 9943SOL    HW230729   6.833   5.884   5.583
 9944SOL     OW30730   1.918   4.363   6.638
 9944SOL    HW130731   2.005   4.352   6.686
 9944SOL    HW230732   1.923   4.315   6.551
 9945SOL     OW30733   6.653   5.197   6.844
 9945SOL    HW130734   6.617   5.109   6.874
 9945SOL    HW230735   6.753   5.195   6.845
 9946SOL     OW30736   4.909   1.264   4.664
 9946SOL    HW130737   4.923   1.216   4.578
 9946SOL    HW230738   4.875   1.200   4.733
 9947SOL     OW30739   0.497   3.770   6.165
 9947SOL    HW130740   0.499   3.741   6.070
 9947SOL    HW230741   0.489   3.689   6.224
 9948SOL     OW30742   4.724   4.545   4.301
 9948SOL    HW130743   4.680   4.630   4.329
 9948SOL    HW230744   4.816   4.540   4.340
 9949SOL     OW30745   5.225   5.354   3.584
 9949SOL    HW130746   5.225   5.397   3.674
 9949SOL    HW230747   5.139   5.374   3.537
 9950SOL     OW30748   5.685   6.212   5.657
 9950SOL    HW130749   5.610   6.200   5.592
 9950SOL    HW230750   5.697   6.129   5.711
 9951SOL     OW30751   6.621   1.670   3.839
 9951SOL    HW130752   6.616   1.731   3.760
 9951SOL    HW230753   6.586   1.718   3.920
 9952SOL     OW30754   6.173   3.889   0.687
 9952SOL    HW130755   6.143   3.924   0.598
 9952SOL    HW230756   6.188   3.965   0.750
 9953SOL     OW30757   6.183   2.563   3.905
 9953SOL    HW130758   6.279   2.590   3.908
 9953SOL    HW230759   6.146   2.582   3.814
 9954SOL     OW30760   5.939   6.651   5.721
 9954SOL    HW130761   5.851   6.603   5.725
 9954SOL    HW230762   5.943   6.718   5.795
 9955SOL     OW30763   6.678   3.927   4.460
 9955SOL    HW130764   6.593   3.953   4.415
 9955SOL    HW230765   6.667   3.836   4.502
 9956SOL     OW30766   2.393   0.113   1.676
 9956SOL    HW130767   2.331   0.083   1.748
 9956SOL    HW230768   2.481   0.067   1.687
 9957SOL     OW30769   5.502   5.366   2.680
 9957SOL    HW130770   5.505   5.274   2.642
 9957SOL    HW230771   5.594   5.397   2.700
 9958SOL     OW30772   3.438   5.568   0.428
 9958SOL    HW130773   3.398   5.480   0.401
 9958SOL    HW230774   3.538   5.560   0.426
 9959SOL     OW30775   4.142   4.012   5.916
 9959SOL    HW130776   4.182   3.961   5.840
 9959SOL    HW230777   4.145   4.110   5.896
 9960SOL     OW30778   6.760   0.276   2.326
 9960SOL    HW130779   6.713   0.327   2.254
 9960SOL    HW230780   6.708   0.281   2.411
 9961SOL     OW30781   1.886   6.036   4.301
 9961SOL    HW130782   1.806   6.094   4.292
 9961SOL    HW230783   1.968   6.092   4.309
 9962SOL     OW30784   6.453   6.744   3.646
 9962SOL    HW130785   6.482   6.660   3.692
 9962SOL    HW230786   6.528   6.778   3.589
 9963SOL     OW30787   2.987   2.736   0.358
 9963SOL    HW130788   2.995   2.729   0.457
 9963SOL    HW230789   2.890   2.736   0.332
 9964SOL     OW30790   4.738   5.814   4.219
 9964SOL    HW130791   4.733   5.881   4.293
 9964SOL    HW230792   4.774   5.858   4.137
 9965SOL     OW30793   4.440   6.772   6.548
 9965SOL    HW130794   4.464   6.710   6.473
 9965SOL    HW230795   4.341   6.782   6.553
 9966SOL     OW30796   1.238   5.210   1.575
 9966SOL    HW130797   1.239   5.121   1.621
 9966SOL    HW230798   1.310   5.268   1.614
 9967SOL     OW30799   0.265   5.616   2.043
 9967SOL    HW130800   0.353   5.620   2.091
 9967SOL    HW230801   0.192   5.602   2.110
 9968SOL     OW30802   3.554   3.861   2.092
 9968SOL    HW130803   3.649   3.829   2.085
 9968SOL    HW230804   3.503   3.833   2.011
 9969SOL     OW30805   1.910   3.902   2.706
 9969SOL    HW130806   1.899   3.804   2.688
 9969SOL    HW230807   1.821   3.944   2.722
 9970SOL     OW30808   5.048   4.268   1.457
 9970SOL    HW130809   5.109   4.212   1.400
 9970SOL    HW230810   5.031   4.355   1.411
 9971SOL     OW30811   1.427   4.990   1.112
 9971SOL    HW130812   1.374   5.062   1.067
 9971SOL    HW230813   1.371   4.908   1.121
 9972SOL     OW30814   6.503   4.319   1.565
 9972SOL    HW130815   6.502   4.331   1.664
 9972SOL    HW230816   6.420   4.359   1.525
 9973SOL     OW30817   5.609   2.204   3.523
 9973SOL    HW130818   5.584   2.109   3.506
 9973SOL    HW230819   5.529   2.253   3.558
 9974SOL     OW30820   1.005   1.671   2.974
 9974SOL    HW130821   0.998   1.571   2.983
 9974SOL    HW230822   0.960   1.715   3.051
 9975SOL     OW30823   6.231   3.249   0.829
 9975SOL    HW130824   6.262   3.337   0.791
 9975SOL    HW230825   6.291   3.176   0.796
 9976SOL     OW30826   1.339   6.196   5.575
 9976SOL    HW130827   1.407   6.229   5.509
 9976SOL    HW230828   1.269   6.267   5.589
 9977SOL     OW30829   5.692   5.272   5.562
 9977SOL    HW130830   5.652   5.247   5.474
 9977SOL    HW230831   5.791   5.258   5.558
 9978SOL     OW30832   0.875   2.439   4.727
 9978SOL    HW130833   0.784   2.457   4.690
 9978SOL    HW230834   0.881   2.473   4.821
 9979SOL     OW30835   5.788   4.814   5.118
 9979SOL    HW130836   5.782   4.910   5.092
 9979SOL    HW230837   5.702   4.785   5.160
 9980SOL     OW30838   2.524   0.258   0.023
 9980SOL    HW130839   2.623   0.250   0.040
 9980SOL    HW230840   2.490   0.174   7.005
 9981SOL     OW30841   2.753   1.540   3.170
 9981SOL    HW130842   2.751   1.548   3.270
 9981SOL    HW230843   2.783   1.627   3.130
 9982SOL     OW30844   6.952   5.599   3.446
 9982SOL    HW130845   6.984   5.681   3.494
 9982SOL    HW230846   6.946   5.617   3.348
 9983SOL     OW30847   6.956   1.401   2.635
 9983SOL    HW130848   7.013   1.481   2.651
 9983SOL    HW230849   6.861   1.429   2.618
 9984SOL     OW30850   2.125   2.373   6.734
 9984SOL    HW130851   2.200   2.407   6.791
 9984SOL    HW230852   2.069   2.310   6.789
 9985SOL     OW30853   2.351   0.629   2.008
 9985SOL    HW130854   2.308   0.562   2.068
 9985SOL    HW230855   2.386   0.583   1.926
 9986SOL     OW30856   5.902   4.340   5.531
 9986SOL    HW130857   5.822   4.300   5.486
 9986SOL    HW230858   5.971   4.363   5.463
 9987SOL     OW30859   5.801   3.269   5.968
 9987SOL    HW130860   5.831   3.338   6.034
 9987SOL    HW230861   5.749   3.198   6.015
 9988SOL     OW30862   6.658   0.214   4.834
 9988SOL    HW130863   6.576   0.160   4.812
 9988SOL    HW230864   6.695   0.184   4.921
 9989SOL     OW30865   6.960   3.405   4.245
 9989SOL    HW130866   6.872   3.434   4.284
 9989SOL    HW230867   7.020   3.374   4.319
 9990SOL     OW30868   1.870   5.174   3.589
 9990SOL    HW130869   1.853   5.225   3.674
 9990SOL    HW230870   1.860   5.234   3.511
 9991SOL     OW30871   2.839   2.203   4.731
 9991SOL    HW130872   2.848   2.128   4.797
 9991SOL    HW230873   2.928   2.224   4.692
 9992SOL     OW30874   5.923   4.802   6.415
 9992SOL    HW130875   5.944   4.715   6.459
 9992SOL    HW230876   5.866   4.857   6.476
 9993SOL     OW30877   2.240   1.415   1.374
 9993SOL    HW130878   2.173   1.463   1.431
 9993SOL    HW230879   2.284   1.480   1.312
 9994SOL     OW30880   5.985   4.844   2.999
 9994SOL    HW130881   5.896   4.799   3.000
 9994SOL    HW230882   6.013   4.859   2.904
 9995SOL     OW30883   4.901   1.811   3.732
 9995SOL    HW130884   4.979   1.804   3.669
 9995SOL    HW230885   4.863   1.720   3.747
 9996SOL     OW30886   2.666   4.429   0.049
 9996SOL    HW130887   2.641   4.486   6.995
 9996SOL    HW230888   2.587   4.416   0.108
 9997SOL     OW30889   3.007   1.683   5.651
 9997SOL    HW130890   2.955   1.620   5.593
 9997SOL    HW230891   2.956   1.769   5.661
 9998SOL     OW30892   5.894   5.425   5.152
 9998SOL    HW130893   5.816   5.371   5.120
 9998SOL    HW230894   5.971   5.414   5.089
 9999SOL     OW30895   5.836   2.446   5.818
 9999SOL    HW130896   5.739   2.464   5.801
 9999SOL    HW230897   5.879   2.527   5.856
10000SOL     OW30898   6.905   2.561   0.439
10000SOL    HW130899   6.966   2.641   0.441
10000SOL    HW230900   6.821   2.583   0.489
10001SOL     OW30901   4.819   1.201   1.871
10001SOL    HW130902   4.904   1.230   1.915
10001SOL    HW230903   4.841   1.147   1.790
10002SOL     OW30904   1.238   6.044   2.117
10002SOL    HW130905   1.285   5.987   2.184
10002SOL    HW230906   1.180   6.110   2.164
10003SOL     OW30907   3.546   1.941   3.249
10003SOL    HW130908   3.566   1.860   3.195
10003SOL    HW230909   3.557   2.023   3.192
10004SOL     OW30910   0.106   2.446   3.515
10004SOL    HW130911   0.202   2.465   3.536
10004SOL    HW230912   0.071   2.378   3.579
10005SOL     OW30913   5.384   0.426   2.798
10005SOL    HW130914   5.403   0.445   2.894
10005SOL    HW230915   5.344   0.335   2.789
10006SOL     OW30916   4.078   6.944   4.403
10006SOL    HW130917   4.132   6.980   4.479
10006SOL    HW230918   4.131   6.949   4.319
10007SOL     OW30919   0.476   3.629   5.264
10007SOL    HW130920   0.480   3.554   5.198
10007SOL    HW230921   0.381   3.648   5.287
10008SOL     OW30922   3.859   0.260   4.719
10008SOL    HW130923   3.877   0.216   4.631
10008SOL    HW230924   3.790   0.331   4.707
10009SOL     OW30925   2.236   4.166   2.217
10009SOL    HW130926   2.291   4.183   2.135
10009SOL    HW230927   2.145   4.135   2.190
10010SOL     OW30928   2.230   1.136   0.197
10010SOL    HW130929   2.205   1.092   0.111
10010SOL    HW230930   2.322   1.175   0.190
10011SOL     OW30931   6.881   0.345   4.786
10011SOL    HW130932   6.938   0.265   4.804
10011SOL    HW230933   6.786   0.316   4.774
10012SOL     OW30934   5.693   1.564   3.633
10012SOL    HW130935   5.622   1.523   3.689
10012SOL    HW230936   5.783   1.529   3.661
10013SOL     OW30937   0.205   0.865   2.625
10013SOL    HW130938   0.299   0.832   2.627
10013SOL    HW230939   0.150   0.807   2.566
10014SOL     OW30940   1.150   3.884   6.461
10014SOL    HW130941   1.195   3.883   6.550
10014SOL    HW230942   1.082   3.958   6.459
10015SOL     OW30943   2.235   4.951   0.317
10015SOL    HW130944   2.314   4.947   0.255
10015SOL    HW230945   2.265   4.932   0.410
10016SOL     OW30946   2.052   1.297   6.938
10016SOL    HW130947   2.103   1.363   6.993
10016SOL    HW230948   1.955   1.321   6.940
10017SOL     OW30949   2.466   2.115   4.415
10017SOL    HW130950   2.530   2.050   4.456
10017SOL    HW230951   2.419   2.165   4.488
10018SOL     OW30952   5.472   0.526   6.221
10018SOL    HW130953   5.474   0.619   6.259
10018SOL    HW230954   5.378   0.498   6.207
10019SOL     OW30955   1.131   0.788   2.673
10019SOL    HW130956   1.169   0.730   2.601
10019SOL    HW230957   1.078   0.862   2.632
10020SOL     OW30958   1.570   2.978   1.276
10020SOL    HW130959   1.479   2.952   1.311
10020SOL    HW230960   1.640   2.931   1.330
10021SOL     OW30961   6.849   3.472   0.752
10021SOL    HW130962   6.791   3.514   0.822
10021SOL    HW230963   6.794   3.410   0.696
10022SOL     OW30964   1.773   1.710   6.895
10022SOL    HW130965   1.849   1.773   6.878
10022SOL    HW230966   1.810   1.618   6.908
10023SOL     OW30967   6.275   3.653   0.597
10023SOL    HW130968   6.345   3.596   0.640
10023SOL    HW230969   6.257   3.733   0.654
10024SOL     OW30970   1.417   4.892   3.799
10024SOL    HW130971   1.485   4.961   3.776
10024SOL    HW230972   1.440   4.806   3.754
10025SOL     OW30973   1.836   0.951   1.551
10025SOL    HW130974   1.911   1.014   1.536
10025SOL    HW230975   1.845   0.908   1.641
10026SOL     OW30976   5.928   0.674   3.255
10026SOL    HW130977   5.992   0.615   3.205
10026SOL    HW230978   5.890   0.742   3.193
10027SOL     OW30979   5.953   3.519   4.853
10027SOL    HW130980   5.914   3.597   4.803
10027SOL    HW230981   5.879   3.470   4.899
10028SOL     OW30982   1.747   1.157   0.670
10028SOL    HW130983   1.652   1.187   0.680
10028SOL    HW230984   1.786   1.196   0.587
10029SOL     OW30985   5.844   2.158   3.369
10029SOL    HW130986   5.754   2.159   3.413
10029SOL    HW230987   5.915   2.176   3.438
10030SOL     OW30988   1.398   0.108   4.008
10030SOL    HW130989   1.347   0.180   3.961
10030SOL    HW230990   1.367   0.103   4.103
10031SOL     OW30991   6.068   4.826   3.295
10031SOL    HW130992   5.969   4.809   3.292
10031SOL    HW230993   6.095   4.884   3.219
10032SOL     OW30994   2.404   1.533   5.229
10032SOL    HW130995   2.336   1.485   5.284
10032SOL    HW230996   2.382   1.631   5.226
10033SOL     OW30997   5.657   2.975   4.529
10033SOL    HW130998   5.682   3.050   4.590
10033SOL    HW230999   5.558   2.965   4.527
10034SOL     OW31000   4.418   0.159   5.714
10034SOL    HW131001   4.326   0.168   5.753
10034SOL    HW231002   4.486   0.166   5.787
10035SOL     OW31003   6.985   4.844   1.062
10035SOL    HW131004   6.899   4.803   1.032
10035SOL    HW231005   6.975   4.943   1.067
10036SOL     OW31006   6.854   1.685   0.195
10036SOL    HW131007   6.924   1.668   0.126
10036SOL    HW231008   6.798   1.763   0.166
10037SOL     OW31009   0.230   0.239   6.513
10037SOL    HW131010   0.162   0.183   6.559
10037SOL    HW231011   0.227   0.333   6.549
10038SOL     OW31012   6.362   6.955   1.150
10038SOL    HW131013   6.283   6.982   1.205
10038SOL    HW231014   6.421   6.895   1.204
10039SOL     OW31015   3.473   0.717   4.196
10039SOL    HW131016   3.526   0.742   4.115
10039SOL    HW231017   3.508   0.632   4.234
10040SOL     OW31018   6.713   3.109   0.799
10040SOL    HW131019   6.706   3.116   0.899
10040SOL    HW231020   6.805   3.076   0.775
10041SOL     OW31021   2.556   6.594   0.329
10041SOL    HW131022   2.508   6.578   0.243
10041SOL    HW231023   2.502   6.657   0.386
10042SOL     OW31024   6.851   1.964   2.962
10042SOL    HW131025   6.793   1.889   2.994
10042SOL    HW231026   6.884   1.944   2.870
10043SOL     OW31027   0.080   1.508   5.861
10043SOL    HW131028   0.035   1.449   5.794
10043SOL    HW231029   0.155   1.458   5.904
10044SOL     OW31030   3.129   2.055   5.588
10044SOL    HW131031   3.169   2.116   5.520
10044SOL    HW231032   3.150   1.960   5.564
10045SOL     OW31033   3.697   1.037   0.368
10045SOL    HW131034   3.611   0.987   0.354
10045SOL    HW231035   3.770   0.991   0.318
10046SOL     OW31036   1.730   5.370   1.306
10046SOL    HW131037   1.809   5.332   1.354
10046SOL    HW231038   1.646   5.329   1.341
10047SOL     OW31039   0.324   3.166   0.112
10047SOL    HW131040   0.241   3.124   0.147
10047SOL    HW231041   0.401   3.104   0.125
10048SOL     OW31042   6.141   6.598   2.513
10048SOL    HW131043   6.199   6.554   2.445
10048SOL    HW231044   6.142   6.545   2.597
10049SOL     OW31045   0.131   1.349   5.382
10049SOL    HW131046   0.204   1.297   5.426
10049SOL    HW231047   0.140   1.446   5.406
10050SOL     OW31048   6.032   3.133   5.875
10050SOL    HW131049   6.051   3.051   5.930
10050SOL    HW231050   5.936   3.159   5.887
10051SOL     OW31051   1.016   3.986   4.465
10051SOL    HW131052   0.985   3.907   4.519
10051SOL    HW231053   1.073   4.045   4.521
10052SOL     OW31054   1.439   0.041   3.002
10052SOL    HW131055   1.443   0.128   3.053
10052SOL    HW231056   1.359   7.013   3.032
10053SOL     OW31057   5.347   5.784   4.663
10053SOL    HW131058   5.346   5.684   4.670
10053SOL    HW231059   5.273   5.814   4.603
10054SOL     OW31060   6.196   4.212   4.537
10054SOL    HW131061   6.190   4.283   4.466
10054SOL    HW231062   6.138   4.236   4.614
10055SOL     OW31063   0.336   1.664   6.379
10055SOL    HW131064   0.354   1.597   6.451
10055SOL    HW231065   0.305   1.749   6.420
10056SOL     OW31066   6.172   2.921   3.864
10056SOL    HW131067   6.082   2.905   3.904
10056SOL    HW231068   6.239   2.937   3.936
10057SOL     OW31069   5.639   4.903   5.983
10057SOL    HW131070   5.734   4.913   6.011
10057SOL    HW231071   5.631   4.829   5.916
10058SOL     OW31072   6.459   4.236   5.580
10058SOL    HW131073   6.524   4.225   5.655
10058SOL    HW231074   6.510   4.244   5.494
10059SOL     OW31075   0.393   0.579   6.654
10059SOL    HW131076   0.332   0.642   6.605
10059SOL    HW231077   0.341   0.528   6.722
10060SOL     OW31078   2.276   2.160   2.569
10060SOL    HW131079   2.283   2.231   2.639
10060SOL    HW231080   2.315   2.193   2.483
10061SOL     OW31081   3.992   0.303   2.729
10061SOL    HW131082   3.908   0.338   2.771
10061SOL    HW231083   3.970   0.257   2.643
10062SOL     OW31084   6.281   0.699   4.527
10062SOL    HW131085   6.320   0.789   4.541
10062SOL    HW231086   6.354   0.632   4.514
10063SOL     OW31087   1.563   3.321   5.242
10063SOL    HW131088   1.549   3.264   5.323
10063SOL    HW231089   1.542   3.267   5.160
10064SOL     OW31090   2.833   6.642   0.398
10064SOL    HW131091   2.847   6.546   0.421
10064SOL    HW231092   2.735   6.660   0.390
10065SOL     OW31093   1.082   1.719   2.180
10065SOL    HW131094   1.029   1.769   2.249
10065SOL    HW231095   1.110   1.782   2.108
10066SOL     OW31096   6.139   3.498   3.644
10066SOL    HW131097   6.141   3.418   3.704
10066SOL    HW231098   6.212   3.561   3.671
10067SOL     OW31099   6.646   2.541   5.030
10067SOL    HW131100   6.599   2.472   5.084
10067SOL    HW231101   6.684   2.499   4.948
10068SOL     OW31102   1.883   3.170   3.085
10068SOL    HW131103   1.825   3.246   3.115
10068SOL    HW231104   1.878   3.161   2.985
10069SOL     OW31105   2.591   5.842   1.108
10069SOL    HW131106   2.657   5.910   1.075
10069SOL    HW231107   2.630   5.793   1.186
10070SOL     OW31108   4.167   6.195   5.582
10070SOL    HW131109   4.206   6.126   5.642
10070SOL    HW231110   4.156   6.281   5.632
10071SOL     OW31111   6.016   0.340   3.925
10071SOL    HW131112   5.979   0.353   3.833
10071SOL    HW231113   6.111   0.309   3.919
10072SOL     OW31114   6.569   2.220   1.621
10072SOL    HW131115   6.478   2.185   1.646
10072SOL    HW231116   6.571   2.243   1.524
10073SOL     OW31117   6.906   4.806   4.572
10073SOL    HW131118   6.834   4.738   4.592
10073SOL    HW231119   6.897   4.837   4.478
10074SOL     OW31120   1.376   4.735   6.915
10074SOL    HW131121   1.474   4.727   6.932
10074SOL    HW231122   1.326   4.720   7.000
10075SOL     OW31123   1.589   3.573   1.931
10075SOL    HW131124   1.609   3.488   1.979
10075SOL    HW231125   1.564   3.553   1.836
10076SOL     OW31126   5.013   5.557   4.074
10076SOL    HW131127   5.057   5.474   4.107
10076SOL    HW231128   4.988   5.615   4.151
10077SOL     OW31129   5.372   3.344   5.939
10077SOL    HW131130   5.364   3.420   6.004
10077SOL    HW231131   5.468   3.326   5.920
10078SOL     OW31132   6.495   6.455   5.322
10078SOL    HW131133   6.477   6.501   5.234
10078SOL    HW231134   6.459   6.511   5.396
10079SOL     OW31135   4.706   2.284   3.415
10079SOL    HW131136   4.739   2.364   3.463
10079SOL    HW231137   4.702   2.303   3.317
10080SOL     OW31138   5.126   0.639   5.880
10080SOL    HW131139   5.128   0.680   5.971
10080SOL    HW231140   5.203   0.673   5.826
10081SOL     OW31141   1.961   3.493   1.182
10081SOL    HW131142   2.031   3.438   1.137
10081SOL    HW231143   1.874   3.481   1.134
10082SOL     OW31144   1.388   4.242   1.038
10082SOL    HW131145   1.476   4.204   1.011
10082SOL    HW231146   1.323   4.233   0.963
10083SOL     OW31147   3.387   4.996   3.499
10083SOL    HW131148   3.459   5.065   3.502
10083SOL    HW231149   3.398   4.931   3.573
10084SOL     OW31150   1.116   0.705   4.616
10084SOL    HW131151   1.168   0.653   4.683
10084SOL    HW231152   1.115   0.656   4.529
10085SOL     OW31153   5.162   6.737   0.185
10085SOL    HW131154   5.158   6.781   0.095
10085SOL    HW231155   5.254   6.745   0.222
10086SOL     OW31156   0.022   6.648   3.104
10086SOL    HW131157   6.999   6.573   3.151
10086SOL    HW231158   0.117   6.623   3.087
10087SOL     OW31159   1.493   6.865   5.581
10087SOL    HW131160   1.472   6.963   5.576
10087SOL    HW231161   1.586   6.849   5.548
10088SOL     OW31162   0.231   2.492   0.629
10088SOL    HW131163   0.252   2.517   0.723
10088SOL    HW231164   0.138   2.455   0.624
10089SOL     OW31165   3.564   2.041   1.781
10089SOL    HW131166   3.464   2.042   1.774
10089SOL    HW231167   3.592   2.098   1.858
10090SOL     OW31168   2.726   5.582   3.148
10090SOL    HW131169   2.729   5.569   3.247
10090SOL    HW231170   2.654   5.648   3.126
10091SOL     OW31171   6.996   4.057   5.497
10091SOL    HW131172   6.971   3.967   5.461
10091SOL    HW231173   6.936   4.080   5.574
10092SOL     OW31174   0.667   1.799   3.756
10092SOL    HW131175   0.699   1.721   3.809
10092SOL    HW231176   0.679   1.781   3.658
10093SOL     OW31177   5.235   4.716   5.564
10093SOL    HW131178   5.140   4.749   5.564
10093SOL    HW231179   5.286   4.762   5.636
10094SOL     OW31180   3.467   1.302   0.623
10094SOL    HW131181   3.393   1.285   0.558
10094SOL    HW231182   3.497   1.397   0.616
10095SOL     OW31183   4.894   2.962   5.474
10095SOL    HW131184   4.902   2.908   5.391
10095SOL    HW231185   4.798   2.964   5.503
10096SOL     OW31186   5.511   2.216   2.819
10096SOL    HW131187   5.474   2.273   2.892
10096SOL    HW231188   5.442   2.204   2.748
10097SOL     OW31189   0.606   1.453   6.573
10097SOL    HW131190   0.648   1.386   6.512
10097SOL    HW231191   0.509   1.462   6.551
10098SOL     OW31192   3.069   5.349   3.592
10098SOL    HW131193   2.994   5.415   3.583
10098SOL    HW231194   3.044   5.281   3.661
10099SOL     OW31195   0.337   4.632   1.163
10099SOL    HW131196   0.340   4.533   1.169
10099SOL    HW231197   0.363   4.673   1.251
10100SOL     OW31198   4.703   5.200   4.185
10100SOL    HW131199   4.719   5.131   4.255
10100SOL    HW231200   4.747   5.172   4.100
10101SOL     OW31201   0.616   2.299   1.703
10101SOL    HW131202   0.597   2.394   1.729
10101SOL    HW231203   0.531   2.248   1.700
10102SOL     OW31204   6.621   5.897   3.013
10102SOL    HW131205   6.627   5.799   2.992
10102SOL    HW231206   6.615   5.910   3.112
10103SOL     OW31207   6.648   6.550   6.233
10103SOL    HW131208   6.680   6.644   6.222
10103SOL    HW231209   6.726   6.487   6.226
10104SOL     OW31210   2.621   0.130   3.982
10104SOL    HW131211   2.650   0.065   3.911
10104SOL    HW231212   2.551   0.087   4.039
10105SOL     OW31213   3.277   0.906   6.119
10105SOL    HW131214   3.197   0.913   6.178
10105SOL    HW231215   3.256   0.949   6.031
10106SOL     OW31216   5.340   5.445   1.584
10106SOL    HW131217   5.276   5.445   1.661
10106SOL    HW231218   5.328   5.528   1.530
10107SOL     OW31219   4.736   4.636   6.595
10107SOL    HW131220   4.689   4.570   6.654
10107SOL    HW231221   4.765   4.715   6.650
10108SOL     OW31222   1.796   2.173   0.283
10108SOL    HW131223   1.711   2.121   0.286
10108SOL    HW231224   1.776   2.271   0.287
10109SOL     OW31225   1.628   2.471   1.276
10109SOL    HW131226   1.615   2.557   1.228
10109SOL    HW231227   1.697   2.484   1.348
10110SOL     OW31228   5.278   6.103   2.691
10110SOL    HW131229   5.248   6.111   2.786
10110SOL    HW231230   5.327   6.017   2.677
10111SOL     OW31231   0.958   2.665   2.347
10111SOL    HW131232   1.053   2.694   2.338
10111SOL    HW231233   0.950   2.570   2.315
10112SOL     OW31234   0.062   2.044   3.237
10112SOL    HW131235   0.095   1.971   3.297
10112SOL    HW231236   0.104   2.131   3.264
10113SOL     OW31237   6.880   0.854   5.610
10113SOL    HW131238   6.916   0.842   5.702
10113SOL    HW231239   6.818   0.778   5.589
10114SOL     OW31240   5.323   1.601   1.463
10114SOL    HW131241   5.239   1.547   1.462
10114SOL    HW231242   5.314   1.678   1.399
10115SOL     OW31243   3.773   2.777   6.177
10115SOL    HW131244   3.714   2.714   6.228
10115SOL    HW231245   3.821   2.726   6.105
10116SOL     OW31246   6.946   0.803   4.587
10116SOL    HW131247   6.993   0.879   4.541
10116SOL    HW231248   6.981   0.795   4.680
10117SOL     OW31249   6.372   4.712   3.593
10117SOL    HW131250   6.422   4.739   3.511
10117SOL    HW231251   6.274   4.729   3.580
10118SOL     OW31252   4.493   6.415   4.085
10118SOL    HW131253   4.478   6.321   4.115
10118SOL    HW231254   4.439   6.432   4.002
10119SOL     OW31255   0.369   5.370   5.294
10119SOL    HW131256   0.325   5.300   5.238
10119SOL    HW231257   0.456   5.334   5.329
10120SOL     OW31258   1.954   3.481   2.818
10120SOL    HW131259   1.959   3.385   2.791
10120SOL    HW231260   1.983   3.490   2.913
10121SOL     OW31261   5.856   4.479   1.274
10121SOL    HW131262   5.776   4.535   1.293
10121SOL    HW231263   5.939   4.534   1.287
10122SOL     OW31264   1.222   0.045   4.221
10122SOL    HW131265   1.163   0.005   4.150
10122SOL    HW231266   1.167   0.101   4.282
10123SOL     OW31267   6.352   5.471   6.695
10123SOL    HW131268   6.331   5.374   6.681
10123SOL    HW231269   6.450   5.482   6.709
10124SOL     OW31270   1.427   5.236   2.886
10124SOL    HW131271   1.434   5.315   2.825
10124SOL    HW231272   1.509   5.180   2.879
10125SOL     OW31273   2.255   1.014   4.810
10125SOL    HW131274   2.237   1.094   4.754
10125SOL    HW231275   2.307   1.041   4.892
10126SOL     OW31276   6.553   6.589   6.481
10126SOL    HW131277   6.598   6.661   6.534
10126SOL    HW231278   6.597   6.581   6.392
10127SOL     OW31279   2.398   6.747   6.026
10127SOL    HW131280   2.422   6.658   6.065
10127SOL    HW231281   2.452   6.761   5.942
10128SOL     OW31282   2.971   2.113   6.826
10128SOL    HW131283   2.988   2.209   6.803
10128SOL    HW231284   2.957   2.061   6.742
10129SOL     OW31285   6.167   2.016   4.928
10129SOL    HW131286   6.227   2.039   4.852
10129SOL    HW231287   6.207   2.050   5.013
10130SOL     OW31288   1.175   1.138   2.760
10130SOL    HW131289   1.177   1.070   2.687
10130SOL    HW231290   1.141   1.225   2.724
10131SOL     OW31291   1.542   6.201   3.611
10131SOL    HW131292   1.454   6.182   3.568
10131SOL    HW231293   1.537   6.288   3.661
10132SOL     OW31294   6.641   0.623   1.311
10132SOL    HW131295   6.737   0.596   1.305
10132SOL    HW231296   6.592   0.591   1.229
10133SOL     OW31297   5.958   6.285   0.240
10133SOL    HW131298   6.016   6.355   0.282
10133SOL    HW231299   6.003   6.196   0.246
10134SOL     OW31300   6.764   6.614   2.349
10134SOL    HW131301   6.696   6.556   2.305
10134SOL    HW231302   6.729   6.708   2.353
10135SOL     OW31303   6.666   0.030   2.479
10135SOL    HW131304   6.713   0.118   2.486
10135SOL    HW231305   6.716   6.984   2.531
10136SOL     OW31306   4.768   2.125   2.745
10136SOL    HW131307   4.749   2.039   2.698
10136SOL    HW231308   4.862   2.153   2.725
10137SOL     OW31309   6.085   5.843   5.707
10137SOL    HW131310   6.136   5.904   5.768
10137SOL    HW231311   6.102   5.748   5.732
10138SOL     OW31312   0.539   2.413   0.740
10138SOL    HW131313   0.623   2.367   0.770
10138SOL    HW231314   0.460   2.356   0.763
10139SOL     OW31315   3.144   3.009   6.790
10139SOL    HW131316   3.047   3.030   6.806
10139SOL    HW231317   3.157   2.910   6.786
10140SOL     OW31318   0.740   6.297   5.661
10140SOL    HW131319   0.740   6.268   5.566
10140SOL    HW231320   0.709   6.221   5.719
10141SOL     OW31321   2.278   2.922   4.325
10141SOL    HW131322   2.307   2.943   4.232
10141SOL    HW231323   2.205   2.985   4.352
10142SOL     OW31324   3.617   6.611   3.609
10142SOL    HW131325   3.674   6.605   3.528
10142SOL    HW231326   3.525   6.579   3.588
10143SOL     OW31327   5.047   2.947   6.759
10143SOL    HW131328   5.049   2.962   6.660
10143SOL    HW231329   4.954   2.921   6.787
10144SOL     OW31330   3.962   6.966   6.507
10144SOL    HW131331   3.940   6.868   6.511
10144SOL    HW231332   3.893   7.017   6.558
10145SOL     OW31333   5.692   6.516   5.958
10145SOL    HW131334   5.762   6.462   5.911
10145SOL    HW231335   5.734   6.564   6.035
10146SOL     OW31336   0.311   3.168   4.459
10146SOL    HW131337   0.317   3.075   4.423
10146SOL    HW231338   0.350   3.233   4.393
10147SOL     OW31339   4.732   5.324   5.732
10147SOL    HW131340   4.791   5.299   5.809
10147SOL    HW231341   4.784   5.316   5.647
10148SOL     OW31342   0.567   4.238   1.040
10148SOL    HW131343   0.653   4.285   1.057
10148SOL    HW231344   0.524   4.274   0.957
10149SOL     OW31345   3.511   3.784   0.662
10149SOL    HW131346   3.534   3.690   0.639
10149SOL    HW231347   3.414   3.800   0.643
10150SOL     OW31348   4.217   4.224   0.739
10150SOL    HW131349   4.300   4.174   0.712
10150SOL    HW231350   4.137   4.168   0.720
10151SOL     OW31351   6.335   6.888   6.082
10151SOL    HW131352   6.292   6.800   6.101
10151SOL    HW231353   6.265   6.956   6.060
10152SOL     OW31354   4.190   6.854   2.001
10152SOL    HW131355   4.108   6.901   1.970
10152SOL    HW231356   4.164   6.780   2.063
10153SOL     OW31357   4.392   4.598   2.316
10153SOL    HW131358   4.342   4.676   2.278
10153SOL    HW231359   4.466   4.573   2.255
10154SOL     OW31360   4.806   5.784   5.221
10154SOL    HW131361   4.765   5.734   5.145
10154SOL    HW231362   4.752   5.865   5.241
10155SOL     OW31363   4.178   1.817   4.558
10155SOL    HW131364   4.224   1.767   4.484
10155SOL    HW231365   4.214   1.786   4.646
10156SOL     OW31366   4.834   1.729   0.500
10156SOL    HW131367   4.863   1.735   0.596
10156SOL    HW231368   4.886   1.794   0.446
10157SOL     OW31369   0.506   3.536   1.464
10157SOL    HW131370   0.556   3.570   1.544
10157SOL    HW231371   0.434   3.473   1.494
10158SOL     OW31372   5.822   4.847   0.095
10158SOL    HW131373   5.858   4.780   0.030
10158SOL    HW231374   5.880   4.848   0.177
10159SOL     OW31375   3.246   3.063   2.537
10159SOL    HW131376   3.299   3.056   2.453
10159SOL    HW231377   3.292   3.013   2.610
10160SOL     OW31378   0.943   5.035   2.728
10160SOL    HW131379   0.978   5.070   2.641
10160SOL    HW231380   0.957   4.936   2.732
10161SOL     OW31381   5.587   3.377   4.816
10161SOL    HW131382   5.568   3.444   4.745
10161SOL    HW231383   5.536   3.399   4.898
10162SOL     OW31384   1.299   2.967   2.467
10162SOL    HW131385   1.310   3.012   2.555
10162SOL    HW231386   1.292   3.036   2.395
10163SOL     OW31387   2.279   6.236   5.421
10163SOL    HW131388   2.237   6.210   5.334
10163SOL    HW231389   2.221   6.206   5.496
10164SOL     OW31390   1.047   1.347   3.480
10164SOL    HW131391   1.092   1.362   3.568
10164SOL    HW231392   1.064   1.253   3.450
10165SOL     OW31393   0.221   3.599   4.427
10165SOL    HW131394   0.216   3.558   4.336
10165SOL    HW231395   0.309   3.579   4.468
10166SOL     OW31396   2.259   0.604   1.565
10166SOL    HW131397   2.207   0.684   1.596
10166SOL    HW231398   2.196   0.535   1.530
10167SOL     OW31399   2.287   1.177   6.488
10167SOL    HW131400   2.203   1.203   6.441
10167SOL    HW231401   2.268   1.167   6.586
10168SOL     OW31402   6.618   0.204   6.330
10168SOL    HW131403   6.598   0.282   6.389
10168SOL    HW231404   6.566   0.212   6.245
10169SOL     OW31405   4.942   3.714   3.733
10169SOL    HW131406   4.934   3.746   3.638
10169SOL    HW231407   5.025   3.659   3.742
10170SOL     OW31408   5.697   5.628   0.405
10170SOL    HW131409   5.707   5.555   0.338
10170SOL    HW231410   5.606   5.669   0.396
10171SOL     OW31411   2.286   3.577   6.123
10171SOL    HW131412   2.330   3.499   6.166
10171SOL    HW231413   2.212   3.546   6.064
10172SOL     OW31414   6.062   0.621   3.004
10172SOL    HW131415   6.066   0.621   2.904
10172SOL    HW231416   6.047   0.528   3.037
10173SOL     OW31417   3.541   4.121   4.841
10173SOL    HW131418   3.442   4.131   4.847
10173SOL    HW231419   3.576   4.176   4.765
10174SOL     OW31420   4.461   5.426   2.830
10174SOL    HW131421   4.520   5.469   2.762
10174SOL    HW231422   4.478   5.327   2.831
10175SOL     OW31423   0.008   0.777   3.791
10175SOL    HW131424   6.967   0.830   3.846
10175SOL    HW231425   0.010   0.683   3.824
10176SOL     OW31426   6.747   1.294   5.485
10176SOL    HW131427   6.724   1.199   5.505
10176SOL    HW231428   6.726   1.314   5.389
10177SOL     OW31429   2.734   0.967   3.973
10177SOL    HW131430   2.734   0.876   3.930
10177SOL    HW231431   2.697   0.960   4.065
10178SOL     OW31432   0.692   1.889   0.724
10178SOL    HW131433   0.673   1.792   0.710
10178SOL    HW231434   0.705   1.906   0.822
10179SOL     OW31435   0.349   4.017   0.759
10179SOL    HW131436   0.424   3.969   0.714
10179SOL    HW231437   0.364   4.016   0.858
10180SOL     OW31438   4.337   6.624   5.796
10180SOL    HW131439   4.337   6.585   5.888
10180SOL    HW231440   4.398   6.704   5.795
10181SOL     OW31441   6.054   3.603   2.506
10181SOL    HW131442   6.047   3.643   2.598
10181SOL    HW231443   6.103   3.516   2.511
10182SOL     OW31444   5.111   1.613   1.249
10182SOL    HW131445   5.197   1.664   1.242
10182SOL    HW231446   5.127   1.516   1.229
10183SOL     OW31447   6.410   1.039   6.471
10183SOL    HW131448   6.425   1.075   6.378
10183SOL    HW231449   6.330   1.082   6.511
10184SOL     OW31450   5.890   1.667   5.622
10184SOL    HW131451   5.833   1.620   5.689
10184SOL    HW231452   5.833   1.724   5.564
10185SOL     OW31453   4.292   5.523   2.619
10185SOL    HW131454   4.352   5.502   2.695
10185SOL    HW231455   4.231   5.445   2.602
10186SOL     OW31456   3.807   3.306   5.904
10186SOL    HW131457   3.843   3.329   5.995
10186SOL    HW231458   3.710   3.329   5.900
10187SOL     OW31459   2.038   3.881   6.573
10187SOL    HW131460   2.020   3.935   6.491
10187SOL    HW231461   2.001   3.789   6.561
10188SOL     OW31462   2.831   0.445   6.319
10188SOL    HW131463   2.760   0.444   6.389
10188SOL    HW231464   2.826   0.361   6.265
10189SOL     OW31465   1.130   1.886   5.877
10189SOL    HW131466   1.108   1.789   5.873
10189SOL    HW231467   1.190   1.904   5.956
10190SOL     OW31468   4.462   5.404   1.196
10190SOL    HW131469   4.503   5.441   1.113
10190SOL    HW231470   4.517   5.431   1.275
10191SOL     OW31471   5.794   6.568   6.207
10191SOL    HW131472   5.872   6.630   6.200
10191SOL    HW231473   5.727   6.605   6.271
10192SOL     OW31474   1.829   1.665   3.891
10192SOL    HW131475   1.894   1.625   3.827
10192SOL    HW231476   1.833   1.616   3.978
10193SOL     OW31477   3.405   3.388   3.520
10193SOL    HW131478   3.325   3.406   3.577
10193SOL    HW231479   3.415   3.290   3.506
10194SOL     OW31480   2.466   0.389   3.296
10194SOL    HW131481   2.436   0.354   3.384
10194SOL    HW231482   2.542   0.333   3.263
10195SOL     OW31483   4.168   6.319   2.564
10195SOL    HW131484   4.164   6.266   2.478
10195SOL    HW231485   4.258   6.308   2.605
10196SOL     OW31486   5.960   2.177   3.736
10196SOL    HW131487   5.980   2.094   3.684
10196SOL    HW231488   6.045   2.215   3.773
10197SOL     OW31489   5.345   0.158   1.813
10197SOL    HW131490   5.343   0.258   1.818
10197SOL    HW231491   5.269   0.120   1.866
10198SOL     OW31492   2.033   6.573   1.031
10198SOL    HW131493   1.966   6.638   1.066
10198SOL    HW231494   2.091   6.540   1.105
10199SOL     OW31495   0.888   1.401   0.885
10199SOL    HW131496   0.967   1.459   0.904
10199SOL    HW231497   0.804   1.450   0.911
10200SOL     OW31498   6.167   4.104   5.321
10200SOL    HW131499   6.079   4.059   5.340
10200SOL    HW231500   6.241   4.052   5.363
10201SOL     OW31501   1.625   5.553   2.508
10201SOL    HW131502   1.655   5.473   2.560
10201SOL    HW231503   1.703   5.594   2.462
10202SOL     OW31504   0.548   3.090   2.623
10202SOL    HW131505   0.494   3.055   2.700
10202SOL    HW231506   0.568   3.015   2.560
10203SOL     OW31507   1.297   3.510   2.514
10203SOL    HW131508   1.353   3.475   2.438
10203SOL    HW231509   1.236   3.581   2.480
10204SOL     OW31510   2.850   4.859   4.891
10204SOL    HW131511   2.847   4.772   4.942
10204SOL    HW231512   2.788   4.925   4.934
10205SOL     OW31513   4.589   1.227   3.142
10205SOL    HW131514   4.596   1.147   3.083
10205SOL    HW231515   4.667   1.228   3.205
10206SOL     OW31516   5.207   0.016   6.309
10206SOL    HW131517   5.172   0.039   6.400
10206SOL    HW231518   5.156   6.963   6.272
10207SOL     OW31519   4.839   0.424   2.656
10207SOL    HW131520   4.921   0.451   2.706
10207SOL    HW231521   4.758   0.449   2.709
10208SOL     OW31522   6.051   4.436   5.333
10208SOL    HW131523   6.118   4.405   5.266
10208SOL    HW231524   5.970   4.472   5.286
10209SOL     OW31525   6.068   6.946   6.331
10209SOL    HW131526   6.051   0.018   6.308
10209SOL    HW231527   6.051   6.888   6.252
10210SOL     OW31528   5.118   5.531   1.723
10210SOL    HW131529   5.171   5.615   1.730
10210SOL    HW231530   5.053   5.527   1.799
10211SOL     OW31531   4.159   5.584   5.295
10211SOL    HW131532   4.116   5.565   5.207
10211SOL    HW231533   4.237   5.646   5.282
10212SOL     OW31534   6.807   0.505   5.203
10212SOL    HW131535   6.726   0.559   5.226
10212SOL    HW231536   6.804   0.417   5.251
10213SOL     OW31537   6.294   0.657   3.123
10213SOL    HW131538   6.209   0.642   3.072
10213SOL    HW231539   6.357   0.711   3.067
10214SOL     OW31540   6.969   0.482   2.183
10214SOL    HW131541   7.021   0.413   2.132
10214SOL    HW231542   6.893   0.514   2.127
10215SOL     OW31543   3.690   3.857   0.247
10215SOL    HW131544   3.595   3.856   0.277
10215SOL    HW231545   3.698   3.904   0.160
10216SOL     OW31546   5.011   7.021   1.554
10216SOL    HW131547   4.942   6.996   1.485
10216SOL    HW231548   5.102   7.014   1.513
10217SOL     OW31549   2.778   1.862   5.524
10217SOL    HW131550   2.719   1.783   5.540
10217SOL    HW231551   2.793   1.911   5.610
10218SOL     OW31552   2.037   2.172   0.403
10218SOL    HW131553   2.048   2.089   0.458
10218SOL    HW231554   1.950   2.170   0.354
10219SOL     OW31555   0.892   3.690   7.017
10219SOL    HW131556   0.918   3.630   0.069
10219SOL    HW231557   0.793   3.704   7.018
10220SOL     OW31558   4.208   1.924   1.124
10220SOL    HW131559   4.285   1.860   1.120
10220SOL    HW231560   4.237   2.010   1.165
10221SOL     OW31561   2.712   0.484   5.175
10221SOL    HW131562   2.664   0.552   5.229
10221SOL    HW231563   2.656   0.402   5.166
10222SOL     OW31564   1.541   5.085   5.866
10222SOL    HW131565   1.591   5.000   5.880
10222SOL    HW231566   1.587   5.160   5.913
10223SOL     OW31567   0.345   4.296   0.207
10223SOL    HW131568   0.295   4.302   0.294
10223SOL    HW231569   0.313   4.368   0.145
10224SOL     OW31570   1.817   6.663   4.474
10224SOL    HW131571   1.878   6.729   4.429
10224SOL    HW231572   1.868   6.614   4.544
10225SOL     OW31573   6.229   6.308   4.037
10225SOL    HW131574   6.286   6.356   4.104
10225SOL    HW231575   6.278   6.228   4.004
10226SOL     OW31576   1.196   1.961   0.806
10226SOL    HW131577   1.252   1.898   0.752
10226SOL    HW231578   1.254   2.035   0.841
10227SOL     OW31579   5.799   5.095   6.242
10227SOL    HW131580   5.757   5.054   6.323
10227SOL    HW231581   5.847   5.024   6.190
10228SOL     OW31582   1.612   5.339   3.557
10228SOL    HW131583   1.582   5.255   3.513
10228SOL    HW231584   1.689   5.378   3.505
10229SOL     OW31585   1.500   6.949   2.456
10229SOL    HW131586   1.420   6.998   2.490
10229SOL    HW231587   1.527   6.880   2.523
10230SOL     OW31588   6.756   0.347   3.835
10230SOL    HW131589   6.795   0.384   3.751
10230SOL    HW231590   6.810   0.376   3.914
10231SOL     OW31591   4.942   0.515   4.664
10231SOL    HW131592   4.938   0.614   4.681
10231SOL    HW231593   5.037   0.485   4.663
10232SOL     OW31594   3.259   2.137   4.832
10232SOL    HW131595   3.227   2.169   4.743
10232SOL    HW231596   3.226   2.198   4.904
10233SOL     OW31597   4.537   1.668   6.124
10233SOL    HW131598   4.539   1.768   6.133
10233SOL    HW231599   4.471   1.631   6.189
10234SOL     OW31600   5.185   6.116   2.093
10234SOL    HW131601   5.259   6.115   2.160
10234SOL    HW231602   5.221   6.145   2.004
10235SOL     OW31603   5.949   0.989   6.637
10235SOL    HW131604   5.900   1.073   6.615
10235SOL    HW231605   5.896   0.936   6.704
10236SOL     OW31606   2.315   5.301   2.014
10236SOL    HW131607   2.325   5.240   1.935
10236SOL    HW231608   2.346   5.393   1.989
10237SOL     OW31609   6.507   2.869   2.618
10237SOL    HW131610   6.432   2.810   2.648
10237SOL    HW231611   6.593   2.820   2.629
10238SOL     OW31612   5.360   4.528   4.556
10238SOL    HW131613   5.367   4.515   4.457
10238SOL    HW231614   5.446   4.504   4.600
10239SOL     OW31615   0.346   4.352   3.902
10239SOL    HW131616   0.292   4.279   3.943
10239SOL    HW231617   0.387   4.408   3.974
10240SOL     OW31618   6.797   4.430   3.864
10240SOL    HW131619   6.887   4.469   3.842
10240SOL    HW231620   6.746   4.495   3.921
10241SOL     OW31621   2.261   1.005   2.177
10241SOL    HW131622   2.223   1.001   2.269
10241SOL    HW231623   2.355   0.972   2.177
10242SOL     OW31624   0.029   0.006   5.908
10242SOL    HW131625   0.027   6.992   6.001
10242SOL    HW231626   0.044   0.105   5.914
10243SOL     OW31627   1.631   5.331   1.903
10243SOL    HW131628   1.695   5.397   1.865
10243SOL    HW231629   1.680   5.263   1.957
10244SOL     OW31630   2.294   6.328   6.856
10244SOL    HW131631   2.310   6.298   6.950
10244SOL    HW231632   2.277   6.427   6.855
10245SOL     OW31633   2.456   2.242   6.963
10245SOL    HW131634   2.374   2.187   6.981
10245SOL    HW231635   2.537   2.186   6.980
10246SOL     OW31636   3.721   3.918   4.730
10246SOL    HW131637   3.647   3.912   4.797
10246SOL    HW231638   3.729   3.831   4.681
10247SOL     OW31639   0.846   4.870   5.396
10247SOL    HW131640   0.791   4.845   5.317
10247SOL    HW231641   0.933   4.909   5.366
10248SOL     OW31642   4.278   0.212   1.594
10248SOL    HW131643   4.377   0.223   1.606
10248SOL    HW231644   4.233   0.301   1.606
10249SOL     OW31645   4.702   1.121   6.795
10249SOL    HW131646   4.732   1.145   6.887
10249SOL    HW231647   4.782   1.096   6.740
10250SOL     OW31648   6.456   0.620   0.082
10250SOL    HW131649   6.501   0.631   0.170
10250SOL    HW231650   6.483   0.694   0.021
10251SOL     OW31651   2.703   4.138   0.110
10251SOL    HW131652   2.738   4.221   0.068
10251SOL    HW231653   2.662   4.080   0.040
10252SOL     OW31654   6.708   5.100   1.860
10252SOL    HW131655   6.791   5.153   1.845
10252SOL    HW231656   6.629   5.153   1.829
10253SOL     OW31657   3.715   5.337   6.577
10253SOL    HW131658   3.680   5.386   6.657
10253SOL    HW231659   3.738   5.243   6.602
10254SOL     OW31660   2.542   2.097   4.993
10254SOL    HW131661   2.588   2.184   5.012
10254SOL    HW231662   2.447   2.103   5.023
10255SOL     OW31663   3.325   5.891   2.691
10255SOL    HW131664   3.399   5.824   2.682
10255SOL    HW231665   3.338   5.964   2.623
10256SOL     OW31666   5.832   6.508   6.543
10256SOL    HW131667   5.899   6.581   6.529
10256SOL    HW231668   5.863   6.449   6.617
10257SOL     OW31669   1.072   5.994   5.659
10257SOL    HW131670   1.073   6.028   5.565
10257SOL    HW231671   1.029   6.061   5.719
10258SOL     OW31672   4.106   0.868   3.045
10258SOL    HW131673   4.133   0.955   3.088
10258SOL    HW231674   4.014   0.877   3.007
10259SOL     OW31675   0.070   4.148   3.138
10259SOL    HW131676   0.015   4.065   3.132
10259SOL    HW231677   0.011   4.227   3.151
10260SOL     OW31678   1.007   0.313   1.592
10260SOL    HW131679   1.075   0.375   1.552
10260SOL    HW231680   0.926   0.366   1.620
10261SOL     OW31681   1.357   5.870   2.283
10261SOL    HW131682   1.368   5.772   2.297
10261SOL    HW231683   1.379   5.918   2.368
10262SOL     OW31684   1.557   5.290   4.797
10262SOL    HW131685   1.578   5.314   4.891
10262SOL    HW231686   1.514   5.200   4.794
10263SOL     OW31687   6.267   2.341   6.203
10263SOL    HW131688   6.249   2.309   6.296
10263SOL    HW231689   6.339   2.410   6.204
10264SOL     OW31690   0.354   0.540   5.818
10264SOL    HW131691   0.318   0.609   5.755
10264SOL    HW231692   0.298   0.457   5.814
10265SOL     OW31693   4.314   1.904   2.181
10265SOL    HW131694   4.389   1.912   2.116
10265SOL    HW231695   4.340   1.945   2.269
10266SOL     OW31696   2.858   4.490   6.764
10266SOL    HW131697   2.946   4.490   6.811
10266SOL    HW231698   2.797   4.556   6.809
10267SOL     OW31699   6.933   2.211   6.305
10267SOL    HW131700   6.939   2.285   6.373
10267SOL    HW231701   6.854   2.227   6.246
10268SOL     OW31702   5.992   5.184   1.929
10268SOL    HW131703   6.053   5.107   1.910
10268SOL    HW231704   5.997   5.207   2.026
10269SOL     OW31705   2.669   2.977   6.144
10269SOL    HW131706   2.647   2.893   6.194
10269SOL    HW231707   2.659   3.056   6.205
10270SOL     OW31708   1.928   5.848   0.834
10270SOL    HW131709   1.979   5.811   0.756
10270SOL    HW231710   1.964   5.810   0.919
10271SOL     OW31711   4.371   4.602   0.785
10271SOL    HW131712   4.435   4.527   0.798
10271SOL    HW231713   4.277   4.567   0.786
10272SOL     OW31714   0.612   0.709   5.849
10272SOL    HW131715   0.680   0.721   5.921
10272SOL    HW231716   0.543   0.643   5.878
10273SOL     OW31717   4.252   5.942   4.600
10273SOL    HW131718   4.190   5.907   4.670
10273SOL    HW231719   4.319   5.872   4.577
10274SOL     OW31720   1.404   5.715   5.969
10274SOL    HW131721   1.394   5.615   5.973
10274SOL    HW231722   1.327   5.753   5.918
10275SOL     OW31723   1.084   6.205   2.268
10275SOL    HW131724   1.036   6.287   2.240
10275SOL    HW231725   1.036   6.162   2.345
10276SOL     OW31726   6.445   5.308   6.197
10276SOL    HW131727   6.495   5.375   6.251
10276SOL    HW231728   6.401   5.242   6.257
10277SOL     OW31729   2.433   5.732   4.275
10277SOL    HW131730   2.357   5.767   4.220
10277SOL    HW231731   2.398   5.686   4.356
10278SOL     OW31732   5.965   0.642   5.469
10278SOL    HW131733   5.901   0.698   5.522
10278SOL    HW231734   5.937   0.640   5.373
10279SOL     OW31735   3.416   6.737   4.095
10279SOL    HW131736   3.460   6.708   4.180
10279SOL    HW231737   3.403   6.658   4.035
10280SOL     OW31738   2.315   3.315   6.628
10280SOL    HW131739   2.357   3.378   6.562
10280SOL    HW231740   2.379   3.296   6.702
10281SOL     OW31741   4.209   0.728   3.606
10281SOL    HW131742   4.185   0.632   3.615
10281SOL    HW231743   4.159   0.768   3.529
10282SOL     OW31744   0.930   1.618   4.226
10282SOL    HW131745   0.870   1.549   4.267
10282SOL    HW231746   0.926   1.703   4.278
10283SOL     OW31747   1.255   3.923   6.707
10283SOL    HW131748   1.309   3.988   6.761
10283SOL    HW231749   1.310   3.841   6.690
10284SOL     OW31750   5.426   2.791   5.311
10284SOL    HW131751   5.377   2.878   5.325
10284SOL    HW231752   5.500   2.784   5.379
10285SOL     OW31753   6.109   0.095   1.166
10285SOL    HW131754   6.124   0.175   1.108
10285SOL    HW231755   6.040   0.036   1.122
10286SOL     OW31756   3.978   0.825   3.499
10286SOL    HW131757   4.005   0.921   3.514
10286SOL    HW231758   3.900   0.822   3.436
10287SOL     OW31759   2.775   6.173   1.598
10287SOL    HW131760   2.721   6.185   1.514
10287SOL    HW231761   2.844   6.245   1.604
10288SOL     OW31762   5.872   6.630   4.006
10288SOL    HW131763   5.945   6.574   4.045
10288SOL    HW231764   5.906   6.681   3.928
10289SOL     OW31765   3.187   0.788   1.614
10289SOL    HW131766   3.272   0.800   1.563
10289SOL    HW231767   3.208   0.754   1.706
10290SOL     OW31768   3.813   4.083   2.221
10290SOL    HW131769   3.860   4.171   2.233
10290SOL    HW231770   3.786   4.072   2.126
10291SOL     OW31771   3.347   0.389   5.524
10291SOL    HW131772   3.289   0.317   5.487
10291SOL    HW231773   3.378   0.363   5.616
10292SOL     OW31774   0.756   1.162   4.854
10292SOL    HW131775   0.821   1.207   4.793
10292SOL    HW231776   0.771   1.064   4.852
10293SOL     OW31777   1.884   5.957   3.386
10293SOL    HW131778   1.827   6.037   3.405
10293SOL    HW231779   1.973   5.967   3.430
10294SOL     OW31780   5.800   1.622   3.202
10294SOL    HW131781   5.847   1.694   3.151
10294SOL    HW231782   5.781   1.653   3.295
10295SOL     OW31783   0.762   5.490   6.174
10295SOL    HW131784   0.695   5.448   6.235
10295SOL    HW231785   0.752   5.450   6.083
10296SOL     OW31786   6.465   2.401   0.276
10296SOL    HW131787   6.504   2.336   0.210
10296SOL    HW231788   6.392   2.357   0.328
10297SOL     OW31789   1.909   5.393   5.072
10297SOL    HW131790   1.902   5.312   5.130
10297SOL    HW231791   1.984   5.382   5.008
10298SOL     OW31792   4.889   3.511   3.905
10298SOL    HW131793   4.953   3.514   3.828
10298SOL    HW231794   4.817   3.579   3.891
10299SOL     OW31795   5.248   4.491   3.152
10299SOL    HW131796   5.296   4.483   3.239
10299SOL    HW231797   5.248   4.402   3.106
10300SOL     OW31798   1.142   4.643   2.515
10300SOL    HW131799   1.050   4.611   2.539
10300SOL    HW231800   1.143   4.743   2.513
10301SOL     OW31801   5.585   1.625   1.133
10301SOL    HW131802   5.651   1.637   1.208
10301SOL    HW231803   5.587   1.530   1.101
10302SOL     OW31804   1.842   5.391   3.415
10302SOL    HW131805   1.786   5.390   3.332
10302SOL    HW231806   1.938   5.405   3.390
10303SOL     OW31807   3.333   3.080   1.336
10303SOL    HW131808   3.407   3.043   1.393
10303SOL    HW231809   3.373   3.136   1.263
10304SOL     OW31810   6.630   6.709   2.887
10304SOL    HW131811   6.632   6.746   2.794
10304SOL    HW231812   6.690   6.765   2.945
10305SOL     OW31813   1.824   5.818   1.205
10305SOL    HW131814   1.798   5.858   1.293
10305SOL    HW231815   1.810   5.885   1.132
10306SOL     OW31816   4.517   5.890   6.994
10306SOL    HW131817   4.515   5.899   0.069
10306SOL    HW231818   4.504   5.979   6.951
10307SOL     OW31819   2.072   1.432   5.831
10307SOL    HW131820   2.142   1.496   5.862
10307SOL    HW231821   2.069   1.353   5.891
10308SOL     OW31822   3.523   5.759   3.463
10308SOL    HW131823   3.529   5.839   3.403
10308SOL    HW231824   3.446   5.772   3.527
10309SOL     OW31825   0.191   6.570   3.441
10309SOL    HW131826   0.255   6.539   3.371
10309SOL    HW231827   0.185   6.501   3.513
10310SOL     OW31828   3.728   4.087   3.433
10310SOL    HW131829   3.724   4.048   3.341
10310SOL    HW231830   3.799   4.039   3.486
10311SOL     OW31831   0.197   5.517   0.330
10311SOL    HW131832   0.108   5.498   0.371
10311SOL    HW231833   0.248   5.580   0.389
10312SOL     OW31834   2.040   4.590   1.030
10312SOL    HW131835   2.017   4.659   1.098
10312SOL    HW231836   2.034   4.499   1.071
10313SOL     OW31837   5.321   6.671   3.189
10313SOL    HW131838   5.315   6.651   3.092
10313SOL    HW231839   5.274   6.756   3.209
10314SOL     OW31840   6.709   5.917   0.562
10314SOL    HW131841   6.694   5.950   0.656
10314SOL    HW231842   6.621   5.895   0.520
10315SOL     OW31843   6.184   5.416   4.657
10315SOL    HW131844   6.182   5.318   4.635
10315SOL    HW231845   6.213   5.468   4.577
10316SOL     OW31846   7.019   4.864   2.958
10316SOL    HW131847   0.031   4.948   2.917
10316SOL    HW231848   0.052   4.838   3.036
10317SOL     OW31849   3.444   4.660   0.221
10317SOL    HW131850   3.497   4.619   0.296
10317SOL    HW231851   3.382   4.591   0.183
10318SOL     OW31852   6.152   5.442   2.165
10318SOL    HW131853   6.070   5.388   2.185
10318SOL    HW231854   6.124   5.530   2.125
10319SOL     OW31855   6.199   6.554   3.029
10319SOL    HW131856   6.100   6.545   3.036
10319SOL    HW231857   6.230   6.630   3.087
10320SOL     OW31858   5.797   6.673   1.625
10320SOL    HW131859   5.879   6.712   1.583
10320SOL    HW231860   5.772   6.589   1.577
10321SOL     OW31861   4.587   5.594   4.292
10321SOL    HW131862   4.562   5.620   4.385
10321SOL    HW231863   4.642   5.667   4.251
10322SOL     OW31864   5.908   2.557   6.927
10322SOL    HW131865   5.863   2.630   6.979
10322SOL    HW231866   5.895   2.573   6.829
10323SOL     OW31867   5.490   2.799   4.932
10323SOL    HW131868   5.490   2.708   4.891
10323SOL    HW231869   5.424   2.857   4.884
10324SOL     OW31870   3.095   3.279   3.915
10324SOL    HW131871   3.097   3.182   3.888
10324SOL    HW231872   3.059   3.286   4.008
10325SOL     OW31873   6.997   3.953   3.422
10325SOL    HW131874   0.066   3.917   3.424
10325SOL    HW231875   6.935   3.884   3.383
10326SOL     OW31876   5.814   1.985   0.726
10326SOL    HW131877   5.771   1.995   0.637
10326SOL    HW231878   5.808   1.890   0.756
10327SOL     OW31879   6.671   1.026   3.247
10327SOL    HW131880   6.591   1.075   3.214
10327SOL    HW231881   6.715   1.080   3.320
10328SOL     OW31882   6.227   2.819   1.580
10328SOL    HW131883   6.183   2.732   1.600
10328SOL    HW231884   6.157   2.890   1.570
10329SOL     OW31885   3.862   6.721   2.433
10329SOL    HW131886   3.863   6.695   2.336
10329SOL    HW231887   3.954   6.712   2.470
10330SOL     OW31888   4.089   5.238   1.307
10330SOL    HW131889   4.106   5.173   1.381
10330SOL    HW231890   4.123   5.329   1.333
10331SOL     OW31891   6.089   0.708   3.459
10331SOL    HW131892   6.020   0.690   3.389
10331SOL    HW231893   6.158   0.772   3.423
10332SOL     OW31894   0.341   2.682   6.641
10332SOL    HW131895   0.276   2.652   6.571
10332SOL    HW231896   0.401   2.753   6.603
10333SOL     OW31897   4.591   4.371   4.658
10333SOL    HW131898   4.492   4.377   4.643
10333SOL    HW231899   4.633   4.318   4.585
10334SOL     OW31900   1.630   4.599   5.216
10334SOL    HW131901   1.723   4.612   5.180
10334SOL    HW231902   1.629   4.518   5.275
10335SOL     OW31903   2.125   5.031   1.663
10335SOL    HW131904   2.115   4.932   1.660
10335SOL    HW231905   2.186   5.056   1.739
10336SOL     OW31906   4.012   0.013   2.462
10336SOL    HW131907   4.089   6.979   2.489
10336SOL    HW231908   4.042   0.076   2.389
10337SOL     OW31909   0.597   5.263   5.426
10337SOL    HW131910   0.692   5.264   5.395
10337SOL    HW231911   0.579   5.179   5.477
10338SOL     OW31912   3.260   5.879   3.101
10338SOL    HW131913   3.203   5.890   3.020
10338SOL    HW231914   3.353   5.854   3.074
10339SOL     OW31915   3.090   5.668   0.787
10339SOL    HW131916   3.019   5.612   0.831
10339SOL    HW231917   3.180   5.630   0.809
10340SOL     OW31918   2.135   0.376   0.135
10340SOL    HW131919   2.215   0.433   0.115
10340SOL    HW231920   2.103   0.332   0.052
10341SOL     OW31921   1.831   1.304   2.531
10341SOL    HW131922   1.748   1.308   2.587
10341SOL    HW231923   1.828   1.223   2.473
10342SOL     OW31924   2.404   6.090   4.713
10342SOL    HW131925   2.467   6.102   4.637
10342SOL    HW231926   2.405   5.994   4.743
10343SOL     OW31927   2.033   3.264   5.040
10343SOL    HW131928   2.078   3.349   5.015
10343SOL    HW231929   2.075   3.188   4.990
10344SOL     OW31930   3.993   4.680   5.596
10344SOL    HW131931   3.937   4.671   5.678
10344SOL    HW231932   4.049   4.762   5.603
10345SOL     OW31933   1.791   1.389   6.858
10345SOL    HW131934   1.738   1.437   6.788
10345SOL    HW231935   1.767   1.292   6.857
10346SOL     OW31936   5.010   5.562   6.573
10346SOL    HW131937   5.098   5.606   6.555
10346SOL    HW231938   4.997   5.552   6.672
10347SOL     OW31939   5.310   1.586   2.152
10347SOL    HW131940   5.333   1.538   2.068
10347SOL    HW231941   5.211   1.592   2.161
10348SOL     OW31942   0.166   5.517   5.539
10348SOL    HW131943   0.181   5.418   5.547
10348SOL    HW231944   0.144   5.539   5.444
10349SOL     OW31945   6.827   2.172   0.530
10349SOL    HW131946   6.743   2.214   0.564
10349SOL    HW231947   6.828   2.174   0.430
10350SOL     OW31948   2.216   4.344   4.869
10350SOL    HW131949   2.240   4.333   4.966
10350SOL    HW231950   2.225   4.256   4.823
10351SOL     OW31951   4.762   4.267   4.863
10351SOL    HW131952   4.682   4.297   4.811
10351SOL    HW231953   4.772   4.323   4.945
10352SOL     OW31954   5.349   1.610   0.202
10352SOL    HW131955   5.261   1.612   0.155
10352SOL    HW231956   5.344   1.667   0.284
10353SOL     OW31957   6.451   2.662   3.933
10353SOL    HW131958   6.478   2.730   4.001
10353SOL    HW231959   6.518   2.587   3.932
10354SOL     OW31960   0.218   3.276   1.019
10354SOL    HW131961   0.292   3.222   1.060
10354SOL    HW231962   0.242   3.299   0.925
10355SOL     OW31963   0.845   1.707   1.194
10355SOL    HW131964   0.754   1.668   1.207
10355SOL    HW231965   0.904   1.679   1.270
10356SOL     OW31966   6.576   3.614   6.308
10356SOL    HW131967   6.636   3.673   6.362
10356SOL    HW231968   6.510   3.671   6.258
10357SOL     OW31969   1.019   2.808   5.539
10357SOL    HW131970   0.967   2.757   5.609
10357SOL    HW231971   1.116   2.805   5.562
10358SOL     OW31972   0.687   2.102   2.675
10358SOL    HW131973   0.762   2.037   2.661
10358SOL    HW231974   0.719   2.178   2.732
10359SOL     OW31975   6.271   1.976   2.739
10359SOL    HW131976   6.290   2.028   2.822
10359SOL    HW231977   6.183   2.004   2.701
10360SOL     OW31978   5.845   4.237   1.799
10360SOL    HW131979   5.880   4.309   1.739
10360SOL    HW231980   5.851   4.149   1.751
10361SOL     OW31981   0.527   1.863   2.061
10361SOL    HW131982   0.526   1.805   2.143
10361SOL    HW231983   0.525   1.804   1.980
10362SOL     OW31984   0.912   5.013   1.464
10362SOL    HW131985   0.935   4.972   1.375
10362SOL    HW231986   0.940   5.109   1.464
10363SOL     OW31987   5.261   4.283   6.813
10363SOL    HW131988   5.342   4.319   6.858
10363SOL    HW231989   5.224   4.351   6.750
10364SOL     OW31990   5.669   4.553   2.076
10364SOL    HW131991   5.625   4.501   2.150
10364SOL    HW231992   5.755   4.510   2.051
10365SOL     OW31993   5.445   5.749   0.410
10365SOL    HW131994   5.365   5.792   0.370
10365SOL    HW231995   5.447   5.768   0.509
10366SOL     OW31996   2.613   5.912   3.582
10366SOL    HW131997   2.709   5.916   3.552
10366SOL    HW231998   2.609   5.871   3.673
10367SOL     OW31999   5.810   0.863   1.401
10367SOL    HW132000   5.759   0.814   1.472
10367SOL    HW232001   5.901   0.823   1.392
10368SOL     OW32002   2.408   5.921   2.213
10368SOL    HW132003   2.317   5.904   2.174
10368SOL    HW232004   2.427   6.019   2.209
10369SOL     OW32005   2.642   0.211   6.540
10369SOL    HW132006   2.666   0.197   6.636
10369SOL    HW232007   2.636   0.309   6.520
10370SOL     OW32008   1.078   0.697   5.936
10370SOL    HW132009   1.121   0.702   6.026
10370SOL    HW232010   1.108   0.774   5.880
10371SOL     OW32011   3.985   5.752   2.723
10371SOL    HW132012   3.948   5.811   2.795
10371SOL    HW232013   4.061   5.798   2.677
10372SOL     OW32014   3.071   6.649   1.720
10372SOL    HW132015   3.129   6.664   1.640
10372SOL    HW232016   3.122   6.594   1.787
10373SOL     OW32017   0.927   1.110   5.402
10373SOL    HW132018   0.966   1.178   5.339
10373SOL    HW232019   0.897   1.156   5.486
10374SOL     OW32020   4.281   5.894   3.861
10374SOL    HW132021   4.281   5.939   3.950
10374SOL    HW232022   4.202   5.833   3.855
10375SOL     OW32023   2.323   3.892   6.930
10375SOL    HW132024   2.298   3.948   6.851
10375SOL    HW232025   2.349   3.801   6.898
10376SOL     OW32026   1.820   4.592   3.258
10376SOL    HW132027   1.744   4.536   3.225
10376SOL    HW232028   1.813   4.603   3.357
10377SOL     OW32029   1.766   0.151   2.590
10377SOL    HW132030   1.771   0.105   2.501
10377SOL    HW232031   1.851   0.201   2.606
10378SOL     OW32032   0.151   4.757   3.747
10378SOL    HW132033   0.246   4.742   3.721
10378SOL    HW232034   0.109   4.823   3.684
10379SOL     OW32035   1.918   6.485   4.680
10379SOL    HW132036   2.014   6.480   4.708
10379SOL    HW232037   1.862   6.432   4.744
10380SOL     OW32038   2.288   2.695   4.676
10380SOL    HW132039   2.250   2.767   4.735
10380SOL    HW232040   2.340   2.631   4.731
10381SOL     OW32041   4.591   4.813   2.048
10381SOL    HW132042   4.509   4.799   1.993
10381SOL    HW232043   4.664   4.851   1.991
10382SOL     OW32044   3.952   5.376   2.191
10382SOL    HW132045   3.917   5.372   2.284
10382SOL    HW232046   4.044   5.339   2.188
10383SOL     OW32047   1.933   4.321   0.482
10383SOL    HW132048   1.852   4.293   0.430
10383SOL    HW232049   1.998   4.246   0.485
10384SOL     OW32050   6.271   6.412   1.586
10384SOL    HW132051   6.325   6.424   1.669
10384SOL    HW232052   6.175   6.432   1.605
10385SOL     OW32053   4.470   4.712   0.067
10385SOL    HW132054   4.562   4.746   0.085
10385SOL    HW232055   4.473   4.615   0.047
10386SOL     OW32056   0.076   1.439   0.276
10386SOL    HW132057   0.119   1.415   0.363
10386SOL    HW232058   0.135   1.412   0.201
10387SOL     OW32059   5.048   2.871   2.098
10387SOL    HW132060   5.064   2.966   2.124
10387SOL    HW232061   4.971   2.867   2.034
10388SOL     OW32062   2.969   1.003   5.651
10388SOL    HW132063   2.882   0.961   5.623
10388SOL    HW232064   2.973   1.006   5.751
10389SOL     OW32065   0.872   3.705   0.608
10389SOL    HW132066   0.845   3.755   0.526
10389SOL    HW232067   0.820   3.619   0.613
10390SOL     OW32068   2.716   2.527   1.385
10390SOL    HW132069   2.712   2.604   1.449
10390SOL    HW232070   2.719   2.562   1.292
10391SOL     OW32071   5.095   0.011   4.320
10391SOL    HW132072   5.042   6.951   4.307
10391SOL    HW232073   5.158   7.023   4.397
10392SOL     OW32074   6.853   5.058   4.010
10392SOL    HW132075   6.937   5.008   3.990
10392SOL    HW232076   6.785   4.994   4.046
10393SOL     OW32077   1.507   4.132   3.751
10393SOL    HW132078   1.571   4.057   3.736
10393SOL    HW232079   1.468   4.124   3.843
10394SOL     OW32080   2.688   5.802   4.186
10394SOL    HW132081   2.717   5.798   4.090
10394SOL    HW232082   2.595   5.766   4.194
10395SOL     OW32083   0.484   6.927   0.539
10395SOL    HW132084   0.436   6.917   0.626
10395SOL    HW232085   0.449   7.007   0.490
10396SOL     OW32086   2.708   1.750   4.898
10396SOL    HW132087   2.694   1.653   4.878
10396SOL    HW232088   2.619   1.794   4.914
10397SOL     OW32089   3.029   2.142   2.289
10397SOL    HW132090   3.126   2.137   2.312
10397SOL    HW232091   3.018   2.190   2.202
10398SOL     OW32092   6.949   2.780   1.736
10398SOL    HW132093   6.973   2.863   1.786
10398SOL    HW232094   7.008   2.772   1.655
10399SOL     OW32095   6.669   2.966   1.692
10399SOL    HW132096   6.716   3.039   1.642
10399SOL    HW232097   6.570   2.981   1.687
10400SOL     OW32098   3.611   6.753   0.447
10400SOL    HW132099   3.628   6.849   0.424
10400SOL    HW232100   3.577   6.746   0.541
10401SOL     OW32101   6.236   0.973   4.159
10401SOL    HW132102   6.284   0.886   4.169
10401SOL    HW232103   6.142   0.963   4.192
10402SOL     OW32104   6.737   3.044   4.698
10402SOL    HW132105   6.690   2.962   4.664
10402SOL    HW232106   6.743   3.112   4.625
10403SOL     OW32107   2.889   0.328   3.169
10403SOL    HW132108   2.887   0.427   3.183
10403SOL    HW232109   2.981   0.300   3.141
10404SOL     OW32110   7.001   6.513   5.966
10404SOL    HW132111   0.075   6.499   5.954
10404SOL    HW232112   6.980   6.611   5.957
10405SOL     OW32113   0.155   1.217   5.845
10405SOL    HW132114   0.231   1.269   5.884
10405SOL    HW232115   0.181   1.121   5.836
10406SOL     OW32116   3.449   4.906   1.538
10406SOL    HW132117   3.434   4.874   1.632
10406SOL    HW232118   3.455   5.006   1.538
10407SOL     OW32119   3.491   6.812   6.666
10407SOL    HW132120   3.422   6.745   6.640
10407SOL    HW232121   3.574   6.766   6.696
10408SOL     OW32122   4.611   0.812   0.213
10408SOL    HW132123   4.630   0.741   0.145
10408SOL    HW232124   4.655   0.897   0.184
10409SOL     OW32125   6.404   4.826   0.615
10409SOL    HW132126   6.439   4.833   0.521
10409SOL    HW232127   6.304   4.824   0.612
10410SOL     OW32128   5.961   1.150   7.008
10410SOL    HW132129   6.031   1.151   6.937
10410SOL    HW232130   5.881   1.202   6.978
10411SOL     OW32131   2.376   5.373   3.196
10411SOL    HW132132   2.459   5.332   3.160
10411SOL    HW232133   2.373   5.360   3.296
10412SOL     OW32134   6.006   1.180   0.812
10412SOL    HW132135   5.936   1.180   0.740
10412SOL    HW232136   5.962   1.181   0.901
10413SOL     OW32137   6.783   2.105   1.300
10413SOL    HW132138   6.724   2.176   1.337
10413SOL    HW232139   6.854   2.083   1.367
10414SOL     OW32140   5.108   3.320   5.186
10414SOL    HW132141   5.009   3.307   5.185
10414SOL    HW232142   5.142   3.323   5.092
10415SOL     OW32143   0.571   5.692   6.343
10415SOL    HW132144   0.567   5.768   6.278
10415SOL    HW232145   0.596   5.608   6.295
10416SOL     OW32146   5.779   2.717   4.558
10416SOL    HW132147   5.709   2.788   4.569
10416SOL    HW232148   5.868   2.754   4.583
10417SOL     OW32149   3.247   4.969   4.256
10417SOL    HW132150   3.155   4.932   4.253
10417SOL    HW232151   3.291   4.942   4.342
10418SOL     OW32152   0.260   3.987   5.406
10418SOL    HW132153   0.184   4.021   5.461
10418SOL    HW232154   0.326   4.061   5.391
10419SOL     OW32155   0.758   0.597   0.415
10419SOL    HW132156   0.769   0.560   0.323
10419SOL    HW232157   0.809   0.683   0.423
10420SOL     OW32158   0.096   3.252   2.693
10420SOL    HW132159   0.041   3.188   2.640
10420SOL    HW232160   0.096   3.225   2.789
10421SOL     OW32161   1.375   0.773   3.595
10421SOL    HW132162   1.318   0.731   3.524
10421SOL    HW232163   1.433   0.843   3.555
10422SOL     OW32164   6.553   2.720   5.620
10422SOL    HW132165   6.621   2.682   5.682
10422SOL    HW232166   6.512   2.646   5.566
10423SOL     OW32167   5.021   4.567   4.368
10423SOL    HW132168   5.080   4.504   4.318
10423SOL    HW232169   5.046   4.567   4.465
10424SOL     OW32170   5.361   1.868   6.665
10424SOL    HW132171   5.335   1.875   6.568
10424SOL    HW232172   5.450   1.911   6.678
10425SOL     OW32173   1.309   6.666   2.357
10425SOL    HW132174   1.307   6.649   2.456
10425SOL    HW232175   1.359   6.751   2.339
10426SOL     OW32176   6.194   4.324   0.608
10426SOL    HW132177   6.256   4.272   0.667
10426SOL    HW232178   6.247   4.390   0.554
10427SOL     OW32179   4.672   2.179   0.771
10427SOL    HW132180   4.614   2.098   0.777
10427SOL    HW232181   4.615   2.261   0.773
10428SOL     OW32182   3.992   0.575   4.777
10428SOL    HW132183   4.023   0.670   4.766
10428SOL    HW232184   3.917   0.557   4.714
10429SOL     OW32185   6.854   5.561   1.416
10429SOL    HW132186   6.875   5.658   1.407
10429SOL    HW232187   6.865   5.534   1.512
10430SOL     OW32188   4.225   6.893   3.043
10430SOL    HW132189   4.178   6.936   2.967
10430SOL    HW232190   4.223   6.954   3.123
10431SOL     OW32191   3.026   0.398   5.400
10431SOL    HW132192   3.094   0.440   5.339
10431SOL    HW232193   2.969   0.334   5.348
10432SOL     OW32194   6.233   1.149   3.970
10432SOL    HW132195   6.144   1.190   3.985
10432SOL    HW232196   6.258   1.093   4.049
10433SOL     OW32197   2.217   6.421   1.894
10433SOL    HW132198   2.191   6.473   1.812
10433SOL    HW232199   2.209   6.323   1.875
10434SOL     OW32200   3.528   0.008   3.318
10434SOL    HW132201   3.460   0.068   3.360
10434SOL    HW232202   3.558   6.964   3.385
10435SOL     OW32203   6.434   6.870   5.357
10435SOL    HW132204   6.525   6.830   5.354
10435SOL    HW232205   6.385   6.849   5.272
10436SOL     OW32206   0.461   5.182   4.337
10436SOL    HW132207   0.510   5.156   4.254
10436SOL    HW232208   0.363   5.169   4.323
10437SOL     OW32209   6.116   5.086   5.571
10437SOL    HW132210   6.118   4.988   5.550
10437SOL    HW232211   6.031   5.126   5.536
10438SOL     OW32212   5.341   6.347   0.295
10438SOL    HW132213   5.266   6.387   0.348
10438SOL    HW232214   5.424   6.344   0.351
10439SOL     OW32215   3.678   0.217   5.560
10439SOL    HW132216   3.620   0.155   5.507
10439SOL    HW232217   3.690   0.303   5.511
10440SOL     OW32218   0.836   6.738   1.135
10440SOL    HW132219   0.831   6.804   1.210
10440SOL    HW232220   0.762   6.672   1.143
10441SOL     OW32221   5.315   1.593   6.602
10441SOL    HW132222   5.315   1.678   6.548
10441SOL    HW232223   5.341   1.614   6.696
10442SOL     OW32224   3.324   5.168   5.481
10442SOL    HW132225   3.356   5.139   5.571
10442SOL    HW232226   3.279   5.092   5.435
10443SOL     OW32227   6.216   3.661   4.642
10443SOL    HW132228   6.125   3.701   4.648
10443SOL    HW232229   6.207   3.563   4.622
10444SOL     OW32230   3.780   5.356   4.577
10444SOL    HW132231   3.725   5.275   4.596
10444SOL    HW232232   3.732   5.437   4.612
10445SOL     OW32233   6.541   5.240   4.676
10445SOL    HW132234   6.599   5.193   4.610
10445SOL    HW232235   6.540   5.338   4.655
10446SOL     OW32236   0.530   4.400   6.539
10446SOL    HW132237   0.491   4.308   6.545
10446SOL    HW232238   0.488   4.460   6.607
10447SOL     OW32239   6.629   1.900   1.211
10447SOL    HW132240   6.609   1.881   1.308
10447SOL    HW232241   6.684   1.983   1.204
10448SOL     OW32242   3.737   3.925   1.218
10448SOL    HW132243   3.705   3.991   1.150
10448SOL    HW232244   3.659   3.874   1.255
10449SOL     OW32245   2.611   5.276   4.612
10449SOL    HW132246   2.599   5.315   4.521
10449SOL    HW232247   2.705   5.241   4.621
10450SOL     OW32248   0.013   2.381   0.251
10450SOL    HW132249   0.112   2.383   0.262
10450SOL    HW232250   6.996   2.449   0.313
10451SOL     OW32251   2.639   4.584   2.931
10451SOL    HW132252   2.600   4.586   3.024
10451SOL    HW232253   2.588   4.519   2.875
10452SOL     OW32254   0.729   3.472   3.832
10452SOL    HW132255   0.659   3.403   3.848
10452SOL    HW232256   0.817   3.428   3.816
10453SOL     OW32257   5.905   5.569   1.395
10453SOL    HW132258   5.889   5.549   1.298
10453SOL    HW232259   5.912   5.483   1.446
10454SOL     OW32260   5.159   3.103   2.249
10454SOL    HW132261   5.068   3.142   2.264
10454SOL    HW232262   5.176   3.031   2.315
10455SOL     OW32263   0.447   5.196   3.867
10455SOL    HW132264   0.428   5.125   3.799
10455SOL    HW232265   0.487   5.275   3.821
10456SOL     OW32266   3.468   6.116   1.375
10456SOL    HW132267   3.446   6.104   1.278
10456SOL    HW232268   3.416   6.193   1.412
10457SOL     OW32269   3.935   3.973   3.554
10457SOL    HW132270   3.982   3.885   3.560
10457SOL    HW232271   3.941   4.020   3.642
10458SOL     OW32272   1.008   6.835   0.945
10458SOL    HW132273   0.939   6.804   1.009
10458SOL    HW232274   1.074   6.893   0.992
10459SOL     OW32275   5.698   5.183   2.234
10459SOL    HW132276   5.643   5.106   2.200
10459SOL    HW232277   5.658   5.269   2.203
10460SOL     OW32278   2.952   5.322   1.802
10460SOL    HW132279   3.047   5.299   1.784
10460SOL    HW232280   2.929   5.298   1.896
10461SOL     OW32281   2.495   6.839   6.660
10461SOL    HW132282   2.452   6.905   6.599
10461SOL    HW232283   2.592   6.832   6.639
10462SOL     OW32284   5.926   0.981   1.067
10462SOL    HW132285   5.840   0.948   1.026
10462SOL    HW232286   6.002   0.929   1.029
10463SOL     OW32287   2.905   4.226   6.961
10463SOL    HW132288   2.908   4.315   7.007
10463SOL    HW232289   2.831   4.225   6.894
10464SOL     OW32290   4.806   0.210   0.526
10464SOL    HW132291   4.845   0.277   0.589
10464SOL    HW232292   4.725   0.168   0.568
10465SOL     OW32293   0.176   5.454   5.826
10465SOL    HW132294   0.082   5.476   5.801
10465SOL    HW232295   0.178   5.370   5.879
10466SOL     OW32296   4.976   5.596   5.086
10466SOL    HW132297   4.929   5.584   4.999
10466SOL    HW232298   4.919   5.650   5.148
10467SOL     OW32299   2.101   1.680   5.489
10467SOL    HW132300   2.041   1.647   5.562
10467SOL    HW232301   2.182   1.723   5.530
10468SOL     OW32302   3.046   6.928   4.390
10468SOL    HW132303   3.126   6.869   4.398
10468SOL    HW232304   3.076   0.000   4.389
10469SOL     OW32305   1.716   3.971   0.733
10469SOL    HW132306   1.801   4.006   0.771
10469SOL    HW232307   1.693   4.022   0.650
10470SOL     OW32308   2.412   1.555   3.747
10470SOL    HW132309   2.324   1.564   3.793
10470SOL    HW232310   2.437   1.643   3.707
10471SOL     OW32311   2.946   3.900   1.500
10471SOL    HW132312   2.903   3.988   1.478
10471SOL    HW232313   2.970   3.898   1.597
10472SOL     OW32314   3.656   0.391   1.943
10472SOL    HW132315   3.751   0.377   1.916
10472SOL    HW232316   3.629   0.319   2.007
10473SOL     OW32317   5.547   6.110   6.876
10473SOL    HW132318   5.633   6.151   6.906
10473SOL    HW232319   5.507   6.165   6.803
10474SOL     OW32320   4.093   0.477   4.088
10474SOL    HW132321   4.189   0.462   4.063
10474SOL    HW232322   4.038   0.486   4.005
10475SOL     OW32323   3.959   0.047   1.163
10475SOL    HW132324   4.057   0.032   1.179
10475SOL    HW232325   3.946   0.134   1.115
10476SOL     OW32326   6.702   5.145   6.271
10476SOL    HW132327   6.648   5.180   6.195
10476SOL    HW232328   6.669   5.054   6.297
10477SOL     OW32329   6.143   4.171   5.045
10477SOL    HW132330   6.103   4.142   5.132
10477SOL    HW232331   6.189   4.093   5.003
10478SOL     OW32332   0.094   6.174   0.573
10478SOL    HW132333   0.114   6.271   0.587
10478SOL    HW232334   0.135   6.121   0.646
10479SOL     OW32335   1.931   3.645   2.586
10479SOL    HW132336   2.008   3.627   2.525
10479SOL    HW232337   1.940   3.589   2.668
10480SOL     OW32338   5.604   6.587   2.540
10480SOL    HW132339   5.690   6.622   2.501
10480SOL    HW232340   5.528   6.611   2.480
10481SOL     OW32341   1.964   0.434   4.912
10481SOL    HW132342   1.920   0.524   4.916
10481SOL    HW232343   1.999   0.418   4.819
10482SOL     OW32344   1.117   6.163   4.833
10482SOL    HW132345   1.179   6.238   4.857
10482SOL    HW232346   1.084   6.120   4.916
10483SOL     OW32347   6.946   5.738   6.686
10483SOL    HW132348   6.870   5.756   6.749
10483SOL    HW232349   7.024   5.796   6.709
10484SOL     OW32350   0.682   1.423   1.833
10484SOL    HW132351   0.655   1.504   1.781
10484SOL    HW232352   0.734   1.452   1.914
10485SOL     OW32353   3.239   3.592   3.265
10485SOL    HW132354   3.159   3.649   3.282
10485SOL    HW232355   3.279   3.564   3.352
10486SOL     OW32356   6.433   6.597   5.099
10486SOL    HW132357   6.388   6.539   5.031
10486SOL    HW232358   6.463   6.682   5.055
10487SOL     OW32359   4.498   1.885   1.993
10487SOL    HW132360   4.558   1.951   1.948
10487SOL    HW232361   4.515   1.794   1.957
10488SOL     OW32362   6.924   2.485   5.588
10488SOL    HW132363   6.973   2.483   5.501
10488SOL    HW232364   6.905   2.392   5.618
10489SOL     OW32365   5.827   4.486   3.796
10489SOL    HW132366   5.770   4.568   3.797
10489SOL    HW232367   5.796   4.426   3.722
10490SOL     OW32368   5.680   6.299   6.281
10490SOL    HW132369   5.751   6.268   6.218
10490SOL    HW232370   5.707   6.386   6.321
10491SOL     OW32371   0.923   2.923   6.149
10491SOL    HW132372   0.904   2.897   6.054
10491SOL    HW232373   1.004   2.876   6.182
10492SOL     OW32374   3.952   0.549   0.528
10492SOL    HW132375   4.017   0.610   0.573
10492SOL    HW232376   3.885   0.515   0.594
10493SOL     OW32377   3.738   5.726   0.542
10493SOL    HW132378   3.644   5.731   0.577
10493SOL    HW232379   3.750   5.640   0.492
10494SOL     OW32380   0.846   4.230   5.843
10494SOL    HW132381   0.865   4.288   5.923
10494SOL    HW232382   0.793   4.282   5.776
10495SOL     OW32383   0.694   6.463   6.661
10495SOL    HW132384   0.734   6.418   6.581
10495SOL    HW232385   0.726   6.558   6.666
10496SOL     OW32386   6.882   3.817   5.437
10496SOL    HW132387   6.918   3.786   5.525
10496SOL    HW232388   6.941   3.784   5.364
10497SOL     OW32389   2.372   6.620   1.558
10497SOL    HW132390   2.448   6.556   1.551
10497SOL    HW232391   2.397   6.695   1.620
10498SOL     OW32392   4.339   5.853   0.544
10498SOL    HW132393   4.298   5.843   0.635
10498SOL    HW232394   4.315   5.774   0.488
10499SOL     OW32395   5.988   4.846   2.345
10499SOL    HW132396   5.905   4.808   2.302
10499SOL    HW232397   6.048   4.882   2.274
10500SOL     OW32398   6.362   4.270   5.948
10500SOL    HW132399   6.461   4.272   5.962
10500SOL    HW232400   6.341   4.298   5.854
10501SOL     OW32401   2.995   5.157   2.587
10501SOL    HW132402   2.936   5.093   2.636
10501SOL    HW232403   3.088   5.119   2.582
10502SOL     OW32404   2.984   3.722   2.304
10502SOL    HW132405   2.999   3.821   2.298
10502SOL    HW232406   2.951   3.699   2.396
10503SOL     OW32407   6.108   2.704   6.438
10503SOL    HW132408   6.044   2.712   6.514
10503SOL    HW232409   6.168   2.784   6.437
10504SOL     OW32410   1.364   2.658   6.571
10504SOL    HW132411   1.379   2.674   6.473
10504SOL    HW232412   1.302   2.580   6.583
10505SOL     OW32413   6.120   6.521   1.343
10505SOL    HW132414   6.119   6.434   1.293
10505SOL    HW232415   6.062   6.513   1.424
10506SOL     OW32416   0.999   2.411   0.838
10506SOL    HW132417   0.924   2.471   0.810
10506SOL    HW232418   1.075   2.421   0.773
10507SOL     OW32419   1.632   4.562   6.180
10507SOL    HW132420   1.581   4.645   6.203
10507SOL    HW232421   1.567   4.489   6.158
10508SOL     OW32422   1.175   5.561   4.860
10508SOL    HW132423   1.082   5.575   4.824
10508SOL    HW232424   1.241   5.604   4.799
10509SOL     OW32425   5.088   3.062   3.517
10509SOL    HW132426   5.063   2.977   3.564
10509SOL    HW232427   5.078   3.051   3.419
10510SOL     OW32428   5.204   5.798   4.248
10510SOL    HW132429   5.238   5.704   4.247
10510SOL    HW232430   5.116   5.800   4.296
10511SOL     OW32431   3.809   2.061   2.290
10511SOL    HW132432   3.898   2.018   2.271
10511SOL    HW232433   3.773   2.102   2.206
10512SOL     OW32434   4.563   0.880   4.727
10512SOL    HW132435   4.513   0.832   4.799
10512SOL    HW232436   4.530   0.849   4.638
10513SOL     OW32437   5.495   3.070   1.809
10513SOL    HW132438   5.578   3.051   1.862
10513SOL    HW232439   5.450   3.152   1.844
10514SOL     OW32440   0.881   3.223   1.560
10514SOL    HW132441   0.787   3.233   1.528
10514SOL    HW232442   0.881   3.214   1.660
10515SOL     OW32443   1.785   2.827   5.002
10515SOL    HW132444   1.748   2.899   4.943
10515SOL    HW232445   1.879   2.850   5.027
10516SOL     OW32446   3.587   2.081   1.131
10516SOL    HW132447   3.603   2.167   1.181
10516SOL    HW232448   3.492   2.076   1.103
10517SOL     OW32449   0.971   2.870   3.515
10517SOL    HW132450   0.920   2.811   3.452
10517SOL    HW232451   0.972   2.829   3.606
10518SOL     OW32452   0.886   5.563   2.737
10518SOL    HW132453   0.875   5.648   2.686
10518SOL    HW232454   0.929   5.583   2.825
10519SOL     OW32455   2.824   6.238   1.205
10519SOL    HW132456   2.888   6.312   1.183
10519SOL    HW232457   2.835   6.164   1.138
10520SOL     OW32458   0.235   1.812   5.359
10520SOL    HW132459   0.292   1.740   5.319
10520SOL    HW232460   0.209   1.877   5.288
10521SOL     OW32461   6.148   3.022   0.994
10521SOL    HW132462   6.131   2.930   0.960
10521SOL    HW232463   6.160   3.084   0.916
10522SOL     OW32464   4.967   2.593   4.020
10522SOL    HW132465   5.056   2.567   3.984
10522SOL    HW232466   4.918   2.512   4.052
10523SOL     OW32467   6.919   4.879   3.282
10523SOL    HW132468   6.934   4.845   3.375
10523SOL    HW232469   7.001   4.865   3.227
10524SOL     OW32470   6.487   6.818   4.659
10524SOL    HW132471   6.391   6.796   4.676
10524SOL    HW232472   6.543   6.736   4.673
10525SOL     OW32473   4.732   1.377   4.880
10525SOL    HW132474   4.812   1.330   4.917
10525SOL    HW232475   4.658   1.311   4.864
10526SOL     OW32476   1.389   5.281   0.479
10526SOL    HW132477   1.418   5.354   0.540
10526SOL    HW232478   1.439   5.287   0.393
10527SOL     OW32479   0.699   0.305   4.740
10527SOL    HW132480   0.680   0.258   4.654
10527SOL    HW232481   0.621   0.362   4.765
10528SOL     OW32482   0.823   3.743   5.797
10528SOL    HW132483   0.801   3.704   5.707
10528SOL    HW232484   0.775   3.829   5.809
10529SOL     OW32485   1.102   6.090   6.987
10529SOL    HW132486   1.088   6.189   6.994
10529SOL    HW232487   1.111   6.065   6.890
10530SOL     OW32488   0.338   6.667   0.528
10530SOL    HW132489   0.372   6.694   0.438
10530SOL    HW232490   0.322   6.748   0.584
10531SOL     OW32491   2.605   2.785   5.293
10531SOL    HW132492   2.698   2.803   5.324
10531SOL    HW232493   2.565   2.868   5.253
10532SOL     OW32494   5.511   6.314   6.639
10532SOL    HW132495   5.579   6.259   6.591
10532SOL    HW232496   5.440   6.344   6.574
10533SOL     OW32497   2.781   5.236   3.319
10533SOL    HW132498   2.803   5.313   3.379
10533SOL    HW232499   2.752   5.270   3.230
10534SOL     OW32500   1.279   6.187   2.625
10534SOL    HW132501   1.249   6.100   2.587
10534SOL    HW232502   1.259   6.260   2.560
10535SOL     OW32503   2.997   2.004   2.843
10535SOL    HW132504   2.902   2.002   2.875
10535SOL    HW232505   3.009   2.082   2.781
10536SOL     OW32506   5.671   1.671   4.098
10536SOL    HW132507   5.593   1.732   4.117
10536SOL    HW232508   5.646   1.606   4.026
10537SOL     OW32509   4.549   0.212   3.462
10537SOL    HW132510   4.508   0.298   3.491
10537SOL    HW232511   4.477   0.147   3.439
10538SOL     OW32512   6.491   3.274   2.690
10538SOL    HW132513   6.445   3.199   2.643
10538SOL    HW232514   6.574   3.300   2.640
10539SOL     OW32515   6.890   0.438   2.998
10539SOL    HW132516   6.828   0.516   2.986
10539SOL    HW232517   6.977   0.470   3.036
10540SOL     OW32518   2.640   3.537   6.098
10540SOL    HW132519   2.708   3.487   6.152
10540SOL    HW232520   2.589   3.473   6.041
10541SOL     OW32521   3.083   3.062   5.154
10541SOL    HW132522   3.057   2.988   5.216
10541SOL    HW232523   3.181   3.077   5.160
10542SOL     OW32524   5.139   6.730   3.934
10542SOL    HW132525   5.136   6.814   3.989
10542SOL    HW232526   5.232   6.713   3.903
10543SOL     OW32527   0.492   3.382   5.115
10543SOL    HW132528   0.416   3.409   5.056
10543SOL    HW232529   0.515   3.286   5.099
10544SOL     OW32530   1.833   0.808   3.433
10544SOL    HW132531   1.746   0.820   3.385
10544SOL    HW232532   1.896   0.881   3.406
10545SOL     OW32533   2.024   1.988   2.976
10545SOL    HW132534   2.011   2.083   2.946
10545SOL    HW232535   2.121   1.972   2.996
10546SOL     OW32536   3.170   6.995   0.311
10546SOL    HW132537   3.084   6.947   0.296
10546SOL    HW232538   3.151   0.064   0.343
10547SOL     OW32539   3.963   0.053   5.369
10547SOL    HW132540   3.902   0.132   5.375
10547SOL    HW232541   3.964   0.018   5.276
10548SOL     OW32542   0.675   4.797   4.610
10548SOL    HW132543   0.582   4.761   4.611
10548SOL    HW232544   0.704   4.818   4.704
10549SOL     OW32545   0.228   1.174   1.028
10549SOL    HW132546   0.253   1.097   1.086
10549SOL    HW232547   0.235   1.148   0.932
10550SOL     OW32548   3.900   6.210   3.601
10550SOL    HW132549   3.860   6.119   3.607
10550SOL    HW232550   3.942   6.234   3.688
10551SOL     OW32551   3.300   2.036   5.811
10551SOL    HW132552   3.270   2.080   5.726
10551SOL    HW232553   3.260   1.944   5.816
10552SOL     OW32554   3.510   0.594   4.516
10552SOL    HW132555   3.510   0.694   4.519
10552SOL    HW232556   3.552   0.558   4.599
10553SOL     OW32557   0.446   5.032   0.354
10553SOL    HW132558   0.456   4.970   0.431
10553SOL    HW232559   0.357   5.018   0.311
10554SOL     OW32560   6.228   5.317   2.741
10554SOL    HW132561   6.239   5.399   2.685
10554SOL    HW232562   6.266   5.333   2.832
10555SOL     OW32563   3.588   2.744   0.468
10555SOL    HW132564   3.564   2.840   0.452
10555SOL    HW232565   3.532   2.707   0.542
10556SOL     OW32566   2.215   1.755   3.280
10556SOL    HW132567   2.192   1.710   3.194
10556SOL    HW232568   2.152   1.831   3.296
10557SOL     OW32569   2.069   4.110   3.847
10557SOL    HW132570   2.159   4.152   3.861
10557SOL    HW232571   2.015   4.120   3.930
10558SOL     OW32572   2.491   5.447   5.791
10558SOL    HW132573   2.411   5.470   5.735
10558SOL    HW232574   2.499   5.348   5.798
10559SOL     OW32575   4.310   6.580   6.053
10559SOL    HW132576   4.266   6.549   6.138
10559SOL    HW232577   4.311   6.680   6.051
10560SOL     OW32578   5.368   6.129   2.331
10560SOL    HW132579   5.278   6.155   2.367
10560SOL    HW232580   5.419   6.212   2.306
10561SOL     OW32581   5.931   4.540   0.242
10561SOL    HW132582   5.878   4.501   0.167
10561SOL    HW232583   5.999   4.473   0.273
10562SOL     OW32584   3.879   6.196   2.370
10562SOL    HW132585   3.837   6.282   2.397
10562SOL    HW232586   3.810   6.134   2.334
10563SOL     OW32587   0.623   0.232   1.485
10563SOL    HW132588   0.602   0.312   1.430
10563SOL    HW232589   0.540   0.178   1.500
10564SOL     OW32590   5.904   5.577   4.194
10564SOL    HW132591   5.970   5.608   4.262
10564SOL    HW232592   5.831   5.526   4.240
10565SOL     OW32593   0.459   6.868   5.392
10565SOL    HW132594   0.461   6.948   5.451
10565SOL    HW232595   0.513   6.886   5.310
10566SOL     OW32596   2.672   3.349   0.281
10566SOL    HW132597   2.612   3.356   0.361
10566SOL    HW232598   2.767   3.343   0.311
10567SOL     OW32599   0.950   2.254   6.400
10567SOL    HW132600   0.927   2.337   6.351
10567SOL    HW232601   0.872   2.192   6.399
10568SOL     OW32602   5.487   2.253   5.868
10568SOL    HW132603   5.471   2.223   5.774
10568SOL    HW232604   5.582   2.233   5.894
10569SOL     OW32605   5.482   6.543   1.235
10569SOL    HW132606   5.464   6.522   1.139
10569SOL    HW232607   5.489   6.642   1.247
10570SOL     OW32608   0.909   4.905   3.675
10570SOL    HW132609   0.910   4.844   3.754
10570SOL    HW232610   0.915   4.851   3.591
10571SOL     OW32611   0.139   3.949   5.864
10571SOL    HW132612   0.083   3.995   5.932
10571SOL    HW232613   0.181   4.017   5.803
10572SOL     OW32614   5.973   4.489   0.635
10572SOL    HW132615   6.029   4.539   0.701
10572SOL    HW232616   6.016   4.401   0.615
10573SOL     OW32617   5.473   1.329   3.688
10573SOL    HW132618   5.532   1.249   3.673
10573SOL    HW232619   5.467   1.382   3.603
10574SOL     OW32620   0.107   1.983   3.857
10574SOL    HW132621   0.104   1.932   3.943
10574SOL    HW232622   0.022   2.035   3.846
10575SOL     OW32623   6.064   0.774   1.387
10575SOL    HW132624   6.064   0.685   1.432
10575SOL    HW232625   6.109   0.766   1.298
10576SOL     OW32626   2.442   4.455   3.971
10576SOL    HW132627   2.521   4.508   3.940
10576SOL    HW232628   2.458   4.424   4.065
10577SOL     OW32629   3.933   6.294   0.776
10577SOL    HW132630   3.888   6.383   0.764
10577SOL    HW232631   3.863   6.224   0.791
10578SOL     OW32632   6.645   3.372   4.322
10578SOL    HW132633   6.564   3.315   4.309
10578SOL    HW232634   6.618   3.461   4.358
10579SOL     OW32635   1.741   3.688   0.097
10579SOL    HW132636   1.769   3.784   0.094
10579SOL    HW232637   1.735   3.658   0.192
10580SOL     OW32638   6.532   6.780   6.681
10580SOL    HW132639   6.496   6.759   6.772
10580SOL    HW232640   6.581   6.867   6.684
10581SOL     OW32641   5.621   6.797   3.048
10581SOL    HW132642   5.651   6.729   3.115
10581SOL    HW232643   5.691   6.869   3.041
10582SOL     OW32644   5.508   4.559   6.547
10582SOL    HW132645   5.445   4.631   6.577
10582SOL    HW232646   5.586   4.600   6.500
10583SOL     OW32647   2.982   1.453   5.470
10583SOL    HW132648   3.075   1.469   5.437
10583SOL    HW232649   2.917   1.500   5.410
10584SOL     OW32650   0.458   0.094   5.469
10584SOL    HW132651   0.502   0.167   5.417
10584SOL    HW232652   0.403   0.133   5.543
10585SOL     OW32653   0.658   7.023   5.248
10585SOL    HW132654   0.683   0.051   5.166
10585SOL    HW232655   0.638   0.062   5.322
10586SOL     OW32656   4.411   4.492   5.386
10586SOL    HW132657   4.347   4.513   5.460
10586SOL    HW232658   4.361   4.491   5.299
10587SOL     OW32659   1.706   5.685   5.361
10587SOL    HW132660   1.786   5.657   5.308
10587SOL    HW232661   1.647   5.744   5.305
10588SOL     OW32662   1.252   4.182   4.613
10588SOL    HW132663   1.320   4.228   4.671
10588SOL    HW232664   1.289   4.171   4.521
10589SOL     OW32665   5.544   6.034   3.821
10589SOL    HW132666   5.447   6.028   3.845
10589SOL    HW232667   5.558   5.998   3.728
10590SOL     OW32668   0.939   5.385   3.178
10590SOL    HW132669   0.988   5.348   3.257
10590SOL    HW232670   0.970   5.338   3.095
10591SOL     OW32671   0.869   2.132   1.572
10591SOL    HW132672   0.841   2.173   1.658
10591SOL    HW232673   0.832   2.184   1.495
10592SOL     OW32674   5.928   2.411   5.096
10592SOL    HW132675   6.015   2.452   5.067
10592SOL    HW232676   5.857   2.481   5.095
10593SOL     OW32677   3.368   6.021   2.334
10593SOL    HW132678   3.397   5.927   2.351
10593SOL    HW232679   3.273   6.021   2.300
10594SOL     OW32680   3.107   0.519   3.764
10594SOL    HW132681   3.108   0.586   3.689
10594SOL    HW232682   3.045   0.445   3.742
10595SOL     OW32683   6.293   6.798   0.790
10595SOL    HW132684   6.220   6.730   0.783
10595SOL    HW232685   6.368   6.761   0.844
10596SOL     OW32686   5.468   2.329   6.928
10596SOL    HW132687   5.564   2.340   6.956
10596SOL    HW232688   5.422   2.418   6.930
10597SOL     OW32689   2.236   0.801   6.131
10597SOL    HW132690   2.294   0.731   6.088
10597SOL    HW232691   2.200   0.765   6.217
10598SOL     OW32692   2.373   1.891   6.213
10598SOL    HW132693   2.440   1.842   6.269
10598SOL    HW232694   2.328   1.961   6.268
10599SOL     OW32695   6.522   3.257   6.271
10599SOL    HW132696   6.547   3.242   6.367
10599SOL    HW232697   6.605   3.275   6.217
10600SOL     OW32698   2.979   1.810   1.101
10600SOL    HW132699   2.887   1.844   1.119
10600SOL    HW232700   3.029   1.877   1.046
10601SOL     OW32701   0.590   6.171   6.045
10601SOL    HW132702   0.641   6.153   6.129
10601SOL    HW232703   0.615   6.261   6.009
10602SOL     OW32704   0.373   0.554   1.181
10602SOL    HW132705   0.357   0.593   1.090
10602SOL    HW232706   0.287   0.557   1.234
10603SOL     OW32707   4.987   6.976   2.252
10603SOL    HW132708   4.997   6.931   2.164
10603SOL    HW232709   4.893   7.010   2.261
10604SOL     OW32710   5.986   6.996   4.681
10604SOL    HW132711   6.060   6.930   4.693
10604SOL    HW232712   5.974   0.025   4.765
10605SOL     OW32713   2.405   2.032   1.399
10605SOL    HW132714   2.494   2.020   1.443
10605SOL    HW232715   2.382   2.130   1.396
10606SOL     OW32716   6.088   0.596   0.740
10606SOL    HW132717   6.028   0.516   0.730
10606SOL    HW232718   6.158   0.576   0.808
10607SOL     OW32719   3.639   4.032   6.540
10607SOL    HW132720   3.663   3.941   6.574
10607SOL    HW232721   3.604   4.025   6.447
10608SOL     OW32722   5.717   3.328   3.414
10608SOL    HW132723   5.784   3.261   3.447
10608SOL    HW232724   5.726   3.338   3.315
10609SOL     OW32725   4.156   1.693   6.744
10609SOL    HW132726   4.211   1.621   6.784
10609SOL    HW232727   4.106   1.658   6.665
10610SOL     OW32728   0.764   0.531   4.499
10610SOL    HW132729   0.818   0.571   4.425
10610SOL    HW232730   0.752   0.433   4.482
10611SOL     OW32731   3.519   5.655   4.951
10611SOL    HW132732   3.454   5.693   5.016
10611SOL    HW232733   3.546   5.563   4.980
10612SOL     OW32734   5.877   1.890   3.328
10612SOL    HW132735   5.792   1.933   3.298
10612SOL    HW232736   5.904   1.927   3.417
10613SOL     OW32737   5.635   0.494   4.582
10613SOL    HW132738   5.734   0.485   4.596
10613SOL    HW232739   5.615   0.492   4.484
10614SOL     OW32740   4.434   0.640   6.662
10614SOL    HW132741   4.389   0.707   6.602
10614SOL    HW232742   4.515   0.681   6.702
10615SOL     OW32743   1.458   1.739   6.268
10615SOL    HW132744   1.536   1.693   6.225
10615SOL    HW232745   1.487   1.778   6.356
10616SOL     OW32746   3.026   6.656   6.409
10616SOL    HW132747   2.965   6.592   6.362
10616SOL    HW232748   3.000   6.662   6.505
10617SOL     OW32749   2.869   3.536   1.428
10617SOL    HW132750   2.873   3.481   1.345
10617SOL    HW232751   2.959   3.537   1.472
10618SOL     OW32752   0.594   5.166   5.148
10618SOL    HW132753   0.681   5.206   5.179
10618SOL    HW232754   0.559   5.106   5.220
10619SOL     OW32755   1.374   2.464   3.294
10619SOL    HW132756   1.465   2.486   3.330
10619SOL    HW232757   1.381   2.439   3.198
10620SOL     OW32758   2.442   0.993   6.750
10620SOL    HW132759   2.384   1.067   6.785
10620SOL    HW232760   2.389   0.937   6.687
10621SOL     OW32761   0.797   3.478   3.411
10621SOL    HW132762   0.774   3.386   3.442
10621SOL    HW232763   0.741   3.545   3.460
10622SOL     OW32764   4.458   2.906   0.347
10622SOL    HW132765   4.520   2.951   0.283
10622SOL    HW232766   4.396   2.846   0.297
10623SOL     OW32767   5.414   6.334   6.360
10623SOL    HW132768   5.404   6.429   6.330
10623SOL    HW232769   5.504   6.300   6.331
10624SOL     OW32770   0.544   2.311   5.323
10624SOL    HW132771   0.496   2.378   5.267
10624SOL    HW232772   0.628   2.352   5.359
10625SOL     OW32773   6.457   4.671   6.607
10625SOL    HW132774   6.473   4.573   6.615
10625SOL    HW232775   6.541   4.716   6.574
10626SOL     OW32776   5.497   3.589   1.241
10626SOL    HW132777   5.585   3.553   1.269
10626SOL    HW232778   5.429   3.516   1.240
10627SOL     OW32779   5.576   6.008   6.052
10627SOL    HW132780   5.606   5.951   5.976
10627SOL    HW232781   5.616   5.973   6.137
10628SOL     OW32782   4.382   0.035   1.175
10628SOL    HW132783   4.356   6.986   1.113
10628SOL    HW232784   4.340   0.121   1.146
10629SOL     OW32785   2.912   5.392   4.252
10629SOL    HW132786   2.994   5.443   4.278
10629SOL    HW232787   2.938   5.300   4.223
10630SOL     OW32788   4.217   0.476   2.738
10630SOL    HW132789   4.152   0.399   2.738
10630SOL    HW232790   4.268   0.476   2.824
10631SOL     OW32791   4.497   6.150   6.843
10631SOL    HW132792   4.565   6.223   6.842
10631SOL    HW232793   4.429   6.167   6.771
10632SOL     OW32794   4.075   5.929   3.302
10632SOL    HW132795   4.069   5.921   3.402
10632SOL    HW232796   4.170   5.919   3.274
10633SOL     OW32797   1.799   2.914   1.465
10633SOL    HW132798   1.861   2.980   1.424
10633SOL    HW232799   1.784   2.937   1.561
10634SOL     OW32800   6.992   4.498   6.722
10634SOL    HW132801   6.977   4.451   6.809
10634SOL    HW232802   6.943   4.450   6.649
10635SOL     OW32803   2.627   3.973   6.466
10635SOL    HW132804   2.542   4.013   6.500
10635SOL    HW232805   2.607   3.898   6.403
10636SOL     OW32806   6.818   2.452   6.416
10636SOL    HW132807   6.754   2.394   6.466
10636SOL    HW232808   6.854   2.523   6.477
10637SOL     OW32809   2.895   0.440   6.899
10637SOL    HW132810   2.991   0.468   6.901
10637SOL    HW232811   2.850   0.464   6.985
10638SOL     OW32812   6.904   5.238   1.578
10638SOL    HW132813   6.826   5.254   1.638
10638SOL    HW232814   6.883   5.162   1.516
10639SOL     OW32815   1.893   4.350   1.122
10639SOL    HW132816   1.964   4.321   1.185
10639SOL    HW232817   1.876   4.278   1.055
10640SOL     OW32818   4.047   6.927   3.405
10640SOL    HW132819   4.079   6.873   3.483
10640SOL    HW232820   4.125   6.967   3.358
10641SOL     OW32821   1.423   0.145   3.362
10641SOL    HW132822   1.344   0.098   3.322
10641SOL    HW232823   1.507   0.109   3.323
10642SOL     OW32824   5.611   2.257   6.669
10642SOL    HW132825   5.596   2.312   6.587
10642SOL    HW232826   5.532   2.265   6.730
10643SOL     OW32827   1.884   4.865   6.119
10643SOL    HW132828   1.924   4.915   6.042
10643SOL    HW232829   1.899   4.917   6.204
10644SOL     OW32830   0.546   2.278   2.989
10644SOL    HW132831   0.527   2.241   3.080
10644SOL    HW232832   0.485   2.355   2.971
10645SOL     OW32833   2.466   2.577   3.641
10645SOL    HW132834   2.565   2.567   3.656
10645SOL    HW232835   2.419   2.581   3.729
10646SOL     OW32836   5.187   1.167   4.100
10646SOL    HW132837   5.286   1.181   4.102
10646SOL    HW232838   5.146   1.213   4.178
10647SOL     OW32839   4.043   5.325   4.570
10647SOL    HW132840   4.068   5.246   4.514
10647SOL    HW232841   3.944   5.338   4.567
10648SOL     OW32842   5.644   5.639   5.291
10648SOL    HW132843   5.665   5.735   5.308
10648SOL    HW232844   5.686   5.583   5.362
10649SOL     OW32845   6.957   3.829   3.013
10649SOL    HW132846   6.952   3.904   3.079
10649SOL    HW232847   7.002   3.750   3.054
10650SOL     OW32848   7.001   1.027   4.197
10650SOL    HW132849   6.955   0.944   4.164
10650SOL    HW232850   7.019   1.018   4.295
10651SOL     OW32851   3.842   5.999   5.558
10651SOL    HW132852   3.925   5.968   5.511
10651SOL    HW232853   3.851   5.981   5.656
10652SOL     OW32854   2.016   6.891   0.077
10652SOL    HW132855   1.966   6.943   0.007
10652SOL    HW232856   2.113   6.887   0.053
10653SOL     OW32857   3.846   6.260   4.309
10653SOL    HW132858   3.762   6.310   4.285
10653SOL    HW232859   3.899   6.314   4.374
10654SOL     OW32860   5.964   2.006   4.535
10654SOL    HW132861   5.957   1.981   4.632
10654SOL    HW232862   5.874   1.998   4.492
10655SOL     OW32863   0.667   4.569   1.252
10655SOL    HW132864   0.759   4.587   1.286
10655SOL    HW232865   0.661   4.593   1.156
10656SOL     OW32866   6.549   1.105   1.807
10656SOL    HW132867   6.457   1.066   1.813
10656SOL    HW232868   6.545   1.192   1.758
10657SOL     OW32869   5.744   0.850   3.739
10657SOL    HW132870   5.843   0.857   3.724
10657SOL    HW232871   5.726   0.780   3.808
10658SOL     OW32872   6.571   3.378   5.261
10658SOL    HW132873   6.631   3.455   5.239
10658SOL    HW232874   6.533   3.392   5.353
10659SOL     OW32875   1.064   5.383   1.014
10659SOL    HW132876   1.160   5.361   1.028
10659SOL    HW232877   1.026   5.420   1.099
10660SOL     OW32878   6.935   3.687   5.669
10660SOL    HW132879   6.852   3.631   5.666
10660SOL    HW232880   6.968   3.692   5.763
10661SOL     OW32881   1.983   3.598   6.826
10661SOL    HW132882   1.986   3.689   6.867
10661SOL    HW232883   1.959   3.605   6.730
10662SOL     OW32884   2.461   1.516   3.075
10662SOL    HW132885   2.404   1.543   3.153
10662SOL    HW232886   2.557   1.531   3.097
10663SOL     OW32887   1.837   1.541   4.137
10663SOL    HW132888   1.775   1.499   4.203
10663SOL    HW232889   1.889   1.614   4.181
10664SOL     OW32890   1.202   5.443   4.581
10664SOL    HW132891   1.158   5.496   4.509
10664SOL    HW232892   1.135   5.384   4.625
10665SOL     OW32893   2.312   2.430   6.360
10665SOL    HW132894   2.227   2.385   6.390
10665SOL    HW232895   2.339   2.392   6.271
10666SOL     OW32896   3.605   3.597   2.246
10666SOL    HW132897   3.581   3.693   2.230
10666SOL    HW232898   3.636   3.556   2.161
10667SOL     OW32899   5.785   2.146   2.872
10667SOL    HW132900   5.807   2.184   2.962
10667SOL    HW232901   5.686   2.145   2.859
10668SOL     OW32902   3.258   2.173   5.393
10668SOL    HW132903   3.269   2.103   5.322
10668SOL    HW232904   3.228   2.259   5.350
10669SOL     OW32905   5.234   0.944   1.079
10669SOL    HW132906   5.263   1.036   1.107
10669SOL    HW232907   5.183   0.901   1.154
10670SOL     OW32908   4.977   3.842   4.291
10670SOL    HW132909   5.018   3.904   4.224
10670SOL    HW232910   4.957   3.754   4.247
10671SOL     OW32911   1.272   1.874   4.091
10671SOL    HW132912   1.185   1.839   4.058
10671SOL    HW232913   1.318   1.803   4.145
10672SOL     OW32914   5.650   3.318   1.815
10672SOL    HW132915   5.629   3.290   1.908
10672SOL    HW232916   5.584   3.387   1.785
10673SOL     OW32917   1.947   1.272   1.405
10673SOL    HW132918   2.030   1.217   1.394
10673SOL    HW232919   1.946   1.313   1.496
10674SOL     OW32920   3.680   3.413   4.715
10674SOL    HW132921   3.676   3.513   4.715
10674SOL    HW232922   3.771   3.384   4.745
10675SOL     OW32923   3.639   0.048   5.854
10675SOL    HW132924   3.560   0.050   5.915
10675SOL    HW232925   3.706   0.117   5.883
10676SOL     OW32926   1.336   6.144   5.862
10676SOL    HW132927   1.417   6.093   5.893
10676SOL    HW232928   1.327   6.136   5.763
10677SOL     OW32929   0.560   2.097   0.595
10677SOL    HW132930   0.466   2.094   0.627
10677SOL    HW232931   0.615   2.030   0.646
10678SOL     OW32932   4.074   5.407   3.615
10678SOL    HW132933   4.035   5.340   3.552
10678SOL    HW232934   4.162   5.376   3.648
10679SOL     OW32935   4.612   4.224   6.947
10679SOL    HW132936   4.679   4.294   6.926
10679SOL    HW232937   4.623   4.146   6.885
10680SOL     OW32938   3.629   1.793   4.236
10680SOL    HW132939   3.596   1.821   4.146
10680SOL    HW232940   3.553   1.793   4.301
10681SOL     OW32941   6.450   2.935   6.636
10681SOL    HW132942   6.526   2.871   6.624
10681SOL    HW232943   6.383   2.920   6.562
10682SOL     OW32944   6.106   3.151   5.618
10682SOL    HW132945   6.070   3.134   5.710
10682SOL    HW232946   6.077   3.077   5.557
10683SOL     OW32947   3.758   0.783   3.369
10683SOL    HW132948   3.764   0.684   3.382
10683SOL    HW232949   3.665   0.813   3.391
10684SOL     OW32950   5.174   4.543   0.899
10684SOL    HW132951   5.249   4.606   0.881
10684SOL    HW232952   5.131   4.567   0.986
10685SOL     OW32953   0.646   5.348   1.530
10685SOL    HW132954   0.594   5.265   1.552
10685SOL    HW232955   0.715   5.364   1.600
10686SOL     OW32956   2.120   4.095   0.449
10686SOL    HW132957   2.052   4.045   0.395
10686SOL    HW232958   2.175   4.030   0.502
10687SOL     OW32959   6.764   4.879   2.892
10687SOL    HW132960   6.714   4.830   2.963
10687SOL    HW232961   6.860   4.852   2.894
10688SOL     OW32962   5.823   1.503   2.424
10688SOL    HW132963   5.765   1.447   2.365
10688SOL    HW232964   5.836   1.593   2.383
10689SOL     OW32965   0.128   0.099   2.169
10689SOL    HW132966   0.195   0.061   2.232
10689SOL    HW232967   0.070   0.025   2.133
10690SOL     OW32968   6.644   5.964   3.318
10690SOL    HW132969   6.549   5.994   3.320
10690SOL    HW232970   6.648   5.864   3.318
10691SOL     OW32971   3.420   1.756   2.406
10691SOL    HW132972   3.454   1.788   2.494
10691SOL    HW232973   3.325   1.784   2.395
10692SOL     OW32974   2.915   0.999   5.189
10692SOL    HW132975   2.943   0.904   5.172
10692SOL    HW232976   2.895   1.010   5.287
10693SOL     OW32977   0.977   5.869   1.290
10693SOL    HW132978   0.976   5.841   1.195
10693SOL    HW232979   1.054   5.931   1.307
10694SOL     OW32980   5.009   6.036   5.781
10694SOL    HW132981   4.959   5.992   5.856
10694SOL    HW232982   4.947   6.094   5.728
10695SOL     OW32983   0.856   3.468   1.310
10695SOL    HW132984   0.847   3.399   1.238
10695SOL    HW232985   0.795   3.446   1.385
10696SOL     OW32986   6.473   4.477   4.773
10696SOL    HW132987   6.473   4.404   4.705
10696SOL    HW232988   6.385   4.479   4.820
10697SOL     OW32989   0.874   5.853   5.024
10697SOL    HW132990   0.875   5.772   4.965
10697SOL    HW232991   0.963   5.898   5.020
10698SOL     OW32992   5.095   4.501   6.690
10698SOL    HW132993   5.078   4.446   6.609
10698SOL    HW232994   5.012   4.554   6.712
10699SOL     OW32995   3.470   4.370   0.950
10699SOL    HW132996   3.435   4.396   1.040
10699SOL    HW232997   3.401   4.391   0.880
10700SOL     OW32998   5.573   6.511   0.383
10700SOL    HW132999   5.613   6.420   0.391
10700SOL    HW233000   5.639   6.573   0.341
10701SOL     OW33001   2.465   0.032   6.494
10701SOL    HW133002   2.535   0.097   6.524
10701SOL    HW233003   2.384   0.081   6.462
10702SOL     OW33004   4.926   3.193   2.598
10702SOL    HW133005   5.012   3.142   2.597
10702SOL    HW233006   4.915   3.239   2.686
10703SOL     OW33007   2.191   2.281   5.833
10703SOL    HW133008   2.248   2.346   5.884
10703SOL    HW233009   2.138   2.226   5.897
10704SOL     OW33010   6.836   5.692   2.466
10704SOL    HW133011   6.784   5.762   2.516
10704SOL    HW233012   6.930   5.691   2.498
10705SOL     OW33013   5.636   4.996   1.015
10705SOL    HW133014   5.587   4.974   0.931
10705SOL    HW233015   5.591   5.072   1.061
10706SOL     OW33016   4.319   0.024   2.108
10706SOL    HW133017   4.413   0.046   2.082
10706SOL    HW233018   4.291   6.962   2.064
10707SOL     OW33019   6.405   0.086   4.695
10707SOL    HW133020   6.419   0.165   4.636
10707SOL    HW233021   6.430   0.002   4.646
10708SOL     OW33022   4.872   1.666   2.317
10708SOL    HW133023   4.949   1.626   2.268
10708SOL    HW233024   4.903   1.701   2.405
10709SOL     OW33025   5.581   5.817   3.967
10709SOL    HW133026   5.679   5.808   3.983
10709SOL    HW233027   5.565   5.883   3.894
10710SOL     OW33028   5.482   0.651   3.205
10710SOL    HW133029   5.538   0.712   3.150
10710SOL    HW233030   5.462   0.693   3.293
10711SOL     OW33031   2.897   6.660   3.704
10711SOL    HW133032   2.799   6.648   3.722
10711SOL    HW233033   2.910   6.737   3.643
10712SOL     OW33034   4.385   0.482   2.536
10712SOL    HW133035   4.320   0.502   2.609
10712SOL    HW233036   4.454   0.555   2.531
10713SOL     OW33037   1.344   2.957   0.389
10713SOL    HW133038   1.348   2.895   0.311
10713SOL    HW233039   1.364   3.050   0.359
10714SOL     OW33040   4.372   3.185   5.423
10714SOL    HW133041   4.390   3.091   5.394
10714SOL    HW233042   4.284   3.215   5.387
10715SOL     OW33043   5.087   0.226   2.230
10715SOL    HW133044   5.084   0.127   2.244
10715SOL    HW233045   5.111   0.270   2.316
10716SOL     OW33046   6.597   2.608   3.576
10716SOL    HW133047   6.529   2.677   3.599
10716SOL    HW233048   6.620   2.614   3.478
10717SOL     OW33049   2.046   3.098   0.499
10717SOL    HW133050   2.003   3.023   0.550
10717SOL    HW233051   1.981   3.133   0.431
10718SOL     OW33052   1.332   4.145   6.525
10718SOL    HW133053   1.350   4.235   6.484
10718SOL    HW233054   1.233   4.127   6.523
10719SOL     OW33055   6.021   6.000   3.618
10719SOL    HW133056   6.115   6.006   3.583
10719SOL    HW233057   5.961   5.962   3.548
10720SOL     OW33058   5.961   5.456   4.496
10720SOL    HW133059   5.879   5.510   4.513
10720SOL    HW233060   5.981   5.399   4.576
10721SOL     OW33061   5.049   3.886   5.378
10721SOL    HW133062   5.033   3.929   5.467
10721SOL    HW233063   4.969   3.898   5.320
10722SOL     OW33064   6.090   3.973   6.804
10722SOL    HW133065   6.185   3.959   6.832
10722SOL    HW233066   6.083   4.060   6.754
10723SOL     OW33067   0.018   1.974   6.400
10723SOL    HW133068   0.047   1.994   6.494
10723SOL    HW233069   6.997   2.055   6.361
10724SOL     OW33070   0.565   6.786   6.620
10724SOL    HW133071   0.600   6.744   6.703
10724SOL    HW233072   0.492   6.851   6.643
10725SOL     OW33073   1.955   5.585   5.259
10725SOL    HW133074   1.921   5.530   5.183
10725SOL    HW233075   2.049   5.560   5.280
10726SOL     OW33076   4.112   0.159   4.084
10726SOL    HW133077   4.045   0.201   4.145
10726SOL    HW233078   4.162   0.088   4.133
10727SOL     OW33079   0.795   4.824   6.392
10727SOL    HW133080   0.803   4.754   6.463
10727SOL    HW233081   0.886   4.843   6.354
10728SOL     OW33082   1.037   5.122   0.258
10728SOL    HW133083   0.981   5.141   0.339
10728SOL    HW233084   0.982   5.138   0.175
10729SOL     OW33085   6.657   1.716   1.970
10729SOL    HW133086   6.566   1.680   1.989
10729SOL    HW233087   6.713   1.645   1.927
10730SOL     OW33088   3.295   6.695   0.670
10730SOL    HW133089   3.300   6.763   0.744
10730SOL    HW233090   3.239   6.731   0.596
10731SOL     OW33091   3.772   0.885   1.044
10731SOL    HW133092   3.765   0.985   1.034
10731SOL    HW233093   3.696   0.853   1.100
10732SOL     OW33094   0.724   4.315   5.606
10732SOL    HW133095   0.740   4.411   5.582
10732SOL    HW233096   0.733   4.258   5.525
10733SOL     OW33097   6.182   1.140   6.624
10733SOL    HW133098   6.190   1.145   6.724
10733SOL    HW233099   6.116   1.070   6.600
10734SOL     OW33100   1.363   2.099   1.137
10734SOL    HW133101   1.462   2.092   1.148
10734SOL    HW233102   1.320   2.014   1.167
10735SOL     OW33103   0.554   2.571   2.165
10735SOL    HW133104   0.521   2.479   2.184
10735SOL    HW233105   0.583   2.615   2.250
10736SOL     OW33106   1.952   0.061   3.710
10736SOL    HW133107   1.854   0.070   3.728
10736SOL    HW233108   1.985   0.141   3.660
10737SOL     OW33109   0.783   1.902   0.999
10737SOL    HW133110   0.819   1.822   1.047
10737SOL    HW233111   0.733   1.959   1.064
10738SOL     OW33112   3.608   5.777   2.648
10738SOL    HW133113   3.646   5.694   2.689
10738SOL    HW233114   3.653   5.857   2.687
10739SOL     OW33115   1.841   2.076   1.342
10739SOL    HW133116   1.890   2.132   1.275
10739SOL    HW233117   1.788   2.135   1.403
10740SOL     OW33118   6.180   4.828   5.768
10740SOL    HW133119   6.153   4.817   5.672
10740SOL    HW233120   6.231   4.748   5.798
10741SOL     OW33121   4.352   1.302   1.731
10741SOL    HW133122   4.311   1.211   1.734
10741SOL    HW233123   4.451   1.294   1.720
10742SOL     OW33124   6.715   6.694   1.138
10742SOL    HW133125   6.805   6.688   1.181
10742SOL    HW233126   6.718   6.761   1.064
10743SOL     OW33127   1.708   1.717   5.105
10743SOL    HW133128   1.714   1.644   5.037
10743SOL    HW233129   1.768   1.792   5.079
10744SOL     OW33130   3.582   1.540   0.604
10744SOL    HW133131   3.568   1.554   0.506
10744SOL    HW233132   3.559   1.624   0.653
10745SOL     OW33133   0.290   5.090   5.739
10745SOL    HW133134   0.320   4.997   5.762
10745SOL    HW233135   0.273   5.141   5.824
10746SOL     OW33136   1.176   3.707   6.989
10746SOL    HW133137   1.076   3.716   6.990
10746SOL    HW233138   1.201   3.611   6.978
10747SOL     OW33139   3.127   0.629   4.951
10747SOL    HW133140   3.050   0.573   4.983
10747SOL    HW233141   3.096   0.724   4.939
10748SOL     OW33142   5.292   0.559   1.984
10748SOL    HW133143   5.243   0.473   1.991
10748SOL    HW233144   5.228   0.635   1.991
10749SOL     OW33145   0.568   6.139   4.734
10749SOL    HW133146   0.596   6.090   4.816
10749SOL    HW233147   0.647   6.155   4.675
10750SOL     OW33148   3.638   6.870   4.977
10750SOL    HW133149   3.614   6.781   5.017
10750SOL    HW233150   3.669   6.932   5.049
10751SOL     OW33151   2.122   4.413   4.212
10751SOL    HW133152   2.072   4.342   4.162
10751SOL    HW233153   2.068   4.497   4.213
10752SOL     OW33154   6.026   4.805   5.252
10752SOL    HW133155   5.930   4.816   5.227
10752SOL    HW233156   6.080   4.788   5.169
10753SOL     OW33157   0.164   4.379   4.208
10753SOL    HW133158   0.143   4.281   4.208
10753SOL    HW233159   0.255   4.394   4.168
10754SOL     OW33160   1.576   6.904   3.328
10754SOL    HW133161   1.628   6.919   3.412
10754SOL    HW233162   1.639   6.885   3.253
10755SOL     OW33163   6.850   0.402   1.565
10755SOL    HW133164   6.903   0.455   1.499
10755SOL    HW233165   6.760   0.444   1.578
10756SOL     OW33166   6.388   5.398   5.544
10756SOL    HW133167   6.342   5.483   5.520
10756SOL    HW233168   6.344   5.359   5.626
10757SOL     OW33169   2.659   2.535   6.930
10757SOL    HW133170   2.643   2.476   6.851
10757SOL    HW233171   2.611   2.499   7.009
10758SOL     OW33172   0.654   6.236   3.895
10758SOL    HW133173   0.713   6.306   3.856
10758SOL    HW233174   0.685   6.214   3.988
10759SOL     OW33175   1.504   3.448   0.299
10759SOL    HW133176   1.539   3.531   0.342
10759SOL    HW233177   1.580   3.389   0.273
10760SOL     OW33178   5.707   1.374   3.252
10760SOL    HW133179   5.756   1.449   3.210
10760SOL    HW233180   5.705   1.296   3.190
10761SOL     OW33181   0.642   5.522   5.491
10761SOL    HW133182   0.604   5.430   5.496
10761SOL    HW233183   0.672   5.540   5.397
10762SOL     OW33184   2.858   1.118   4.577
10762SOL    HW133185   2.906   1.074   4.653
10762SOL    HW233186   2.760   1.119   4.596
10763SOL     OW33187   4.474   0.132   2.761
10763SOL    HW133188   4.444   0.041   2.730
10763SOL    HW233189   4.528   0.176   2.689
10764SOL     OW33190   4.857   2.005   5.262
10764SOL    HW133191   4.925   1.955   5.316
10764SOL    HW233192   4.827   1.949   5.185
10765SOL     OW33193   4.936   2.645   1.080
10765SOL    HW133194   4.904   2.696   1.000
10765SOL    HW233195   4.924   2.701   1.162
10766SOL     OW33196   3.853   4.643   0.534
10766SOL    HW133197   3.870   4.735   0.497
10766SOL    HW233198   3.835   4.580   0.459
10767SOL     OW33199   2.728   0.669   1.122
10767SOL    HW133200   2.679   0.715   1.197
10767SOL    HW233201   2.738   0.572   1.145
10768SOL     OW33202   5.671   4.969   2.025
10768SOL    HW133203   5.732   4.927   2.092
10768SOL    HW233204   5.725   5.003   1.948
10769SOL     OW33205   1.610   3.658   5.636
10769SOL    HW133206   1.693   3.660   5.581
10769SOL    HW233207   1.608   3.737   5.697
10770SOL     OW33208   5.151   6.483   3.729
10770SOL    HW133209   5.238   6.523   3.758
10770SOL    HW233210   5.083   6.556   3.720
10771SOL     OW33211   3.933   0.470   3.848
10771SOL    HW133212   3.843   0.427   3.839
10771SOL    HW233213   3.931   0.560   3.803
10772SOL     OW33214   5.895   6.390   4.378
10772SOL    HW133215   5.858   6.359   4.291
10772SOL    HW233216   5.839   6.465   4.414
10773SOL     OW33217   5.903   4.879   6.110
10773SOL    HW133218   5.958   4.919   6.036
10773SOL    HW233219   5.959   4.814   6.162
10774SOL     OW33220   1.906   1.265   4.722
10774SOL    HW133221   1.888   1.254   4.819
10774SOL    HW233222   1.863   1.190   4.671
10775SOL     OW33223   0.571   4.445   2.447
10775SOL    HW133224   0.616   4.402   2.368
10775SOL    HW233225   0.617   4.532   2.468
10776SOL     OW33226   0.616   0.764   6.702
10776SOL    HW133227   0.534   0.709   6.684
10776SOL    HW233228   0.696   0.705   6.708
10777SOL     OW33229   3.702   5.372   1.095
10777SOL    HW133230   3.711   5.361   0.996
10777SOL    HW233231   3.605   5.373   1.120
10778SOL     OW33232   4.943   0.385   3.778
10778SOL    HW133233   4.901   0.396   3.868
10778SOL    HW233234   4.895   0.442   3.711
10779SOL     OW33235   5.647   3.082   3.084
10779SOL    HW133236   5.592   3.164   3.064
10779SOL    HW233237   5.742   3.109   3.096
10780SOL     OW33238   0.959   0.477   4.176
10780SOL    HW133239   1.047   0.452   4.216
10780SOL    HW233240   0.969   0.563   4.126
10781SOL     OW33241   3.798   1.245   3.109
10781SOL    HW133242   3.739   1.310   3.156
10781SOL    HW233243   3.892   1.278   3.109
10782SOL     OW33244   0.062   0.454   3.773
10782SOL    HW133245   0.027   0.387   3.708
10782SOL    HW233246   0.004   0.454   3.855
10783SOL     OW33247   0.214   2.945   2.803
10783SOL    HW133248   0.234   2.850   2.826
10783SOL    HW233249   0.293   3.002   2.824
10784SOL     OW33250   3.368   0.967   4.290
10784SOL    HW133251   3.281   0.989   4.247
10784SOL    HW233252   3.398   0.876   4.261
10785SOL     OW33253   0.954   3.871   0.810
10785SOL    HW133254   1.048   3.903   0.804
10785SOL    HW233255   0.939   3.799   0.742
10786SOL     OW33256   5.779   5.496   2.563
10786SOL    HW133257   5.774   5.403   2.526
10786SOL    HW233258   5.776   5.561   2.488
10787SOL     OW33259   0.854   0.265   5.403
10787SOL    HW133260   0.880   0.235   5.311
10787SOL    HW233261   0.918   0.226   5.469
10788SOL     OW33262   0.820   3.614   0.971
10788SOL    HW133263   0.752   3.643   1.039
10788SOL    HW233264   0.851   3.694   0.920
10789SOL     OW33265   6.134   3.105   6.671
10789SOL    HW133266   6.134   3.039   6.746
10789SOL    HW233267   6.130   3.198   6.708
10790SOL     OW33268   0.771   6.516   1.506
10790SOL    HW133269   0.846   6.535   1.443
10790SOL    HW233270   0.805   6.463   1.584
10791SOL     OW33271   6.796   5.997   2.330
10791SOL    HW133272   6.784   5.966   2.425
10791SOL    HW233273   6.715   6.049   2.302
10792SOL     OW33274   3.062   2.839   5.328
10792SOL    HW133275   3.149   2.825   5.374
10792SOL    HW233276   3.026   2.751   5.297
10793SOL     OW33277   6.113   3.944   5.593
10793SOL    HW133278   6.108   4.037   5.630
10793SOL    HW233279   6.040   3.931   5.525
10794SOL     OW33280   3.778   3.334   4.429
10794SOL    HW133281   3.687   3.303   4.403
10794SOL    HW233282   3.772   3.388   4.513
10795SOL     OW33283   0.637   5.338   2.966
10795SOL    HW133284   0.735   5.320   2.954
10795SOL    HW233285   0.625   5.430   3.005
10796SOL     OW33286   6.411   6.644   5.518
10796SOL    HW133287   6.331   6.646   5.577
10796SOL    HW233288   6.407   6.721   5.453
10797SOL     OW33289   3.814   3.168   0.901
10797SOL    HW133290   3.715   3.179   0.903
10797SOL    HW233291   3.852   3.193   0.990
10798SOL     OW33292   2.396   1.737   0.534
10798SOL    HW133293   2.493   1.712   0.535
10798SOL    HW233294   2.387   1.833   0.506
10799SOL     OW33295   4.547   0.699   2.550
10799SOL    HW133296   4.646   0.707   2.557
10799SOL    HW233297   4.516   0.744   2.466
10800SOL     OW33298   0.425   6.386   6.529
10800SOL    HW133299   0.394   6.291   6.529
10800SOL    HW233300   0.507   6.394   6.584
10801SOL     OW33301   1.307   6.662   0.964
10801SOL    HW133302   1.297   6.690   0.868
10801SOL    HW233303   1.218   6.636   1.001
10802SOL     OW33304   0.226   6.491   2.766
10802SOL    HW133305   0.159   6.424   2.797
10802SOL    HW233306   0.191   6.538   2.685
10803SOL     OW33307   1.711   5.748   6.379
10803SOL    HW133308   1.686   5.741   6.476
10803SOL    HW233309   1.630   5.769   6.325
10804SOL     OW33310   6.854   2.771   3.540
10804SOL    HW133311   6.847   2.865   3.507
10804SOL    HW233312   6.762   2.730   3.546
10805SOL     OW33313   5.570   1.185   5.354
10805SOL    HW133314   5.602   1.120   5.423
10805SOL    HW233315   5.470   1.192   5.359
10806SOL     OW33316   3.519   4.896   6.550
10806SOL    HW133317   3.541   4.800   6.534
10806SOL    HW233318   3.603   4.950   6.544
10807SOL     OW33319   1.262   5.209   4.198
10807SOL    HW133320   1.213   5.289   4.164
10807SOL    HW233321   1.310   5.165   4.122
10808SOL     OW33322   0.404   2.773   6.212
10808SOL    HW133323   0.414   2.733   6.121
10808SOL    HW233324   0.399   2.699   6.280
10809SOL     OW33325   1.494   4.183   4.019
10809SOL    HW133326   1.567   4.172   4.086
10809SOL    HW233327   1.506   4.269   3.969
10810SOL     OW33328   6.700   0.265   3.306
10810SOL    HW133329   6.669   0.239   3.215
10810SOL    HW233330   6.729   0.361   3.305
10811SOL     OW33331   4.777   4.998   4.351
10811SOL    HW133332   4.861   5.048   4.374
10811SOL    HW233333   4.716   4.998   4.431
10812SOL     OW33334   6.621   3.389   6.708
10812SOL    HW133335   6.700   3.397   6.769
10812SOL    HW233336   6.546   3.345   6.757
10813SOL     OW33337   0.168   3.441   6.317
10813SOL    HW133338   0.089   3.379   6.314
10813SOL    HW233339   0.192   3.460   6.412
10814SOL     OW33340   2.515   0.376   0.872
10814SOL    HW133341   2.437   0.369   0.810
10814SOL    HW233342   2.483   0.375   0.967
10815SOL     OW33343   5.385   1.595   3.224
10815SOL    HW133344   5.352   1.551   3.140
10815SOL    HW233345   5.327   1.674   3.244
10816SOL     OW33346   3.564   3.103   2.871
10816SOL    HW133347   3.488   3.134   2.927
10816SOL    HW233348   3.648   3.101   2.926
10817SOL     OW33349   3.051   0.713   3.400
10817SOL    HW133350   3.108   0.640   3.439
10817SOL    HW233351   3.110   0.783   3.360
10818SOL     OW33352   4.629   5.059   5.873
10818SOL    HW133353   4.583   5.089   5.789
10818SOL    HW233354   4.599   5.116   5.950
10819SOL     OW33355   6.278   5.477   6.029
10819SOL    HW133356   6.329   5.392   6.043
10819SOL    HW233357   6.257   5.487   5.932
10820SOL     OW33358   0.655   5.600   5.207
10820SOL    HW133359   0.705   5.673   5.161
10820SOL    HW233360   0.640   5.524   5.144
10821SOL     OW33361   4.557   6.004   3.053
10821SOL    HW133362   4.541   5.979   2.958
10821SOL    HW233363   4.470   6.026   3.097
10822SOL     OW33364   5.338   2.388   1.258
10822SOL    HW133365   5.333   2.361   1.161
10822SOL    HW233366   5.272   2.335   1.311
10823SOL     OW33367   0.507   0.171   3.513
10823SOL    HW133368   0.532   0.235   3.586
10823SOL    HW233369   0.434   0.211   3.458
10824SOL     OW33370   0.876   1.203   3.169
10824SOL    HW133371   0.870   1.190   3.268
10824SOL    HW233372   0.811   1.274   3.141
10825SOL     OW33373   1.212   2.401   0.661
10825SOL    HW133374   1.206   2.306   0.633
10825SOL    HW233375   1.299   2.440   0.628
10826SOL     OW33376   0.881   1.901   2.747
10826SOL    HW133377   0.945   1.825   2.733
10826SOL    HW233378   0.871   1.918   2.845
10827SOL     OW33379   6.435   3.546   4.873
10827SOL    HW133380   6.462   3.502   4.787
10827SOL    HW233381   6.350   3.504   4.906
10828SOL     OW33382   6.457   3.747   0.071
10828SOL    HW133383   6.424   3.706   0.156
10828SOL    HW233384   6.554   3.728   0.060
10829SOL     OW33385   4.544   3.342   6.963
10829SOL    HW133386   4.572   3.250   6.990
10829SOL    HW233387   4.617   3.407   6.986
10830SOL     OW33388   4.597   1.523   3.717
10830SOL    HW133389   4.543   1.487   3.793
10830SOL    HW233390   4.691   1.539   3.749
10831SOL     OW33391   3.895   0.643   2.115
10831SOL    HW133392   3.800   0.662   2.092
10831SOL    HW233393   3.940   0.727   2.145
10832SOL     OW33394   6.880   3.374   6.830
10832SOL    HW133395   6.862   3.278   6.855
10832SOL    HW233396   6.904   3.379   6.733
10833SOL     OW33397   0.272   2.717   1.247
10833SOL    HW133398   0.291   2.619   1.241
10833SOL    HW233399   0.358   2.767   1.258
10834SOL     OW33400   6.439   0.932   1.228
10834SOL    HW133401   6.404   0.852   1.277
10834SOL    HW233402   6.363   0.978   1.182
10835SOL     OW33403   4.966   3.453   0.583
10835SOL    HW133404   5.044   3.436   0.642
10835SOL    HW233405   4.942   3.369   0.535
10836SOL     OW33406   1.345   0.500   2.552
10836SOL    HW133407   1.406   0.426   2.582
10836SOL    HW233408   1.332   0.493   2.453
10837SOL     OW33409   6.157   4.519   2.130
10837SOL    HW133410   6.210   4.573   2.065
10837SOL    HW233411   6.064   4.507   2.096
10838SOL     OW33412   5.278   6.734   3.530
10838SOL    HW133413   5.367   6.765   3.498
10838SOL    HW233414   5.279   6.635   3.541
10839SOL     OW33415   4.556   3.418   0.340
10839SOL    HW133416   4.652   3.431   0.314
10839SOL    HW233417   4.537   3.470   0.423
10840SOL     OW33418   3.188   0.673   1.862
10840SOL    HW133419   3.106   0.725   1.887
10840SOL    HW233420   3.248   0.665   1.942
10841SOL     OW33421   6.446   5.305   4.952
10841SOL    HW133422   6.474   5.275   4.860
10841SOL    HW233423   6.511   5.268   5.019
10842SOL     OW33424   4.323   3.126   1.776
10842SOL    HW133425   4.297   3.215   1.813
10842SOL    HW233426   4.240   3.071   1.761
10843SOL     OW33427   2.171   1.729   0.942
10843SOL    HW133428   2.136   1.821   0.958
10843SOL    HW233429   2.101   1.675   0.895
10844SOL     OW33430   0.254   5.910   4.393
10844SOL    HW133431   0.180   5.977   4.383
10844SOL    HW233432   0.263   5.884   4.489
10845SOL     OW33433   4.627   5.730   4.814
10845SOL    HW133434   4.551   5.670   4.792
10845SOL    HW233435   4.706   5.675   4.841
10846SOL     OW33436   5.931   6.381   6.756
10846SOL    HW133437   5.892   6.292   6.778
10846SOL    HW233438   6.030   6.375   6.758
10847SOL     OW33439   2.166   1.766   0.170
10847SOL    HW133440   2.107   1.818   0.231
10847SOL    HW233441   2.262   1.791   0.187
10848SOL     OW33442   0.538   3.839   1.270
10848SOL    HW133443   0.509   3.751   1.234
10848SOL    HW233444   0.517   3.911   1.203
10849SOL     OW33445   3.005   4.855   4.261
10849SOL    HW133446   2.951   4.802   4.196
10849SOL    HW233447   2.957   4.860   4.348
10850SOL     OW33448   4.268   6.438   0.214
10850SOL    HW133449   4.351   6.425   0.268
10850SOL    HW233450   4.256   6.535   0.193
10851SOL     OW33451   2.798   4.132   1.557
10851SOL    HW133452   2.755   4.215   1.593
10851SOL    HW233453   2.729   4.079   1.508
10852SOL     OW33454   2.187   1.291   0.429
10852SOL    HW133455   2.196   1.243   0.342
10852SOL    HW233456   2.236   1.242   0.501
10853SOL     OW33457   2.350   2.897   6.064
10853SOL    HW133458   2.411   2.825   6.029
10853SOL    HW233459   2.332   2.881   6.161
10854SOL     OW33460   4.234   5.507   4.958
10854SOL    HW133461   4.217   5.429   4.898
10854SOL    HW233462   4.312   5.487   5.018
10855SOL     OW33463   3.540   1.002   0.629
10855SOL    HW133464   3.607   1.009   0.555
10855SOL    HW233465   3.507   1.094   0.653
10856SOL     OW33466   6.834   0.556   6.134
10856SOL    HW133467   6.758   0.620   6.145
10856SOL    HW233468   6.807   0.483   6.072
10857SOL     OW33469   0.147   1.728   2.539
10857SOL    HW133470   0.241   1.741   2.571
10857SOL    HW233471   0.142   1.751   2.442
10858SOL     OW33472   2.285   6.248   1.380
10858SOL    HW133473   2.304   6.241   1.478
10858SOL    HW233474   2.313   6.164   1.335
10859SOL     OW33475   7.008   4.914   4.818
10859SOL    HW133476   7.008   5.014   4.821
10859SOL    HW233477   6.982   4.884   4.726
10860SOL     OW33478   6.885   3.741   3.297
10860SOL    HW133479   6.793   3.780   3.294
10860SOL    HW233480   6.880   3.645   3.326
10861SOL     OW33481   2.955   3.216   3.335
10861SOL    HW133482   2.869   3.200   3.383
10861SOL    HW233483   3.005   3.130   3.326
10862SOL     OW33484   1.875   1.086   5.861
10862SOL    HW133485   1.862   1.072   5.763
10862SOL    HW233486   1.793   1.128   5.900
10863SOL     OW33487   2.148   6.766   4.508
10863SOL    HW133488   2.071   6.737   4.451
10863SOL    HW233489   2.121   6.846   4.562
10864SOL     OW33490   2.984   6.612   2.083
10864SOL    HW133491   3.022   6.583   1.995
10864SOL    HW233492   2.925   6.540   2.119
10865SOL     OW33493   6.647   1.090   6.898
10865SOL    HW133494   6.707   1.149   6.953
10865SOL    HW233495   6.663   1.109   6.801
10866SOL     OW33496   5.062   5.084   6.715
10866SOL    HW133497   5.120   5.038   6.648
10866SOL    HW233498   4.981   5.121   6.670
10867SOL     OW33499   3.094   4.723   0.794
10867SOL    HW133500   3.108   4.719   0.893
10867SOL    HW233501   3.130   4.809   0.758
10868SOL     OW33502   4.747   1.944   3.428
10868SOL    HW133503   4.738   1.845   3.439
10868SOL    HW233504   4.671   1.990   3.475
10869NA      NA33505   6.139   2.083   5.634
10870NA      NA33506   4.408   4.766   5.075
10871NA      NA33507   1.670   3.427   1.512
10872NA      NA33508   4.973   3.664   5.453
10873NA      NA33509   4.203   2.217   4.945
10874NA      NA33510   3.788   4.692   1.720
10875NA      NA33511   6.531   5.397   5.360
10876NA      NA33512   3.531   3.256   4.789
10877NA      NA33513   5.159   6.607   6.797
10878NA      NA33514   3.403   6.678   5.503
10879NA      NA33515   6.536   5.070   2.365
10880NA      NA33516   2.516   0.706   3.832
10881NA      NA33517   3.861   5.219   1.210
10882NA      NA33518   3.583   3.493   2.457
   7.02386   7.02386   7.02386
