Generated by trjconv : CNT in water t= 506.00000
33518
    1C        C    1   2.846   2.773   4.748
    1C        C    2   2.898   2.722   4.868
    1C        C    3   2.844   2.777   4.985
    1C        C    4   2.845   2.771   4.258
    1C        C    5   2.899   2.728   4.382
    1C        C    6   2.846   2.774   4.505
    1C        C    7   3.012   2.640   4.625
    1C        C    8   2.896   2.722   4.626
    1C        C    9   3.078   2.604   4.744
    1C        C   10   3.011   2.637   4.864
    1C        C   11   3.184   2.497   4.977
    1C        C   12   3.063   2.566   4.974
    1C        C   13   2.848   2.768   3.771
    1C        C   14   2.900   2.722   3.894
    1C        C   15   2.848   2.774   4.014
    1C        C   16   3.016   2.645   4.139
    1C        C   17   2.902   2.729   4.136
    1C        C   18   3.079   2.613   4.261
    1C        C   19   3.016   2.649   4.382
    1C        C   20   3.206   2.555   4.502
    1C        C   21   3.075   2.607   4.503
    1C        C   22   3.279   2.539   4.622
    1C        C   23   3.210   2.550   4.744
    1C        C   24   3.412   2.477   4.863
    1C        C   25   3.271   2.502   4.863
    1C        C   26   3.494   2.475   4.977
    1C        C   27   2.846   2.762   3.281
    1C        C   28   2.904   2.724   3.404
    1C        C   29   2.853   2.773   3.527
    1C        C   30   3.017   2.640   3.647
    1C        C   31   2.904   2.724   3.649
    1C        C   32   3.075   2.601   3.771
    1C        C   33   3.012   2.634   3.893
    1C        C   34   3.209   2.562   4.018
    1C        C   35   3.076   2.610   4.016
    1C        C   36   3.278   2.542   4.140
    1C        C   37   3.210   2.560   4.262
    1C        C   38   3.418   2.512   4.382
    1C        C   39   3.279   2.535   4.382
    1C        C   40   3.488   2.505   4.505
    1C        C   41   3.418   2.512   4.627
    1C        C   42   3.632   2.487   4.744
    1C        C   43   3.490   2.486   4.745
    1C        C   44   3.710   2.490   4.862
    1C        C   45   3.632   2.482   4.978
    1C        C   46   2.832   2.749   2.793
    1C        C   47   2.889   2.706   2.915
    1C        C   48   2.838   2.757   3.037
    1C        C   49   3.017   2.640   3.160
    1C        C   50   2.897   2.715   3.158
    1C        C   51   3.080   2.607   3.282
    1C        C   52   3.020   2.645   3.404
    1C        C   53   3.209   2.547   3.528
    1C        C   54   3.081   2.605   3.526
    1C        C   55   3.275   2.528   3.652
    1C        C   56   3.206   2.550   3.773
    1C        C   57   3.415   2.515   3.892
    1C        C   58   3.275   2.535   3.896
    1C        C   59   3.486   2.513   4.014
    1C        C   60   3.417   2.514   4.138
    1C        C   61   3.629   2.506   4.259
    1C        C   62   3.488   2.504   4.259
    1C        C   63   3.700   2.516   4.381
    1C        C   64   3.630   2.508   4.503
    1C        C   65   3.838   2.550   4.619
    1C        C   66   3.703   2.507   4.624
    1C        C   67   3.906   2.568   4.742
    1C        C   68   3.845   2.533   4.864
    1C        C   69   4.055   2.589   4.978
    1C        C   70   3.925   2.536   4.979
    1C        C   71   2.822   2.733   2.308
    1C        C   72   2.882   2.693   2.430
    1C        C   73   2.829   2.743   2.551
    1C        C   74   3.000   2.616   2.675
    1C        C   75   2.884   2.696   2.673
    1C        C   76   3.070   2.589   2.795
    1C        C   77   3.008   2.630   2.915
    1C        C   78   3.208   2.554   3.039
    1C        C   79   3.077   2.607   3.036
    1C        C   80   3.277   2.533   3.160
    1C        C   81   3.209   2.549   3.283
    1C        C   82   3.415   2.500   3.403
    1C        C   83   3.275   2.524   3.405
    1C        C   84   3.485   2.501   3.525
    1C        C   85   3.415   2.510   3.647
    1C        C   86   3.626   2.509   3.771
    1C        C   87   3.485   2.506   3.770
    1C        C   88   3.697   2.517   3.892
    1C        C   89   3.627   2.518   4.015
    1C        C   90   3.835   2.556   4.134
    1C        C   91   3.698   2.522   4.137
    1C        C   92   3.904   2.578   4.256
    1C        C   93   3.835   2.557   4.378
    1C        C   94   4.034   2.634   4.498
    1C        C   95   3.906   2.575   4.498
    1C        C   96   4.100   2.666   4.619
    1C        C   97   4.035   2.627   4.739
    1C        C   98   4.195   2.764   4.861
    1C        C   99   4.104   2.654   4.860
    1C        C  100   4.219   2.844   4.974
    1C        C  101   2.818   2.727   2.070
    1C        C  102   2.985   2.587   2.193
    1C        C  103   2.879   2.683   2.188
    1C        C  104   3.057   2.565   2.314
    1C        C  105   2.998   2.612   2.433
    1C        C  106   3.195   2.531   2.550
    1C        C  107   3.060   2.575   2.554
    1C        C  108   3.268   2.517   2.670
    1C        C  109   3.200   2.536   2.793
    1C        C  110   3.408   2.501   2.914
    1C        C  111   3.268   2.521   2.916
    1C        C  112   3.482   2.498   3.035
    1C        C  113   3.416   2.506   3.160
    1C        C  114   3.628   2.497   3.278
    1C        C  115   3.487   2.495   3.281
    1C        C  116   3.694   2.513   3.402
    1C        C  117   3.626   2.504   3.525
    1C        C  118   3.832   2.547   3.646
    1C        C  119   3.696   2.510   3.648
    1C        C  120   3.902   2.568   3.768
    1C        C  121   3.836   2.546   3.890
    1C        C  122   4.031   2.633   4.012
    1C        C  123   3.904   2.571   4.012
    1C        C  124   4.095   2.668   4.133
    1C        C  125   4.035   2.631   4.255
    1C        C  126   4.202   2.762   4.376
    1C        C  127   4.096   2.669   4.376
    1C        C  128   4.250   2.817   4.497
    1C        C  129   4.205   2.761   4.618
    1C        C  130   4.329   2.933   4.740
    1C        C  131   4.250   2.815   4.741
    1C        C  132   4.355   3.004   4.859
    1C        C  133   4.281   2.968   4.973
    1C        C  134   3.172   2.466   2.082
    1C        C  135   3.039   2.509   2.086
    1C        C  136   3.258   2.480   2.192
    1C        C  137   3.192   2.519   2.310
    1C        C  138   3.405   2.489   2.429
    1C        C  139   3.265   2.505   2.430
    1C        C  140   3.480   2.490   2.548
    1C        C  141   3.408   2.496   2.670
    1C        C  142   3.619   2.502   2.790
    1C        C  143   3.478   2.490   2.792
    1C        C  144   3.693   2.509   2.910
    1C        C  145   3.623   2.502   3.033
    1C        C  146   3.833   2.542   3.153
    1C        C  147   3.695   2.508   3.154
    1C        C  148   3.897   2.564   3.276
    1C        C  149   3.833   2.542   3.400
    1C        C  150   4.028   2.623   3.521
    1C        C  151   3.898   2.568   3.523
    1C        C  152   4.089   2.665   3.642
    1C        C  153   4.026   2.635   3.765
    1C        C  154   4.200   2.755   3.887
    1C        C  155   4.084   2.674   3.887
    1C        C  156   4.253   2.805   4.008
    1C        C  157   4.203   2.760   4.132
    1C        C  158   4.341   2.922   4.251
    1C        C  159   4.254   2.811   4.254
    1C        C  160   4.378   2.983   4.373
    1C        C  161   4.336   2.929   4.497
    1C        C  162   4.442   3.114   4.615
    1C        C  163   4.371   2.992   4.618
    1C        C  164   4.470   3.182   4.736
    1C        C  165   4.436   3.119   4.858
    1C        C  166   4.515   3.316   4.973
    1C        C  167   4.485   3.180   4.974
    1C        C  168   3.475   2.440   2.075
    1C        C  169   3.398   2.461   2.190
    1C        C  170   3.618   2.471   2.306
    1C        C  171   3.476   2.473   2.308
    1C        C  172   3.692   2.490   2.425
    1C        C  173   3.621   2.486   2.547
    1C        C  174   3.828   2.539   2.667
    1C        C  175   3.691   2.505   2.669
    1C        C  176   3.897   2.559   2.789
    1C        C  177   3.831   2.539   2.912
    1C        C  178   4.029   2.624   3.030
    1C        C  179   3.902   2.563   3.032
    1C        C  180   4.088   2.659   3.154
    1C        C  181   4.023   2.628   3.276
    1C        C  182   4.200   2.744   3.396
    1C        C  183   4.087   2.660   3.398
    1C        C  184   4.253   2.795   3.516
    1C        C  185   4.199   2.753   3.640
    1C        C  186   4.341   2.908   3.764
    1C        C  187   4.249   2.800   3.763
    1C        C  188   4.378   2.974   3.883
    1C        C  189   4.338   2.918   4.007
    1C        C  190   4.448   3.102   4.128
    1C        C  191   4.380   2.978   4.128
    1C        C  192   4.476   3.170   4.249
    1C        C  193   4.445   3.107   4.371
    1C        C  194   4.505   3.314   4.493
    1C        C  195   4.464   3.179   4.492
    1C        C  196   4.519   3.387   4.613
    1C        C  197   4.506   3.319   4.736
    1C        C  198   4.551   3.533   4.853
    1C        C  199   4.531   3.391   4.856
    1C        C  200   4.584   3.617   4.964
    1C        C  201   3.613   2.416   2.075
    1C        C  202   3.826   2.512   2.184
    1C        C  203   3.693   2.459   2.186
    1C        C  204   3.899   2.537   2.303
    1C        C  205   3.831   2.518   2.424
    1C        C  206   4.023   2.615   2.543
    1C        C  207   3.897   2.551   2.545
    1C        C  208   4.087   2.651   2.664
    1C        C  209   4.026   2.616   2.787
    1C        C  210   4.202   2.744   2.907
    1C        C  211   4.089   2.659   2.906
    1C        C  212   4.252   2.794   3.030
    1C        C  213   4.200   2.745   3.152
    1C        C  214   4.337   2.906   3.274
    1C        C  215   4.253   2.793   3.274
    1C        C  216   4.369   2.970   3.396
    1C        C  217   4.334   2.911   3.520
    1C        C  218   4.431   3.100   3.639
    1C        C  219   4.374   2.970   3.642
    1C        C  220   4.462   3.165   3.760
    1C        C  221   4.439   3.102   3.884
    1C        C  222   4.502   3.305   4.005
    1C        C  223   4.469   3.168   4.005
    1C        C  224   4.511   3.379   4.125
    1C        C  225   4.504   3.309   4.247
    1C        C  226   4.515   3.521   4.367
    1C        C  227   4.518   3.380   4.369
    1C        C  228   4.512   3.597   4.486
    1C        C  229   4.528   3.528   4.608
    1C        C  230   4.500   3.739   4.728
    1C        C  231   4.534   3.601   4.729
    1C        C  232   4.490   3.817   4.846
    1C        C  233   4.545   3.751   4.957
    1C        C  234   4.020   2.606   2.065
    1C        C  235   3.897   2.541   2.066
    1C        C  236   4.087   2.644   2.181
    1C        C  237   4.027   2.601   2.301
    1C        C  238   4.202   2.728   2.420
    1C        C  239   4.088   2.644   2.421
    1C        C  240   4.255   2.782   2.540
    1C        C  241   4.199   2.738   2.662
    1C        C  242   4.339   2.900   2.783
    1C        C  243   4.251   2.789   2.783
    1C        C  244   4.375   2.961   2.905
    1C        C  245   4.339   2.905   3.030
    1C        C  246   4.438   3.092   3.147
    1C        C  247   4.377   2.965   3.152
    1C        C  248   4.460   3.158   3.270
    1C        C  249   4.433   3.096   3.394
    1C        C  250   4.488   3.302   3.514
    1C        C  251   4.454   3.165   3.515
    1C        C  252   4.501   3.371   3.636
    1C        C  253   4.497   3.302   3.760
    1C        C  254   4.521   3.514   3.880
    1C        C  255   4.513   3.373   3.881
    1C        C  256   4.513   3.588   4.000
    1C        C  257   4.511   3.520   4.124
    1C        C  258   4.489   3.733   4.240
    1C        C  259   4.509   3.593   4.245
    1C        C  260   4.473   3.803   4.361
    1C        C  261   4.493   3.737   4.484
    1C        C  262   4.426   3.938   4.605
    1C        C  263   4.476   3.806   4.606
    1C        C  264   4.404   4.013   4.722
    1C        C  265   4.433   3.946   4.843
    1C        C  266   4.316   4.129   4.958
    1C        C  267   4.391   4.012   4.960
    1C        C  268   4.261   2.777   2.061
    1C        C  269   4.200   2.729   2.178
    1C        C  270   4.351   2.883   2.296
    1C        C  271   4.256   2.777   2.298
    1C        C  272   4.380   2.952   2.416
    1C        C  273   4.341   2.894   2.538
    1C        C  274   4.444   3.080   2.659
    1C        C  275   4.383   2.952   2.660
    1C        C  276   4.465   3.150   2.780
    1C        C  277   4.441   3.086   2.903
    1C        C  278   4.496   3.292   3.025
    1C        C  279   4.470   3.153   3.024
    1C        C  280   4.505   3.363   3.147
    1C        C  281   4.498   3.295   3.270
    1C        C  282   4.514   3.509   3.392
    1C        C  283   4.504   3.368   3.390
    1C        C  284   4.514   3.582   3.513
    1C        C  285   4.508   3.512   3.636
    1C        C  286   4.492   3.724   3.752
    1C        C  287   4.511   3.584   3.757
    1C        C  288   4.474   3.793   3.873
    1C        C  289   4.489   3.727   3.997
    1C        C  290   4.427   3.933   4.115
    1C        C  291   4.474   3.800   4.117
    1C        C  292   4.400   3.999   4.237
    1C        C  293   4.431   3.938   4.361
    1C        C  294   4.325   4.123   4.479
    1C        C  295   4.396   4.002   4.482
    1C        C  296   4.285   4.189   4.598
    1C        C  297   4.329   4.134   4.720
    1C        C  298   4.199   4.312   4.838
    1C        C  299   4.283   4.196   4.840
    1C        C  300   4.165   4.397   4.948
    1C        C  301   4.350   2.885   2.061
    1C        C  302   4.468   3.071   2.176
    1C        C  303   4.400   2.944   2.177
    1C        C  304   4.484   3.142   2.298
    1C        C  305   4.445   3.077   2.418
    1C        C  306   4.506   3.284   2.536
    1C        C  307   4.471   3.147   2.538
    1C        C  308   4.519   3.355   2.657
    1C        C  309   4.505   3.286   2.780
    1C        C  310   4.514   3.500   2.901
    1C        C  311   4.513   3.359   2.901
    1C        C  312   4.513   3.573   3.022
    1C        C  313   4.515   3.504   3.145
    1C        C  314   4.482   3.714   3.263
    1C        C  315   4.506   3.575   3.267
    1C        C  316   4.471   3.786   3.385
    1C        C  317   4.489   3.721   3.509
    1C        C  318   4.424   3.925   3.628
    1C        C  319   4.474   3.793   3.630
    1C        C  320   4.397   3.991   3.750
    1C        C  321   4.428   3.927   3.872
    1C        C  322   4.322   4.116   3.991
    1C        C  323   4.392   3.994   3.991
    1C        C  324   4.281   4.173   4.113
    1C        C  325   4.327   4.120   4.235
    1C        C  326   4.189   4.283   4.352
    1C        C  327   4.286   4.181   4.356
    1C        C  328   4.137   4.335   4.472
    1C        C  329   4.189   4.292   4.596
    1C        C  330   4.025   4.435   4.711
    1C        C  331   4.138   4.348   4.715
    1C        C  332   3.974   4.496   4.827
    1C        C  333   4.054   4.482   4.941
    1C        C  334   4.550   3.269   2.058
    1C        C  335   4.527   3.130   2.060
    1C        C  336   4.534   3.349   2.172
    1C        C  337   4.515   3.280   2.293
    1C        C  338   4.523   3.495   2.413
    1C        C  339   4.520   3.353   2.414
    1C        C  340   4.520   3.566   2.535
    1C        C  341   4.521   3.496   2.657
    1C        C  342   4.493   3.709   2.773
    1C        C  343   4.513   3.569   2.778
    1C        C  344   4.473   3.778   2.895
    1C        C  345   4.489   3.712   3.019
    1C        C  346   4.429   3.918   3.137
    1C        C  347   4.470   3.782   3.140
    1C        C  348   4.396   3.983   3.258
    1C        C  349   4.426   3.920   3.381
    1C        C  350   4.322   4.104   3.503
    1C        C  351   4.400   3.986   3.503
    1C        C  352   4.273   4.161   3.623
    1C        C  353   4.322   4.111   3.746
    1C        C  354   4.181   4.271   3.867
    1C        C  355   4.281   4.171   3.867
    1C        C  356   4.129   4.323   3.987
    1C        C  357   4.181   4.274   4.109
    1C        C  358   4.009   4.397   4.229
    1C        C  359   4.129   4.323   4.230
    1C        C  360   3.952   4.441   4.350
    1C        C  361   4.019   4.414   4.472
    1C        C  362   3.827   4.516   4.591
    1C        C  363   3.957   4.461   4.589
    1C        C  364   3.760   4.545   4.713
    1C        C  365   3.839   4.538   4.830
    1C        C  366   3.628   4.590   4.949
    1C        C  367   3.765   4.567   4.945
    1C        C  368   4.506   3.566   2.057
    1C        C  369   4.527   3.490   2.172
    1C        C  370   4.499   3.706   2.289
    1C        C  371   4.520   3.566   2.291
    1C        C  372   4.480   3.776   2.410
    1C        C  373   4.496   3.706   2.531
    1C        C  374   4.433   3.912   2.648
    1C        C  375   4.480   3.779   2.651
    1C        C  376   4.399   3.977   2.769
    1C        C  377   4.425   3.911   2.891
    1C        C  378   4.321   4.096   3.011
    1C        C  379   4.398   3.977   3.013
    1C        C  380   4.277   4.153   3.132
    1C        C  381   4.317   4.101   3.257
    1C        C  382   4.186   4.264   3.376
    1C        C  383   4.277   4.157   3.380
    1C        C  384   4.128   4.308   3.497
    1C        C  385   4.177   4.264   3.623
    1C        C  386   4.005   4.389   3.743
    1C        C  387   4.123   4.311   3.745
    1C        C  388   3.945   4.428   3.864
    1C        C  389   4.010   4.399   3.986
    1C        C  390   3.814   4.486   4.109
    1C        C  391   3.943   4.429   4.108
    1C        C  392   3.750   4.515   4.231
    1C        C  393   3.823   4.500   4.351
    1C        C  394   3.617   4.554   4.474
    1C        C  395   3.757   4.535   4.471
    1C        C  396   3.547   4.565   4.596
    1C        C  397   3.621   4.567   4.716
    1C        C  398   3.409   4.550   4.838
    1C        C  399   3.547   4.580   4.836
    1C        C  400   3.341   4.518   4.957
    1C        C  401   4.500   3.705   2.050
    1C        C  402   4.456   3.916   2.166
    1C        C  403   4.489   3.779   2.168
    1C        C  404   4.413   3.978   2.285
    1C        C  405   4.437   3.911   2.407
    1C        C  406   4.327   4.096   2.526
    1C        C  407   4.405   3.978   2.526
    1C        C  408   4.278   4.151   2.647
    1C        C  409   4.320   4.094   2.769
    1C        C  410   4.171   4.248   2.889
    1C        C  411   4.273   4.150   2.890
    1C        C  412   4.121   4.298   3.012
    1C        C  413   4.178   4.254   3.133
    1C        C  414   4.005   4.377   3.257
    1C        C  415   4.128   4.307   3.254
    1C        C  416   3.943   4.410   3.379
    1C        C  417   4.005   4.378   3.502
    1C        C  418   3.811   4.475   3.619
    1C        C  419   3.939   4.416   3.621
    1C        C  420   3.746   4.499   3.742
    1C        C  421   3.812   4.475   3.864
    1C        C  422   3.608   4.534   3.987
    1C        C  423   3.745   4.499   3.987
    1C        C  424   3.541   4.546   4.111
    1C        C  425   3.610   4.537   4.234
    1C        C  426   3.399   4.545   4.355
    1C        C  427   3.540   4.552   4.355
    1C        C  428   3.331   4.537   4.479
    1C        C  429   3.406   4.550   4.597
    1C        C  430   3.194   4.519   4.720
    1C        C  431   3.334   4.546   4.718
    1C        C  432   3.125   4.498   4.843
    1C        C  433   3.204   4.497   4.959
    1C        C  434   4.387   4.124   2.055
    1C        C  435   4.444   3.996   2.051
    1C        C  436   4.303   4.163   2.164
    1C        C  437   4.335   4.097   2.286
    1C        C  438   4.178   4.248   2.401
    1C        C  439   4.283   4.153   2.405
    1C        C  440   4.122   4.292   2.523
    1C        C  441   4.177   4.250   2.646
    1C        C  442   4.005   4.378   2.765
    1C        C  443   4.118   4.293   2.767
    1C        C  444   3.943   4.411   2.888
    1C        C  445   4.003   4.375   3.012
    1C        C  446   3.810   4.461   3.132
    1C        C  447   3.941   4.408   3.135
    1C        C  448   3.744   4.486   3.255
    1C        C  449   3.814   4.467   3.376
    1C        C  450   3.607   4.524   3.497
    1C        C  451   3.746   4.497   3.496
    1C        C  452   3.539   4.538   3.621
    1C        C  453   3.609   4.536   3.744
    1C        C  454   3.398   4.544   3.864
    1C        C  455   3.539   4.549   3.865
    1C        C  456   3.329   4.536   3.987
    1C        C  457   3.400   4.544   4.110
    1C        C  458   3.192   4.505   4.235
    1C        C  459   3.330   4.535   4.232
    1C        C  460   3.122   4.490   4.357
    1C        C  461   3.191   4.515   4.478
    1C        C  462   2.996   4.437   4.602
    1C        C  463   3.123   4.499   4.600
    1C        C  464   2.933   4.400   4.722
    1C        C  465   2.993   4.443   4.844
    1C        C  466   2.804   4.334   4.958
    1C        C  467   2.908   4.428   4.958
    1C        C  468   4.119   4.282   2.042
    1C        C  469   4.185   4.244   2.160
    1C        C  470   4.004   4.370   2.280
    1C        C  471   4.125   4.296   2.279
    1C        C  472   3.940   4.402   2.402
    1C        C  473   4.003   4.368   2.524
    1C        C  474   3.811   4.463   2.645
    1C        C  475   3.942   4.411   2.643
    1C        C  476   3.742   4.485   2.767
    1C        C  477   3.812   4.463   2.888
    1C        C  478   3.605   4.510   3.009
    1C        C  479   3.743   4.481   3.010
    1C        C  480   3.535   4.527   3.130
    1C        C  481   3.606   4.518   3.252
    1C        C  482   3.396   4.532   3.377
    1C        C  483   3.537   4.529   3.375
    1C        C  484   3.326   4.528   3.500
    1C        C  485   3.398   4.540   3.621
    1C        C  486   3.188   4.500   3.743
    1C        C  487   3.326   4.532   3.743
    1C        C  488   3.126   4.479   3.868
    1C        C  489   3.192   4.505   3.990
    1C        C  490   2.998   4.422   4.114
    1C        C  491   3.124   4.485   4.113
    1C        C  492   2.936   4.389   4.237
    1C        C  493   2.994   4.430   4.359
    1C        C  494   2.826   4.304   4.484
    1C        C  495   2.934   4.396   4.482
    1C        C  496   2.775   4.252   4.605
    1C        C  497   2.822   4.310   4.725
    1C        C  498   2.666   4.163   4.843
    1C        C  499   2.756   4.271   4.843
    1C        C  500   2.598   4.119   4.958
    1C        C  501   4.001   4.355   2.043
    1C        C  502   3.813   4.466   2.155
    1C        C  503   3.940   4.404   2.159
    1C        C  504   3.743   4.480   2.277
    1C        C  505   3.808   4.452   2.399
    1C        C  506   3.604   4.501   2.520
    1C        C  507   3.742   4.473   2.522
    1C        C  508   3.534   4.518   2.641
    1C        C  509   3.605   4.517   2.764
    1C        C  510   3.394   4.526   2.889
    1C        C  511   3.535   4.522   2.887
    1C        C  512   3.320   4.522   3.009
    1C        C  513   3.394   4.526   3.130
    1C        C  514   3.189   4.493   3.256
    1C        C  515   3.327   4.525   3.254
    1C        C  516   3.122   4.471   3.378
    1C        C  517   3.188   4.498   3.499
    1C        C  518   2.995   4.414   3.626
    1C        C  519   3.120   4.480   3.621
    1C        C  520   2.936   4.379   3.750
    1C        C  521   2.999   4.417   3.871
    1C        C  522   2.831   4.287   3.997
    1C        C  523   2.940   4.378   3.993
    1C        C  524   2.788   4.236   4.121
    1C        C  525   2.834   4.292   4.243
    1C        C  526   2.700   4.129   4.363
    1C        C  527   2.779   4.246   4.365
    1C        C  528   2.659   4.072   4.486
    1C        C  529   2.690   4.139   4.606
    1C        C  530   2.585   3.955   4.733
    1C        C  531   2.639   4.087   4.727
    1C        C  532   2.539   3.901   4.856
    1C        C  533   2.533   3.995   4.963
    1C        C  534   3.616   4.557   2.038
    1C        C  535   3.750   4.515   2.040
    1C        C  536   3.535   4.533   2.154
    1C        C  537   3.604   4.510   2.276
    1C        C  538   3.392   4.517   2.402
    1C        C  539   3.534   4.513   2.398
    1C        C  540   3.320   4.513   2.523
    1C        C  541   3.392   4.514   2.645
    1C        C  542   3.184   4.489   2.771
    1C        C  543   3.322   4.516   2.767
    1C        C  544   3.115   4.466   2.892
    1C        C  545   3.182   4.492   3.013
    1C        C  546   2.992   4.404   3.134
    1C        C  547   3.117   4.470   3.137
    1C        C  548   2.937   4.368   3.259
    1C        C  549   2.994   4.410   3.381
    1C        C  550   2.826   4.284   3.505
    1C        C  551   2.935   4.374   3.505
    1C        C  552   2.778   4.235   3.629
    1C        C  553   2.831   4.285   3.750
    1C        C  554   2.705   4.118   3.877
    1C        C  555   2.785   4.235   3.874
    1C        C  556   2.662   4.062   3.999
    1C        C  557   2.704   4.123   4.119
    1C        C  558   2.606   3.937   4.246
    1C        C  559   2.667   4.064   4.242
    1C        C  560   2.576   3.875   4.370
    1C        C  561   2.592   3.948   4.489
    1C        C  562   2.528   3.748   4.617
    1C        C  563   2.562   3.885   4.613
    1C        C  564   2.513   3.679   4.739
    1C        C  565   2.515   3.760   4.856
    1C        C  566   2.524   3.545   4.978
    1C        C  567   2.517   3.684   4.974
    1C        C  568   3.327   4.476   2.041
    1C        C  569   3.394   4.516   2.157
    1C        C  570   3.184   4.483   2.281
    1C        C  571   3.323   4.514   2.279
    1C        C  572   3.115   4.465   2.403
    1C        C  573   3.182   4.483   2.525
    1C        C  574   2.988   4.406   2.648
    1C        C  575   3.116   4.466   2.649
    1C        C  576   2.928   4.366   2.769
    1C        C  577   2.987   4.405   2.891
    1C        C  578   2.819   4.278   3.018
    1C        C  579   2.926   4.371   3.014
    1C        C  580   2.774   4.226   3.141
    1C        C  581   2.829   4.276   3.261
    1C        C  582   2.697   4.114   3.388
    1C        C  583   2.779   4.229   3.384
    1C        C  584   2.661   4.056   3.511
    1C        C  585   2.697   4.120   3.633
    1C        C  586   2.599   3.933   3.754
    1C        C  587   2.664   4.059   3.756
    1C        C  588   2.578   3.867   3.877
    1C        C  589   2.608   3.931   4.000
    1C        C  590   2.542   3.735   4.129
    1C        C  591   2.581   3.871   4.124
    1C        C  592   2.523   3.669   4.252
    1C        C  593   2.538   3.739   4.374
    1C        C  594   2.515   3.532   4.500
    1C        C  595   2.525   3.673   4.498
    1C        C  596   2.517   3.462   4.622
    1C        C  597   2.513   3.536   4.743
    1C        C  598   2.530   3.323   4.863
    1C        C  599   2.518   3.464   4.864
    1C        C  600   2.535   3.247   4.980
    1C        C  601   3.193   4.442   2.043
    1C        C  602   2.981   4.400   2.163
    1C        C  603   3.118   4.443   2.161
    1C        C  604   2.923   4.368   2.288
    1C        C  605   2.986   4.406   2.409
    1C        C  606   2.814   4.277   2.529
    1C        C  607   2.924   4.366   2.529
    1C        C  608   2.768   4.224   2.651
    1C        C  609   2.819   4.275   2.772
    1C        C  610   2.690   4.110   2.896
    1C        C  611   2.773   4.224   2.896
    1C        C  612   2.657   4.049   3.019
    1C        C  613   2.694   4.110   3.141
    1C        C  614   2.599   3.925   3.264
    1C        C  615   2.661   4.052   3.266
    1C        C  616   2.574   3.864   3.389
    1C        C  617   2.599   3.929   3.512
    1C        C  618   2.533   3.728   3.635
    1C        C  619   2.572   3.864   3.634
    1C        C  620   2.521   3.663   3.760
    1C        C  621   2.534   3.733   3.882
    1C        C  622   2.512   3.526   4.010
    1C        C  623   2.526   3.666   4.006
    1C        C  624   2.511   3.454   4.131
    1C        C  625   2.518   3.528   4.251
    1C        C  626   2.539   3.323   4.378
    1C        C  627   2.517   3.462   4.377
    1C        C  628   2.551   3.252   4.500
    1C        C  629   2.531   3.322   4.621
    1C        C  630   2.589   3.116   4.744
    1C        C  631   2.545   3.252   4.742
    1C        C  632   2.611   3.046   4.866
    1C        C  633   2.555   3.108   4.982
    1C        C  634   2.782   4.309   2.056
    1C        C  635   2.894   4.393   2.050
    1C        C  636   2.755   4.230   2.168
    1C        C  637   2.813   4.278   2.287
    1C        C  638   2.682   4.109   2.408
    1C        C  639   2.762   4.226   2.408
    1C        C  640   2.650   4.046   2.530
    1C        C  641   2.686   4.108   2.651
    1C        C  642   2.591   3.921   2.776
    1C        C  643   2.650   4.049   2.774
    1C        C  644   2.568   3.855   2.899
    1C        C  645   2.598   3.921   3.020
    1C        C  646   2.532   3.721   3.147
    1C        C  647   2.571   3.857   3.143
    1C        C  648   2.520   3.655   3.271
    1C        C  649   2.535   3.728   3.391
    1C        C  650   2.512   3.517   3.516
    1C        C  651   2.521   3.658   3.513
    1C        C  652   2.515   3.452   3.641
    1C        C  653   2.514   3.522   3.764
    1C        C  654   2.534   3.315   3.887
    1C        C  655   2.511   3.455   3.887
    1C        C  656   2.555   3.248   4.010
    1C        C  657   2.536   3.315   4.133
    1C        C  658   2.601   3.118   4.258
    1C        C  659   2.551   3.250   4.258
    1C        C  660   2.636   3.057   4.380
    1C        C  661   2.604   3.121   4.502
    1C        C  662   2.709   2.938   4.624
    1C        C  663   2.630   3.055   4.624
    1C        C  664   2.749   2.876   4.745
    1C        C  665   2.697   2.932   4.865
    1C        C  666   2.741   2.870   4.983
    1C        C  667   2.675   4.026   2.053
    1C        C  668   2.696   4.101   2.169
    1C        C  669   2.591   3.912   2.290
    1C        C  670   2.647   4.043   2.288
    1C        C  671   2.562   3.848   2.412
    1C        C  672   2.596   3.915   2.532
    1C        C  673   2.529   3.716   2.655
    1C        C  674   2.568   3.852   2.655
    1C        C  675   2.515   3.650   2.779
    1C        C  676   2.529   3.720   2.902
    1C        C  677   2.508   3.511   3.028
    1C        C  678   2.516   3.652   3.025
    1C        C  679   2.511   3.442   3.152
    1C        C  680   2.509   3.514   3.273
    1C        C  681   2.531   3.304   3.399
    1C        C  682   2.511   3.443   3.396
    1C        C  683   2.557   3.241   3.522
    1C        C  684   2.545   3.314   3.643
    1C        C  685   2.605   3.113   3.769
    1C        C  686   2.556   3.246   3.766
    1C        C  687   2.631   3.050   3.892
    1C        C  688   2.595   3.113   4.014
    1C        C  689   2.706   2.933   4.138
    1C        C  690   2.629   3.051   4.136
    1C        C  691   2.754   2.879   4.259
    1C        C  692   2.712   2.937   4.380
    1C        C  693   2.751   2.879   4.503
    1C        C  694   2.635   3.892   2.054
    1C        C  695   2.530   3.705   2.175
    1C        C  696   2.582   3.836   2.171
    1C        C  697   2.512   3.635   2.296
    1C        C  698   2.523   3.712   2.413
    1C        C  699   2.488   3.504   2.542
    1C        C  700   2.510   3.643   2.536
    1C        C  701   2.504   3.434   2.664
    1C        C  702   2.505   3.509   2.783
    1C        C  703   2.531   3.300   2.908
    1C        C  704   2.506   3.439   2.906
    1C        C  705   2.548   3.233   3.031
    1C        C  706   2.533   3.303   3.153
    1C        C  707   2.595   3.102   3.277
    1C        C  708   2.544   3.234   3.276
    1C        C  709   2.634   3.045   3.400
    1C        C  710   2.604   3.107   3.524
    1C        C  711   2.708   2.927   3.649
    1C        C  712   2.632   3.046   3.647
    1C        C  713   2.754   2.874   3.772
    1C        C  714   2.709   2.932   3.893
    1C        C  715   2.755   2.880   4.016
    1C        C  716   2.449   3.497   2.061
    1C        C  717   2.496   3.629   2.062
    1C        C  718   2.466   3.421   2.181
    1C        C  719   2.485   3.495   2.301
    1C        C  720   2.516   3.288   2.425
    1C        C  721   2.486   3.426   2.424
    1C        C  722   2.540   3.220   2.546
    1C        C  723   2.530   3.295   2.666
    1C        C  724   2.592   3.093   2.788
    1C        C  725   2.546   3.227   2.789
    1C        C  726   2.617   3.032   2.913
    1C        C  727   2.589   3.098   3.035
    1C        C  728   2.705   2.919   3.158
    1C        C  729   2.625   3.035   3.157
    1C        C  730   2.751   2.867   3.281
    1C        C  731   2.712   2.927   3.403
    1C        C  732   2.752   2.872   3.527
    1C        C  733   2.481   3.194   2.071
    1C        C  734   2.490   3.280   2.181
    1C        C  735   2.583   3.086   2.304
    1C        C  736   2.527   3.217   2.303
    1C        C  737   2.610   3.017   2.424
    1C        C  738   2.582   3.085   2.545
    1C        C  739   2.691   2.904   2.670
    1C        C  740   2.617   3.025   2.668
    1C        C  741   2.732   2.849   2.793
    1C        C  742   2.695   2.914   2.913
    1C        C  743   2.743   2.862   3.035
    1C        C  744   2.535   3.065   2.076
    1C        C  745   2.681   2.894   2.185
    1C        C  746   2.607   3.015   2.185
    1C        C  747   2.725   2.837   2.306
    1C        C  748   2.680   2.894   2.427
    1C        C  749   2.731   2.844   2.549
    1C        C  750   2.733   2.837   2.068
    1C        C  751   3.660   2.306   1.988
    1C        O  752   3.708   2.194   2.022
    1C        O  753   3.640   2.305   1.849
    1C        C  754   4.612   3.064   1.959
    1C        O  755   4.570   3.041   1.842
    1C        O  756   4.745   3.024   1.977
    1C        C  757   4.483   4.227   2.013
    1C        O  758   4.534   4.308   2.095
    1C        O  759   4.470   4.286   1.886
    1C        C  760   3.584   4.642   1.921
    1C        O  761   3.584   4.768   1.922
    1C        O  762   3.584   4.593   1.790
    1C        C  763   2.861   4.511   1.967
    1C        O  764   2.850   4.495   1.843
    1C        O  765   2.802   4.623   2.027
    1C        C  766   2.379   3.466   1.935
    1C        O  767   2.448   3.449   1.831
    1C        O  768   2.243   3.448   1.907
    1C        C  769   4.678   3.583   5.073
    1C        O  770   4.635   3.548   5.186
    1C        O  771   4.805   3.642   5.066
    1C        C  772   4.261   4.415   5.060
    1C        O  773   4.226   4.375   5.174
    1C        O  774   4.307   4.546   5.080
    1C        C  775   4.154   2.502   5.046
    1C        O  776   4.175   2.383   5.011
    1C        O  777   4.174   2.513   5.184
    1C        C  778   2.882   4.544   5.046
    1C        O  779   2.802   4.638   5.017
    1C        O  780   2.928   4.546   5.178
    1C        C  781   2.460   3.038   5.071
    1C        O  782   2.340   3.015   5.044
    1C        O  783   2.496   3.013   5.204
    1C        C  784   2.421   3.994   5.060
    1C        O  785   2.302   4.006   5.020
    1C        O  786   2.442   4.016   5.197
    1C        C  787   2.946   2.414   2.020
    1C        O  788   2.878   2.449   1.920
    1C        O  789   2.920   2.283   2.060
    1C        C  790   3.182   2.385   5.074
    1C        O  791   3.135   2.271   5.046
    1C        O  792   3.195   2.406   5.212
    1C        H  793   4.218   3.048   5.003
    1C        H  794   4.173   2.811   5.065
    1C        H  795   4.529   3.121   5.052
    1C        H  796   4.493   3.367   5.064
    1C        H  797   4.554   3.803   5.050
    1C        H  798   4.388   3.956   5.051
    1C        H  799   4.268   4.162   5.048
    1C        H  800   4.058   4.573   4.997
    1C        H  801   3.825   4.583   5.032
    1C        H  802   3.586   4.610   5.045
    1C        H  803   3.396   4.497   5.046
    1C        H  804   3.156   4.496   5.055
    1C        H  805   3.907   2.456   5.047
    1C        H  806   3.675   2.441   5.067
    1C        H  807   2.990   2.534   5.045
    1C        H  808   3.446   2.462   5.072
    1C        H  809   2.843   2.716   5.073
    1C        H  810   2.670   2.860   5.063
    1C        H  811   2.577   3.293   5.067
    1C        H  812   2.520   3.503   5.076
    1C        H  813   2.535   3.734   5.068
    1C        H  814   2.570   4.190   5.033
    1C        H  815   2.754   4.317   5.051
    1C        H  816   2.740   2.897   1.980
    1C        H  817   2.780   2.646   2.010
    1C        H  818   3.186   2.375   2.027
    1C        H  819   3.431   2.462   1.980
    1C        H  820   3.865   2.495   1.975
    1C        H  821   4.025   2.675   1.983
    1C        H  822   4.273   2.705   1.983
    1C        H  823   4.391   2.917   1.968
    1C        H  824   4.592   3.312   1.970
    1C        H  825   4.453   3.518   1.977
    1C        H  826   4.538   3.755   1.963
    1C        H  827   3.810   4.531   1.953
    1C        H  828   3.965   4.381   1.945
    1C        H  829   4.182   4.293   1.956
    1C        H  830   4.511   3.983   1.968
    1C        H  831   2.612   3.850   1.958
    1C        H  832   2.690   4.074   1.958
    1C        H  833   2.696   4.337   1.997
    1C        H  834   3.369   4.491   1.944
    1C        H  835   3.155   4.396   1.954
    1C        H  836   2.551   3.022   1.979
    1C        H  837   2.396   3.208   2.008
    1C        H  838   2.549   3.656   1.973
    2V3OU   H29  839   2.797   3.549   5.591
    2V3OU   C27  840   2.774   3.502   5.690
    2V3OU   H27  841   2.715   3.565   5.761
    2V3OU   H28  842   2.731   3.398   5.686
    2V3OU   O11  843   2.903   3.484   5.750
    2V3OU   C15  844   2.922   3.398   5.857
    2V3OU   C13  845   3.052   3.373   5.905
    2V3OU   C14  846   3.075   3.269   5.997
    2V3OU   C16  847   2.971   3.189   6.040
    2V3OU    H6  848   2.992   3.113   6.116
    2V3OU   C12  849   3.215   3.230   6.025
    2V3OU    O2  850   3.235   3.124   6.088
    2V3OU   C10  851   3.330   3.310   5.980
    2V3OU    C8  852   3.463   3.272   5.994
    2V3OU   O10  853   3.490   3.154   6.056
    2V3OU   H26  854   3.406   3.119   6.088
    2V3OU    C6  855   3.570   3.350   5.940
    2V3OU    C5  856   3.538   3.469   5.875
    2V3OU    C4  857   3.707   3.292   5.937
    2V3OU    H4  858   3.725   3.228   6.028
    2V3OU    H5  859   3.714   3.233   5.841
    2V3OU    C2  860   3.817   3.399   5.935
    2V3OU    O6  861   3.805   3.484   6.050
    2V3OU   H21  862   3.757   3.558   6.009
    2V3OU    C3  863   3.782   3.498   5.824
    2V3OU    H2  864   3.867   3.568   5.806
    2V3OU    H3  865   3.779   3.434   5.731
    2V3OU   C25  866   3.948   3.326   5.906
    2V3OU    O7  867   3.997   3.300   5.796
    2V3OU   C26  868   4.035   3.283   6.023
    2V3OU   H22  869   4.064   3.381   6.069
    2V3OU   H23  870   4.126   3.230   5.985
    2V3OU    O8  871   3.970   3.203   6.119
    2V3OU   H24  872   3.931   3.265   6.184
    2V3OU    C1  873   3.646   3.565   5.835
    2V3OU    H1  874   3.623   3.616   5.737
    2V3OU    O3  875   3.655   3.655   5.946
    2V3OU   C19  876   3.619   3.793   5.930
    2V3OU    H9  877   3.520   3.812   5.878
    2V3OU    O4  878   3.712   3.856   5.845
    2V3OU   C20  879   3.845   3.878   5.892
    2V3OU   H10  880   3.900   3.781   5.904
    2V3OU   C24  881   3.610   3.858   6.068
    2V3OU   H16  882   3.536   3.799   6.129
    2V3OU   H17  883   3.571   3.961   6.051
    2V3OU   C23  884   3.751   3.873   6.125
    2V3OU   H15  885   3.795   3.768   6.137
    2V3OU    N1  886   3.742   3.952   6.246
    2V3OU   H19  887   3.813   3.921   6.309
    2V3OU   H20  888   3.649   3.934   6.279
    2V3OU   C21  889   3.850   3.947   6.029
    2V3OU   H11  890   3.950   3.928   6.079
    2V3OU    O5  891   3.828   4.087   6.023
    2V3OU   H18  892   3.785   4.105   6.109
    2V3OU   C22  893   3.913   3.952   5.778
    2V3OU   H12  894   3.859   4.047   5.754
    2V3OU   H13  895   3.907   3.890   5.685
    2V3OU   H14  896   4.023   3.959   5.799
    2V3OU   C11  897   3.161   3.470   5.889
    2V3OU    O1  898   3.126   3.588   5.871
    2V3OU    C9  899   3.302   3.430   5.910
    2V3OU    C7  900   3.402   3.509   5.855
    2V3OU    O9  901   3.385   3.619   5.773
    2V3OU   H25  902   3.289   3.631   5.782
    2V3OU   C17  903   2.821   3.309   5.900
    2V3OU    H7  904   2.718   3.334   5.876
    2V3OU   C18  905   2.841   3.207   5.993
    2V3OU    H8  906   2.756   3.152   6.035
    3SOL     OW  907   3.904   3.035   3.819
    3SOL    HW1  908   3.866   3.033   3.911
    3SOL    HW2  909   3.847   2.980   3.758
    4SOL     OW  910   6.920   6.115   0.763
    4SOL    HW1  911   6.930   6.162   0.851
    4SOL    HW2  912   6.908   6.182   0.690
    5SOL     OW  913   5.148   2.457   1.004
    5SOL    HW1  914   5.122   2.541   1.051
    5SOL    HW2  915   5.120   2.378   1.059
    6SOL     OW  916   4.348   1.329   2.391
    6SOL    HW1  917   4.402   1.363   2.468
    6SOL    HW2  918   4.408   1.282   2.326
    7SOL     OW  919   2.179   3.928   4.587
    7SOL    HW1  920   2.143   3.852   4.642
    7SOL    HW2  921   2.223   3.995   4.647
    8SOL     OW  922   1.109   2.340   5.203
    8SOL    HW1  923   1.171   2.401   5.153
    8SOL    HW2  924   1.041   2.303   5.139
    9SOL     OW  925   0.032   1.017   6.321
    9SOL    HW1  926   0.046   0.984   6.414
    9SOL    HW2  927   0.073   0.952   6.257
   10SOL     OW  928   5.375   5.105   1.475
   10SOL    HW1  929   5.457   5.122   1.531
   10SOL    HW2  930   5.324   5.190   1.463
   11SOL     OW  931   2.616   2.213   1.335
   11SOL    HW1  932   2.712   2.223   1.307
   11SOL    HW2  933   2.560   2.192   1.255
   12SOL     OW  934   4.559   5.028   2.552
   12SOL    HW1  935   4.467   5.008   2.517
   12SOL    HW2  936   4.609   4.942   2.564
   13SOL     OW  937   6.071   6.005   1.004
   13SOL    HW1  938   6.054   5.907   1.003
   13SOL    HW2  939   6.158   6.024   0.960
   14SOL     OW  940   4.471   7.014   6.654
   14SOL    HW1  941   4.431   6.991   6.743
   14SOL    HW2  942   4.559   0.036   6.668
   15SOL     OW  943   1.488   6.012   6.428
   15SOL    HW1  944   1.417   6.043   6.492
   15SOL    HW2  945   1.567   6.072   6.434
   16SOL     OW  946   1.946   5.029   5.227
   16SOL    HW1  947   1.895   4.957   5.275
   16SOL    HW2  948   2.038   4.995   5.205
   17SOL     OW  949   6.576   0.986   5.062
   17SOL    HW1  950   6.639   1.055   5.027
   17SOL    HW2  951   6.627   0.916   5.111
   18SOL     OW  952   3.024   1.034   5.892
   18SOL    HW1  953   3.036   1.121   5.941
   18SOL    HW2  954   2.969   0.972   5.948
   19SOL     OW  955   3.307   6.402   3.184
   19SOL    HW1  956   3.251   6.484   3.186
   19SOL    HW2  957   3.292   6.352   3.098
   20SOL     OW  958   6.056   1.352   5.327
   20SOL    HW1  959   5.960   1.337   5.350
   20SOL    HW2  960   6.092   1.428   5.381
   21SOL     OW  961   2.178   3.914   2.850
   21SOL    HW1  962   2.112   3.843   2.827
   21SOL    HW2  963   2.209   3.901   2.945
   22SOL     OW  964   1.155   1.236   0.271
   22SOL    HW1  965   1.178   1.294   0.350
   22SOL    HW2  966   1.190   1.144   0.286
   23SOL     OW  967   6.243   4.729   0.971
   23SOL    HW1  968   6.327   4.760   1.016
   23SOL    HW2  969   6.189   4.675   1.035
   24SOL     OW  970   5.136   1.600   0.514
   24SOL    HW1  971   5.175   1.686   0.546
   24SOL    HW2  972   5.208   1.541   0.479
   25SOL     OW  973   1.870   0.606   4.718
   25SOL    HW1  974   1.922   0.677   4.671
   25SOL    HW2  975   1.929   0.528   4.737
   26SOL     OW  976   1.443   1.822   5.890
   26SOL    HW1  977   1.400   1.736   5.864
   26SOL    HW2  978   1.468   1.819   5.987
   27SOL     OW  979   6.671   0.004   2.289
   27SOL    HW1  980   6.672   6.961   2.364
   27SOL    HW2  981   6.674   6.977   2.202
   28SOL     OW  982   2.141   0.680   5.415
   28SOL    HW1  983   2.111   0.765   5.373
   28SOL    HW2  984   2.073   0.650   5.482
   29SOL     OW  985   6.293   6.983   1.384
   29SOL    HW1  986   6.388   7.000   1.359
   29SOL    HW2  987   6.232   0.006   1.318
   30SOL     OW  988   4.637   0.166   5.218
   30SOL    HW1  989   4.656   0.257   5.255
   30SOL    HW2  990   4.723   0.119   5.200
   31SOL     OW  991   0.573   4.728   4.642
   31SOL    HW1  992   0.611   4.815   4.674
   31SOL    HW2  993   0.539   4.740   4.548
   32SOL     OW  994   3.515   0.538   1.040
   32SOL    HW1  995   3.458   0.614   1.071
   32SOL    HW2  996   3.475   0.498   0.957
   33SOL     OW  997   2.219   5.457   6.209
   33SOL    HW1  998   2.119   5.463   6.205
   33SOL    HW2  999   2.259   5.516   6.139
   34SOL     OW 1000   2.875   5.672   5.618
   34SOL    HW1 1001   2.916   5.589   5.580
   34SOL    HW2 1002   2.923   5.752   5.582
   35SOL     OW 1003   1.655   2.899   6.206
   35SOL    HW1 1004   1.665   2.894   6.106
   35SOL    HW2 1005   1.571   2.947   6.228
   36SOL     OW 1006   5.084   0.857   3.397
   36SOL    HW1 1007   5.161   0.919   3.408
   36SOL    HW2 1008   5.012   0.882   3.461
   37SOL     OW 1009   2.241   6.475   4.119
   37SOL    HW1 1010   2.330   6.515   4.141
   37SOL    HW2 1011   2.253   6.379   4.092
   38SOL     OW 1012   1.666   4.426   2.930
   38SOL    HW1 1013   1.702   4.427   3.023
   38SOL    HW2 1014   1.571   4.394   2.931
   39SOL     OW 1015   6.622   5.134   1.632
   39SOL    HW1 1016   6.624   5.046   1.681
   39SOL    HW2 1017   6.556   5.195   1.677
   40SOL     OW 1018   4.650   1.624   0.448
   40SOL    HW1 1019   4.709   1.698   0.413
   40SOL    HW2 1020   4.609   1.575   0.370
   41SOL     OW 1021   5.231   4.177   1.747
   41SOL    HW1 1022   5.285   4.209   1.825
   41SOL    HW2 1023   5.154   4.123   1.781
   42SOL     OW 1024   2.416   4.606   6.725
   42SOL    HW1 1025   2.363   4.670   6.668
   42SOL    HW2 1026   2.380   4.513   6.712
   43SOL     OW 1027   5.128   0.145   4.931
   43SOL    HW1 1028   5.152   0.128   5.026
   43SOL    HW2 1029   5.061   0.078   4.900
   44SOL     OW 1030   0.496   1.345   6.723
   44SOL    HW1 1031   0.478   1.421   6.786
   44SOL    HW2 1032   0.536   1.269   6.773
   45SOL     OW 1033   1.737   4.702   6.048
   45SOL    HW1 1034   1.768   4.797   6.040
   45SOL    HW2 1035   1.749   4.670   6.142
   46SOL     OW 1036   1.446   3.791   5.282
   46SOL    HW1 1037   1.413   3.880   5.252
   46SOL    HW2 1038   1.448   3.728   5.204
   47SOL     OW 1039   5.785   3.668   0.153
   47SOL    HW1 1040   5.822   3.597   0.094
   47SOL    HW2 1041   5.686   3.676   0.139
   48SOL     OW 1042   6.258   4.147   0.930
   48SOL    HW1 1043   6.346   4.174   0.891
   48SOL    HW2 1044   6.204   4.099   0.861
   49SOL     OW 1045   3.113   3.538   6.360
   49SOL    HW1 1046   3.092   3.574   6.451
   49SOL    HW2 1047   3.057   3.586   6.292
   50SOL     OW 1048   5.834   2.247   0.072
   50SOL    HW1 1049   5.796   2.237   0.164
   50SOL    HW2 1050   5.893   2.168   0.052
   51SOL     OW 1051   1.152   5.637   2.099
   51SOL    HW1 1052   1.156   5.712   2.164
   51SOL    HW2 1053   1.096   5.563   2.136
   52SOL     OW 1054   5.460   2.771   2.122
   52SOL    HW1 1055   5.434   2.815   2.208
   52SOL    HW2 1056   5.377   2.746   2.071
   53SOL     OW 1057   3.185   0.284   1.228
   53SOL    HW1 1058   3.178   0.295   1.129
   53SOL    HW2 1059   3.279   0.263   1.253
   54SOL     OW 1060   6.188   0.489   6.455
   54SOL    HW1 1061   6.192   0.417   6.524
   54SOL    HW2 1062   6.151   0.452   6.369
   55SOL     OW 1063   1.471   3.579   6.096
   55SOL    HW1 1064   1.506   3.635   6.171
   55SOL    HW2 1065   1.371   3.581   6.097
   56SOL     OW 1066   0.905   2.369   6.964
   56SOL    HW1 1067   0.941   2.308   6.894
   56SOL    HW2 1068   0.807   2.353   6.976
   57SOL     OW 1069   3.999   6.439   0.671
   57SOL    HW1 1070   3.923   6.396   0.623
   57SOL    HW2 1071   3.964   6.507   0.735
   58SOL     OW 1072   1.278   0.999   0.263
   58SOL    HW1 1073   1.375   1.019   0.276
   58SOL    HW2 1074   1.257   0.911   0.305
   59SOL     OW 1075   4.337   3.200   5.642
   59SOL    HW1 1076   4.355   3.260   5.720
   59SOL    HW2 1077   4.389   3.115   5.653
   60SOL     OW 1078   6.591   2.703   2.449
   60SOL    HW1 1079   6.689   2.703   2.472
   60SOL    HW2 1080   6.567   2.789   2.404
   61SOL     OW 1081   0.982   6.287   3.673
   61SOL    HW1 1082   0.965   6.249   3.582
   61SOL    HW2 1083   1.025   6.217   3.731
   62SOL     OW 1084   6.435   3.168   3.586
   62SOL    HW1 1085   6.456   3.148   3.491
   62SOL    HW2 1086   6.510   3.221   3.627
   63SOL     OW 1087   3.587   0.305   6.362
   63SOL    HW1 1088   3.658   0.242   6.392
   63SOL    HW2 1089   3.624   0.365   6.291
   64SOL     OW 1090   0.819   1.990   5.513
   64SOL    HW1 1091   0.872   1.919   5.467
   64SOL    HW2 1092   0.864   2.017   5.598
   65SOL     OW 1093   0.572   5.019   4.126
   65SOL    HW1 1094   0.602   5.083   4.196
   65SOL    HW2 1095   0.474   5.032   4.109
   66SOL     OW 1096   4.414   1.334   1.266
   66SOL    HW1 1097   4.366   1.385   1.195
   66SOL    HW2 1098   4.512   1.351   1.259
   67SOL     OW 1099   0.299   3.411   1.757
   67SOL    HW1 1100   0.293   3.428   1.658
   67SOL    HW2 1101   0.207   3.409   1.796
   68SOL     OW 1102   6.884   1.499   6.987
   68SOL    HW1 1103   6.969   1.539   7.022
   68SOL    HW2 1104   6.817   1.572   6.973
   69SOL     OW 1105   1.444   5.724   6.826
   69SOL    HW1 1106   1.385   5.797   6.795
   69SOL    HW2 1107   1.413   5.637   6.788
   70SOL     OW 1108   4.922   4.350   3.707
   70SOL    HW1 1109   4.891   4.418   3.641
   70SOL    HW2 1110   5.019   4.331   3.692
   71SOL     OW 1111   4.921   1.828   4.989
   71SOL    HW1 1112   4.921   1.838   5.088
   71SOL    HW2 1113   4.945   1.915   4.946
   72SOL     OW 1114   0.179   0.822   3.344
   72SOL    HW1 1115   0.252   0.881   3.378
   72SOL    HW2 1116   0.094   0.875   3.338
   73SOL     OW 1117   2.128   0.487   1.392
   73SOL    HW1 1118   2.050   0.424   1.390
   73SOL    HW2 1119   2.195   0.459   1.323
   74SOL     OW 1120   3.577   2.190   0.237
   74SOL    HW1 1121   3.485   2.198   0.199
   74SOL    HW2 1122   3.571   2.192   0.337
   75SOL     OW 1123   2.777   2.721   0.492
   75SOL    HW1 1124   2.748   2.720   0.588
   75SOL    HW2 1125   2.797   2.815   0.464
   76SOL     OW 1126   3.764   5.291   5.847
   76SOL    HW1 1127   3.781   5.378   5.892
   76SOL    HW2 1128   3.784   5.216   5.910
   77SOL     OW 1129   0.778   5.470   4.796
   77SOL    HW1 1130   0.837   5.465   4.716
   77SOL    HW2 1131   0.830   5.446   4.878
   78SOL     OW 1132   4.580   2.196   0.887
   78SOL    HW1 1133   4.556   2.162   0.797
   78SOL    HW2 1134   4.505   2.250   0.924
   79SOL     OW 1135   1.604   4.438   3.768
   79SOL    HW1 1136   1.533   4.382   3.725
   79SOL    HW2 1137   1.642   4.501   3.701
   80SOL     OW 1138   3.263   2.028   4.823
   80SOL    HW1 1139   3.254   2.124   4.850
   80SOL    HW2 1140   3.182   1.978   4.852
   81SOL     OW 1141   3.627   5.158   1.751
   81SOL    HW1 1142   3.543   5.145   1.804
   81SOL    HW2 1143   3.702   5.184   1.812
   82SOL     OW 1144   2.596   0.084   1.849
   82SOL    HW1 1145   2.688   0.115   1.871
   82SOL    HW2 1146   2.560   0.028   1.924
   83SOL     OW 1147   5.207   1.542   3.937
   83SOL    HW1 1148   5.283   1.526   4.000
   83SOL    HW2 1149   5.221   1.629   3.890
   84SOL     OW 1150   6.016   2.936   2.786
   84SOL    HW1 1151   6.071   2.866   2.740
   84SOL    HW2 1152   5.944   2.891   2.839
   85SOL     OW 1153   2.402   6.773   3.627
   85SOL    HW1 1154   2.319   6.826   3.648
   85SOL    HW2 1155   2.385   6.717   3.546
   86SOL     OW 1156   4.969   0.135   0.693
   86SOL    HW1 1157   5.053   0.182   0.720
   86SOL    HW2 1158   4.988   0.071   0.619
   87SOL     OW 1159   3.006   3.631   6.593
   87SOL    HW1 1160   2.931   3.573   6.561
   87SOL    HW2 1161   2.974   3.725   6.602
   88SOL     OW 1162   2.291   3.333   1.383
   88SOL    HW1 1163   2.331   3.265   1.322
   88SOL    HW2 1164   2.311   3.310   1.478
   89SOL     OW 1165   3.353   3.345   4.123
   89SOL    HW1 1166   3.305   3.433   4.117
   89SOL    HW2 1167   3.287   3.272   4.140
   90SOL     OW 1168   6.132   3.656   2.498
   90SOL    HW1 1169   6.119   3.636   2.401
   90SOL    HW2 1170   6.173   3.747   2.509
   91SOL     OW 1171   4.860   5.753   6.156
   91SOL    HW1 1172   4.784   5.717   6.210
   91SOL    HW2 1173   4.877   5.692   6.078
   92SOL     OW 1174   5.352   4.584   0.020
   92SOL    HW1 1175   5.359   4.563   0.118
   92SOL    HW2 1176   5.345   4.683   0.008
   93SOL     OW 1177   3.127   4.105   1.769
   93SOL    HW1 1178   3.119   4.053   1.684
   93SOL    HW2 1179   3.058   4.178   1.770
   94SOL     OW 1180   3.429   2.099   3.871
   94SOL    HW1 1181   3.403   2.050   3.954
   94SOL    HW2 1182   3.351   2.152   3.837
   95SOL     OW 1183   0.551   6.835   4.028
   95SOL    HW1 1184   0.626   6.835   3.962
   95SOL    HW2 1185   0.465   6.818   3.981
   96SOL     OW 1186   0.179   5.489   6.730
   96SOL    HW1 1187   0.198   5.413   6.669
   96SOL    HW2 1188   0.237   5.483   6.811
   97SOL     OW 1189   2.042   4.400   5.909
   97SOL    HW1 1190   2.059   4.484   5.960
   97SOL    HW2 1191   1.972   4.346   5.955
   98SOL     OW 1192   0.076   1.830   4.059
   98SOL    HW1 1193   0.109   1.806   4.151
   98SOL    HW2 1194   0.094   1.754   3.997
   99SOL     OW 1195   3.922   4.457   5.316
   99SOL    HW1 1196   3.946   4.438   5.411
   99SOL    HW2 1197   3.983   4.406   5.255
  100SOL     OW 1198   1.047   0.640   5.328
  100SOL    HW1 1199   1.042   0.707   5.253
  100SOL    HW2 1200   0.958   0.597   5.340
  101SOL     OW 1201   4.870   3.024   2.544
  101SOL    HW1 1202   4.803   3.040   2.617
  101SOL    HW2 1203   4.924   3.107   2.529
  102SOL     OW 1204   4.679   0.583   6.795
  102SOL    HW1 1205   4.718   0.674   6.783
  102SOL    HW2 1206   4.583   0.584   6.767
  103SOL     OW 1207   0.977   1.666   1.955
  103SOL    HW1 1208   0.892   1.695   1.910
  103SOL    HW2 1209   1.048   1.654   1.886
  104SOL     OW 1210   6.341   4.354   2.120
  104SOL    HW1 1211   6.440   4.364   2.117
  104SOL    HW2 1212   6.298   4.441   2.096
  105SOL     OW 1213   0.480   0.172   4.819
  105SOL    HW1 1214   0.544   0.169   4.742
  105SOL    HW2 1215   0.419   0.250   4.808
  106SOL     OW 1216   4.374   3.212   1.717
  106SOL    HW1 1217   4.304   3.168   1.661
  106SOL    HW2 1218   4.448   3.147   1.733
  107SOL     OW 1219   5.837   6.819   1.498
  107SOL    HW1 1220   5.859   6.735   1.547
  107SOL    HW2 1221   5.873   6.814   1.405
  108SOL     OW 1222   3.579   1.172   4.783
  108SOL    HW1 1223   3.629   1.090   4.756
  108SOL    HW2 1224   3.481   1.157   4.769
  109SOL     OW 1225   2.102   0.904   5.266
  109SOL    HW1 1226   2.202   0.903   5.267
  109SOL    HW2 1227   2.068   0.998   5.273
  110SOL     OW 1228   3.566   3.927   5.625
  110SOL    HW1 1229   3.643   3.931   5.688
  110SOL    HW2 1230   3.498   3.996   5.651
  111SOL     OW 1231   6.010   2.655   0.788
  111SOL    HW1 1232   6.081   2.671   0.857
  111SOL    HW2 1233   5.930   2.615   0.832
  112SOL     OW 1234   5.610   6.617   5.965
  112SOL    HW1 1235   5.537   6.661   6.017
  112SOL    HW2 1236   5.681   6.684   5.944
  113SOL     OW 1237   0.456   4.837   2.967
  113SOL    HW1 1238   0.491   4.858   2.876
  113SOL    HW2 1239   0.448   4.738   2.978
  114SOL     OW 1240   0.115   2.427   2.126
  114SOL    HW1 1241   0.017   2.425   2.147
  114SOL    HW2 1242   0.149   2.334   2.116
  115SOL     OW 1243   4.436   0.257   2.635
  115SOL    HW1 1244   4.504   0.269   2.564
  115SOL    HW2 1245   4.381   0.340   2.644
  116SOL     OW 1246   0.064   5.183   0.757
  116SOL    HW1 1247   7.007   5.123   0.751
  116SOL    HW2 1248   0.050   5.251   0.828
  117SOL     OW 1249   3.055   2.249   0.280
  117SOL    HW1 1250   2.982   2.185   0.257
  117SOL    HW2 1251   3.052   2.327   0.218
  118SOL     OW 1252   0.063   1.578   2.542
  118SOL    HW1 1253   0.131   1.511   2.513
  118SOL    HW2 1254   6.996   1.551   2.509
  119SOL     OW 1255   6.109   0.375   5.196
  119SOL    HW1 1256   6.062   0.410   5.115
  119SOL    HW2 1257   6.207   0.398   5.190
  120SOL     OW 1258   4.453   0.713   4.352
  120SOL    HW1 1259   4.375   0.694   4.292
  120SOL    HW2 1260   4.423   0.773   4.426
  121SOL     OW 1261   0.554   5.554   6.701
  121SOL    HW1 1262   0.468   5.539   6.750
  121SOL    HW2 1263   0.535   5.602   6.616
  122SOL     OW 1264   0.013   4.383   6.053
  122SOL    HW1 1265   6.957   4.427   6.096
  122SOL    HW2 1266   7.021   4.284   6.049
  123SOL     OW 1267   0.587   2.832   1.797
  123SOL    HW1 1268   0.541   2.907   1.748
  123SOL    HW2 1269   0.663   2.869   1.850
  124SOL     OW 1270   1.266   3.388   0.377
  124SOL    HW1 1271   1.205   3.352   0.448
  124SOL    HW2 1272   1.308   3.473   0.410
  125SOL     OW 1273   4.387   2.802   0.786
  125SOL    HW1 1274   4.452   2.727   0.774
  125SOL    HW2 1275   4.412   2.878   0.727
  126SOL     OW 1276   3.744   3.113   4.083
  126SOL    HW1 1277   3.791   3.202   4.090
  126SOL    HW2 1278   3.658   3.125   4.035
  127SOL     OW 1279   0.449   4.473   5.135
  127SOL    HW1 1280   0.430   4.430   5.047
  127SOL    HW2 1281   0.452   4.572   5.124
  128SOL     OW 1282   4.971   3.808   6.468
  128SOL    HW1 1283   5.020   3.725   6.440
  128SOL    HW2 1284   5.036   3.884   6.474
  129SOL     OW 1285   0.262   5.776   2.355
  129SOL    HW1 1286   0.233   5.755   2.448
  129SOL    HW2 1287   0.275   5.875   2.347
  130SOL     OW 1288   5.913   3.056   4.239
  130SOL    HW1 1289   5.979   3.072   4.165
  130SOL    HW2 1290   5.916   2.960   4.267
  131SOL     OW 1291   0.548   3.484   4.017
  131SOL    HW1 1292   0.535   3.450   4.110
  131SOL    HW2 1293   0.597   3.416   3.963
  132SOL     OW 1294   4.596   2.627   0.868
  132SOL    HW1 1295   4.595   2.704   0.931
  132SOL    HW2 1296   4.691   2.599   0.850
  133SOL     OW 1297   4.556   5.331   6.112
  133SOL    HW1 1298   4.517   5.410   6.065
  133SOL    HW2 1299   4.604   5.362   6.194
  134SOL     OW 1300   5.549   2.390   0.862
  134SOL    HW1 1301   5.538   2.486   0.889
  134SOL    HW2 1302   5.482   2.334   0.910
  135SOL     OW 1303   5.059   3.674   3.820
  135SOL    HW1 1304   5.086   3.602   3.756
  135SOL    HW2 1305   4.966   3.704   3.800
  136SOL     OW 1306   4.024   1.044   6.332
  136SOL    HW1 1307   4.008   1.008   6.240
  136SOL    HW2 1308   4.091   1.118   6.327
  137SOL     OW 1309   2.498   4.050   6.055
  137SOL    HW1 1310   2.540   4.078   5.969
  137SOL    HW2 1311   2.449   4.128   6.096
  138SOL     OW 1312   0.815   5.581   6.879
  138SOL    HW1 1313   0.739   5.569   6.815
  138SOL    HW2 1314   0.815   5.674   6.915
  139SOL     OW 1315   1.513   0.109   1.102
  139SOL    HW1 1316   1.482   0.204   1.108
  139SOL    HW2 1317   1.436   0.051   1.075
  140SOL     OW 1318   4.635   0.851   1.358
  140SOL    HW1 1319   4.601   0.758   1.368
  140SOL    HW2 1320   4.582   0.899   1.288
  141SOL     OW 1321   0.290   2.215   0.787
  141SOL    HW1 1322   0.198   2.190   0.757
  141SOL    HW2 1323   0.291   2.224   0.887
  142SOL     OW 1324   2.274   3.826   0.653
  142SOL    HW1 1325   2.236   3.743   0.612
  142SOL    HW2 1326   2.227   3.906   0.618
  143SOL     OW 1327   4.362   6.150   2.097
  143SOL    HW1 1328   4.390   6.245   2.083
  143SOL    HW2 1329   4.293   6.146   2.170
  144SOL     OW 1330   3.262   5.680   2.661
  144SOL    HW1 1331   3.245   5.746   2.587
  144SOL    HW2 1332   3.234   5.720   2.748
  145SOL     OW 1333   6.699   5.459   4.189
  145SOL    HW1 1334   6.718   5.445   4.286
  145SOL    HW2 1335   6.754   5.535   4.155
  146SOL     OW 1336   5.541   0.743   6.467
  146SOL    HW1 1337   5.565   0.839   6.483
  146SOL    HW2 1338   5.478   0.712   6.538
  147SOL     OW 1339   5.624   1.151   5.288
  147SOL    HW1 1340   5.532   1.111   5.291
  147SOL    HW2 1341   5.649   1.169   5.193
  148SOL     OW 1342   2.216   6.209   1.554
  148SOL    HW1 1343   2.149   6.207   1.480
  148SOL    HW2 1344   2.307   6.229   1.516
  149SOL     OW 1345   2.185   2.435   4.090
  149SOL    HW1 1346   2.183   2.454   4.188
  149SOL    HW2 1347   2.133   2.504   4.041
  150SOL     OW 1348   4.247   1.708   5.069
  150SOL    HW1 1349   4.188   1.761   5.129
  150SOL    HW2 1350   4.214   1.714   4.975
  151SOL     OW 1351   6.139   3.069   1.094
  151SOL    HW1 1352   6.149   2.983   1.145
  151SOL    HW2 1353   6.096   3.138   1.152
  152SOL     OW 1354   1.130   2.794   1.804
  152SOL    HW1 1355   1.161   2.705   1.773
  152SOL    HW2 1356   1.198   2.863   1.781
  153SOL     OW 1357   2.075   1.741   3.397
  153SOL    HW1 1358   2.022   1.743   3.482
  153SOL    HW2 1359   2.142   1.815   3.397
  154SOL     OW 1360   6.060   1.864   2.871
  154SOL    HW1 1361   6.024   1.952   2.901
  154SOL    HW2 1362   6.151   1.877   2.832
  155SOL     OW 1363   6.797   4.969   3.352
  155SOL    HW1 1364   6.702   4.942   3.344
  155SOL    HW2 1365   6.802   5.068   3.365
  156SOL     OW 1366   5.192   2.122   0.446
  156SOL    HW1 1367   5.102   2.078   0.450
  156SOL    HW2 1368   5.191   2.193   0.376
  157SOL     OW 1369   5.199   6.903   1.307
  157SOL    HW1 1370   5.165   6.888   1.400
  157SOL    HW2 1371   5.204   7.001   1.289
  158SOL     OW 1372   0.501   2.784   4.754
  158SOL    HW1 1373   0.517   2.873   4.797
  158SOL    HW2 1374   0.451   2.725   4.818
  159SOL     OW 1375   6.450   5.188   0.481
  159SOL    HW1 1376   6.498   5.250   0.542
  159SOL    HW2 1377   6.513   5.155   0.411
  160SOL     OW 1378   5.709   0.304   1.046
  160SOL    HW1 1379   5.764   0.221   1.049
  160SOL    HW2 1380   5.659   0.308   0.960
  161SOL     OW 1381   6.389   6.594   0.765
  161SOL    HW1 1382   6.299   6.576   0.805
  161SOL    HW2 1383   6.401   6.692   0.752
  162SOL     OW 1384   4.469   0.084   6.235
  162SOL    HW1 1385   4.483   0.002   6.179
  162SOL    HW2 1386   4.552   0.140   6.233
  163SOL     OW 1387   0.383   3.141   2.489
  163SOL    HW1 1388   0.426   3.086   2.418
  163SOL    HW2 1389   0.284   3.125   2.489
  164SOL     OW 1390   3.077   2.165   2.933
  164SOL    HW1 1391   3.005   2.153   2.864
  164SOL    HW2 1392   3.166   2.146   2.892
  165SOL     OW 1393   6.979   6.855   4.045
  165SOL    HW1 1394   6.929   6.899   4.120
  165SOL    HW2 1395   0.029   6.798   4.083
  166SOL     OW 1396   6.402   4.980   4.049
  166SOL    HW1 1397   6.466   4.935   3.986
  166SOL    HW2 1398   6.451   5.047   4.103
  167SOL     OW 1399   2.172   0.832   4.862
  167SOL    HW1 1400   2.240   0.765   4.892
  167SOL    HW2 1401   2.145   0.812   4.768
  168SOL     OW 1402   3.838   3.522   2.338
  168SOL    HW1 1403   3.774   3.454   2.373
  168SOL    HW2 1404   3.843   3.516   2.238
  169SOL     OW 1405   5.453   2.794   0.283
  169SOL    HW1 1406   5.515   2.721   0.253
  169SOL    HW2 1407   5.361   2.776   0.248
  170SOL     OW 1408   6.272   5.625   0.855
  170SOL    HW1 1409   6.350   5.676   0.892
  170SOL    HW2 1410   6.294   5.528   0.851
  171SOL     OW 1411   3.216   3.226   1.169
  171SOL    HW1 1412   3.180   3.304   1.117
  171SOL    HW2 1413   3.157   3.208   1.248
  172SOL     OW 1414   1.570   1.589   6.434
  172SOL    HW1 1415   1.590   1.637   6.519
  172SOL    HW2 1416   1.577   1.490   6.450
  173SOL     OW 1417   6.371   1.361   4.408
  173SOL    HW1 1418   6.331   1.448   4.379
  173SOL    HW2 1419   6.448   1.339   4.348
  174SOL     OW 1420   5.184   4.331   3.953
  174SOL    HW1 1421   5.140   4.416   3.984
  174SOL    HW2 1422   5.150   4.255   4.008
  175SOL     OW 1423   0.528   6.323   2.330
  175SOL    HW1 1424   0.585   6.281   2.260
  175SOL    HW2 1425   0.473   6.397   2.290
  176SOL     OW 1426   6.680   3.308   1.791
  176SOL    HW1 1427   6.670   3.403   1.762
  176SOL    HW2 1428   6.694   3.304   1.890
  177SOL     OW 1429   5.284   2.571   3.531
  177SOL    HW1 1430   5.231   2.601   3.610
  177SOL    HW2 1431   5.379   2.602   3.541
  178SOL     OW 1432   2.498   5.839   4.547
  178SOL    HW1 1433   2.510   5.751   4.500
  178SOL    HW2 1434   2.572   5.901   4.520
  179SOL     OW 1435   3.045   4.786   1.340
  179SOL    HW1 1436   2.977   4.716   1.359
  179SOL    HW2 1437   3.084   4.819   1.426
  180SOL     OW 1438   4.723   1.078   6.380
  180SOL    HW1 1439   4.672   1.031   6.307
  180SOL    HW2 1440   4.821   1.064   6.367
  181SOL     OW 1441   2.884   1.521   5.889
  181SOL    HW1 1442   2.946   1.588   5.849
  181SOL    HW2 1443   2.932   1.434   5.902
  182SOL     OW 1444   3.507   3.084   5.778
  182SOL    HW1 1445   3.507   3.056   5.874
  182SOL    HW2 1446   3.422   3.134   5.758
  183SOL     OW 1447   2.806   0.782   3.082
  183SOL    HW1 1448   2.905   0.773   3.093
  183SOL    HW2 1449   2.776   0.731   3.001
  184SOL     OW 1450   5.619   6.159   3.608
  184SOL    HW1 1451   5.614   6.169   3.707
  184SOL    HW2 1452   5.535   6.193   3.566
  185SOL     OW 1453   0.270   6.999   4.883
  185SOL    HW1 1454   0.346   0.039   4.869
  185SOL    HW2 1455   0.262   6.938   4.804
  186SOL     OW 1456   3.320   5.899   5.178
  186SOL    HW1 1457   3.235   5.848   5.192
  186SOL    HW2 1458   3.300   5.989   5.139
  187SOL     OW 1459   3.986   5.708   1.458
  187SOL    HW1 1460   3.913   5.724   1.524
  187SOL    HW2 1461   4.070   5.681   1.505
  188SOL     OW 1462   0.641   3.522   3.640
  188SOL    HW1 1463   0.681   3.473   3.718
  188SOL    HW2 1464   0.581   3.461   3.589
  189SOL     OW 1465   5.186   4.948   5.333
  189SOL    HW1 1466   5.240   4.872   5.369
  189SOL    HW2 1467   5.091   4.920   5.324
  190SOL     OW 1468   6.024   0.045   0.391
  190SOL    HW1 1469   5.980   0.126   0.353
  190SOL    HW2 1470   6.101   0.018   0.333
  191SOL     OW 1471   0.992   1.791   5.413
  191SOL    HW1 1472   1.076   1.836   5.383
  191SOL    HW2 1473   1.013   1.699   5.445
  192SOL     OW 1474   0.406   5.723   1.494
  192SOL    HW1 1475   0.451   5.736   1.582
  192SOL    HW2 1476   0.333   5.790   1.484
  193SOL     OW 1477   2.405   0.495   1.535
  193SOL    HW1 1478   2.448   0.411   1.567
  193SOL    HW2 1479   2.350   0.476   1.454
  194SOL     OW 1480   3.654   5.943   2.248
  194SOL    HW1 1481   3.727   5.917   2.310
  194SOL    HW2 1482   3.576   5.978   2.300
  195SOL     OW 1483   3.766   0.571   0.798
  195SOL    HW1 1484   3.749   0.503   0.869
  195SOL    HW2 1485   3.858   0.609   0.809
  196SOL     OW 1486   3.814   2.477   0.703
  196SOL    HW1 1487   3.817   2.385   0.742
  196SOL    HW2 1488   3.726   2.520   0.724
  197SOL     OW 1489   1.636   5.738   0.490
  197SOL    HW1 1490   1.566   5.797   0.449
  197SOL    HW2 1491   1.692   5.698   0.418
  198SOL     OW 1492   4.115   6.484   6.463
  198SOL    HW1 1493   4.183   6.556   6.450
  198SOL    HW2 1494   4.160   6.395   6.470
  199SOL     OW 1495   0.584   0.367   3.150
  199SOL    HW1 1496   0.557   0.450   3.197
  199SOL    HW2 1497   0.566   0.288   3.209
  200SOL     OW 1498   0.817   3.898   3.791
  200SOL    HW1 1499   0.845   3.987   3.828
  200SOL    HW2 1500   0.719   3.886   3.802
  201SOL     OW 1501   5.074   1.527   6.409
  201SOL    HW1 1502   5.028   1.439   6.410
  201SOL    HW2 1503   5.160   1.521   6.460
  202SOL     OW 1504   3.813   0.706   2.218
  202SOL    HW1 1505   3.739   0.645   2.247
  202SOL    HW2 1506   3.774   0.790   2.180
  203SOL     OW 1507   6.205   2.638   6.730
  203SOL    HW1 1508   6.265   2.677   6.660
  203SOL    HW2 1509   6.117   2.687   6.729
  204SOL     OW 1510   2.295   6.768   1.524
  204SOL    HW1 1511   2.385   6.753   1.484
  204SOL    HW2 1512   2.227   6.713   1.474
  205SOL     OW 1513   5.453   0.515   1.313
  205SOL    HW1 1514   5.378   0.479   1.258
  205SOL    HW2 1515   5.540   0.499   1.265
  206SOL     OW 1516   0.363   5.364   1.815
  206SOL    HW1 1517   0.357   5.450   1.866
  206SOL    HW2 1518   0.276   5.348   1.767
  207SOL     OW 1519   4.764   1.755   5.643
  207SOL    HW1 1520   4.857   1.790   5.636
  207SOL    HW2 1521   4.728   1.738   5.551
  208SOL     OW 1522   3.714   4.680   6.221
  208SOL    HW1 1523   3.663   4.594   6.226
  208SOL    HW2 1524   3.706   4.718   6.129
  209SOL     OW 1525   6.922   5.265   4.835
  209SOL    HW1 1526   7.019   5.270   4.810
  209SOL    HW2 1527   6.873   5.342   4.794
  210SOL     OW 1528   4.100   2.391   1.334
  210SOL    HW1 1529   4.034   2.406   1.407
  210SOL    HW2 1530   4.173   2.330   1.366
  211SOL     OW 1531   1.053   2.455   2.188
  211SOL    HW1 1532   1.110   2.537   2.182
  211SOL    HW2 1533   1.046   2.426   2.284
  212SOL     OW 1534   0.140   5.313   4.737
  212SOL    HW1 1535   0.173   5.237   4.680
  212SOL    HW2 1536   0.218   5.367   4.768
  213SOL     OW 1537   3.979   2.294   6.135
  213SOL    HW1 1538   4.027   2.377   6.165
  213SOL    HW2 1539   3.908   2.271   6.200
  214SOL     OW 1540   1.564   6.360   3.222
  214SOL    HW1 1541   1.653   6.402   3.234
  214SOL    HW2 1542   1.513   6.407   3.149
  215SOL     OW 1543   4.052   3.476   2.864
  215SOL    HW1 1544   4.108   3.401   2.899
  215SOL    HW2 1545   4.038   3.544   2.935
  216SOL     OW 1546   1.831   6.855   5.677
  216SOL    HW1 1547   1.823   6.760   5.644
  216SOL    HW2 1548   1.914   6.896   5.638
  217SOL     OW 1549   6.935   2.567   4.096
  217SOL    HW1 1550   6.872   2.643   4.113
  217SOL    HW2 1551   6.919   2.495   4.164
  218SOL     OW 1552   1.720   3.639   5.273
  218SOL    HW1 1553   1.652   3.697   5.318
  218SOL    HW2 1554   1.811   3.672   5.296
  219SOL     OW 1555   3.440   5.423   0.199
  219SOL    HW1 1556   3.342   5.404   0.211
  219SOL    HW2 1557   3.453   5.477   0.116
  220SOL     OW 1558   1.577   4.654   0.568
  220SOL    HW1 1559   1.596   4.556   0.563
  220SOL    HW2 1560   1.513   4.680   0.495
  221SOL     OW 1561   6.500   2.911   4.617
  221SOL    HW1 1562   6.419   2.860   4.591
  221SOL    HW2 1563   6.560   2.923   4.538
  222SOL     OW 1564   1.252   6.140   4.508
  222SOL    HW1 1565   1.183   6.203   4.472
  222SOL    HW2 1566   1.283   6.172   4.598
  223SOL     OW 1567   5.950   4.570   2.354
  223SOL    HW1 1568   6.021   4.583   2.424
  223SOL    HW2 1569   5.862   4.555   2.398
  224SOL     OW 1570   3.855   2.027   2.195
  224SOL    HW1 1571   3.798   2.085   2.137
  224SOL    HW2 1572   3.840   2.051   2.291
  225SOL     OW 1573   6.844   0.167   1.406
  225SOL    HW1 1574   6.892   0.091   1.362
  225SOL    HW2 1575   6.824   0.238   1.339
  226SOL     OW 1576   6.980   5.947   1.473
  226SOL    HW1 1577   7.003   5.967   1.569
  226SOL    HW2 1578   6.895   5.995   1.449
  227SOL     OW 1579   1.409   3.325   3.048
  227SOL    HW1 1580   1.390   3.409   2.997
  227SOL    HW2 1581   1.346   3.253   3.019
  228SOL     OW 1582   3.701   6.497   2.484
  228SOL    HW1 1583   3.606   6.519   2.508
  228SOL    HW2 1584   3.714   6.398   2.489
  229SOL     OW 1585   6.063   5.777   3.267
  229SOL    HW1 1586   6.036   5.799   3.361
  229SOL    HW2 1587   6.160   5.757   3.264
  230SOL     OW 1588   1.122   3.838   6.128
  230SOL    HW1 1589   1.127   3.776   6.050
  230SOL    HW2 1590   1.145   3.931   6.098
  231SOL     OW 1591   0.516   1.412   0.662
  231SOL    HW1 1592   0.453   1.359   0.718
  231SOL    HW2 1593   0.467   1.456   0.587
  232SOL     OW 1594   1.696   4.281   6.390
  232SOL    HW1 1595   1.643   4.350   6.439
  232SOL    HW2 1596   1.700   4.303   6.293
  233SOL     OW 1597   3.110   0.857   6.454
  233SOL    HW1 1598   3.105   0.921   6.378
  233SOL    HW2 1599   3.197   0.870   6.503
  234SOL     OW 1600   3.002   5.500   6.541
  234SOL    HW1 1601   3.027   5.446   6.621
  234SOL    HW2 1602   2.910   5.536   6.553
  235SOL     OW 1603   3.561   3.382   4.931
  235SOL    HW1 1604   3.651   3.350   4.902
  235SOL    HW2 1605   3.517   3.432   4.857
  236SOL     OW 1606   0.129   2.079   5.870
  236SOL    HW1 1607   0.215   2.083   5.921
  236SOL    HW2 1608   0.135   2.140   5.791
  237SOL     OW 1609   6.629   6.469   1.886
  237SOL    HW1 1610   6.678   6.386   1.914
  237SOL    HW2 1611   6.675   6.511   1.808
  238SOL     OW 1612   6.578   1.986   2.266
  238SOL    HW1 1613   6.592   2.026   2.357
  238SOL    HW2 1614   6.659   1.932   2.241
  239SOL     OW 1615   0.326   5.686   0.852
  239SOL    HW1 1616   0.296   5.779   0.872
  239SOL    HW2 1617   0.425   5.680   0.861
  240SOL     OW 1618   6.878   3.133   5.399
  240SOL    HW1 1619   6.783   3.130   5.431
  240SOL    HW2 1620   6.894   3.219   5.351
  241SOL     OW 1621   5.950   1.614   4.746
  241SOL    HW1 1622   5.950   1.598   4.845
  241SOL    HW2 1623   5.910   1.535   4.699
  242SOL     OW 1624   2.334   2.468   3.556
  242SOL    HW1 1625   2.337   2.519   3.641
  242SOL    HW2 1626   2.270   2.512   3.493
  243SOL     OW 1627   4.167   1.474   6.621
  243SOL    HW1 1628   4.101   1.411   6.664
  243SOL    HW2 1629   4.118   1.555   6.588
  244SOL     OW 1630   6.977   0.636   6.393
  244SOL    HW1 1631   6.970   0.696   6.473
  244SOL    HW2 1632   6.977   0.691   6.310
  245SOL     OW 1633   5.037   2.844   3.838
  245SOL    HW1 1634   5.005   2.764   3.888
  245SOL    HW2 1635   5.137   2.843   3.834
  246SOL     OW 1636   4.816   3.135   3.657
  246SOL    HW1 1637   4.915   3.123   3.657
  246SOL    HW2 1638   4.793   3.223   3.615
  247SOL     OW 1639   2.620   6.930   3.629
  247SOL    HW1 1640   2.693   6.912   3.563
  247SOL    HW2 1641   2.549   6.860   3.620
  248SOL     OW 1642   6.404   1.542   1.760
  248SOL    HW1 1643   6.497   1.530   1.794
  248SOL    HW2 1644   6.382   1.640   1.756
  249SOL     OW 1645   1.962   5.926   4.924
  249SOL    HW1 1646   2.013   5.975   4.852
  249SOL    HW2 1647   1.865   5.926   4.902
  250SOL     OW 1648   5.140   3.145   6.368
  250SOL    HW1 1649   5.117   3.049   6.350
  250SOL    HW2 1650   5.238   3.152   6.388
  251SOL     OW 1651   1.507   2.645   0.293
  251SOL    HW1 1652   1.544   2.735   0.316
  251SOL    HW2 1653   1.519   2.628   0.195
  252SOL     OW 1654   0.790   1.376   0.664
  252SOL    HW1 1655   0.693   1.398   0.663
  252SOL    HW2 1656   0.828   1.388   0.572
  253SOL     OW 1657   1.629   4.197   6.082
  253SOL    HW1 1658   1.574   4.115   6.093
  253SOL    HW2 1659   1.572   4.273   6.051
  254SOL     OW 1660   4.807   3.512   6.226
  254SOL    HW1 1661   4.899   3.549   6.212
  254SOL    HW2 1662   4.801   3.422   6.183
  255SOL     OW 1663   3.765   2.110   2.443
  255SOL    HW1 1664   3.665   2.110   2.443
  255SOL    HW2 1665   3.797   2.145   2.531
  256SOL     OW 1666   6.850   5.609   1.922
  256SOL    HW1 1667   6.798   5.566   1.848
  256SOL    HW2 1668   6.928   5.551   1.946
  257SOL     OW 1669   2.888   5.173   6.785
  257SOL    HW1 1670   2.889   5.159   6.686
  257SOL    HW2 1671   2.909   5.086   6.831
  258SOL     OW 1672   4.719   4.159   3.809
  258SOL    HW1 1673   4.776   4.226   3.761
  258SOL    HW2 1674   4.684   4.201   3.893
  259SOL     OW 1675   0.888   2.423   3.388
  259SOL    HW1 1676   0.799   2.384   3.415
  259SOL    HW2 1677   0.880   2.465   3.298
  260SOL     OW 1678   6.840   6.779   5.683
  260SOL    HW1 1679   6.787   6.696   5.699
  260SOL    HW2 1680   6.911   6.788   5.752
  261SOL     OW 1681   0.250   1.071   3.074
  261SOL    HW1 1682   0.153   1.084   3.055
  261SOL    HW2 1683   0.302   1.146   3.035
  262SOL     OW 1684   1.922   5.130   2.589
  262SOL    HW1 1685   1.951   5.081   2.507
  262SOL    HW2 1686   1.825   5.154   2.581
  263SOL     OW 1687   6.836   2.757   5.220
  263SOL    HW1 1688   6.841   2.797   5.311
  263SOL    HW2 1689   6.796   2.823   5.156
  264SOL     OW 1690   2.957   3.935   6.961
  264SOL    HW1 1691   2.885   3.990   7.003
  264SOL    HW2 1692   2.934   3.917   6.865
  265SOL     OW 1693   4.905   5.457   4.061
  265SOL    HW1 1694   4.938   5.505   3.980
  265SOL    HW2 1695   4.808   5.434   4.048
  266SOL     OW 1696   3.756   3.138   6.734
  266SOL    HW1 1697   3.820   3.089   6.675
  266SOL    HW2 1698   3.786   3.131   6.829
  267SOL     OW 1699   2.287   1.683   6.717
  267SOL    HW1 1700   2.348   1.638   6.783
  267SOL    HW2 1701   2.204   1.628   6.706
  268SOL     OW 1702   3.169   4.884   3.629
  268SOL    HW1 1703   3.077   4.863   3.661
  268SOL    HW2 1704   3.229   4.896   3.708
  269SOL     OW 1705   2.233   1.496   4.929
  269SOL    HW1 1706   2.202   1.408   4.966
  269SOL    HW2 1707   2.333   1.495   4.921
  270SOL     OW 1708   4.932   6.859   4.533
  270SOL    HW1 1709   4.933   6.943   4.587
  270SOL    HW2 1710   4.973   6.785   4.587
  271SOL     OW 1711   1.683   1.557   0.724
  271SOL    HW1 1712   1.692   1.579   0.821
  271SOL    HW2 1713   1.718   1.633   0.669
  272SOL     OW 1714   4.328   6.201   1.406
  272SOL    HW1 1715   4.334   6.116   1.352
  272SOL    HW2 1716   4.410   6.211   1.462
  273SOL     OW 1717   2.359   6.545   4.674
  273SOL    HW1 1718   2.313   6.634   4.677
  273SOL    HW2 1719   2.295   6.476   4.638
  274SOL     OW 1720   5.825   1.739   1.111
  274SOL    HW1 1721   5.891   1.668   1.135
  274SOL    HW2 1722   5.870   1.811   1.058
  275SOL     OW 1723   5.907   5.617   5.779
  275SOL    HW1 1724   5.817   5.659   5.765
  275SOL    HW2 1725   5.969   5.685   5.819
  276SOL     OW 1726   7.003   6.596   4.545
  276SOL    HW1 1727   6.924   6.616   4.487
  276SOL    HW2 1728   7.018   6.497   4.547
  277SOL     OW 1729   4.570   2.452   5.429
  277SOL    HW1 1730   4.546   2.449   5.527
  277SOL    HW2 1731   4.505   2.512   5.382
  278SOL     OW 1732   5.889   4.044   3.355
  278SOL    HW1 1733   5.860   3.949   3.346
  278SOL    HW2 1734   5.812   4.099   3.387
  279SOL     OW 1735   6.858   3.288   3.889
  279SOL    HW1 1736   6.820   3.320   3.976
  279SOL    HW2 1737   6.957   3.305   3.888
  280SOL     OW 1738   4.313   1.097   3.675
  280SOL    HW1 1739   4.230   1.147   3.700
  280SOL    HW2 1740   4.382   1.162   3.644
  281SOL     OW 1741   5.231   5.895   5.150
  281SOL    HW1 1742   5.178   5.901   5.234
  281SOL    HW2 1743   5.231   5.984   5.104
  282SOL     OW 1744   1.279   2.729   0.542
  282SOL    HW1 1745   1.378   2.729   0.559
  282SOL    HW2 1746   1.253   2.642   0.498
  283SOL     OW 1747   5.173   3.870   4.305
  283SOL    HW1 1748   5.261   3.903   4.339
  283SOL    HW2 1749   5.156   3.778   4.341
  284SOL     OW 1750   4.821   5.827   2.482
  284SOL    HW1 1751   4.843   5.861   2.391
  284SOL    HW2 1752   4.729   5.858   2.508
  285SOL     OW 1753   3.984   0.434   5.772
  285SOL    HW1 1754   4.011   0.338   5.771
  285SOL    HW2 1755   3.899   0.444   5.823
  286SOL     OW 1756   2.427   4.996   5.350
  286SOL    HW1 1757   2.476   4.909   5.349
  286SOL    HW2 1758   2.347   4.989   5.410
  287SOL     OW 1759   3.915   6.746   6.971
  287SOL    HW1 1760   3.884   6.834   7.006
  287SOL    HW2 1761   3.851   6.674   6.998
  288SOL     OW 1762   5.065   1.745   0.188
  288SOL    HW1 1763   5.165   1.745   0.189
  288SOL    HW2 1764   5.032   1.802   0.113
  289SOL     OW 1765   5.871   5.432   4.072
  289SOL    HW1 1766   5.925   5.459   4.152
  289SOL    HW2 1767   5.929   5.384   4.007
  290SOL     OW 1768   3.646   0.733   5.882
  290SOL    HW1 1769   3.697   0.739   5.796
  290SOL    HW2 1770   3.548   0.726   5.863
  291SOL     OW 1771   4.232   0.096   5.239
  291SOL    HW1 1772   4.294   0.091   5.317
  291SOL    HW2 1773   4.169   0.173   5.250
  292SOL     OW 1774   3.429   0.276   3.810
  292SOL    HW1 1775   3.523   0.297   3.783
  292SOL    HW2 1776   3.367   0.299   3.735
  293SOL     OW 1777   5.200   6.171   2.849
  293SOL    HW1 1778   5.204   6.183   2.750
  293SOL    HW2 1779   5.275   6.222   2.891
  294SOL     OW 1780   6.616   1.241   6.699
  294SOL    HW1 1781   6.521   1.218   6.678
  294SOL    HW2 1782   6.676   1.167   6.668
  295SOL     OW 1783   1.145   0.224   4.670
  295SOL    HW1 1784   1.207   0.146   4.669
  295SOL    HW2 1785   1.196   0.308   4.689
  296SOL     OW 1786   0.378   2.385   2.370
  296SOL    HW1 1787   0.395   2.415   2.463
  296SOL    HW2 1788   0.394   2.461   2.307
  297SOL     OW 1789   5.245   3.073   3.259
  297SOL    HW1 1790   5.287   3.025   3.182
  297SOL    HW2 1791   5.239   3.012   3.338
  298SOL     OW 1792   4.041   0.726   5.781
  298SOL    HW1 1793   3.957   0.781   5.775
  298SOL    HW2 1794   4.017   0.631   5.799
  299SOL     OW 1795   0.846   0.922   6.766
  299SOL    HW1 1796   0.909   0.854   6.729
  299SOL    HW2 1797   0.839   0.911   6.865
  300SOL     OW 1798   4.654   0.200   3.388
  300SOL    HW1 1799   4.637   0.102   3.375
  300SOL    HW2 1800   4.659   0.219   3.486
  301SOL     OW 1801   6.540   5.214   6.452
  301SOL    HW1 1802   6.558   5.119   6.429
  301SOL    HW2 1803   6.505   5.262   6.372
  302SOL     OW 1804   6.834   6.091   2.593
  302SOL    HW1 1805   6.932   6.085   2.579
  302SOL    HW2 1806   6.815   6.103   2.691
  303SOL     OW 1807   5.896   6.210   3.564
  303SOL    HW1 1808   5.796   6.202   3.563
  303SOL    HW2 1809   5.924   6.262   3.645
  304SOL     OW 1810   2.662   6.090   4.474
  304SOL    HW1 1811   2.720   6.158   4.517
  304SOL    HW2 1812   2.584   6.135   4.430
  305SOL     OW 1813   0.757   2.511   1.815
  305SOL    HW1 1814   0.669   2.558   1.805
  305SOL    HW2 1815   0.804   2.544   1.897
  306SOL     OW 1816   0.205   6.562   3.200
  306SOL    HW1 1817   0.304   6.573   3.197
  306SOL    HW2 1818   0.176   6.544   3.294
  307SOL     OW 1819   3.902   3.340   3.990
  307SOL    HW1 1820   3.987   3.372   4.031
  307SOL    HW2 1821   3.919   3.310   3.896
  308SOL     OW 1822   6.580   1.995   2.931
  308SOL    HW1 1823   6.540   1.963   3.017
  308SOL    HW2 1824   6.619   2.086   2.943
  309SOL     OW 1825   2.112   5.675   6.615
  309SOL    HW1 1826   2.113   5.752   6.552
  309SOL    HW2 1827   2.089   5.591   6.566
  310SOL     OW 1828   5.657   6.287   4.942
  310SOL    HW1 1829   5.737   6.287   5.003
  310SOL    HW2 1830   5.575   6.309   4.995
  311SOL     OW 1831   1.768   5.897   2.059
  311SOL    HW1 1832   1.733   5.857   1.974
  311SOL    HW2 1833   1.867   5.883   2.064
  312SOL     OW 1834   3.045   0.475   4.030
  312SOL    HW1 1835   3.067   0.559   4.080
  312SOL    HW2 1836   3.128   0.421   4.016
  313SOL     OW 1837   2.891   3.373   2.680
  313SOL    HW1 1838   2.877   3.438   2.604
  313SOL    HW2 1839   2.893   3.280   2.643
  314SOL     OW 1840   2.827   5.384   5.828
  314SOL    HW1 1841   2.740   5.396   5.779
  314SOL    HW2 1842   2.866   5.474   5.847
  315SOL     OW 1843   5.643   0.881   4.670
  315SOL    HW1 1844   5.565   0.869   4.732
  315SOL    HW2 1845   5.687   0.793   4.654
  316SOL     OW 1846   3.950   0.928   6.063
  316SOL    HW1 1847   4.040   0.935   6.019
  316SOL    HW2 1848   3.879   0.950   5.996
  317SOL     OW 1849   0.444   2.222   1.377
  317SOL    HW1 1850   0.521   2.172   1.336
  317SOL    HW2 1851   0.443   2.206   1.475
  318SOL     OW 1852   0.930   0.364   5.382
  318SOL    HW1 1853   1.010   0.309   5.405
  318SOL    HW2 1854   0.866   0.309   5.328
  319SOL     OW 1855   6.900   0.730   3.696
  319SOL    HW1 1856   6.893   0.830   3.698
  319SOL    HW2 1857   6.992   0.703   3.724
  320SOL     OW 1858   5.733   2.134   6.603
  320SOL    HW1 1859   5.646   2.114   6.648
  320SOL    HW2 1860   5.808   2.106   6.663
  321SOL     OW 1861   5.215   2.977   0.558
  321SOL    HW1 1862   5.313   2.964   0.550
  321SOL    HW2 1863   5.167   2.891   0.538
  322SOL     OW 1864   3.346   2.601   6.755
  322SOL    HW1 1865   3.247   2.615   6.760
  322SOL    HW2 1866   3.366   2.504   6.742
  323SOL     OW 1867   1.798   3.825   2.917
  323SOL    HW1 1868   1.730   3.865   2.856
  323SOL    HW2 1869   1.874   3.789   2.862
  324SOL     OW 1870   0.229   6.908   2.892
  324SOL    HW1 1871   0.195   6.835   2.952
  324SOL    HW2 1872   0.153   6.967   2.865
  325SOL     OW 1873   0.236   4.148   0.458
  325SOL    HW1 1874   0.313   4.151   0.521
  325SOL    HW2 1875   0.180   4.067   0.476
  326SOL     OW 1876   0.944   6.289   7.020
  326SOL    HW1 1877   1.039   6.279   6.991
  326SOL    HW2 1878   0.933   6.251   0.089
  327SOL     OW 1879   4.695   5.339   4.965
  327SOL    HW1 1880   4.707   5.240   4.968
  327SOL    HW2 1881   4.656   5.371   5.051
  328SOL     OW 1882   1.376   4.789   3.343
  328SOL    HW1 1883   1.295   4.847   3.328
  328SOL    HW2 1884   1.377   4.716   3.273
  329SOL     OW 1885   3.020   3.187   1.354
  329SOL    HW1 1886   2.925   3.189   1.324
  329SOL    HW2 1887   3.028   3.125   1.433
  330SOL     OW 1888   3.261   3.462   0.530
  330SOL    HW1 1889   3.325   3.442   0.456
  330SOL    HW2 1890   3.204   3.540   0.505
  331SOL     OW 1891   5.403   5.111   4.879
  331SOL    HW1 1892   5.376   5.203   4.907
  331SOL    HW2 1893   5.482   5.115   4.819
  332SOL     OW 1894   5.566   2.344   2.738
  332SOL    HW1 1895   5.558   2.443   2.730
  332SOL    HW2 1896   5.639   2.311   2.680
  333SOL     OW 1897   3.405   0.514   4.568
  333SOL    HW1 1898   3.487   0.568   4.553
  333SOL    HW2 1899   3.348   0.516   4.486
  334SOL     OW 1900   3.650   3.804   3.303
  334SOL    HW1 1901   3.627   3.723   3.358
  334SOL    HW2 1902   3.748   3.823   3.310
  335SOL     OW 1903   4.110   1.642   1.159
  335SOL    HW1 1904   4.112   1.668   1.255
  335SOL    HW2 1905   4.184   1.577   1.140
  336SOL     OW 1906   3.171   1.938   4.557
  336SOL    HW1 1907   3.207   1.960   4.647
  336SOL    HW2 1908   3.195   2.010   4.492
  337SOL     OW 1909   0.287   0.704   5.190
  337SOL    HW1 1910   0.240   0.736   5.108
  337SOL    HW2 1911   0.243   0.742   5.271
  338SOL     OW 1912   4.400   1.754   1.226
  338SOL    HW1 1913   4.334   1.817   1.185
  338SOL    HW2 1914   4.401   1.669   1.174
  339SOL     OW 1915   3.977   5.153   6.077
  339SOL    HW1 1916   3.993   5.107   5.990
  339SOL    HW2 1917   4.030   5.108   6.149
  340SOL     OW 1918   5.783   2.270   3.909
  340SOL    HW1 1919   5.705   2.302   3.962
  340SOL    HW2 1920   5.857   2.338   3.914
  341SOL     OW 1921   0.038   6.378   3.089
  341SOL    HW1 1922   0.094   6.457   3.114
  341SOL    HW2 1923   0.081   6.331   3.012
  342SOL     OW 1924   4.675   2.020   2.326
  342SOL    HW1 1925   4.689   2.118   2.337
  342SOL    HW2 1926   4.579   1.998   2.342
  343SOL     OW 1927   6.826   6.724   1.700
  343SOL    HW1 1928   6.800   6.781   1.779
  343SOL    HW2 1929   6.757   6.733   1.629
  344SOL     OW 1930   0.269   2.221   1.059
  344SOL    HW1 1931   0.225   2.302   1.097
  344SOL    HW2 1932   0.269   2.147   1.127
  345SOL     OW 1933   6.253   2.458   4.585
  345SOL    HW1 1934   6.206   2.462   4.497
  345SOL    HW2 1935   6.238   2.543   4.635
  346SOL     OW 1936   2.175   6.403   3.772
  346SOL    HW1 1937   2.095   6.373   3.721
  346SOL    HW2 1938   2.159   6.391   3.870
  347SOL     OW 1939   1.924   4.599   0.593
  347SOL    HW1 1940   1.856   4.537   0.553
  347SOL    HW2 1941   1.917   4.596   0.693
  348SOL     OW 1942   3.681   5.513   1.150
  348SOL    HW1 1943   3.726   5.496   1.238
  348SOL    HW2 1944   3.751   5.520   1.079
  349SOL     OW 1945   5.951   4.088   1.039
  349SOL    HW1 1946   6.008   4.131   1.109
  349SOL    HW2 1947   5.906   4.158   0.985
  350SOL     OW 1948   3.323   2.217   0.136
  350SOL    HW1 1949   3.320   2.315   0.117
  350SOL    HW2 1950   3.248   2.193   0.198
  351SOL     OW 1951   3.625   4.579   0.964
  351SOL    HW1 1952   3.717   4.588   1.002
  351SOL    HW2 1953   3.611   4.647   0.893
  352SOL     OW 1954   4.417   0.662   2.447
  352SOL    HW1 1955   4.357   0.586   2.422
  352SOL    HW2 1956   4.363   0.746   2.454
  353SOL     OW 1957   1.609   0.387   0.031
  353SOL    HW1 1958   1.510   0.396   0.025
  353SOL    HW2 1959   1.631   0.298   0.072
  354SOL     OW 1960   0.728   2.327   0.480
  354SOL    HW1 1961   0.802   2.362   0.423
  354SOL    HW2 1962   0.732   2.370   0.570
  355SOL     OW 1963   0.916   2.542   3.147
  355SOL    HW1 1964   0.961   2.480   3.083
  355SOL    HW2 1965   0.985   2.598   3.193
  356SOL     OW 1966   2.265   0.973   5.609
  356SOL    HW1 1967   2.356   0.964   5.649
  356SOL    HW2 1968   2.227   0.882   5.592
  357SOL     OW 1969   5.342   7.009   4.804
  357SOL    HW1 1970   5.406   0.015   4.733
  357SOL    HW2 1971   5.281   0.061   4.827
  358SOL     OW 1972   3.423   5.787   6.486
  358SOL    HW1 1973   3.391   5.869   6.440
  358SOL    HW2 1974   3.405   5.707   6.429
  359SOL     OW 1975   1.251   1.846   2.607
  359SOL    HW1 1976   1.199   1.856   2.692
  359SOL    HW2 1977   1.228   1.920   2.545
  360SOL     OW 1978   1.458   4.372   4.302
  360SOL    HW1 1979   1.489   4.429   4.379
  360SOL    HW2 1980   1.496   4.409   4.217
  361SOL     OW 1981   6.402   1.758   2.284
  361SOL    HW1 1982   6.487   1.808   2.300
  361SOL    HW2 1983   6.419   1.683   2.219
  362SOL     OW 1984   3.688   3.700   0.875
  362SOL    HW1 1985   3.592   3.674   0.878
  362SOL    HW2 1986   3.744   3.619   0.858
  363SOL     OW 1987   5.395   5.479   1.926
  363SOL    HW1 1988   5.364   5.452   2.017
  363SOL    HW2 1989   5.318   5.481   1.863
  364SOL     OW 1990   0.719   0.101   6.850
  364SOL    HW1 1991   0.672   0.160   6.784
  364SOL    HW2 1992   0.659   0.024   6.874
  365SOL     OW 1993   5.427   1.312   3.710
  365SOL    HW1 1994   5.493   1.296   3.783
  365SOL    HW2 1995   5.366   1.233   3.703
  366SOL     OW 1996   5.831   1.655   6.286
  366SOL    HW1 1997   5.872   1.676   6.375
  366SOL    HW2 1998   5.740   1.696   6.281
  367SOL     OW 1999   5.838   1.343   6.460
  367SOL    HW1 2000   5.867   1.290   6.381
  367SOL    HW2 2001   5.918   1.365   6.517
  368SOL     OW 2002   0.658   2.606   5.821
  368SOL    HW1 2003   0.683   2.562   5.735
  368SOL    HW2 2004   0.719   2.575   5.894
  369SOL     OW 2005   6.552   3.917   1.361
  369SOL    HW1 2006   6.540   4.001   1.414
  369SOL    HW2 2007   6.644   3.881   1.376
  370SOL     OW 2008   1.394   2.949   4.009
  370SOL    HW1 2009   1.324   2.878   4.019
  370SOL    HW2 2010   1.350   3.038   3.997
  371SOL     OW 2011   0.349   4.786   6.644
  371SOL    HW1 2012   0.378   4.829   6.558
  371SOL    HW2 2013   0.418   4.802   6.714
  372SOL     OW 2014   3.780   6.320   5.942
  372SOL    HW1 2015   3.757   6.252   6.011
  372SOL    HW2 2016   3.699   6.374   5.919
  373SOL     OW 2017   6.263   4.992   3.385
  373SOL    HW1 2018   6.219   5.029   3.303
  373SOL    HW2 2019   6.220   5.030   3.467
  374SOL     OW 2020   2.668   0.925   2.565
  374SOL    HW1 2021   2.600   0.890   2.500
  374SOL    HW2 2022   2.624   0.990   2.627
  375SOL     OW 2023   0.921   5.377   4.578
  375SOL    HW1 2024   0.935   5.345   4.484
  375SOL    HW2 2025   1.008   5.376   4.627
  376SOL     OW 2026   3.374   0.988   3.835
  376SOL    HW1 2027   3.300   0.977   3.769
  376SOL    HW2 2028   3.366   1.077   3.880
  377SOL     OW 2029   1.508   2.017   6.906
  377SOL    HW1 2030   1.418   2.036   6.943
  377SOL    HW2 2031   1.570   1.991   6.980
  378SOL     OW 2032   4.463   1.715   2.225
  378SOL    HW1 2033   4.492   1.797   2.177
  378SOL    HW2 2034   4.538   1.649   2.227
  379SOL     OW 2035   5.229   1.853   5.996
  379SOL    HW1 2036   5.274   1.815   6.077
  379SOL    HW2 2037   5.131   1.830   5.999
  380SOL     OW 2038   4.302   2.674   6.947
  380SOL    HW1 2039   4.203   2.668   6.963
  380SOL    HW2 2040   4.337   2.759   6.986
  381SOL     OW 2041   1.940   3.975   3.107
  381SOL    HW1 2042   1.900   3.954   3.196
  381SOL    HW2 2043   1.884   3.933   3.035
  382SOL     OW 2044   4.989   0.769   6.388
  382SOL    HW1 2045   5.035   0.822   6.460
  382SOL    HW2 2046   5.055   0.706   6.346
  383SOL     OW 2047   5.283   2.266   0.673
  383SOL    HW1 2048   5.301   2.222   0.761
  383SOL    HW2 2049   5.258   2.197   0.606
  384SOL     OW 2050   6.256   4.016   4.792
  384SOL    HW1 2051   6.233   3.953   4.866
  384SOL    HW2 2052   6.247   4.110   4.824
  385SOL     OW 2053   4.904   3.389   0.256
  385SOL    HW1 2054   4.867   3.296   0.256
  385SOL    HW2 2055   4.987   3.392   0.311
  386SOL     OW 2056   4.048   6.207   4.039
  386SOL    HW1 2057   3.956   6.246   4.042
  386SOL    HW2 2058   4.090   6.227   3.951
  387SOL     OW 2059   2.902   6.568   3.989
  387SOL    HW1 2060   2.948   6.549   3.903
  387SOL    HW2 2061   2.803   6.571   3.974
  388SOL     OW 2062   1.446   4.233   6.590
  388SOL    HW1 2063   1.485   4.313   6.636
  388SOL    HW2 2064   1.347   4.233   6.601
  389SOL     OW 2065   2.927   3.506   2.440
  389SOL    HW1 2066   2.978   3.592   2.431
  389SOL    HW2 2067   2.893   3.478   2.350
  390SOL     OW 2068   2.295   1.622   3.812
  390SOL    HW1 2069   2.214   1.595   3.864
  390SOL    HW2 2070   2.281   1.601   3.715
  391SOL     OW 2071   0.723   2.704   6.465
  391SOL    HW1 2072   0.699   2.782   6.406
  391SOL    HW2 2073   0.686   2.620   6.426
  392SOL     OW 2074   2.747   5.474   3.269
  392SOL    HW1 2075   2.839   5.511   3.275
  392SOL    HW2 2076   2.744   5.384   3.312
  393SOL     OW 2077   5.998   4.388   5.139
  393SOL    HW1 2078   5.930   4.461   5.144
  393SOL    HW2 2079   6.084   4.426   5.105
  394SOL     OW 2080   2.596   0.119   6.817
  394SOL    HW1 2081   2.529   0.105   6.891
  394SOL    HW2 2082   2.548   0.123   6.729
  395SOL     OW 2083   6.335   3.516   0.972
  395SOL    HW1 2084   6.332   3.431   0.920
  395SOL    HW2 2085   6.242   3.548   0.991
  396SOL     OW 2086   3.606   2.876   4.775
  396SOL    HW1 2087   3.534   2.945   4.788
  396SOL    HW2 2088   3.600   2.808   4.848
  397SOL     OW 2089   4.311   2.186   6.446
  397SOL    HW1 2090   4.354   2.144   6.366
  397SOL    HW2 2091   4.243   2.123   6.484
  398SOL     OW 2092   1.375   4.611   2.514
  398SOL    HW1 2093   1.394   4.530   2.570
  398SOL    HW2 2094   1.460   4.643   2.471
  399SOL     OW 2095   5.377   5.120   2.465
  399SOL    HW1 2096   5.425   5.146   2.382
  399SOL    HW2 2097   5.430   5.050   2.514
  400SOL     OW 2098   1.409   5.000   4.847
  400SOL    HW1 2099   1.505   5.000   4.877
  400SOL    HW2 2100   1.383   4.908   4.818
  401SOL     OW 2101   5.579   1.456   6.401
  401SOL    HW1 2102   5.529   1.495   6.478
  401SOL    HW2 2103   5.666   1.418   6.433
  402SOL     OW 2104   6.129   4.772   1.562
  402SOL    HW1 2105   6.158   4.864   1.588
  402SOL    HW2 2106   6.038   4.754   1.600
  403SOL     OW 2107   5.475   3.747   6.550
  403SOL    HW1 2108   5.574   3.751   6.545
  403SOL    HW2 2109   5.442   3.817   6.614
  404SOL     OW 2110   0.362   6.853   4.629
  404SOL    HW1 2111   0.450   6.808   4.617
  404SOL    HW2 2112   0.329   6.887   4.541
  405SOL     OW 2113   1.114   2.233   0.550
  405SOL    HW1 2114   1.045   2.171   0.512
  405SOL    HW2 2115   1.163   2.186   0.624
  406SOL     OW 2116   1.421   3.435   3.339
  406SOL    HW1 2117   1.330   3.396   3.325
  406SOL    HW2 2118   1.482   3.405   3.265
  407SOL     OW 2119   2.324   1.318   3.621
  407SOL    HW1 2120   2.418   1.341   3.595
  407SOL    HW2 2121   2.262   1.384   3.578
  408SOL     OW 2122   1.715   0.291   3.100
  408SOL    HW1 2123   1.735   0.272   3.197
  408SOL    HW2 2124   1.766   0.227   3.043
  409SOL     OW 2125   6.065   3.368   3.718
  409SOL    HW1 2126   6.115   3.304   3.777
  409SOL    HW2 2127   6.115   3.381   3.633
  410SOL     OW 2128   3.027   1.386   6.304
  410SOL    HW1 2129   3.005   1.470   6.354
  410SOL    HW2 2130   2.945   1.329   6.295
  411SOL     OW 2131   6.540   4.132   4.898
  411SOL    HW1 2132   6.482   4.053   4.878
  411SOL    HW2 2133   6.632   4.100   4.922
  412SOL     OW 2134   3.309   0.256   2.554
  412SOL    HW1 2135   3.348   0.200   2.627
  412SOL    HW2 2136   3.380   0.312   2.514
  413SOL     OW 2137   2.323   0.405   1.234
  413SOL    HW1 2138   2.388   0.334   1.262
  413SOL    HW2 2139   2.340   0.429   1.138
  414SOL     OW 2140   4.342   3.956   0.424
  414SOL    HW1 2141   4.274   3.997   0.485
  414SOL    HW2 2142   4.394   3.887   0.474
  415SOL     OW 2143   3.197   6.651   1.954
  415SOL    HW1 2144   3.108   6.649   2.001
  415SOL    HW2 2145   3.187   6.698   1.867
  416SOL     OW 2146   4.000   5.537   5.772
  416SOL    HW1 2147   3.914   5.576   5.804
  416SOL    HW2 2148   3.998   5.529   5.673
  417SOL     OW 2149   4.218   6.107   1.016
  417SOL    HW1 2150   4.131   6.086   1.062
  417SOL    HW2 2151   4.285   6.037   1.040
  418SOL     OW 2152   5.579   4.485   0.972
  418SOL    HW1 2153   5.602   4.559   1.034
  418SOL    HW2 2154   5.567   4.400   1.024
  419SOL     OW 2155   6.325   6.390   1.114
  419SOL    HW1 2156   6.261   6.428   1.047
  419SOL    HW2 2157   6.276   6.365   1.197
  420SOL     OW 2158   4.094   4.088   0.110
  420SOL    HW1 2159   4.165   4.023   0.135
  420SOL    HW2 2160   4.086   4.093   0.010
  421SOL     OW 2161   1.690   6.175   6.398
  421SOL    HW1 2162   1.679   6.238   6.474
  421SOL    HW2 2163   1.702   6.226   6.313
  422SOL     OW 2164   5.863   3.447   0.010
  422SOL    HW1 2165   5.801   3.370   7.017
  422SOL    HW2 2166   5.957   3.418   7.018
  423SOL     OW 2167   0.872   2.755   6.674
  423SOL    HW1 2168   0.831   2.725   6.587
  423SOL    HW2 2169   0.950   2.698   6.696
  424SOL     OW 2170   2.069   3.893   7.013
  424SOL    HW1 2171   1.989   3.833   0.001
  424SOL    HW2 2172   2.135   3.873   0.062
  425SOL     OW 2173   2.869   0.913   0.625
  425SOL    HW1 2174   2.868   0.814   0.629
  425SOL    HW2 2175   2.829   0.943   0.538
  426SOL     OW 2176   5.602   3.926   5.458
  426SOL    HW1 2177   5.540   3.909   5.381
  426SOL    HW2 2178   5.557   3.897   5.543
  427SOL     OW 2179   5.360   3.799   0.880
  427SOL    HW1 2180   5.330   3.730   0.947
  427SOL    HW2 2181   5.383   3.753   0.794
  428SOL     OW 2182   3.802   0.819   4.876
  428SOL    HW1 2183   3.769   0.872   4.954
  428SOL    HW2 2184   3.765   0.857   4.791
  429SOL     OW 2185   1.952   4.947   6.473
  429SOL    HW1 2186   1.885   4.889   6.518
  429SOL    HW2 2187   2.031   4.892   6.446
  430SOL     OW 2188   1.215   6.601   5.230
  430SOL    HW1 2189   1.162   6.677   5.267
  430SOL    HW2 2190   1.210   6.523   5.294
  431SOL     OW 2191   3.694   1.943   0.491
  431SOL    HW1 2192   3.616   1.997   0.461
  431SOL    HW2 2193   3.696   1.940   0.591
  432SOL     OW 2194   0.256   1.967   1.178
  432SOL    HW1 2195   0.304   1.891   1.135
  432SOL    HW2 2196   0.263   1.959   1.278
  433SOL     OW 2197   3.507   6.402   4.918
  433SOL    HW1 2198   3.579   6.451   4.869
  433SOL    HW2 2199   3.417   6.436   4.889
  434SOL     OW 2200   0.236   3.662   1.316
  434SOL    HW1 2201   0.303   3.718   1.364
  434SOL    HW2 2202   0.283   3.611   1.243
  435SOL     OW 2203   3.854   4.093   0.726
  435SOL    HW1 2204   3.864   3.995   0.747
  435SOL    HW2 2205   3.879   4.109   0.631
  436SOL     OW 2206   2.554   1.153   6.731
  436SOL    HW1 2207   2.617   1.206   6.675
  436SOL    HW2 2208   2.466   1.200   6.738
  437SOL     OW 2209   6.736   0.095   6.860
  437SOL    HW1 2210   6.721   0.172   6.799
  437SOL    HW2 2211   6.701   0.117   6.951
  438SOL     OW 2212   1.854   2.848   2.023
  438SOL    HW1 2213   1.900   2.790   2.090
  438SOL    HW2 2214   1.763   2.871   2.057
  439SOL     OW 2215   6.547   4.981   2.827
  439SOL    HW1 2216   6.638   4.944   2.810
  439SOL    HW2 2217   6.525   4.974   2.924
  440SOL     OW 2218   1.066   3.262   4.164
  440SOL    HW1 2219   1.082   3.196   4.237
  440SOL    HW2 2220   1.132   3.247   4.090
  441SOL     OW 2221   0.500   0.893   3.704
  441SOL    HW1 2222   0.544   0.946   3.776
  441SOL    HW2 2223   0.567   0.869   3.634
  442SOL     OW 2224   6.975   4.332   0.389
  442SOL    HW1 2225   6.899   4.390   0.360
  442SOL    HW2 2226   0.038   4.368   0.352
  443SOL     OW 2227   0.448   4.507   5.413
  443SOL    HW1 2228   0.440   4.410   5.437
  443SOL    HW2 2229   0.452   4.517   5.314
  444SOL     OW 2230   4.342   3.337   6.362
  444SOL    HW1 2231   4.341   3.261   6.297
  444SOL    HW2 2232   4.338   3.300   6.455
  445SOL     OW 2233   2.014   4.879   3.001
  445SOL    HW1 2234   2.097   4.845   3.045
  445SOL    HW2 2235   1.959   4.929   3.069
  446SOL     OW 2236   4.822   4.554   3.893
  446SOL    HW1 2237   4.841   4.464   3.852
  446SOL    HW2 2238   4.723   4.568   3.896
  447SOL     OW 2239   6.592   5.719   0.568
  447SOL    HW1 2240   6.602   5.620   0.566
  447SOL    HW2 2241   6.495   5.743   0.561
  448SOL     OW 2242   4.754   0.386   5.353
  448SOL    HW1 2243   4.790   0.352   5.440
  448SOL    HW2 2244   4.748   0.486   5.356
  449SOL     OW 2245   5.857   0.379   4.727
  449SOL    HW1 2246   5.858   0.303   4.663
  449SOL    HW2 2247   5.915   0.358   4.805
  450SOL     OW 2248   6.736   6.155   3.735
  450SOL    HW1 2249   6.717   6.057   3.733
  450SOL    HW2 2250   6.714   6.191   3.826
  451SOL     OW 2251   0.494   2.597   3.300
  451SOL    HW1 2252   0.498   2.688   3.257
  451SOL    HW2 2253   0.498   2.607   3.399
  452SOL     OW 2254   0.085   4.826   6.593
  452SOL    HW1 2255   0.052   4.884   6.667
  452SOL    HW2 2256   0.178   4.796   6.613
  453SOL     OW 2257   2.876   0.855   6.033
  453SOL    HW1 2258   2.798   0.852   6.096
  453SOL    HW2 2259   2.920   0.765   6.031
  454SOL     OW 2260   1.034   6.233   0.292
  454SOL    HW1 2261   1.116   6.205   0.241
  454SOL    HW2 2262   1.044   6.328   0.321
  455SOL     OW 2263   5.500   0.933   5.832
  455SOL    HW1 2264   5.556   0.874   5.774
  455SOL    HW2 2265   5.419   0.883   5.862
  456SOL     OW 2266   4.256   5.475   6.157
  456SOL    HW1 2267   4.330   5.539   6.137
  456SOL    HW2 2268   4.215   5.443   6.072
  457SOL     OW 2269   2.056   5.112   2.839
  457SOL    HW1 2270   1.997   5.119   2.758
  457SOL    HW2 2271   2.037   5.026   2.887
  458SOL     OW 2272   6.715   5.439   6.201
  458SOL    HW1 2273   6.748   5.459   6.108
  458SOL    HW2 2274   6.615   5.439   6.201
  459SOL     OW 2275   1.602   0.614   2.869
  459SOL    HW1 2276   1.638   0.551   2.800
  459SOL    HW2 2277   1.623   0.579   2.961
  460SOL     OW 2278   6.043   2.234   3.721
  460SOL    HW1 2279   5.961   2.178   3.712
  460SOL    HW2 2280   6.115   2.181   3.765
  461SOL     OW 2281   4.926   6.472   5.509
  461SOL    HW1 2282   5.016   6.485   5.467
  461SOL    HW2 2283   4.880   6.561   5.517
  462SOL     OW 2284   2.930   3.293   6.647
  462SOL    HW1 2285   2.858   3.354   6.682
  462SOL    HW2 2286   2.961   3.326   6.558
  463SOL     OW 2287   6.334   5.393   2.242
  463SOL    HW1 2288   6.363   5.486   2.265
  463SOL    HW2 2289   6.234   5.390   2.237
  464SOL     OW 2290   2.331   1.190   5.231
  464SOL    HW1 2291   2.319   1.129   5.152
  464SOL    HW2 2292   2.309   1.141   5.315
  465SOL     OW 2293   6.443   2.747   4.275
  465SOL    HW1 2294   6.537   2.715   4.260
  465SOL    HW2 2295   6.392   2.743   4.190
  466SOL     OW 2296   1.485   6.951   3.690
  466SOL    HW1 2297   1.445   6.897   3.764
  466SOL    HW2 2298   1.412   6.992   3.636
  467SOL     OW 2299   1.451   0.374   5.262
  467SOL    HW1 2300   1.493   0.423   5.185
  467SOL    HW2 2301   1.406   0.440   5.322
  468SOL     OW 2302   3.257   4.623   1.067
  468SOL    HW1 2303   3.201   4.540   1.068
  468SOL    HW2 2304   3.201   4.702   1.042
  469SOL     OW 2305   2.233   5.703   0.076
  469SOL    HW1 2306   2.162   5.689   0.007
  469SOL    HW2 2307   2.206   5.659   0.161
  470SOL     OW 2308   3.476   0.394   2.407
  470SOL    HW1 2309   3.468   0.452   2.326
  470SOL    HW2 2310   3.563   0.346   2.404
  471SOL     OW 2311   2.431   2.209   5.117
  471SOL    HW1 2312   2.487   2.170   5.044
  471SOL    HW2 2313   2.486   2.271   5.173
  472SOL     OW 2314   3.556   4.638   5.736
  472SOL    HW1 2315   3.536   4.549   5.696
  472SOL    HW2 2316   3.536   4.710   5.668
  473SOL     OW 2317   1.324   3.987   2.650
  473SOL    HW1 2318   1.310   4.086   2.658
  473SOL    HW2 2319   1.370   3.967   2.564
  474SOL     OW 2320   4.097   5.294   4.376
  474SOL    HW1 2321   4.053   5.260   4.293
  474SOL    HW2 2322   4.050   5.259   4.456
  475SOL     OW 2323   0.420   6.576   6.339
  475SOL    HW1 2324   0.375   6.664   6.352
  475SOL    HW2 2325   0.384   6.510   6.406
  476SOL     OW 2326   0.249   4.512   2.755
  476SOL    HW1 2327   0.194   4.429   2.748
  476SOL    HW2 2328   0.344   4.487   2.773
  477SOL     OW 2329   1.753   5.437   4.010
  477SOL    HW1 2330   1.699   5.458   4.091
  477SOL    HW2 2331   1.843   5.481   4.016
  478SOL     OW 2332   2.493   5.005   3.635
  478SOL    HW1 2333   2.409   4.952   3.637
  478SOL    HW2 2334   2.540   4.990   3.548
  479SOL     OW 2335   3.577   2.280   0.700
  479SOL    HW1 2336   3.653   2.271   0.765
  479SOL    HW2 2337   3.514   2.350   0.732
  480SOL     OW 2338   0.947   6.927   2.718
  480SOL    HW1 2339   0.997   6.854   2.765
  480SOL    HW2 2340   1.011   6.983   2.665
  481SOL     OW 2341   4.386   0.031   1.058
  481SOL    HW1 2342   4.295   7.013   1.049
  481SOL    HW2 2343   4.456   6.985   1.040
  482SOL     OW 2344   5.384   4.115   1.973
  482SOL    HW1 2345   5.381   4.040   1.907
  482SOL    HW2 2346   5.361   4.081   2.064
  483SOL     OW 2347   5.514   1.901   1.480
  483SOL    HW1 2348   5.533   1.864   1.388
  483SOL    HW2 2349   5.455   1.838   1.529
  484SOL     OW 2350   6.531   2.436   4.683
  484SOL    HW1 2351   6.508   2.469   4.591
  484SOL    HW2 2352   6.449   2.440   4.741
  485SOL     OW 2353   3.658   4.865   2.246
  485SOL    HW1 2354   3.681   4.794   2.180
  485SOL    HW2 2355   3.720   4.859   2.325
  486SOL     OW 2356   0.740   0.833   0.758
  486SOL    HW1 2357   0.722   0.763   0.826
  486SOL    HW2 2358   0.677   0.910   0.770
  487SOL     OW 2359   0.222   2.153   6.828
  487SOL    HW1 2360   0.290   2.129   6.759
  487SOL    HW2 2361   0.255   2.126   6.918
  488SOL     OW 2362   0.124   2.129   2.541
  488SOL    HW1 2363   0.040   2.108   2.491
  488SOL    HW2 2364   0.120   2.222   2.576
  489SOL     OW 2365   3.777   5.425   6.737
  489SOL    HW1 2366   3.725   5.495   6.688
  489SOL    HW2 2367   3.856   5.467   6.781
  490SOL     OW 2368   5.569   6.250   4.660
  490SOL    HW1 2369   5.595   6.251   4.756
  490SOL    HW2 2370   5.486   6.304   4.647
  491SOL     OW 2371   0.458   2.854   2.802
  491SOL    HW1 2372   0.424   2.948   2.800
  491SOL    HW2 2373   0.425   2.805   2.721
  492SOL     OW 2374   1.966   0.468   5.511
  492SOL    HW1 2375   1.977   0.398   5.582
  492SOL    HW2 2376   1.932   0.426   5.427
  493SOL     OW 2377   6.577   4.511   5.115
  493SOL    HW1 2378   6.537   4.603   5.112
  493SOL    HW2 2379   6.663   4.511   5.064
  494SOL     OW 2380   6.807   0.454   0.882
  494SOL    HW1 2381   6.778   0.464   0.786
  494SOL    HW2 2382   6.807   0.544   0.926
  495SOL     OW 2383   4.823   4.591   1.501
  495SOL    HW1 2384   4.808   4.565   1.406
  495SOL    HW2 2385   4.899   4.539   1.538
  496SOL     OW 2386   5.803   3.267   3.625
  496SOL    HW1 2387   5.882   3.256   3.686
  496SOL    HW2 2388   5.750   3.182   3.625
  497SOL     OW 2389   4.117   0.418   4.869
  497SOL    HW1 2390   4.203   0.383   4.906
  497SOL    HW2 2391   4.093   0.502   4.917
  498SOL     OW 2392   0.807   3.284   2.653
  498SOL    HW1 2393   0.727   3.225   2.665
  498SOL    HW2 2394   0.890   3.229   2.666
  499SOL     OW 2395   3.400   1.022   5.140
  499SOL    HW1 2396   3.332   0.952   5.115
  499SOL    HW2 2397   3.388   1.102   5.082
  500SOL     OW 2398   0.838   3.814   2.609
  500SOL    HW1 2399   0.763   3.829   2.674
  500SOL    HW2 2400   0.920   3.863   2.641
  501SOL     OW 2401   1.004   3.601   6.562
  501SOL    HW1 2402   1.004   3.514   6.513
  501SOL    HW2 2403   0.912   3.639   6.561
  502SOL     OW 2404   3.751   5.185   6.840
  502SOL    HW1 2405   3.749   5.282   6.816
  502SOL    HW2 2406   3.746   5.130   6.756
  503SOL     OW 2407   5.852   5.220   5.563
  503SOL    HW1 2408   5.833   5.318   5.559
  503SOL    HW2 2409   5.942   5.205   5.605
  504SOL     OW 2410   2.094   5.997   4.627
  504SOL    HW1 2411   2.086   5.957   4.536
  504SOL    HW2 2412   2.147   6.082   4.622
  505SOL     OW 2413   4.214   0.134   5.868
  505SOL    HW1 2414   4.204   0.045   5.912
  505SOL    HW2 2415   4.216   0.205   5.938
  506SOL     OW 2416   2.168   3.893   6.368
  506SOL    HW1 2417   2.138   3.952   6.443
  506SOL    HW2 2418   2.151   3.939   6.280
  507SOL     OW 2419   3.101   1.400   3.643
  507SOL    HW1 2420   3.148   1.390   3.556
  507SOL    HW2 2421   3.168   1.421   3.714
  508SOL     OW 2422   6.696   3.868   3.763
  508SOL    HW1 2423   6.655   3.834   3.848
  508SOL    HW2 2424   6.768   3.805   3.733
  509SOL     OW 2425   4.801   1.800   1.130
  509SOL    HW1 2426   4.752   1.849   1.202
  509SOL    HW2 2427   4.853   1.725   1.170
  510SOL     OW 2428   0.158   4.274   4.518
  510SOL    HW1 2429   0.088   4.267   4.447
  510SOL    HW2 2430   0.178   4.183   4.553
  511SOL     OW 2431   0.325   7.013   0.680
  511SOL    HW1 2432   0.231   7.020   0.648
  511SOL    HW2 2433   0.376   6.950   0.620
  512SOL     OW 2434   0.555   3.578   6.137
  512SOL    HW1 2435   0.639   3.629   6.121
  512SOL    HW2 2436   0.560   3.533   6.226
  513SOL     OW 2437   6.326   6.130   4.920
  513SOL    HW1 2438   6.386   6.067   4.870
  513SOL    HW2 2439   6.343   6.224   4.889
  514SOL     OW 2440   5.703   1.761   4.130
  514SOL    HW1 2441   5.670   1.853   4.110
  514SOL    HW2 2442   5.677   1.699   4.056
  515SOL     OW 2443   2.148   6.116   6.616
  515SOL    HW1 2444   2.194   6.082   6.699
  515SOL    HW2 2445   2.056   6.145   6.639
  516SOL     OW 2446   2.026   5.051   1.796
  516SOL    HW1 2447   2.071   4.962   1.802
  516SOL    HW2 2448   2.003   5.071   1.700
  517SOL     OW 2449   4.775   6.940   0.726
  517SOL    HW1 2450   4.692   6.972   0.679
  517SOL    HW2 2451   4.845   7.012   0.721
  518SOL     OW 2452   2.599   2.549   1.175
  518SOL    HW1 2453   2.625   2.578   1.267
  518SOL    HW2 2454   2.500   2.562   1.162
  519SOL     OW 2455   0.808   6.570   0.027
  519SOL    HW1 2456   0.859   6.487   0.007
  519SOL    HW2 2457   0.830   6.602   0.119
  520SOL     OW 2458   5.467   4.478   5.384
  520SOL    HW1 2459   5.535   4.475   5.458
  520SOL    HW2 2460   5.404   4.401   5.395
  521SOL     OW 2461   6.596   1.399   0.707
  521SOL    HW1 2462   6.657   1.411   0.785
  521SOL    HW2 2463   6.626   1.321   0.652
  522SOL     OW 2464   3.932   3.510   4.458
  522SOL    HW1 2465   3.839   3.493   4.488
  522SOL    HW2 2466   3.962   3.437   4.396
  523SOL     OW 2467   6.828   0.003   4.941
  523SOL    HW1 2468   6.795   0.084   4.892
  523SOL    HW2 2469   6.926   0.011   4.956
  524SOL     OW 2470   2.885   0.405   5.467
  524SOL    HW1 2471   2.892   0.356   5.380
  524SOL    HW2 2472   2.870   0.502   5.450
  525SOL     OW 2473   2.527   3.505   0.046
  525SOL    HW1 2474   2.492   3.415   0.020
  525SOL    HW2 2475   2.595   3.535   7.002
  526SOL     OW 2476   3.372   5.788   4.713
  526SOL    HW1 2477   3.383   5.715   4.645
  526SOL    HW2 2478   3.426   5.765   4.794
  527SOL     OW 2479   0.452   1.059   6.552
  527SOL    HW1 2480   0.549   1.034   6.548
  527SOL    HW2 2481   0.441   1.142   6.606
  528SOL     OW 2482   2.606   0.721   5.386
  528SOL    HW1 2483   2.700   0.687   5.391
  528SOL    HW2 2484   2.606   0.821   5.392
  529SOL     OW 2485   0.024   5.037   3.712
  529SOL    HW1 2486   0.000   4.968   3.780
  529SOL    HW2 2487   0.117   5.021   3.679
  530SOL     OW 2488   2.268   3.122   5.321
  530SOL    HW1 2489   2.189   3.108   5.262
  530SOL    HW2 2490   2.352   3.101   5.270
  531SOL     OW 2491   0.302   0.497   1.176
  531SOL    HW1 2492   0.247   0.541   1.105
  531SOL    HW2 2493   0.339   0.411   1.141
  532SOL     OW 2494   1.631   1.003   5.403
  532SOL    HW1 2495   1.615   1.075   5.470
  532SOL    HW2 2496   1.577   0.922   5.427
  533SOL     OW 2497   5.637   0.266   4.401
  533SOL    HW1 2498   5.724   0.276   4.352
  533SOL    HW2 2499   5.587   0.353   4.398
  534SOL     OW 2500   4.196   5.431   2.217
  534SOL    HW1 2501   4.197   5.343   2.171
  534SOL    HW2 2502   4.232   5.502   2.156
  535SOL     OW 2503   0.113   3.464   3.451
  535SOL    HW1 2504   0.032   3.443   3.397
  535SOL    HW2 2505   0.118   3.401   3.529
  536SOL     OW 2506   1.226   5.502   1.226
  536SOL    HW1 2507   1.231   5.450   1.140
  536SOL    HW2 2508   1.171   5.452   1.292
  537SOL     OW 2509   2.355   6.991   2.756
  537SOL    HW1 2510   2.338   0.063   2.731
  537SOL    HW2 2511   2.353   6.981   2.855
  538SOL     OW 2512   0.979   5.885   3.557
  538SOL    HW1 2513   0.931   5.869   3.470
  538SOL    HW2 2514   1.010   5.980   3.562
  539SOL     OW 2515   1.763   4.658   1.953
  539SOL    HW1 2516   1.802   4.688   1.866
  539SOL    HW2 2517   1.675   4.704   1.967
  540SOL     OW 2518   0.824   2.120   2.293
  540SOL    HW1 2519   0.744   2.174   2.319
  540SOL    HW2 2520   0.872   2.089   2.375
  541SOL     OW 2521   3.271   5.615   5.719
  541SOL    HW1 2522   3.334   5.692   5.724
  541SOL    HW2 2523   3.274   5.575   5.627
  542SOL     OW 2524   6.102   5.336   6.564
  542SOL    HW1 2525   6.113   5.433   6.542
  542SOL    HW2 2526   6.010   5.306   6.541
  543SOL     OW 2527   0.557   5.630   0.060
  543SOL    HW1 2528   0.573   5.583   0.147
  543SOL    HW2 2529   0.608   5.716   0.058
  544SOL     OW 2530   1.415   5.140   0.884
  544SOL    HW1 2531   1.409   5.198   0.965
  544SOL    HW2 2532   1.339   5.159   0.823
  545SOL     OW 2533   4.045   1.849   3.381
  545SOL    HW1 2534   4.115   1.837   3.311
  545SOL    HW2 2535   3.997   1.935   3.366
  546SOL     OW 2536   1.139   3.825   0.122
  546SOL    HW1 2537   1.201   3.778   0.059
  546SOL    HW2 2538   1.044   3.806   0.096
  547SOL     OW 2539   2.904   2.914   0.231
  547SOL    HW1 2540   2.820   2.873   0.195
  547SOL    HW2 2541   2.913   3.008   0.197
  548SOL     OW 2542   3.752   2.905   3.620
  548SOL    HW1 2543   3.701   2.959   3.552
  548SOL    HW2 2544   3.754   2.809   3.592
  549SOL     OW 2545   6.640   3.384   1.381
  549SOL    HW1 2546   6.558   3.422   1.423
  549SOL    HW2 2547   6.626   3.374   1.283
  550SOL     OW 2548   0.578   4.310   1.864
  550SOL    HW1 2549   0.652   4.246   1.885
  550SOL    HW2 2550   0.494   4.259   1.845
  551SOL     OW 2551   6.747   2.381   0.204
  551SOL    HW1 2552   6.756   2.284   0.225
  551SOL    HW2 2553   6.695   2.393   0.119
  552SOL     OW 2554   4.148   6.075   0.203
  552SOL    HW1 2555   4.160   6.041   0.296
  552SOL    HW2 2556   4.222   6.041   0.145
  553SOL     OW 2557   1.802   1.906   1.786
  553SOL    HW1 2558   1.790   1.842   1.710
  553SOL    HW2 2559   1.866   1.978   1.759
  554SOL     OW 2560   5.473   5.911   5.428
  554SOL    HW1 2561   5.491   5.937   5.334
  554SOL    HW2 2562   5.497   5.987   5.489
  555SOL     OW 2563   1.399   4.309   4.725
  555SOL    HW1 2564   1.348   4.282   4.643
  555SOL    HW2 2565   1.454   4.390   4.706
  556SOL     OW 2566   4.896   3.382   3.853
  556SOL    HW1 2567   4.858   3.290   3.849
  556SOL    HW2 2568   4.944   3.395   3.940
  557SOL     OW 2569   0.022   6.412   6.204
  557SOL    HW1 2570   6.946   6.417   6.210
  557SOL    HW2 2571   0.063   6.489   6.253
  558SOL     OW 2572   3.849   4.006   5.197
  558SOL    HW1 2573   3.908   4.086   5.209
  558SOL    HW2 2574   3.786   3.999   5.275
  559SOL     OW 2575   6.424   5.787   6.351
  559SOL    HW1 2576   6.391   5.857   6.414
  559SOL    HW2 2577   6.470   5.714   6.402
  560SOL     OW 2578   4.050   6.427   0.261
  560SOL    HW1 2579   4.108   6.389   0.188
  560SOL    HW2 2580   4.041   6.526   0.249
  561SOL     OW 2581   5.660   6.418   1.122
  561SOL    HW1 2582   5.583   6.404   1.060
  561SOL    HW2 2583   5.635   6.485   1.192
  562SOL     OW 2584   6.160   1.787   5.962
  562SOL    HW1 2585   6.182   1.802   6.058
  562SOL    HW2 2586   6.235   1.819   5.905
  563SOL     OW 2587   3.268   6.125   3.837
  563SOL    HW1 2588   3.172   6.126   3.810
  563SOL    HW2 2589   3.296   6.031   3.858
  564SOL     OW 2590   1.054   1.089   6.247
  564SOL    HW1 2591   1.064   1.166   6.309
  564SOL    HW2 2592   1.049   1.004   6.299
  565SOL     OW 2593   4.880   3.984   4.878
  565SOL    HW1 2594   4.819   4.058   4.849
  565SOL    HW2 2595   4.970   4.022   4.900
  566SOL     OW 2596   5.220   5.013   3.023
  566SOL    HW1 2597   5.268   5.079   2.965
  566SOL    HW2 2598   5.130   5.050   3.047
  567SOL     OW 2599   3.729   2.937   4.562
  567SOL    HW1 2600   3.663   2.912   4.491
  567SOL    HW2 2601   3.709   2.886   4.645
  568SOL     OW 2602   2.042   1.658   0.025
  568SOL    HW1 2603   2.080   1.599   0.097
  568SOL    HW2 2604   2.005   1.741   0.067
  569SOL     OW 2605   2.608   2.979   0.170
  569SOL    HW1 2606   2.655   3.045   0.112
  569SOL    HW2 2607   2.510   2.998   0.170
  570SOL     OW 2608   6.571   6.190   1.093
  570SOL    HW1 2609   6.567   6.103   1.043
  570SOL    HW2 2610   6.489   6.198   1.151
  571SOL     OW 2611   4.142   5.371   3.289
  571SOL    HW1 2612   4.131   5.419   3.376
  571SOL    HW2 2613   4.235   5.333   3.283
  572SOL     OW 2614   1.691   3.748   5.008
  572SOL    HW1 2615   1.714   3.699   5.092
  572SOL    HW2 2616   1.608   3.708   4.968
  573SOL     OW 2617   3.824   1.864   6.214
  573SOL    HW1 2618   3.752   1.898   6.154
  573SOL    HW2 2619   3.818   1.909   6.303
  574SOL     OW 2620   2.399   1.681   4.076
  574SOL    HW1 2621   2.377   1.634   4.162
  574SOL    HW2 2622   2.368   1.625   3.999
  575SOL     OW 2623   5.589   2.422   6.752
  575SOL    HW1 2624   5.580   2.514   6.792
  575SOL    HW2 2625   5.524   2.411   6.677
  576SOL     OW 2626   0.354   2.130   2.705
  576SOL    HW1 2627   0.279   2.136   2.639
  576SOL    HW2 2628   0.331   2.061   2.774
  577SOL     OW 2629   2.941   1.961   3.534
  577SOL    HW1 2630   2.918   2.057   3.549
  577SOL    HW2 2631   3.004   1.953   3.457
  578SOL     OW 2632   0.120   3.551   4.099
  578SOL    HW1 2633   0.197   3.607   4.128
  578SOL    HW2 2634   0.036   3.604   4.105
  579SOL     OW 2635   4.447   3.315   0.015
  579SOL    HW1 2636   4.502   3.361   6.969
  579SOL    HW2 2637   4.484   3.334   0.106
  580SOL     OW 2638   0.630   5.852   0.235
  580SOL    HW1 2639   0.579   5.835   0.319
  580SOL    HW2 2640   0.715   5.901   0.256
  581SOL     OW 2641   3.667   3.700   2.715
  581SOL    HW1 2642   3.640   3.740   2.628
  581SOL    HW2 2643   3.698   3.606   2.700
  582SOL     OW 2644   6.136   3.599   1.981
  582SOL    HW1 2645   6.045   3.622   1.947
  582SOL    HW2 2646   6.192   3.681   1.985
  583SOL     OW 2647   1.714   4.987   6.818
  583SOL    HW1 2648   1.618   4.993   6.791
  583SOL    HW2 2649   1.737   5.064   6.878
  584SOL     OW 2650   0.239   5.442   4.194
  584SOL    HW1 2651   0.320   5.407   4.240
  584SOL    HW2 2652   0.262   5.528   4.148
  585SOL     OW 2653   0.143   1.466   6.474
  585SOL    HW1 2654   0.076   1.394   6.454
  585SOL    HW2 2655   0.114   1.516   6.555
  586SOL     OW 2656   2.865   6.105   0.474
  586SOL    HW1 2657   2.798   6.173   0.505
  586SOL    HW2 2658   2.955   6.127   0.512
  587SOL     OW 2659   1.158   3.057   5.129
  587SOL    HW1 2660   1.091   3.116   5.083
  587SOL    HW2 2661   1.194   3.104   5.210
  588SOL     OW 2662   3.111   0.037   1.338
  588SOL    HW1 2663   3.151   0.124   1.311
  588SOL    HW2 2664   3.030   0.053   1.394
  589SOL     OW 2665   4.748   5.095   2.293
  589SOL    HW1 2666   4.776   5.035   2.368
  589SOL    HW2 2667   4.715   5.182   2.330
  590SOL     OW 2668   6.871   2.440   1.835
  590SOL    HW1 2669   6.841   2.487   1.919
  590SOL    HW2 2670   6.970   2.429   1.837
  591SOL     OW 2671   3.483   6.999   2.866
  591SOL    HW1 2672   3.550   0.047   2.888
  591SOL    HW2 2673   3.527   6.926   2.814
  592SOL     OW 2674   5.269   0.895   6.877
  592SOL    HW1 2675   5.176   0.932   6.872
  592SOL    HW2 2676   5.330   0.953   6.824
  593SOL     OW 2677   5.626   1.655   3.897
  593SOL    HW1 2678   5.540   1.699   3.875
  593SOL    HW2 2679   5.686   1.655   3.817
  594SOL     OW 2680   4.963   2.669   1.479
  594SOL    HW1 2681   4.949   2.691   1.576
  594SOL    HW2 2682   4.958   2.753   1.424
  595SOL     OW 2683   3.468   6.308   3.842
  595SOL    HW1 2684   3.425   6.218   3.844
  595SOL    HW2 2685   3.505   6.326   3.751
  596SOL     OW 2686   1.221   4.708   2.915
  596SOL    HW1 2687   1.171   4.783   2.959
  596SOL    HW2 2688   1.273   4.744   2.837
  597SOL     OW 2689   4.043   1.927   5.537
  597SOL    HW1 2690   4.041   1.865   5.616
  597SOL    HW2 2691   3.959   1.980   5.534
  598SOL     OW 2692   3.234   4.076   1.006
  598SOL    HW1 2693   3.186   4.124   0.933
  598SOL    HW2 2694   3.167   4.034   1.068
  599SOL     OW 2695   6.499   6.294   2.679
  599SOL    HW1 2696   6.555   6.239   2.742
  599SOL    HW2 2697   6.554   6.369   2.643
  600SOL     OW 2698   2.341   0.507   0.585
  600SOL    HW1 2699   2.415   0.455   0.542
  600SOL    HW2 2700   2.367   0.604   0.590
  601SOL     OW 2701   2.634   4.990   2.806
  601SOL    HW1 2702   2.574   5.053   2.856
  601SOL    HW2 2703   2.728   5.023   2.810
  602SOL     OW 2704   1.260   0.892   1.355
  602SOL    HW1 2705   1.329   0.913   1.425
  602SOL    HW2 2706   1.293   0.921   1.265
  603SOL     OW 2707   3.951   2.204   3.612
  603SOL    HW1 2708   3.880   2.235   3.676
  603SOL    HW2 2709   3.922   2.224   3.518
  604SOL     OW 2710   0.502   4.360   5.821
  604SOL    HW1 2711   0.580   4.415   5.791
  604SOL    HW2 2712   0.433   4.359   5.749
  605SOL     OW 2713   5.732   0.628   4.671
  605SOL    HW1 2714   5.761   0.636   4.575
  605SOL    HW2 2715   5.786   0.556   4.716
  606SOL     OW 2716   3.748   0.136   2.965
  606SOL    HW1 2717   3.809   0.073   3.012
  606SOL    HW2 2718   3.748   0.224   3.013
  607SOL     OW 2719   4.915   0.902   4.002
  607SOL    HW1 2720   4.902   0.997   4.029
  607SOL    HW2 2721   4.832   0.869   3.957
  608SOL     OW 2722   4.967   1.591   1.277
  608SOL    HW1 2723   4.926   1.537   1.204
  608SOL    HW2 2724   4.912   1.583   1.360
  609SOL     OW 2725   3.050   3.619   4.593
  609SOL    HW1 2726   3.018   3.551   4.527
  609SOL    HW2 2727   2.996   3.613   4.676
  610SOL     OW 2728   5.281   2.237   4.764
  610SOL    HW1 2729   5.281   2.160   4.700
  610SOL    HW2 2730   5.221   2.309   4.730
  611SOL     OW 2731   0.017   0.384   1.171
  611SOL    HW1 2732   6.955   0.418   1.212
  611SOL    HW2 2733   0.086   0.371   1.242
  612SOL     OW 2734   3.454   5.583   5.379
  612SOL    HW1 2735   3.362   5.564   5.345
  612SOL    HW2 2736   3.460   5.679   5.408
  613SOL     OW 2737   3.658   2.386   6.543
  613SOL    HW1 2738   3.563   2.355   6.544
  613SOL    HW2 2739   3.662   2.482   6.569
  614SOL     OW 2740   4.979   4.369   1.070
  614SOL    HW1 2741   5.040   4.421   1.011
  614SOL    HW2 2742   4.923   4.308   1.014
  615SOL     OW 2743   5.902   6.311   1.329
  615SOL    HW1 2744   5.822   6.251   1.321
  615SOL    HW2 2745   5.946   6.319   1.240
  616SOL     OW 2746   5.943   0.941   4.896
  616SOL    HW1 2747   5.939   0.985   4.806
  616SOL    HW2 2748   6.009   0.989   4.954
  617SOL     OW 2749   0.213   5.332   5.758
  617SOL    HW1 2750   0.238   5.423   5.791
  617SOL    HW2 2751   0.228   5.265   5.831
  618SOL     OW 2752   6.526   3.840   0.665
  618SOL    HW1 2753   6.582   3.759   0.650
  618SOL    HW2 2754   6.455   3.819   0.732
  619SOL     OW 2755   2.892   0.273   6.190
  619SOL    HW1 2756   2.890   0.175   6.171
  619SOL    HW2 2757   2.817   0.318   6.141
  620SOL     OW 2758   6.076   1.698   2.378
  620SOL    HW1 2759   6.037   1.733   2.293
  620SOL    HW2 2760   6.155   1.753   2.404
  621SOL     OW 2761   3.068   0.850   6.789
  621SOL    HW1 2762   3.047   0.940   6.827
  621SOL    HW2 2763   2.990   0.818   6.734
  622SOL     OW 2764   1.173   2.132   4.927
  622SOL    HW1 2765   1.091   2.083   4.955
  622SOL    HW2 2766   1.152   2.191   4.849
  623SOL     OW 2767   5.920   0.426   3.986
  623SOL    HW1 2768   5.982   0.500   4.009
  623SOL    HW2 2769   5.940   0.393   3.893
  624SOL     OW 2770   6.682   0.362   6.625
  624SOL    HW1 2771   6.721   0.444   6.667
  624SOL    HW2 2772   6.596   0.387   6.580
  625SOL     OW 2773   2.629   1.776   0.552
  625SOL    HW1 2774   2.590   1.771   0.644
  625SOL    HW2 2775   2.668   1.867   0.537
  626SOL     OW 2776   6.890   5.927   4.063
  626SOL    HW1 2777   6.910   5.927   3.965
  626SOL    HW2 2778   6.974   5.940   4.114
  627SOL     OW 2779   6.312   0.751   0.107
  627SOL    HW1 2780   6.229   0.717   0.063
  627SOL    HW2 2781   6.294   0.842   0.146
  628SOL     OW 2782   4.218   4.822   5.893
  628SOL    HW1 2783   4.207   4.753   5.964
  628SOL    HW2 2784   4.315   4.839   5.877
  629SOL     OW 2785   1.253   7.008   6.795
  629SOL    HW1 2786   1.225   6.995   6.700
  629SOL    HW2 2787   1.203   6.945   6.854
  630SOL     OW 2788   6.352   1.192   1.458
  630SOL    HW1 2789   6.254   1.173   1.457
  630SOL    HW2 2790   6.395   1.151   1.378
  631SOL     OW 2791   1.725   2.583   4.086
  631SOL    HW1 2792   1.711   2.677   4.052
  631SOL    HW2 2793   1.682   2.519   4.023
  632SOL     OW 2794   3.263   3.711   6.777
  632SOL    HW1 2795   3.299   3.619   6.759
  632SOL    HW2 2796   3.272   3.767   6.694
  633SOL     OW 2797   1.560   5.958   1.171
  633SOL    HW1 2798   1.579   5.915   1.083
  633SOL    HW2 2799   1.469   5.931   1.202
  634SOL     OW 2800   2.887   3.391   4.728
  634SOL    HW1 2801   2.904   3.356   4.820
  634SOL    HW2 2802   2.814   3.459   4.732
  635SOL     OW 2803   5.637   0.300   6.635
  635SOL    HW1 2804   5.688   0.221   6.669
  635SOL    HW2 2805   5.582   0.272   6.556
  636SOL     OW 2806   2.653   0.409   5.644
  636SOL    HW1 2807   2.725   0.372   5.585
  636SOL    HW2 2808   2.692   0.439   5.731
  637SOL     OW 2809   6.735   0.420   2.907
  637SOL    HW1 2810   6.834   0.435   2.899
  637SOL    HW2 2811   6.699   0.386   2.821
  638SOL     OW 2812   0.006   3.508   4.804
  638SOL    HW1 2813   7.007   3.574   4.732
  638SOL    HW2 2814   0.105   3.499   4.812
  639SOL     OW 2815   5.693   4.226   2.222
  639SOL    HW1 2816   5.706   4.325   2.232
  639SOL    HW2 2817   5.609   4.198   2.268
  640SOL     OW 2818   0.406   2.542   2.137
  640SOL    HW1 2819   0.438   2.553   2.043
  640SOL    HW2 2820   0.321   2.488   2.137
  641SOL     OW 2821   2.420   4.895   4.403
  641SOL    HW1 2822   2.504   4.856   4.364
  641SOL    HW2 2823   2.442   4.946   4.486
  642SOL     OW 2824   1.037   3.990   4.872
  642SOL    HW1 2825   0.979   3.997   4.953
  642SOL    HW2 2826   1.053   4.081   4.834
  643SOL     OW 2827   4.962   5.328   0.776
  643SOL    HW1 2828   5.032   5.292   0.715
  643SOL    HW2 2829   4.878   5.342   0.725
  644SOL     OW 2830   6.922   6.962   5.495
  644SOL    HW1 2831   6.875   6.893   5.551
  644SOL    HW2 2832   6.855   7.011   5.441
  645SOL     OW 2833   3.889   5.328   1.954
  645SOL    HW1 2834   3.918   5.419   1.983
  645SOL    HW2 2835   3.959   5.288   1.896
  646SOL     OW 2836   3.757   2.130   4.451
  646SOL    HW1 2837   3.773   2.063   4.524
  646SOL    HW2 2838   3.661   2.157   4.452
  647SOL     OW 2839   3.919   2.618   5.886
  647SOL    HW1 2840   3.894   2.612   5.789
  647SOL    HW2 2841   4.015   2.643   5.894
  648SOL     OW 2842   6.170   1.397   2.698
  648SOL    HW1 2843   6.167   1.317   2.639
  648SOL    HW2 2844   6.187   1.369   2.793
  649SOL     OW 2845   2.302   5.440   1.100
  649SOL    HW1 2846   2.284   5.347   1.132
  649SOL    HW2 2847   2.388   5.473   1.139
  650SOL     OW 2848   0.267   3.961   0.786
  650SOL    HW1 2849   0.214   3.934   0.705
  650SOL    HW2 2850   0.264   3.886   0.853
  651SOL     OW 2851   1.175   0.567   4.458
  651SOL    HW1 2852   1.247   0.507   4.494
  651SOL    HW2 2853   1.113   0.514   4.401
  652SOL     OW 2854   3.800   6.417   1.941
  652SOL    HW1 2855   3.809   6.386   2.035
  652SOL    HW2 2856   3.885   6.459   1.911
  653SOL     OW 2857   1.148   0.194   2.156
  653SOL    HW1 2858   1.071   0.212   2.095
  653SOL    HW2 2859   1.133   0.108   2.206
  654SOL     OW 2860   0.663   6.858   5.187
  654SOL    HW1 2861   0.625   6.866   5.095
  654SOL    HW2 2862   0.595   6.888   5.254
  655SOL     OW 2863   0.336   4.188   1.829
  655SOL    HW1 2864   0.348   4.090   1.846
  655SOL    HW2 2865   0.281   4.200   1.747
  656SOL     OW 2866   3.636   6.481   0.293
  656SOL    HW1 2867   3.632   6.560   0.232
  656SOL    HW2 2868   3.688   6.408   0.249
  657SOL     OW 2869   3.651   3.411   3.015
  657SOL    HW1 2870   3.558   3.376   3.022
  657SOL    HW2 2871   3.715   3.345   3.055
  658SOL     OW 2872   1.809   1.303   4.920
  658SOL    HW1 2873   1.764   1.315   4.832
  658SOL    HW2 2874   1.761   1.357   4.990
  659SOL     OW 2875   1.582   5.848   6.196
  659SOL    HW1 2876   1.584   5.897   6.282
  659SOL    HW2 2877   1.515   5.774   6.201
  660SOL     OW 2878   4.695   4.699   3.055
  660SOL    HW1 2879   4.667   4.696   2.959
  660SOL    HW2 2880   4.638   4.765   3.104
  661SOL     OW 2881   4.771   4.285   4.493
  661SOL    HW1 2882   4.709   4.360   4.469
  661SOL    HW2 2883   4.866   4.318   4.488
  662SOL     OW 2884   5.148   3.338   6.576
  662SOL    HW1 2885   5.101   3.316   6.661
  662SOL    HW2 2886   5.140   3.261   6.512
  663SOL     OW 2887   6.837   4.235   6.955
  663SOL    HW1 2888   6.882   4.230   0.022
  663SOL    HW2 2889   6.748   4.279   6.965
  664SOL     OW 2890   1.691   0.002   6.534
  664SOL    HW1 2891   1.711   6.937   6.577
  664SOL    HW2 2892   1.771   0.034   6.484
  665SOL     OW 2893   3.206   4.887   1.546
  665SOL    HW1 2894   3.256   4.970   1.573
  665SOL    HW2 2895   3.261   4.807   1.569
  666SOL     OW 2896   2.814   0.629   0.639
  666SOL    HW1 2897   2.771   0.609   0.552
  666SOL    HW2 2898   2.867   0.549   0.670
  667SOL     OW 2899   1.141   3.590   3.114
  667SOL    HW1 2900   1.215   3.558   3.054
  667SOL    HW2 2901   1.180   3.635   3.194
  668SOL     OW 2902   5.282   6.968   0.651
  668SOL    HW1 2903   5.188   6.963   0.617
  668SOL    HW2 2904   5.298   6.893   0.715
  669SOL     OW 2905   1.786   6.249   2.665
  669SOL    HW1 2906   1.794   6.150   2.669
  669SOL    HW2 2907   1.810   6.288   2.754
  670SOL     OW 2908   3.287   2.980   3.209
  670SOL    HW1 2909   3.337   3.049   3.262
  670SOL    HW2 2910   3.345   2.900   3.195
  671SOL     OW 2911   1.181   0.024   6.527
  671SOL    HW1 2912   1.126   7.007   6.454
  671SOL    HW2 2913   1.234   0.101   6.491
  672SOL     OW 2914   2.312   1.870   3.700
  672SOL    HW1 2915   2.224   1.916   3.715
  672SOL    HW2 2916   2.319   1.792   3.762
  673SOL     OW 2917   5.489   6.387   0.429
  673SOL    HW1 2918   5.466   6.376   0.525
  673SOL    HW2 2919   5.570   6.445   0.421
  674SOL     OW 2920   6.743   1.977   3.512
  674SOL    HW1 2921   6.781   1.963   3.603
  674SOL    HW2 2922   6.814   1.962   3.443
  675SOL     OW 2923   6.015   1.110   4.637
  675SOL    HW1 2924   6.111   1.133   4.656
  675SOL    HW2 2925   6.005   1.087   4.540
  676SOL     OW 2926   2.060   4.605   4.410
  676SOL    HW1 2927   1.964   4.624   4.426
  676SOL    HW2 2928   2.073   4.507   4.393
  677SOL     OW 2929   5.059   6.741   1.134
  677SOL    HW1 2930   5.088   6.825   1.181
  677SOL    HW2 2931   5.036   6.672   1.202
  678SOL     OW 2932   2.299   1.107   5.923
  678SOL    HW1 2933   2.209   1.064   5.924
  678SOL    HW2 2934   2.289   1.206   5.917
  679SOL     OW 2935   5.978   6.596   2.411
  679SOL    HW1 2936   6.037   6.521   2.443
  679SOL    HW2 2937   6.011   6.630   2.324
  680SOL     OW 2938   5.299   3.982   5.083
  680SOL    HW1 2939   5.376   4.026   5.129
  680SOL    HW2 2940   5.328   3.946   4.995
  681SOL     OW 2941   1.718   6.813   1.909
  681SOL    HW1 2942   1.646   6.875   1.939
  681SOL    HW2 2943   1.783   6.862   1.852
  682SOL     OW 2944   1.030   6.663   6.638
  682SOL    HW1 2945   1.087   6.623   6.710
  682SOL    HW2 2946   0.958   6.718   6.679
  683SOL     OW 2947   5.355   1.767   0.185
  683SOL    HW1 2948   5.347   1.789   0.282
  683SOL    HW2 2949   5.437   1.711   0.170
  684SOL     OW 2950   6.994   6.016   6.590
  684SOL    HW1 2951   6.917   6.061   6.544
  684SOL    HW2 2952   6.966   5.989   6.683
  685SOL     OW 2953   5.628   1.134   6.022
  685SOL    HW1 2954   5.619   1.231   6.046
  685SOL    HW2 2955   5.655   1.127   5.926
  686SOL     OW 2956   5.617   4.778   3.258
  686SOL    HW1 2957   5.573   4.704   3.310
  686SOL    HW2 2958   5.554   4.812   3.188
  687SOL     OW 2959   5.744   2.211   5.061
  687SOL    HW1 2960   5.657   2.198   5.013
  687SOL    HW2 2961   5.772   2.307   5.054
  688SOL     OW 2962   0.713   3.407   4.731
  688SOL    HW1 2963   0.721   3.499   4.692
  688SOL    HW2 2964   0.616   3.381   4.736
  689SOL     OW 2965   6.050   4.485   5.621
  689SOL    HW1 2966   6.125   4.420   5.610
  689SOL    HW2 2967   6.040   4.509   5.717
  690SOL     OW 2968   0.445   3.111   3.749
  690SOL    HW1 2969   0.431   3.072   3.839
  690SOL    HW2 2970   0.377   3.075   3.685
  691SOL     OW 2971   0.497   3.185   6.868
  691SOL    HW1 2972   0.567   3.136   6.919
  691SOL    HW2 2973   0.416   3.197   6.925
  692SOL     OW 2974   1.745   0.206   3.379
  692SOL    HW1 2975   1.747   0.159   3.468
  692SOL    HW2 2976   1.833   0.250   3.363
  693SOL     OW 2977   6.571   0.870   2.350
  693SOL    HW1 2978   6.598   0.966   2.338
  693SOL    HW2 2979   6.648   0.817   2.383
  694SOL     OW 2980   1.350   0.406   2.279
  694SOL    HW1 2981   1.276   0.404   2.346
  694SOL    HW2 2982   1.397   0.318   2.278
  695SOL     OW 2983   4.133   5.370   5.944
  695SOL    HW1 2984   4.057   5.334   5.998
  695SOL    HW2 2985   4.097   5.427   5.870
  696SOL     OW 2986   4.607   5.575   2.351
  696SOL    HW1 2987   4.685   5.570   2.289
  696SOL    HW2 2988   4.559   5.487   2.352
  697SOL     OW 2989   1.642   3.795   4.090
  697SOL    HW1 2990   1.619   3.803   4.187
  697SOL    HW2 2991   1.577   3.849   4.037
  698SOL     OW 2992   3.749   6.747   3.646
  698SOL    HW1 2993   3.802   6.662   3.651
  698SOL    HW2 2994   3.653   6.726   3.628
  699SOL     OW 2995   1.777   4.619   0.167
  699SOL    HW1 2996   1.823   4.649   0.083
  699SOL    HW2 2997   1.809   4.675   0.244
  700SOL     OW 2998   2.246   1.222   3.867
  700SOL    HW1 2999   2.161   1.169   3.872
  700SOL    HW2 3000   2.266   1.244   3.771
  701SOL     OW 3001   0.795   4.597   5.974
  701SOL    HW1 3002   0.848   4.516   6.003
  701SOL    HW2 3003   0.755   4.641   6.054
  702SOL     OW 3004   5.376   5.545   4.788
  702SOL    HW1 3005   5.330   5.574   4.704
  702SOL    HW2 3006   5.474   5.559   4.779
  703SOL     OW 3007   4.322   3.911   0.144
  703SOL    HW1 3008   4.361   3.985   0.089
  703SOL    HW2 3009   4.326   3.936   0.240
  704SOL     OW 3010   2.429   0.224   0.937
  704SOL    HW1 3011   2.525   0.216   0.911
  704SOL    HW2 3012   2.403   0.145   0.993
  705SOL     OW 3013   6.061   2.363   3.456
  705SOL    HW1 3014   6.062   2.336   3.552
  705SOL    HW2 3015   5.988   2.429   3.441
  706SOL     OW 3016   4.529   2.066   4.046
  706SOL    HW1 3017   4.607   2.092   4.101
  706SOL    HW2 3018   4.518   2.130   3.970
  707SOL     OW 3019   5.074   1.862   1.471
  707SOL    HW1 3020   5.110   1.845   1.380
  707SOL    HW2 3021   4.983   1.820   1.479
  708SOL     OW 3022   4.012   0.754   1.733
  708SOL    HW1 3023   3.963   0.731   1.818
  708SOL    HW2 3024   3.946   0.763   1.658
  709SOL     OW 3025   1.028   5.223   6.723
  709SOL    HW1 3026   1.104   5.180   6.674
  709SOL    HW2 3027   1.062   5.301   6.776
  710SOL     OW 3028   3.045   3.748   2.451
  710SOL    HW1 3029   3.076   3.830   2.402
  710SOL    HW2 3030   3.085   3.748   2.543
  711SOL     OW 3031   0.830   0.266   4.051
  711SOL    HW1 3032   0.877   0.351   4.077
  711SOL    HW2 3033   0.846   0.247   3.954
  712SOL     OW 3034   1.572   4.107   1.760
  712SOL    HW1 3035   1.615   4.086   1.847
  712SOL    HW2 3036   1.639   4.152   1.700
  713SOL     OW 3037   4.128   3.377   3.352
  713SOL    HW1 3038   4.102   3.309   3.420
  713SOL    HW2 3039   4.147   3.332   3.265
  714SOL     OW 3040   4.821   5.211   5.408
  714SOL    HW1 3041   4.727   5.179   5.418
  714SOL    HW2 3042   4.845   5.215   5.311
  715SOL     OW 3043   4.346   0.702   6.159
  715SOL    HW1 3044   4.355   0.794   6.197
  715SOL    HW2 3045   4.437   0.664   6.142
  716SOL     OW 3046   6.747   4.973   2.042
  716SOL    HW1 3047   6.686   4.932   2.109
  716SOL    HW2 3048   6.828   5.009   2.087
  717SOL     OW 3049   6.057   2.889   0.349
  717SOL    HW1 3050   6.080   2.973   0.302
  717SOL    HW2 3051   6.095   2.811   0.299
  718SOL     OW 3052   3.368   3.588   6.218
  718SOL    HW1 3053   3.441   3.606   6.285
  718SOL    HW2 3054   3.293   3.540   6.263
  719SOL     OW 3055   5.240   4.839   0.047
  719SOL    HW1 3056   5.147   4.822   0.079
  719SOL    HW2 3057   5.289   4.895   0.114
  720SOL     OW 3058   2.240   0.218   6.283
  720SOL    HW1 3059   2.209   0.312   6.270
  720SOL    HW2 3060   2.177   0.170   6.345
  721SOL     OW 3061   1.429   6.692   5.863
  721SOL    HW1 3062   1.450   6.636   5.783
  721SOL    HW2 3063   1.496   6.765   5.871
  722SOL     OW 3064   4.901   0.236   6.030
  722SOL    HW1 3065   4.886   0.327   5.992
  722SOL    HW2 3066   4.890   0.168   5.958
  723SOL     OW 3067   1.523   3.183   2.552
  723SOL    HW1 3068   1.555   3.277   2.553
  723SOL    HW2 3069   1.601   3.121   2.539
  724SOL     OW 3070   7.016   0.818   4.538
  724SOL    HW1 3071   6.929   0.800   4.492
  724SOL    HW2 3072   0.068   0.809   4.473
  725SOL     OW 3073   2.353   5.022   0.556
  725SOL    HW1 3074   2.332   4.971   0.640
  725SOL    HW2 3075   2.430   4.977   0.509
  726SOL     OW 3076   4.210   0.115   6.327
  726SOL    HW1 3077   4.224   0.189   6.393
  726SOL    HW2 3078   4.292   0.104   6.271
  727SOL     OW 3079   2.807   4.891   4.100
  727SOL    HW1 3080   2.765   4.808   4.137
  727SOL    HW2 3081   2.748   4.929   4.029
  728SOL     OW 3082   6.735   3.549   4.916
  728SOL    HW1 3083   6.718   3.542   5.015
  728SOL    HW2 3084   6.827   3.515   4.896
  729SOL     OW 3085   2.692   0.160   0.896
  729SOL    HW1 3086   2.777   0.171   0.844
  729SOL    HW2 3087   2.708   0.095   0.970
  730SOL     OW 3088   6.276   6.997   4.837
  730SOL    HW1 3089   6.359   0.016   4.798
  730SOL    HW2 3090   6.263   0.009   4.930
  731SOL     OW 3091   5.908   3.472   3.468
  731SOL    HW1 3092   5.875   3.392   3.519
  731SOL    HW2 3093   6.008   3.468   3.462
  732SOL     OW 3094   6.878   2.825   2.566
  732SOL    HW1 3095   6.930   2.846   2.483
  732SOL    HW2 3096   6.937   2.777   2.631
  733SOL     OW 3097   4.476   4.456   3.568
  733SOL    HW1 3098   4.471   4.357   3.557
  733SOL    HW2 3099   4.517   4.496   3.486
  734SOL     OW 3100   6.904   4.757   1.113
  734SOL    HW1 3101   7.003   4.769   1.105
  734SOL    HW2 3102   6.884   4.664   1.144
  735SOL     OW 3103   1.198   4.725   6.340
  735SOL    HW1 3104   1.245   4.693   6.258
  735SOL    HW2 3105   1.137   4.800   6.316
  736SOL     OW 3106   5.949   1.403   2.971
  736SOL    HW1 3107   5.949   1.306   2.949
  736SOL    HW2 3108   6.008   1.419   3.050
  737SOL     OW 3109   5.667   3.452   0.443
  737SOL    HW1 3110   5.703   3.409   0.526
  737SOL    HW2 3111   5.714   3.539   0.427
  738SOL     OW 3112   0.352   4.457   3.714
  738SOL    HW1 3113   0.274   4.411   3.672
  738SOL    HW2 3114   0.401   4.392   3.772
  739SOL     OW 3115   4.882   5.873   6.833
  739SOL    HW1 3116   4.797   5.836   6.871
  739SOL    HW2 3117   4.867   5.968   6.806
  740SOL     OW 3118   5.899   6.505   1.028
  740SOL    HW1 3119   5.868   6.559   0.950
  740SOL    HW2 3120   5.821   6.476   1.083
  741SOL     OW 3121   2.498   1.234   3.157
  741SOL    HW1 3122   2.572   1.171   3.131
  741SOL    HW2 3123   2.433   1.242   3.082
  742SOL     OW 3124   1.039   0.688   3.080
  742SOL    HW1 3125   1.065   0.680   3.176
  742SOL    HW2 3126   1.098   0.630   3.024
  743SOL     OW 3127   1.967   4.109   4.298
  743SOL    HW1 3128   2.047   4.058   4.266
  743SOL    HW2 3129   1.890   4.091   4.237
  744SOL     OW 3130   0.705   6.027   1.239
  744SOL    HW1 3131   0.650   5.944   1.231
  744SOL    HW2 3132   0.710   6.056   1.334
  745SOL     OW 3133   1.373   6.148   2.571
  745SOL    HW1 3134   1.429   6.196   2.504
  745SOL    HW2 3135   1.390   6.187   2.662
  746SOL     OW 3136   2.062   0.424   4.473
  746SOL    HW1 3137   1.993   0.354   4.490
  746SOL    HW2 3138   2.145   0.401   4.524
  747SOL     OW 3139   5.615   4.517   2.300
  747SOL    HW1 3140   5.634   4.566   2.385
  747SOL    HW2 3141   5.517   4.502   2.291
  748SOL     OW 3142   4.171   3.065   1.530
  748SOL    HW1 3143   4.157   2.990   1.595
  748SOL    HW2 3144   4.098   3.133   1.541
  749SOL     OW 3145   7.003   1.881   5.278
  749SOL    HW1 3146   0.037   1.860   5.199
  749SOL    HW2 3147   6.973   1.796   5.321
  750SOL     OW 3148   2.134   4.073   0.590
  750SOL    HW1 3149   2.149   4.130   0.510
  750SOL    HW2 3150   2.202   4.096   0.660
  751SOL     OW 3151   4.864   0.823   0.523
  751SOL    HW1 3152   4.816   0.816   0.610
  751SOL    HW2 3153   4.899   0.916   0.512
  752SOL     OW 3154   5.134   1.853   1.867
  752SOL    HW1 3155   5.213   1.846   1.928
  752SOL    HW2 3156   5.078   1.771   1.875
  753SOL     OW 3157   1.999   2.534   3.323
  753SOL    HW1 3158   2.080   2.476   3.309
  753SOL    HW2 3159   1.930   2.482   3.373
  754SOL     OW 3160   4.982   5.419   6.919
  754SOL    HW1 3161   5.008   5.337   6.868
  754SOL    HW2 3162   4.965   5.494   6.856
  755SOL     OW 3163   0.359   6.595   1.175
  755SOL    HW1 3164   0.416   6.669   1.210
  755SOL    HW2 3165   0.395   6.563   1.087
  756SOL     OW 3166   3.975   0.417   3.616
  756SOL    HW1 3167   3.945   0.385   3.526
  756SOL    HW2 3168   3.912   0.488   3.649
  757SOL     OW 3169   0.489   0.253   4.034
  757SOL    HW1 3170   0.490   0.153   4.028
  757SOL    HW2 3171   0.396   0.286   4.017
  758SOL     OW 3172   4.345   2.532   1.174
  758SOL    HW1 3173   4.436   2.506   1.209
  758SOL    HW2 3174   4.277   2.515   1.245
  759SOL     OW 3175   1.579   1.384   0.326
  759SOL    HW1 3176   1.649   1.334   0.274
  759SOL    HW2 3177   1.622   1.460   0.375
  760SOL     OW 3178   4.675   1.493   6.145
  760SOL    HW1 3179   4.682   1.567   6.212
  760SOL    HW2 3180   4.683   1.530   6.053
  761SOL     OW 3181   6.592   2.869   6.767
  761SOL    HW1 3182   6.612   2.952   6.715
  761SOL    HW2 3183   6.598   2.789   6.707
  762SOL     OW 3184   2.414   5.815   3.359
  762SOL    HW1 3185   2.428   5.724   3.398
  762SOL    HW2 3186   2.444   5.884   3.425
  763SOL     OW 3187   5.474   5.474   6.500
  763SOL    HW1 3188   5.487   5.451   6.596
  763SOL    HW2 3189   5.432   5.397   6.452
  764SOL     OW 3190   4.430   0.827   2.123
  764SOL    HW1 3191   4.419   0.917   2.082
  764SOL    HW2 3192   4.343   0.779   2.124
  765SOL     OW 3193   0.416   6.913   3.296
  765SOL    HW1 3194   0.443   6.833   3.242
  765SOL    HW2 3195   0.320   6.935   3.275
  766SOL     OW 3196   0.115   6.672   0.121
  766SOL    HW1 3197   0.179   6.665   0.045
  766SOL    HW2 3198   0.026   6.701   0.088
  767SOL     OW 3199   5.816   7.015   2.128
  767SOL    HW1 3200   5.775   6.928   2.153
  767SOL    HW2 3201   5.815   0.053   2.208
  768SOL     OW 3202   3.207   6.236   3.369
  768SOL    HW1 3203   3.280   6.168   3.377
  768SOL    HW2 3204   3.231   6.303   3.298
  769SOL     OW 3205   3.455   1.067   5.875
  769SOL    HW1 3206   3.469   1.155   5.830
  769SOL    HW2 3207   3.518   1.059   5.953
  770SOL     OW 3208   3.538   5.005   4.139
  770SOL    HW1 3209   3.559   5.010   4.042
  770SOL    HW2 3210   3.511   4.911   4.162
  771SOL     OW 3211   0.570   5.975   3.777
  771SOL    HW1 3212   0.640   6.037   3.812
  771SOL    HW2 3213   0.549   5.999   3.682
  772SOL     OW 3214   6.730   4.406   5.605
  772SOL    HW1 3215   6.651   4.441   5.654
  772SOL    HW2 3216   6.732   4.444   5.512
  773SOL     OW 3217   0.542   4.384   2.325
  773SOL    HW1 3218   0.569   4.392   2.229
  773SOL    HW2 3219   0.509   4.291   2.342
  774SOL     OW 3220   1.473   1.183   1.775
  774SOL    HW1 3221   1.506   1.091   1.798
  774SOL    HW2 3222   1.436   1.183   1.682
  775SOL     OW 3223   1.699   2.003   4.248
  775SOL    HW1 3224   1.655   1.932   4.303
  775SOL    HW2 3225   1.790   1.972   4.220
  776SOL     OW 3226   2.351   0.809   6.376
  776SOL    HW1 3227   2.393   0.839   6.462
  776SOL    HW2 3228   2.284   0.876   6.347
  777SOL     OW 3229   4.014   0.669   0.807
  777SOL    HW1 3230   4.094   0.727   0.823
  777SOL    HW2 3231   3.998   0.662   0.708
  778SOL     OW 3232   4.087   6.897   4.070
  778SOL    HW1 3233   4.109   6.800   4.083
  778SOL    HW2 3234   4.068   6.938   4.159
  779SOL     OW 3235   0.927   1.179   2.476
  779SOL    HW1 3236   0.954   1.113   2.407
  779SOL    HW2 3237   0.846   1.229   2.444
  780SOL     OW 3238   5.189   3.319   4.983
  780SOL    HW1 3239   5.245   3.293   5.061
  780SOL    HW2 3240   5.133   3.398   5.008
  781SOL     OW 3241   0.171   1.409   5.642
  781SOL    HW1 3242   0.255   1.364   5.672
  781SOL    HW2 3243   0.096   1.342   5.639
  782SOL     OW 3244   0.671   2.993   0.774
  782SOL    HW1 3245   0.614   2.959   0.850
  782SOL    HW2 3246   0.765   2.964   0.788
  783SOL     OW 3247   3.312   4.254   0.311
  783SOL    HW1 3248   3.408   4.250   0.284
  783SOL    HW2 3249   3.258   4.199   0.249
  784SOL     OW 3250   5.235   0.522   4.960
  784SOL    HW1 3251   5.232   0.536   5.059
  784SOL    HW2 3252   5.329   0.501   4.933
  785SOL     OW 3253   6.382   2.307   3.592
  785SOL    HW1 3254   6.367   2.323   3.495
  785SOL    HW2 3255   6.460   2.245   3.604
  786SOL     OW 3256   6.681   0.222   0.127
  786SOL    HW1 3257   6.622   0.196   0.204
  786SOL    HW2 3258   6.626   0.261   0.054
  787SOL     OW 3259   3.260   1.342   6.120
  787SOL    HW1 3260   3.184   1.353   6.184
  787SOL    HW2 3261   3.292   1.432   6.090
  788SOL     OW 3262   1.142   4.226   4.034
  788SOL    HW1 3263   1.110   4.321   4.030
  788SOL    HW2 3264   1.242   4.224   4.033
  789SOL     OW 3265   5.727   3.788   1.316
  789SOL    HW1 3266   5.734   3.823   1.409
  789SOL    HW2 3267   5.750   3.860   1.251
  790SOL     OW 3268   2.876   1.460   3.506
  790SOL    HW1 3269   2.911   1.473   3.413
  790SOL    HW2 3270   2.950   1.427   3.565
  791SOL     OW 3271   3.952   1.807   4.223
  791SOL    HW1 3272   3.946   1.735   4.292
  791SOL    HW2 3273   3.924   1.894   4.263
  792SOL     OW 3274   5.944   0.395   3.301
  792SOL    HW1 3275   6.033   0.377   3.259
  792SOL    HW2 3276   5.940   0.352   3.391
  793SOL     OW 3277   6.227   0.462   6.882
  793SOL    HW1 3278   6.250   0.376   6.837
  793SOL    HW2 3279   6.138   0.453   6.928
  794SOL     OW 3280   2.333   5.225   5.239
  794SOL    HW1 3281   2.353   5.145   5.295
  794SOL    HW2 3282   2.335   5.307   5.296
  795SOL     OW 3283   4.744   4.762   5.911
  795SOL    HW1 3284   4.784   4.812   5.988
  795SOL    HW2 3285   4.817   4.738   5.846
  796SOL     OW 3286   0.793   2.171   6.425
  796SOL    HW1 3287   0.887   2.172   6.392
  796SOL    HW2 3288   0.774   2.085   6.472
  797SOL     OW 3289   5.666   2.836   4.079
  797SOL    HW1 3290   5.662   2.928   4.038
  797SOL    HW2 3291   5.661   2.844   4.178
  798SOL     OW 3292   6.105   0.802   6.002
  798SOL    HW1 3293   6.024   0.854   5.974
  798SOL    HW2 3294   6.126   0.733   5.933
  799SOL     OW 3295   6.841   3.439   3.547
  799SOL    HW1 3296   6.768   3.495   3.508
  799SOL    HW2 3297   6.809   3.346   3.560
  800SOL     OW 3298   6.315   1.813   1.821
  800SOL    HW1 3299   6.294   1.808   1.723
  800SOL    HW2 3300   6.371   1.894   1.839
  801SOL     OW 3301   0.115   2.793   3.436
  801SOL    HW1 3302   0.151   2.712   3.482
  801SOL    HW2 3303   0.055   2.842   3.499
  802SOL     OW 3304   5.718   0.703   0.738
  802SOL    HW1 3305   5.703   0.764   0.660
  802SOL    HW2 3306   5.637   0.702   0.796
  803SOL     OW 3307   0.337   6.720   5.244
  803SOL    HW1 3308   0.309   6.712   5.148
  803SOL    HW2 3309   0.264   6.766   5.295
  804SOL     OW 3310   6.950   0.269   0.759
  804SOL    HW1 3311   6.880   0.324   0.804
  804SOL    HW2 3312   7.008   0.226   0.829
  805SOL     OW 3313   2.718   3.536   6.242
  805SOL    HW1 3314   2.681   3.558   6.332
  805SOL    HW2 3315   2.649   3.555   6.172
  806SOL     OW 3316   5.546   0.666   0.937
  806SOL    HW1 3317   5.497   0.754   0.939
  806SOL    HW2 3318   5.488   0.596   0.897
  807SOL     OW 3319   1.316   0.060   3.523
  807SOL    HW1 3320   1.274   0.139   3.567
  807SOL    HW2 3321   1.244   0.002   3.485
  808SOL     OW 3322   5.282   3.548   5.268
  808SOL    HW1 3323   5.338   3.470   5.237
  808SOL    HW2 3324   5.195   3.548   5.219
  809SOL     OW 3325   0.181   4.561   5.946
  809SOL    HW1 3326   0.260   4.521   5.899
  809SOL    HW2 3327   0.132   4.489   5.995
  810SOL     OW 3328   6.363   4.485   0.025
  810SOL    HW1 3329   6.365   4.579   0.057
  810SOL    HW2 3330   6.366   4.423   0.104
  811SOL     OW 3331   5.107   5.223   4.250
  811SOL    HW1 3332   5.029   5.186   4.301
  811SOL    HW2 3333   5.150   5.296   4.302
  812SOL     OW 3334   0.260   6.902   2.449
  812SOL    HW1 3335   0.338   6.862   2.496
  812SOL    HW2 3336   0.228   6.983   2.499
  813SOL     OW 3337   5.450   5.534   2.701
  813SOL    HW1 3338   5.398   5.616   2.729
  813SOL    HW2 3339   5.511   5.507   2.775
  814SOL     OW 3340   5.261   6.249   1.563
  814SOL    HW1 3341   5.168   6.261   1.600
  814SOL    HW2 3342   5.257   6.235   1.465
  815SOL     OW 3343   0.368   2.257   0.523
  815SOL    HW1 3344   0.449   2.202   0.506
  815SOL    HW2 3345   0.325   2.229   0.609
  816SOL     OW 3346   5.965   0.304   0.692
  816SOL    HW1 3347   5.874   0.271   0.718
  816SOL    HW2 3348   6.030   0.228   0.694
  817SOL     OW 3349   1.734   2.106   3.115
  817SOL    HW1 3350   1.660   2.071   3.059
  817SOL    HW2 3351   1.722   2.205   3.128
  818SOL     OW 3352   6.662   1.792   0.876
  818SOL    HW1 3353   6.729   1.862   0.850
  818SOL    HW2 3354   6.688   1.752   0.964
  819SOL     OW 3355   0.363   3.967   4.069
  819SOL    HW1 3356   0.452   4.008   4.088
  819SOL    HW2 3357   0.343   3.975   3.971
  820SOL     OW 3358   0.946   2.893   4.433
  820SOL    HW1 3359   0.866   2.871   4.489
  820SOL    HW2 3360   0.935   2.853   4.342
  821SOL     OW 3361   1.426   3.295   0.072
  821SOL    HW1 3362   1.475   3.314   7.010
  821SOL    HW2 3363   1.407   3.381   0.119
  822SOL     OW 3364   1.591   3.518   4.584
  822SOL    HW1 3365   1.525   3.594   4.583
  822SOL    HW2 3366   1.609   3.488   4.491
  823SOL     OW 3367   3.072   3.726   0.956
  823SOL    HW1 3368   3.066   3.800   0.888
  823SOL    HW2 3369   3.089   3.639   0.909
  824SOL     OW 3370   6.227   2.393   5.991
  824SOL    HW1 3371   6.295   2.320   5.996
  824SOL    HW2 3372   6.166   2.387   6.071
  825SOL     OW 3373   1.876   4.263   2.434
  825SOL    HW1 3374   1.823   4.178   2.435
  825SOL    HW2 3375   1.886   4.298   2.528
  826SOL     OW 3376   0.342   3.975   6.008
  826SOL    HW1 3377   0.322   3.886   6.048
  826SOL    HW2 3378   0.388   4.033   6.076
  827SOL     OW 3379   4.165   6.052   6.757
  827SOL    HW1 3380   4.258   6.016   6.761
  827SOL    HW2 3381   4.160   6.136   6.810
  828SOL     OW 3382   6.214   6.903   6.344
  828SOL    HW1 3383   6.182   6.936   6.433
  828SOL    HW2 3384   6.314   6.904   6.342
  829SOL     OW 3385   3.164   2.955   4.788
  829SOL    HW1 3386   3.106   3.036   4.789
  829SOL    HW2 3387   3.137   2.893   4.862
  830SOL     OW 3388   4.439   3.857   5.363
  830SOL    HW1 3389   4.388   3.943   5.361
  830SOL    HW2 3390   4.479   3.844   5.454
  831SOL     OW 3391   6.564   0.823   4.814
  831SOL    HW1 3392   6.552   0.875   4.899
  831SOL    HW2 3393   6.662   0.809   4.799
  832SOL     OW 3394   2.411   1.398   5.969
  832SOL    HW1 3395   2.490   1.340   5.989
  832SOL    HW2 3396   2.441   1.487   5.937
  833SOL     OW 3397   0.272   0.023   6.138
  833SOL    HW1 3398   0.319   6.961   6.115
  833SOL    HW2 3399   0.301   0.056   6.227
  834SOL     OW 3400   3.374   4.542   5.371
  834SOL    HW1 3401   3.328   4.453   5.379
  834SOL    HW2 3402   3.464   4.529   5.328
  835SOL     OW 3403   4.054   0.253   3.234
  835SOL    HW1 3404   4.113   0.198   3.293
  835SOL    HW2 3405   4.067   0.224   3.139
  836SOL     OW 3406   2.485   1.080   0.300
  836SOL    HW1 3407   2.495   0.984   0.326
  836SOL    HW2 3408   2.519   1.093   0.207
  837SOL     OW 3409   4.203   0.982   5.916
  837SOL    HW1 3410   4.178   0.977   5.819
  837SOL    HW2 3411   4.272   0.912   5.936
  838SOL     OW 3412   2.215   5.060   3.239
  838SOL    HW1 3413   2.130   5.080   3.289
  838SOL    HW2 3414   2.235   5.135   3.177
  839SOL     OW 3415   3.094   1.441   2.373
  839SOL    HW1 3416   2.997   1.418   2.367
  839SOL    HW2 3417   3.109   1.534   2.340
  840SOL     OW 3418   0.939   1.644   6.548
  840SOL    HW1 3419   0.941   1.591   6.633
  840SOL    HW2 3420   1.020   1.702   6.543
  841SOL     OW 3421   0.827   3.653   6.899
  841SOL    HW1 3422   0.779   3.570   6.871
  841SOL    HW2 3423   0.926   3.638   6.895
  842SOL     OW 3424   3.796   5.190   3.900
  842SOL    HW1 3425   3.859   5.229   3.832
  842SOL    HW2 3426   3.719   5.253   3.914
  843SOL     OW 3427   6.589   2.684   1.882
  843SOL    HW1 3428   6.515   2.738   1.843
  843SOL    HW2 3429   6.552   2.599   1.920
  844SOL     OW 3430   5.400   5.406   0.536
  844SOL    HW1 3431   5.457   5.345   0.591
  844SOL    HW2 3432   5.319   5.357   0.504
  845SOL     OW 3433   0.817   4.287   4.973
  845SOL    HW1 3434   0.799   4.363   4.911
  845SOL    HW2 3435   0.752   4.213   4.953
  846SOL     OW 3436   6.030   2.040   7.021
  846SOL    HW1 3437   5.975   1.981   0.057
  846SOL    HW2 3438   6.115   2.064   0.044
  847SOL     OW 3439   5.123   3.517   2.119
  847SOL    HW1 3440   5.108   3.608   2.080
  847SOL    HW2 3441   5.056   3.453   2.081
  848SOL     OW 3442   6.491   0.422   6.028
  848SOL    HW1 3443   6.559   0.478   5.981
  848SOL    HW2 3444   6.401   0.466   6.023
  849SOL     OW 3445   0.298   5.094   4.122
  849SOL    HW1 3446   0.269   5.042   4.041
  849SOL    HW2 3447   0.257   5.185   4.120
  850SOL     OW 3448   3.780   0.398   2.547
  850SOL    HW1 3449   3.827   0.469   2.496
  850SOL    HW2 3450   3.755   0.432   2.638
  851SOL     OW 3451   0.712   0.795   6.289
  851SOL    HW1 3452   0.703   0.821   6.193
  851SOL    HW2 3453   0.777   0.719   6.297
  852SOL     OW 3454   2.212   4.387   6.599
  852SOL    HW1 3455   2.153   4.409   6.521
  852SOL    HW2 3456   2.156   4.375   6.681
  853SOL     OW 3457   1.685   3.775   1.279
  853SOL    HW1 3458   1.683   3.722   1.194
  853SOL    HW2 3459   1.592   3.782   1.316
  854SOL     OW 3460   5.534   5.152   1.712
  854SOL    HW1 3461   5.561   5.210   1.788
  854SOL    HW2 3462   5.441   5.119   1.725
  855SOL     OW 3463   5.627   6.878   1.787
  855SOL    HW1 3464   5.575   6.909   1.707
  855SOL    HW2 3465   5.723   6.904   1.776
  856SOL     OW 3466   1.491   0.014   4.813
  856SOL    HW1 3467   1.545   6.953   4.816
  856SOL    HW2 3468   1.435   0.021   4.896
  857SOL     OW 3469   6.995   3.603   1.967
  857SOL    HW1 3470   6.965   3.690   1.928
  857SOL    HW2 3471   6.967   3.598   2.063
  858SOL     OW 3472   2.990   4.087   1.248
  858SOL    HW1 3473   3.069   4.026   1.241
  858SOL    HW2 3474   2.933   4.059   1.325
  859SOL     OW 3475   6.821   4.696   7.009
  859SOL    HW1 3476   6.746   4.644   0.027
  859SOL    HW2 3477   6.907   4.672   0.031
  860SOL     OW 3478   1.923   4.659   1.505
  860SOL    HW1 3479   1.899   4.718   1.582
  860SOL    HW2 3480   1.873   4.573   1.512
  861SOL     OW 3481   3.229   5.464   5.263
  861SOL    HW1 3482   3.204   5.443   5.358
  861SOL    HW2 3483   3.295   5.397   5.230
  862SOL     OW 3484   4.570   4.538   4.182
  862SOL    HW1 3485   4.634   4.585   4.121
  862SOL    HW2 3486   4.488   4.595   4.194
  863SOL     OW 3487   5.875   0.848   0.918
  863SOL    HW1 3488   5.825   0.802   0.846
  863SOL    HW2 3489   5.865   0.797   1.004
  864SOL     OW 3490   6.168   4.552   3.021
  864SOL    HW1 3491   6.192   4.517   3.112
  864SOL    HW2 3492   6.083   4.509   2.991
  865SOL     OW 3493   1.403   0.164   4.317
  865SOL    HW1 3494   1.408   0.112   4.402
  865SOL    HW2 3495   1.489   0.155   4.267
  866SOL     OW 3496   3.801   1.687   1.308
  866SOL    HW1 3497   3.883   1.665   1.256
  866SOL    HW2 3498   3.720   1.676   1.250
  867SOL     OW 3499   1.697   2.847   5.947
  867SOL    HW1 3500   1.783   2.837   5.898
  867SOL    HW2 3501   1.622   2.810   5.891
  868SOL     OW 3502   5.293   2.607   3.083
  868SOL    HW1 3503   5.205   2.653   3.069
  868SOL    HW2 3504   5.293   2.519   3.036
  869SOL     OW 3505   6.483   4.495   2.704
  869SOL    HW1 3506   6.554   4.490   2.774
  869SOL    HW2 3507   6.510   4.561   2.634
  870SOL     OW 3508   0.129   2.606   0.708
  870SOL    HW1 3509   0.097   2.524   0.756
  870SOL    HW2 3510   0.214   2.638   0.750
  871SOL     OW 3511   6.059   3.607   1.011
  871SOL    HW1 3512   6.049   3.691   1.063
  871SOL    HW2 3513   6.076   3.629   0.915
  872SOL     OW 3514   5.577   2.615   2.774
  872SOL    HW1 3515   5.618   2.621   2.865
  872SOL    HW2 3516   5.590   2.701   2.725
  873SOL     OW 3517   4.746   6.775   5.777
  873SOL    HW1 3518   4.823   6.840   5.779
  873SOL    HW2 3519   4.766   6.698   5.838
  874SOL     OW 3520   0.041   3.503   6.147
  874SOL    HW1 3521   0.106   3.466   6.212
  874SOL    HW2 3522   0.055   3.462   6.057
  875SOL     OW 3523   6.079   4.650   6.925
  875SOL    HW1 3524   6.083   4.580   6.997
  875SOL    HW2 3525   6.063   4.740   6.967
  876SOL     OW 3526   1.242   3.354   1.753
  876SOL    HW1 3527   1.206   3.448   1.755
  876SOL    HW2 3528   1.223   3.313   1.664
  877SOL     OW 3529   5.263   6.136   0.473
  877SOL    HW1 3530   5.302   6.118   0.563
  877SOL    HW2 3531   5.336   6.135   0.404
  878SOL     OW 3532   3.044   3.237   0.410
  878SOL    HW1 3533   2.954   3.209   0.377
  878SOL    HW2 3534   3.110   3.232   0.335
  879SOL     OW 3535   4.414   1.946   2.353
  879SOL    HW1 3536   4.346   1.977   2.286
  879SOL    HW2 3537   4.447   1.855   2.328
  880SOL     OW 3538   3.829   5.684   0.823
  880SOL    HW1 3539   3.864   5.777   0.826
  880SOL    HW2 3540   3.863   5.632   0.901
  881SOL     OW 3541   4.337   5.209   5.032
  881SOL    HW1 3542   4.335   5.274   5.108
  881SOL    HW2 3543   4.334   5.259   4.945
  882SOL     OW 3544   1.004   1.234   4.329
  882SOL    HW1 3545   1.081   1.297   4.333
  882SOL    HW2 3546   1.008   1.181   4.244
  883SOL     OW 3547   2.934   4.929   6.924
  883SOL    HW1 3548   2.979   4.848   6.888
  883SOL    HW2 3549   2.846   4.904   6.965
  884SOL     OW 3550   4.667   4.031   1.587
  884SOL    HW1 3551   4.573   4.060   1.607
  884SOL    HW2 3552   4.709   4.097   1.524
  885SOL     OW 3553   4.815   6.115   6.734
  885SOL    HW1 3554   4.899   6.169   6.724
  885SOL    HW2 3555   4.746   6.169   6.782
  886SOL     OW 3556   4.987   1.293   6.114
  886SOL    HW1 3557   5.029   1.366   6.059
  886SOL    HW2 3558   4.903   1.326   6.156
  887SOL     OW 3559   5.102   0.478   6.435
  887SOL    HW1 3560   5.102   0.425   6.351
  887SOL    HW2 3561   5.008   0.486   6.469
  888SOL     OW 3562   6.181   6.399   3.548
  888SOL    HW1 3563   6.195   6.405   3.647
  888SOL    HW2 3564   6.101   6.453   3.522
  889SOL     OW 3565   1.049   6.752   4.761
  889SOL    HW1 3566   1.098   6.689   4.821
  889SOL    HW2 3567   1.107   6.775   4.682
  890SOL     OW 3568   2.365   4.927   1.992
  890SOL    HW1 3569   2.441   4.866   2.014
  890SOL    HW2 3570   2.287   4.872   1.960
  891SOL     OW 3571   5.797   3.470   6.128
  891SOL    HW1 3572   5.840   3.390   6.171
  891SOL    HW2 3573   5.867   3.523   6.080
  892SOL     OW 3574   2.465   5.623   1.950
  892SOL    HW1 3575   2.526   5.567   1.894
  892SOL    HW2 3576   2.487   5.719   1.937
  893SOL     OW 3577   2.012   7.009   0.981
  893SOL    HW1 3578   2.059   7.001   0.893
  893SOL    HW2 3579   1.929   0.042   0.970
  894SOL     OW 3580   1.546   5.557   3.241
  894SOL    HW1 3581   1.505   5.470   3.211
  894SOL    HW2 3582   1.541   5.563   3.341
  895SOL     OW 3583   1.868   0.243   4.537
  895SOL    HW1 3584   1.869   0.154   4.492
  895SOL    HW2 3585   1.788   0.249   4.597
  896SOL     OW 3586   5.440   0.105   3.621
  896SOL    HW1 3587   5.540   0.102   3.623
  896SOL    HW2 3588   5.408   0.075   3.531
  897SOL     OW 3589   5.061   2.702   6.092
  897SOL    HW1 3590   5.043   2.800   6.085
  897SOL    HW2 3591   4.980   2.657   6.130
  898SOL     OW 3592   6.292   6.660   4.140
  898SOL    HW1 3593   6.347   6.730   4.096
  898SOL    HW2 3594   6.333   6.570   4.125
  899SOL     OW 3595   0.844   4.651   6.548
  899SOL    HW1 3596   0.796   4.574   6.507
  899SOL    HW2 3597   0.821   4.657   6.645
  900SOL     OW 3598   0.752   6.193   3.810
  900SOL    HW1 3599   0.737   6.236   3.900
  900SOL    HW2 3600   0.850   6.180   3.795
  901SOL     OW 3601   5.382   2.895   3.491
  901SOL    HW1 3602   5.432   2.809   3.501
  901SOL    HW2 3603   5.447   2.969   3.469
  902SOL     OW 3604   0.039   6.171   6.971
  902SOL    HW1 3605   0.062   6.260   6.933
  902SOL    HW2 3606   0.032   6.177   0.047
  903SOL     OW 3607   0.436   4.706   6.934
  903SOL    HW1 3608   0.526   4.738   6.962
  903SOL    HW2 3609   0.427   4.609   6.956
  904SOL     OW 3610   2.000   1.410   3.716
  904SOL    HW1 3611   1.947   1.428   3.800
  904SOL    HW2 3612   2.078   1.351   3.738
  905SOL     OW 3613   6.074   1.935   5.705
  905SOL    HW1 3614   6.040   2.019   5.662
  905SOL    HW2 3615   6.075   1.948   5.805
  906SOL     OW 3616   5.967   3.902   5.234
  906SOL    HW1 3617   5.917   3.841   5.296
  906SOL    HW2 3618   5.961   3.996   5.268
  907SOL     OW 3619   6.903   3.394   1.368
  907SOL    HW1 3620   6.950   3.409   1.455
  907SOL    HW2 3621   6.805   3.386   1.384
  908SOL     OW 3622   1.472   0.813   3.066
  908SOL    HW1 3623   1.527   0.758   3.004
  908SOL    HW2 3624   1.442   0.755   3.143
  909SOL     OW 3625   4.173   0.378   0.960
  909SOL    HW1 3626   4.110   0.301   0.971
  909SOL    HW2 3627   4.161   0.441   1.037
  910SOL     OW 3628   1.998   2.113   1.728
  910SOL    HW1 3629   2.085   2.077   1.694
  910SOL    HW2 3630   1.977   2.199   1.682
  911SOL     OW 3631   0.482   4.339   0.830
  911SOL    HW1 3632   0.467   4.260   0.771
  911SOL    HW2 3633   0.520   4.309   0.917
  912SOL     OW 3634   0.752   0.768   6.001
  912SOL    HW1 3635   0.662   0.730   5.985
  912SOL    HW2 3636   0.803   0.775   5.915
  913SOL     OW 3637   2.432   1.414   1.605
  913SOL    HW1 3638   2.403   1.320   1.621
  913SOL    HW2 3639   2.459   1.456   1.692
  914SOL     OW 3640   2.927   6.660   3.435
  914SOL    HW1 3641   2.967   6.592   3.373
  914SOL    HW2 3642   2.970   6.653   3.525
  915SOL     OW 3643   1.263   2.109   6.656
  915SOL    HW1 3644   1.307   2.064   6.578
  915SOL    HW2 3645   1.182   2.056   6.683
  916SOL     OW 3646   1.318   3.514   2.899
  916SOL    HW1 3647   1.319   3.609   2.869
  916SOL    HW2 3648   1.286   3.456   2.824
  917SOL     OW 3649   3.386   2.275   6.503
  917SOL    HW1 3650   3.410   2.178   6.504
  917SOL    HW2 3651   3.327   2.294   6.425
  918SOL     OW 3652   1.531   0.658   5.349
  918SOL    HW1 3653   1.580   0.668   5.263
  918SOL    HW2 3654   1.595   0.663   5.425
  919SOL     OW 3655   2.143   0.089   1.195
  919SOL    HW1 3656   2.098   0.158   1.251
  919SOL    HW2 3657   2.090   0.073   1.112
  920SOL     OW 3658   2.140   0.845   4.135
  920SOL    HW1 3659   2.240   0.839   4.137
  920SOL    HW2 3660   2.112   0.941   4.136
  921SOL     OW 3661   5.071   5.015   6.444
  921SOL    HW1 3662   5.040   4.972   6.359
  921SOL    HW2 3663   5.017   5.096   6.463
  922SOL     OW 3664   2.046   3.622   6.466
  922SOL    HW1 3665   2.074   3.676   6.546
  922SOL    HW2 3666   2.037   3.682   6.387
  923SOL     OW 3667   4.213   1.155   6.713
  923SOL    HW1 3668   4.133   1.214   6.715
  923SOL    HW2 3669   4.200   1.079   6.777
  924SOL     OW 3670   6.556   3.762   2.933
  924SOL    HW1 3671   6.457   3.749   2.940
  924SOL    HW2 3672   6.589   3.811   3.014
  925SOL     OW 3673   5.942   2.099   2.920
  925SOL    HW1 3674   5.846   2.075   2.933
  925SOL    HW2 3675   5.956   2.195   2.943
  926SOL     OW 3676   5.552   6.378   0.710
  926SOL    HW1 3677   5.484   6.403   0.779
  926SOL    HW2 3678   5.566   6.279   0.711
  927SOL     OW 3679   4.673   4.937   4.759
  927SOL    HW1 3680   4.617   4.995   4.819
  927SOL    HW2 3681   4.657   4.841   4.782
  928SOL     OW 3682   0.602   1.456   1.260
  928SOL    HW1 3683   0.644   1.473   1.171
  928SOL    HW2 3684   0.660   1.395   1.313
  929SOL     OW 3685   0.463   2.372   2.654
  929SOL    HW1 3686   0.414   2.292   2.690
  929SOL    HW2 3687   0.464   2.444   2.724
  930SOL     OW 3688   4.743   5.761   2.940
  930SOL    HW1 3689   4.800   5.776   3.020
  930SOL    HW2 3690   4.719   5.664   2.933
  931SOL     OW 3691   1.716   2.861   2.613
  931SOL    HW1 3692   1.714   2.887   2.516
  931SOL    HW2 3693   1.746   2.939   2.668
  932SOL     OW 3694   4.731   6.251   1.079
  932SOL    HW1 3695   4.736   6.341   1.036
  932SOL    HW2 3696   4.635   6.222   1.081
  933SOL     OW 3697   1.702   6.090   3.713
  933SOL    HW1 3698   1.778   6.101   3.777
  933SOL    HW2 3699   1.649   6.009   3.738
  934SOL     OW 3700   3.235   0.991   5.735
  934SOL    HW1 3701   3.310   1.007   5.799
  934SOL    HW2 3702   3.148   1.000   5.782
  935SOL     OW 3703   2.481   3.092   6.208
  935SOL    HW1 3704   2.525   3.165   6.260
  935SOL    HW2 3705   2.433   3.031   6.271
  936SOL     OW 3706   0.073   2.030   1.927
  936SOL    HW1 3707   7.004   2.066   1.914
  936SOL    HW2 3708   0.132   2.102   1.964
  937SOL     OW 3709   5.126   2.488   3.820
  937SOL    HW1 3710   5.064   2.415   3.792
  937SOL    HW2 3711   5.082   2.545   3.889
  938SOL     OW 3712   6.802   1.747   0.155
  938SOL    HW1 3713   6.875   1.815   0.155
  938SOL    HW2 3714   6.779   1.723   0.060
  939SOL     OW 3715   6.492   1.107   6.051
  939SOL    HW1 3716   6.470   1.009   6.058
  939SOL    HW2 3717   6.590   1.120   6.070
  940SOL     OW 3718   0.645   0.830   4.446
  940SOL    HW1 3719   0.618   0.831   4.543
  940SOL    HW2 3720   0.730   0.880   4.435
  941SOL     OW 3721   5.310   2.954   5.396
  941SOL    HW1 3722   5.316   2.926   5.300
  941SOL    HW2 3723   5.216   2.975   5.419
  942SOL     OW 3724   5.267   0.157   5.490
  942SOL    HW1 3725   5.233   0.130   5.580
  942SOL    HW2 3726   5.203   0.127   5.419
  943SOL     OW 3727   5.951   1.798   0.191
  943SOL    HW1 3728   5.880   1.754   0.247
  943SOL    HW2 3729   6.018   1.841   0.251
  944SOL     OW 3730   5.936   4.166   5.007
  944SOL    HW1 3731   5.947   4.261   5.038
  944SOL    HW2 3732   6.008   4.144   4.941
  945SOL     OW 3733   5.482   3.738   5.260
  945SOL    HW1 3734   5.514   3.735   5.165
  945SOL    HW2 3735   5.413   3.667   5.274
  946SOL     OW 3736   5.894   3.040   6.150
  946SOL    HW1 3737   5.985   3.042   6.110
  946SOL    HW2 3738   5.886   2.961   6.211
  947SOL     OW 3739   1.157   2.857   5.476
  947SOL    HW1 3740   1.193   2.948   5.496
  947SOL    HW2 3741   1.214   2.812   5.407
  948SOL     OW 3742   3.965   1.964   0.607
  948SOL    HW1 3743   3.998   2.054   0.578
  948SOL    HW2 3744   3.872   1.950   0.573
  949SOL     OW 3745   6.156   5.627   6.558
  949SOL    HW1 3746   6.249   5.597   6.543
  949SOL    HW2 3747   6.115   5.655   6.471
  950SOL     OW 3748   4.537   5.092   0.805
  950SOL    HW1 3749   4.591   5.147   0.868
  950SOL    HW2 3750   4.510   5.147   0.727
  951SOL     OW 3751   0.826   2.642   3.597
  951SOL    HW1 3752   0.863   2.581   3.527
  951SOL    HW2 3753   0.869   2.621   3.685
  952SOL     OW 3754   5.145   1.471   1.582
  952SOL    HW1 3755   5.058   1.510   1.610
  952SOL    HW2 3756   5.151   1.376   1.612
  953SOL     OW 3757   3.756   6.798   6.232
  953SOL    HW1 3758   3.749   6.893   6.202
  953SOL    HW2 3759   3.676   6.746   6.202
  954SOL     OW 3760   0.706   6.635   1.021
  954SOL    HW1 3761   0.652   6.557   1.053
  954SOL    HW2 3762   0.649   6.717   1.018
  955SOL     OW 3763   6.345   6.595   2.395
  955SOL    HW1 3764   6.367   6.649   2.313
  955SOL    HW2 3765   6.260   6.545   2.380
  956SOL     OW 3766   0.671   2.431   0.135
  956SOL    HW1 3767   0.727   2.512   0.119
  956SOL    HW2 3768   0.589   2.435   0.077
  957SOL     OW 3769   2.261   6.369   5.461
  957SOL    HW1 3770   2.254   6.300   5.533
  957SOL    HW2 3771   2.349   6.362   5.415
  958SOL     OW 3772   4.848   2.527   0.305
  958SOL    HW1 3773   4.946   2.529   0.324
  958SOL    HW2 3774   4.798   2.522   0.391
  959SOL     OW 3775   1.539   4.169   2.415
  959SOL    HW1 3776   1.515   4.143   2.508
  959SOL    HW2 3777   1.618   4.115   2.385
  960SOL     OW 3778   1.757   5.878   5.319
  960SOL    HW1 3779   1.775   5.784   5.289
  960SOL    HW2 3780   1.779   5.886   5.416
  961SOL     OW 3781   3.517   6.986   1.189
  961SOL    HW1 3782   3.469   6.929   1.122
  961SOL    HW2 3783   3.480   6.969   1.280
  962SOL     OW 3784   1.814   6.515   3.918
  962SOL    HW1 3785   1.779   6.574   3.845
  962SOL    HW2 3786   1.863   6.569   3.985
  963SOL     OW 3787   6.152   0.477   1.993
  963SOL    HW1 3788   6.086   0.429   1.936
  963SOL    HW2 3789   6.124   0.472   2.088
  964SOL     OW 3790   4.880   3.847   1.004
  964SOL    HW1 3791   4.787   3.826   1.033
  964SOL    HW2 3792   4.939   3.855   1.085
  965SOL     OW 3793   1.303   2.434   0.956
  965SOL    HW1 3794   1.237   2.424   0.882
  965SOL    HW2 3795   1.385   2.480   0.920
  966SOL     OW 3796   6.802   2.153   1.852
  966SOL    HW1 3797   6.706   2.170   1.831
  966SOL    HW2 3798   6.856   2.235   1.833
  967SOL     OW 3799   0.879   5.680   2.554
  967SOL    HW1 3800   0.974   5.692   2.524
  967SOL    HW2 3801   0.822   5.751   2.514
  968SOL     OW 3802   6.622   4.327   2.150
  968SOL    HW1 3803   6.713   4.368   2.153
  968SOL    HW2 3804   6.629   4.230   2.130
  969SOL     OW 3805   4.212   6.210   6.496
  969SOL    HW1 3806   4.260   6.189   6.411
  969SOL    HW2 3807   4.143   6.141   6.514
  970SOL     OW 3808   4.386   2.250   5.290
  970SOL    HW1 3809   4.387   2.206   5.380
  970SOL    HW2 3810   4.479   2.279   5.267
  971SOL     OW 3811   0.722   2.433   1.450
  971SOL    HW1 3812   0.678   2.444   1.361
  971SOL    HW2 3813   0.680   2.497   1.516
  972SOL     OW 3814   6.911   6.379   1.686
  972SOL    HW1 3815   6.910   6.368   1.587
  972SOL    HW2 3816   6.910   6.288   1.729
  973SOL     OW 3817   6.060   4.015   5.597
  973SOL    HW1 3818   6.151   4.038   5.632
  973SOL    HW2 3819   6.042   4.070   5.514
  974SOL     OW 3820   2.794   1.533   3.957
  974SOL    HW1 3821   2.706   1.524   3.910
  974SOL    HW2 3822   2.855   1.590   3.902
  975SOL     OW 3823   3.776   6.818   5.600
  975SOL    HW1 3824   3.870   6.851   5.613
  975SOL    HW2 3825   3.774   6.756   5.522
  976SOL     OW 3826   0.207   6.131   3.725
  976SOL    HW1 3827   0.201   6.067   3.801
  976SOL    HW2 3828   0.115   6.161   3.698
  977SOL     OW 3829   1.259   2.486   2.972
  977SOL    HW1 3830   1.300   2.505   2.883
  977SOL    HW2 3831   1.246   2.571   3.022
  978SOL     OW 3832   6.163   3.443   4.548
  978SOL    HW1 3833   6.208   3.416   4.632
  978SOL    HW2 3834   6.170   3.543   4.537
  979SOL     OW 3835   5.660   0.995   3.457
  979SOL    HW1 3836   5.636   1.051   3.378
  979SOL    HW2 3837   5.687   1.054   3.534
  980SOL     OW 3838   6.469   0.986   4.612
  980SOL    HW1 3839   6.436   1.046   4.685
  980SOL    HW2 3840   6.513   0.906   4.652
  981SOL     OW 3841   6.948   3.366   5.270
  981SOL    HW1 3842   6.994   3.442   5.225
  981SOL    HW2 3843   6.905   3.398   5.354
  982SOL     OW 3844   1.730   2.947   1.639
  982SOL    HW1 3845   1.745   2.848   1.641
  982SOL    HW2 3846   1.721   2.981   1.733
  983SOL     OW 3847   5.533   1.733   2.909
  983SOL    HW1 3848   5.604   1.665   2.928
  983SOL    HW2 3849   5.485   1.709   2.825
  984SOL     OW 3850   4.823   1.170   4.567
  984SOL    HW1 3851   4.781   1.220   4.491
  984SOL    HW2 3852   4.872   1.090   4.532
  985SOL     OW 3853   3.120   4.735   0.482
  985SOL    HW1 3854   3.044   4.678   0.450
  985SOL    HW2 3855   3.138   4.806   0.415
  986SOL     OW 3856   4.210   5.016   6.565
  986SOL    HW1 3857   4.266   5.052   6.639
  986SOL    HW2 3858   4.123   5.066   6.562
  987SOL     OW 3859   3.127   6.983   2.404
  987SOL    HW1 3860   3.075   6.989   2.489
  987SOL    HW2 3861   3.224   6.968   2.425
  988SOL     OW 3862   3.454   4.103   2.120
  988SOL    HW1 3863   3.436   4.200   2.102
  988SOL    HW2 3864   3.497   4.094   2.210
  989SOL     OW 3865   0.879   6.985   4.761
  989SOL    HW1 3866   0.922   0.014   4.834
  989SOL    HW2 3867   0.931   6.901   4.744
  990SOL     OW 3868   4.666   6.287   3.598
  990SOL    HW1 3869   4.704   6.366   3.551
  990SOL    HW2 3870   4.571   6.273   3.569
  991SOL     OW 3871   6.541   1.301   5.197
  991SOL    HW1 3872   6.568   1.396   5.210
  991SOL    HW2 3873   6.619   1.241   5.217
  992SOL     OW 3874   0.349   2.872   0.404
  992SOL    HW1 3875   0.441   2.835   0.419
  992SOL    HW2 3876   0.340   2.958   0.453
  993SOL     OW 3877   3.571   5.021   3.862
  993SOL    HW1 3878   3.658   5.063   3.888
  993SOL    HW2 3879   3.562   5.021   3.763
  994SOL     OW 3880   3.184   3.949   2.307
  994SOL    HW1 3881   3.271   3.902   2.290
  994SOL    HW2 3882   3.120   3.928   2.233
  995SOL     OW 3883   0.639   1.311   5.222
  995SOL    HW1 3884   0.720   1.364   5.197
  995SOL    HW2 3885   0.564   1.374   5.244
  996SOL     OW 3886   1.341   3.785   2.003
  996SOL    HW1 3887   1.319   3.854   1.934
  996SOL    HW2 3888   1.261   3.727   2.019
  997SOL     OW 3889   6.604   1.210   1.550
  997SOL    HW1 3890   6.508   1.188   1.534
  997SOL    HW2 3891   6.612   1.265   1.633
  998SOL     OW 3892   5.057   0.330   2.975
  998SOL    HW1 3893   4.978   0.332   3.037
  998SOL    HW2 3894   5.067   0.239   2.935
  999SOL     OW 3895   0.081   5.672   1.072
  999SOL    HW1 3896   0.171   5.633   1.093
  999SOL    HW2 3897   0.041   5.622   0.995
 1000SOL     OW 3898   4.402   1.874   4.203
 1000SOL    HW1 3899   4.316   1.861   4.154
 1000SOL    HW2 3900   4.457   1.942   4.156
 1001SOL     OW 3901   4.494   0.220   5.784
 1001SOL    HW1 3902   4.408   0.179   5.815
 1001SOL    HW2 3903   4.571   0.166   5.820
 1002SOL     OW 3904   6.650   1.576   0.439
 1002SOL    HW1 3905   6.628   1.509   0.510
 1002SOL    HW2 3906   6.736   1.550   0.395
 1003SOL     OW 3907   4.370   4.976   2.242
 1003SOL    HW1 3908   4.385   4.974   2.341
 1003SOL    HW2 3909   4.291   4.920   2.220
 1004SOL     OW 3910   5.981   5.578   0.373
 1004SOL    HW1 3911   6.074   5.544   0.386
 1004SOL    HW2 3912   5.916   5.520   0.422
 1005SOL     OW 3913   6.656   6.380   3.584
 1005SOL    HW1 3914   6.635   6.296   3.634
 1005SOL    HW2 3915   6.590   6.392   3.509
 1006SOL     OW 3916   2.204   4.236   1.089
 1006SOL    HW1 3917   2.227   4.293   1.169
 1006SOL    HW2 3918   2.287   4.195   1.053
 1007SOL     OW 3919   0.445   0.360   3.455
 1007SOL    HW1 3920   0.520   0.427   3.453
 1007SOL    HW2 3921   0.389   0.376   3.536
 1008SOL     OW 3922   2.306   2.746   3.377
 1008SOL    HW1 3923   2.208   2.730   3.368
 1008SOL    HW2 3924   2.325   2.796   3.461
 1009SOL     OW 3925   1.463   5.597   4.988
 1009SOL    HW1 3926   1.386   5.630   5.042
 1009SOL    HW2 3927   1.449   5.500   4.965
 1010SOL     OW 3928   4.614   1.097   6.631
 1010SOL    HW1 3929   4.646   1.089   6.537
 1010SOL    HW2 3930   4.632   1.011   6.680
 1011SOL     OW 3931   3.841   5.875   3.713
 1011SOL    HW1 3932   3.810   5.898   3.621
 1011SOL    HW2 3933   3.805   5.942   3.778
 1012SOL     OW 3934   4.638   5.609   0.207
 1012SOL    HW1 3935   4.556   5.553   0.213
 1012SOL    HW2 3936   4.715   5.560   0.249
 1013SOL     OW 3937   0.322   1.470   1.306
 1013SOL    HW1 3938   0.420   1.486   1.291
 1013SOL    HW2 3939   0.306   1.455   1.404
 1014SOL     OW 3940   5.409   0.627   6.239
 1014SOL    HW1 3941   5.351   0.708   6.231
 1014SOL    HW2 3942   5.483   0.645   6.304
 1015SOL     OW 3943   3.020   6.358   4.145
 1015SOL    HW1 3944   2.997   6.445   4.101
 1015SOL    HW2 3945   3.120   6.348   4.149
 1016SOL     OW 3946   4.469   2.962   1.256
 1016SOL    HW1 3947   4.415   2.912   1.188
 1016SOL    HW2 3948   4.475   2.908   1.340
 1017SOL     OW 3949   4.522   1.792   6.772
 1017SOL    HW1 3950   4.571   1.860   6.825
 1017SOL    HW2 3951   4.587   1.735   6.722
 1018SOL     OW 3952   1.651   3.457   2.553
 1018SOL    HW1 3953   1.581   3.477   2.485
 1018SOL    HW2 3954   1.740   3.487   2.519
 1019SOL     OW 3955   6.025   0.856   0.249
 1019SOL    HW1 3956   6.042   0.797   0.328
 1019SOL    HW2 3957   5.943   0.910   0.265
 1020SOL     OW 3958   2.896   1.865   1.461
 1020SOL    HW1 3959   2.990   1.884   1.488
 1020SOL    HW2 3960   2.886   1.882   1.363
 1021SOL     OW 3961   6.642   1.605   1.120
 1021SOL    HW1 3962   6.707   1.558   1.060
 1021SOL    HW2 3963   6.692   1.663   1.185
 1022SOL     OW 3964   4.224   2.868   6.587
 1022SOL    HW1 3965   4.281   2.907   6.659
 1022SOL    HW2 3966   4.250   2.773   6.571
 1023SOL     OW 3967   5.150   1.277   3.891
 1023SOL    HW1 3968   5.061   1.273   3.845
 1023SOL    HW2 3969   5.182   1.372   3.892
 1024SOL     OW 3970   5.847   1.740   3.424
 1024SOL    HW1 3971   5.832   1.797   3.344
 1024SOL    HW2 3972   5.839   1.644   3.399
 1025SOL     OW 3973   3.102   4.402   1.118
 1025SOL    HW1 3974   3.159   4.362   1.189
 1025SOL    HW2 3975   3.006   4.398   1.146
 1026SOL     OW 3976   0.922   2.947   6.899
 1026SOL    HW1 3977   0.876   2.858   6.902
 1026SOL    HW2 3978   1.020   2.934   6.885
 1027SOL     OW 3979   2.909   5.005   2.281
 1027SOL    HW1 3980   2.824   5.042   2.319
 1027SOL    HW2 3981   2.968   5.081   2.254
 1028SOL     OW 3982   1.995   5.643   0.948
 1028SOL    HW1 3983   2.020   5.639   1.045
 1028SOL    HW2 3984   1.966   5.736   0.925
 1029SOL     OW 3985   3.049   0.653   6.054
 1029SOL    HW1 3986   3.071   0.627   6.148
 1029SOL    HW2 3987   3.131   0.685   6.007
 1030SOL     OW 3988   3.401   4.156   4.975
 1030SOL    HW1 3989   3.309   4.148   4.938
 1030SOL    HW2 3990   3.443   4.066   4.982
 1031SOL     OW 3991   2.495   5.352   1.588
 1031SOL    HW1 3992   2.529   5.429   1.642
 1031SOL    HW2 3993   2.539   5.268   1.619
 1032SOL     OW 3994   1.696   0.735   4.224
 1032SOL    HW1 3995   1.754   0.695   4.295
 1032SOL    HW2 3996   1.603   0.745   4.258
 1033SOL     OW 3997   2.005   6.300   3.193
 1033SOL    HW1 3998   2.053   6.308   3.106
 1033SOL    HW2 3999   2.009   6.205   3.225
 1034SOL     OW 4000   1.327   5.474   2.997
 1034SOL    HW1 4001   1.283   5.509   3.079
 1034SOL    HW2 4002   1.382   5.546   2.955
 1035SOL     OW 4003   2.749   0.923   4.294
 1035SOL    HW1 4004   2.804   0.957   4.370
 1035SOL    HW2 4005   2.652   0.934   4.315
 1036SOL     OW 4006   4.953   1.172   6.724
 1036SOL    HW1 4007   4.903   1.249   6.764
 1036SOL    HW2 4008   4.977   1.192   6.630
 1037SOL     OW 4009   3.037   2.131   6.586
 1037SOL    HW1 4010   3.036   2.061   6.657
 1037SOL    HW2 4011   3.038   2.222   6.628
 1038SOL     OW 4012   2.588   1.198   4.427
 1038SOL    HW1 4013   2.504   1.246   4.452
 1038SOL    HW2 4014   2.566   1.121   4.366
 1039SOL     OW 4015   4.077   1.469   3.400
 1039SOL    HW1 4016   4.156   1.531   3.402
 1039SOL    HW2 4017   4.109   1.375   3.390
 1040SOL     OW 4018   6.281   3.864   3.439
 1040SOL    HW1 4019   6.198   3.896   3.485
 1040SOL    HW2 4020   6.361   3.893   3.491
 1041SOL     OW 4021   0.623   6.793   4.557
 1041SOL    HW1 4022   0.698   6.752   4.609
 1041SOL    HW2 4023   0.648   6.796   4.460
 1042SOL     OW 4024   5.263   4.052   0.908
 1042SOL    HW1 4025   5.236   4.049   1.004
 1042SOL    HW2 4026   5.296   3.961   0.880
 1043SOL     OW 4027   3.616   1.348   6.649
 1043SOL    HW1 4028   3.625   1.388   6.740
 1043SOL    HW2 4029   3.575   1.415   6.587
 1044SOL     OW 4030   4.121   3.814   1.804
 1044SOL    HW1 4031   4.220   3.813   1.799
 1044SOL    HW2 4032   4.089   3.743   1.867
 1045SOL     OW 4033   3.323   1.397   3.453
 1045SOL    HW1 4034   3.371   1.483   3.463
 1045SOL    HW2 4035   3.336   1.362   3.360
 1046SOL     OW 4036   3.978   0.949   2.025
 1046SOL    HW1 4037   3.956   1.003   2.106
 1046SOL    HW2 4038   3.913   0.972   1.952
 1047SOL     OW 4039   0.806   5.034   2.011
 1047SOL    HW1 4040   0.753   4.951   2.027
 1047SOL    HW2 4041   0.898   5.023   2.047
 1048SOL     OW 4042   6.447   4.612   5.365
 1048SOL    HW1 4043   6.429   4.709   5.384
 1048SOL    HW2 4044   6.539   4.602   5.326
 1049SOL     OW 4045   0.750   3.250   5.116
 1049SOL    HW1 4046   0.828   3.277   5.059
 1049SOL    HW2 4047   0.752   3.302   5.202
 1050SOL     OW 4048   3.316   0.549   6.667
 1050SOL    HW1 4049   3.253   0.474   6.647
 1050SOL    HW2 4050   3.295   0.588   6.757
 1051SOL     OW 4051   4.583   4.987   1.843
 1051SOL    HW1 4052   4.672   5.020   1.812
 1051SOL    HW2 4053   4.570   5.009   1.939
 1052SOL     OW 4054   3.158   0.068   4.328
 1052SOL    HW1 4055   3.226   0.142   4.326
 1052SOL    HW2 4056   3.102   0.073   4.245
 1053SOL     OW 4057   4.476   4.811   3.161
 1053SOL    HW1 4058   4.481   4.769   3.252
 1053SOL    HW2 4059   4.400   4.876   3.159
 1054SOL     OW 4060   3.798   6.281   4.090
 1054SOL    HW1 4061   3.704   6.304   4.067
 1054SOL    HW2 4062   3.799   6.207   4.158
 1055SOL     OW 4063   4.555   5.155   4.638
 1055SOL    HW1 4064   4.617   5.080   4.660
 1055SOL    HW2 4065   4.464   5.134   4.674
 1056SOL     OW 4066   1.504   6.147   5.501
 1056SOL    HW1 4067   1.547   6.096   5.428
 1056SOL    HW2 4068   1.418   6.187   5.468
 1057SOL     OW 4069   3.616   3.915   1.943
 1057SOL    HW1 4070   3.699   3.909   1.998
 1057SOL    HW2 4071   3.557   3.988   1.980
 1058SOL     OW 4072   3.628   0.479   1.298
 1058SOL    HW1 4073   3.562   0.524   1.237
 1058SOL    HW2 4074   3.618   0.380   1.290
 1059SOL     OW 4075   3.171   1.753   1.244
 1059SOL    HW1 4076   3.253   1.796   1.283
 1059SOL    HW2 4077   3.136   1.684   1.307
 1060SOL     OW 4078   2.583   2.099   4.910
 1060SOL    HW1 4079   2.491   2.082   4.874
 1060SOL    HW2 4080   2.632   2.160   4.849
 1061SOL     OW 4081   3.420   6.399   1.424
 1061SOL    HW1 4082   3.442   6.492   1.453
 1061SOL    HW2 4083   3.410   6.396   1.325
 1062SOL     OW 4084   4.903   4.186   5.238
 1062SOL    HW1 4085   4.936   4.136   5.318
 1062SOL    HW2 4086   4.885   4.281   5.264
 1063SOL     OW 4087   2.661   2.294   5.716
 1063SOL    HW1 4088   2.640   2.197   5.727
 1063SOL    HW2 4089   2.760   2.308   5.722
 1064SOL     OW 4090   0.223   3.437   1.485
 1064SOL    HW1 4091   0.231   3.512   1.419
 1064SOL    HW2 4092   0.199   3.353   1.437
 1065SOL     OW 4093   5.675   5.687   5.106
 1065SOL    HW1 4094   5.763   5.654   5.140
 1065SOL    HW2 4095   5.679   5.785   5.092
 1066SOL     OW 4096   3.542   0.649   3.734
 1066SOL    HW1 4097   3.520   0.609   3.823
 1066SOL    HW2 4098   3.466   0.634   3.671
 1067SOL     OW 4099   1.716   3.412   1.578
 1067SOL    HW1 4100   1.741   3.458   1.493
 1067SOL    HW2 4101   1.782   3.340   1.598
 1068SOL     OW 4102   0.923   3.934   1.395
 1068SOL    HW1 4103   0.900   4.029   1.418
 1068SOL    HW2 4104   0.839   3.881   1.384
 1069SOL     OW 4105   3.608   3.936   1.677
 1069SOL    HW1 4106   3.616   3.928   1.776
 1069SOL    HW2 4107   3.630   4.029   1.649
 1070SOL     OW 4108   2.164   0.659   6.747
 1070SOL    HW1 4109   2.187   0.738   6.803
 1070SOL    HW2 4110   2.096   0.685   6.678
 1071SOL     OW 4111   3.957   6.537   3.454
 1071SOL    HW1 4112   3.913   6.495   3.533
 1071SOL    HW2 4113   3.984   6.466   3.389
 1072SOL     OW 4114   3.543   5.840   3.242
 1072SOL    HW1 4115   3.520   5.757   3.293
 1072SOL    HW2 4116   3.575   5.815   3.150
 1073SOL     OW 4117   3.086   4.837   2.795
 1073SOL    HW1 4118   3.148   4.876   2.727
 1073SOL    HW2 4119   3.096   4.886   2.882
 1074SOL     OW 4120   1.542   5.266   2.341
 1074SOL    HW1 4121   1.449   5.302   2.348
 1074SOL    HW2 4122   1.542   5.185   2.282
 1075SOL     OW 4123   0.204   4.096   2.993
 1075SOL    HW1 4124   0.186   3.998   3.000
 1075SOL    HW2 4125   0.298   4.110   2.960
 1076SOL     OW 4126   0.204   4.910   3.407
 1076SOL    HW1 4127   0.163   4.832   3.360
 1076SOL    HW2 4128   0.162   4.995   3.374
 1077SOL     OW 4129   4.591   0.548   0.834
 1077SOL    HW1 4130   4.629   0.481   0.898
 1077SOL    HW2 4131   4.504   0.514   0.799
 1078SOL     OW 4132   1.034   2.908   2.033
 1078SOL    HW1 4133   1.065   2.845   1.961
 1078SOL    HW2 4134   1.077   2.997   2.019
 1079SOL     OW 4135   2.716   5.138   2.453
 1079SOL    HW1 4136   2.674   5.080   2.523
 1079SOL    HW2 4137   2.652   5.151   2.378
 1080SOL     OW 4138   1.188   5.577   4.147
 1080SOL    HW1 4139   1.146   5.553   4.060
 1080SOL    HW2 4140   1.241   5.499   4.181
 1081SOL     OW 4141   1.116   1.410   0.498
 1081SOL    HW1 4142   1.029   1.401   0.451
 1081SOL    HW2 4143   1.118   1.348   0.577
 1082SOL     OW 4144   2.189   6.969   6.715
 1082SOL    HW1 4145   2.133   6.965   6.632
 1082SOL    HW2 4146   2.246   0.028   6.712
 1083SOL     OW 4147   3.724   2.658   1.405
 1083SOL    HW1 4148   3.643   2.661   1.347
 1083SOL    HW2 4149   3.699   2.676   1.500
 1084SOL     OW 4150   6.269   3.536   0.549
 1084SOL    HW1 4151   6.176   3.522   0.515
 1084SOL    HW2 4152   6.318   3.449   0.550
 1085SOL     OW 4153   2.457   4.380   3.504
 1085SOL    HW1 4154   2.415   4.294   3.474
 1085SOL    HW2 4155   2.450   4.448   3.432
 1086SOL     OW 4156   4.334   5.113   1.837
 1086SOL    HW1 4157   4.430   5.091   1.823
 1086SOL    HW2 4158   4.277   5.040   1.800
 1087SOL     OW 4159   3.934   3.036   5.447
 1087SOL    HW1 4160   3.845   3.032   5.492
 1087SOL    HW2 4161   3.938   3.115   5.386
 1088SOL     OW 4162   5.314   4.056   3.438
 1088SOL    HW1 4163   5.348   3.968   3.403
 1088SOL    HW2 4164   5.235   4.040   3.497
 1089SOL     OW 4165   5.758   0.205   3.164
 1089SOL    HW1 4166   5.817   0.264   3.220
 1089SOL    HW2 4167   5.699   0.151   3.223
 1090SOL     OW 4168   0.770   1.812   5.202
 1090SOL    HW1 4169   0.705   1.877   5.242
 1090SOL    HW2 4170   0.832   1.779   5.273
 1091SOL     OW 4171   0.992   2.553   4.670
 1091SOL    HW1 4172   0.898   2.577   4.696
 1091SOL    HW2 4173   1.049   2.635   4.670
 1092SOL     OW 4174   2.178   4.653   1.340
 1092SOL    HW1 4175   2.111   4.666   1.413
 1092SOL    HW2 4176   2.264   4.696   1.365
 1093SOL     OW 4177   0.248   1.636   2.724
 1093SOL    HW1 4178   0.179   1.612   2.657
 1093SOL    HW2 4179   0.327   1.677   2.678
 1094SOL     OW 4180   0.679   6.458   1.484
 1094SOL    HW1 4181   0.770   6.438   1.447
 1094SOL    HW2 4182   0.683   6.456   1.584
 1095SOL     OW 4183   5.944   3.628   5.913
 1095SOL    HW1 4184   6.007   3.649   5.988
 1095SOL    HW2 4185   5.935   3.709   5.855
 1096SOL     OW 4186   3.585   4.402   1.602
 1096SOL    HW1 4187   3.499   4.352   1.600
 1096SOL    HW2 4188   3.586   4.464   1.680
 1097SOL     OW 4189   1.910   4.604   5.249
 1097SOL    HW1 4190   1.841   4.535   5.227
 1097SOL    HW2 4191   2.001   4.564   5.237
 1098SOL     OW 4192   4.173   1.217   3.295
 1098SOL    HW1 4193   4.174   1.131   3.347
 1098SOL    HW2 4194   4.190   1.197   3.198
 1099SOL     OW 4195   3.679   1.566   2.424
 1099SOL    HW1 4196   3.597   1.524   2.385
 1099SOL    HW2 4197   3.668   1.665   2.426
 1100SOL     OW 4198   0.751   0.592   0.943
 1100SOL    HW1 4199   0.826   0.608   1.007
 1100SOL    HW2 4200   0.697   0.514   0.973
 1101SOL     OW 4201   5.970   2.350   0.803
 1101SOL    HW1 4202   6.006   2.260   0.779
 1101SOL    HW2 4203   5.904   2.379   0.734
 1102SOL     OW 4204   0.725   4.400   3.966
 1102SOL    HW1 4205   0.677   4.359   3.889
 1102SOL    HW2 4206   0.683   4.368   4.052
 1103SOL     OW 4207   0.916   3.327   1.668
 1103SOL    HW1 4208   0.934   3.393   1.595
 1103SOL    HW2 4209   0.949   3.236   1.640
 1104SOL     OW 4210   3.115   5.309   5.778
 1104SOL    HW1 4211   3.186   5.295   5.847
 1104SOL    HW2 4212   3.028   5.327   5.824
 1105SOL     OW 4213   4.332   5.955   0.033
 1105SOL    HW1 4214   4.320   5.858   0.012
 1105SOL    HW2 4215   4.409   5.991   7.003
 1106SOL     OW 4216   1.347   1.791   5.544
 1106SOL    HW1 4217   1.340   1.712   5.606
 1106SOL    HW2 4218   1.367   1.873   5.597
 1107SOL     OW 4219   1.118   0.331   1.566
 1107SOL    HW1 4220   1.069   0.244   1.570
 1107SOL    HW2 4221   1.159   0.341   1.475
 1108SOL     OW 4222   1.360   1.560   5.847
 1108SOL    HW1 4223   1.265   1.530   5.833
 1108SOL    HW2 4224   1.402   1.506   5.920
 1109SOL     OW 4225   4.562   1.113   3.851
 1109SOL    HW1 4226   4.483   1.061   3.819
 1109SOL    HW2 4227   4.643   1.086   3.800
 1110SOL     OW 4228   3.557   2.841   1.959
 1110SOL    HW1 4229   3.579   2.744   1.950
 1110SOL    HW2 4230   3.641   2.892   1.977
 1111SOL     OW 4231   5.465   6.871   6.826
 1111SOL    HW1 4232   5.465   6.834   6.919
 1111SOL    HW2 4233   5.509   6.961   6.827
 1112SOL     OW 4234   0.152   1.259   2.723
 1112SOL    HW1 4235   0.229   1.268   2.786
 1112SOL    HW2 4236   0.168   1.315   2.642
 1113SOL     OW 4237   6.589   3.583   1.734
 1113SOL    HW1 4238   6.589   3.596   1.833
 1113SOL    HW2 4239   6.505   3.622   1.695
 1114SOL     OW 4240   5.605   1.462   5.064
 1114SOL    HW1 4241   5.675   1.531   5.049
 1114SOL    HW2 4242   5.520   1.507   5.092
 1115SOL     OW 4243   2.762   3.372   0.169
 1115SOL    HW1 4244   2.669   3.351   0.200
 1115SOL    HW2 4245   2.800   3.445   0.226
 1116SOL     OW 4246   4.341   5.396   5.235
 1116SOL    HW1 4247   4.332   5.477   5.294
 1116SOL    HW2 4248   4.433   5.393   5.197
 1117SOL     OW 4249   2.398   3.049   0.990
 1117SOL    HW1 4250   2.349   3.095   0.917
 1117SOL    HW2 4251   2.337   2.987   1.038
 1118SOL     OW 4252   1.972   3.742   3.480
 1118SOL    HW1 4253   1.881   3.702   3.471
 1118SOL    HW2 4254   2.039   3.680   3.439
 1119SOL     OW 4255   3.210   4.108   2.511
 1119SOL    HW1 4256   3.242   4.199   2.483
 1119SOL    HW2 4257   3.176   4.059   2.431
 1120SOL     OW 4258   4.140   0.315   4.338
 1120SOL    HW1 4259   4.203   0.238   4.351
 1120SOL    HW2 4260   4.088   0.301   4.254
 1121SOL     OW 4261   5.183   3.003   2.214
 1121SOL    HW1 4262   5.223   3.093   2.196
 1121SOL    HW2 4263   5.084   3.007   2.199
 1122SOL     OW 4264   4.751   4.962   6.807
 1122SOL    HW1 4265   4.676   4.901   6.830
 1122SOL    HW2 4266   4.759   4.971   6.707
 1123SOL     OW 4267   3.919   0.635   1.962
 1123SOL    HW1 4268   3.872   0.661   2.046
 1123SOL    HW2 4269   3.970   0.550   1.976
 1124SOL     OW 4270   0.754   4.532   4.813
 1124SOL    HW1 4271   0.793   4.583   4.890
 1124SOL    HW2 4272   0.704   4.594   4.753
 1125SOL     OW 4273   3.977   3.397   5.041
 1125SOL    HW1 4274   3.930   3.358   4.962
 1125SOL    HW2 4275   4.057   3.448   5.010
 1126SOL     OW 4276   5.681   0.469   2.436
 1126SOL    HW1 4277   5.602   0.408   2.430
 1126SOL    HW2 4278   5.746   0.446   2.363
 1127SOL     OW 4279   1.191   4.737   6.880
 1127SOL    HW1 4280   1.258   4.665   6.899
 1127SOL    HW2 4281   1.234   4.826   6.888
 1128SOL     OW 4282   3.195   1.604   4.481
 1128SOL    HW1 4283   3.256   1.676   4.449
 1128SOL    HW2 4284   3.206   1.522   4.425
 1129SOL     OW 4285   5.042   0.070   6.563
 1129SOL    HW1 4286   4.963   0.081   6.503
 1129SOL    HW2 4287   5.045   0.144   6.630
 1130SOL     OW 4288   0.178   4.815   5.847
 1130SOL    HW1 4289   0.170   4.725   5.891
 1130SOL    HW2 4290   0.255   4.865   5.888
 1131SOL     OW 4291   0.709   4.964   5.720
 1131SOL    HW1 4292   0.776   4.896   5.750
 1131SOL    HW2 4293   0.673   5.013   5.799
 1132SOL     OW 4294   4.953   0.395   5.145
 1132SOL    HW1 4295   4.866   0.399   5.194
 1132SOL    HW2 4296   5.007   0.477   5.164
 1133SOL     OW 4297   0.847   2.680   0.985
 1133SOL    HW1 4298   0.762   2.629   0.972
 1133SOL    HW2 4299   0.914   2.622   1.032
 1134SOL     OW 4300   6.385   2.877   5.835
 1134SOL    HW1 4301   6.405   2.806   5.903
 1134SOL    HW2 4302   6.471   2.906   5.792
 1135SOL     OW 4303   5.230   1.830   3.212
 1135SOL    HW1 4304   5.292   1.796   3.283
 1135SOL    HW2 4305   5.278   1.896   3.154
 1136SOL     OW 4306   3.855   5.525   4.158
 1136SOL    HW1 4307   3.877   5.428   4.149
 1136SOL    HW2 4308   3.774   5.536   4.216
 1137SOL     OW 4309   1.994   1.177   5.291
 1137SOL    HW1 4310   2.040   1.162   5.378
 1137SOL    HW2 4311   1.972   1.274   5.282
 1138SOL     OW 4312   0.729   4.462   5.690
 1138SOL    HW1 4313   0.752   4.549   5.645
 1138SOL    HW2 4314   0.812   4.406   5.697
 1139SOL     OW 4315   1.293   6.542   1.595
 1139SOL    HW1 4316   1.203   6.567   1.561
 1139SOL    HW2 4317   1.327   6.463   1.544
 1140SOL     OW 4318   3.439   1.630   3.496
 1140SOL    HW1 4319   3.518   1.609   3.553
 1140SOL    HW2 4320   3.371   1.679   3.550
 1141SOL     OW 4321   6.751   5.949   5.814
 1141SOL    HW1 4322   6.842   5.957   5.855
 1141SOL    HW2 4323   6.681   5.968   5.883
 1142SOL     OW 4324   5.807   0.914   4.193
 1142SOL    HW1 4325   5.860   0.847   4.140
 1142SOL    HW2 4326   5.738   0.956   4.135
 1143SOL     OW 4327   4.109   1.886   2.390
 1143SOL    HW1 4328   4.044   1.832   2.337
 1143SOL    HW2 4329   4.114   1.849   2.483
 1144SOL     OW 4330   1.179   6.394   5.706
 1144SOL    HW1 4331   1.183   6.294   5.703
 1144SOL    HW2 4332   1.164   6.424   5.800
 1145SOL     OW 4333   1.316   5.141   5.211
 1145SOL    HW1 4334   1.415   5.135   5.219
 1145SOL    HW2 4335   1.275   5.055   5.239
 1146SOL     OW 4336   6.046   2.074   0.752
 1146SOL    HW1 4337   6.142   2.084   0.724
 1146SOL    HW2 4338   5.987   2.097   0.675
 1147SOL     OW 4339   6.042   2.719   1.711
 1147SOL    HW1 4340   6.001   2.747   1.625
 1147SOL    HW2 4341   6.103   2.641   1.695
 1148SOL     OW 4342   4.348   0.529   0.205
 1148SOL    HW1 4343   4.416   0.458   0.184
 1148SOL    HW2 4344   4.395   0.615   0.225
 1149SOL     OW 4345   6.858   3.222   2.717
 1149SOL    HW1 4346   6.900   3.306   2.754
 1149SOL    HW2 4347   6.774   3.203   2.768
 1150SOL     OW 4348   1.212   4.858   6.067
 1150SOL    HW1 4349   1.188   4.904   5.981
 1150SOL    HW2 4350   1.192   4.918   6.144
 1151SOL     OW 4351   4.475   5.523   6.835
 1151SOL    HW1 4352   4.491   5.449   6.771
 1151SOL    HW2 4353   4.546   5.593   6.823
 1152SOL     OW 4354   0.206   0.383   5.134
 1152SOL    HW1 4355   0.208   0.479   5.160
 1152SOL    HW2 4356   0.278   0.333   5.182
 1153SOL     OW 4357   2.403   5.345   2.470
 1153SOL    HW1 4358   2.382   5.405   2.393
 1153SOL    HW2 4359   2.464   5.272   2.440
 1154SOL     OW 4360   2.370   4.210   1.913
 1154SOL    HW1 4361   2.285   4.183   1.957
 1154SOL    HW2 4362   2.403   4.295   1.953
 1155SOL     OW 4363   3.155   5.690   1.921
 1155SOL    HW1 4364   3.251   5.719   1.921
 1155SOL    HW2 4365   3.138   5.634   2.002
 1156SOL     OW 4366   1.586   1.072   4.198
 1156SOL    HW1 4367   1.488   1.056   4.195
 1156SOL    HW2 4368   1.626   1.020   4.274
 1157SOL     OW 4369   1.221   2.233   4.458
 1157SOL    HW1 4370   1.145   2.169   4.447
 1157SOL    HW2 4371   1.210   2.309   4.394
 1158SOL     OW 4372   4.550   5.218   5.416
 1158SOL    HW1 4373   4.495   5.280   5.472
 1158SOL    HW2 4374   4.519   5.124   5.427
 1159SOL     OW 4375   5.254   5.143   3.275
 1159SOL    HW1 4376   5.239   5.105   3.184
 1159SOL    HW2 4377   5.218   5.081   3.344
 1160SOL     OW 4378   2.528   2.441   0.756
 1160SOL    HW1 4379   2.511   2.442   0.657
 1160SOL    HW2 4380   2.440   2.439   0.804
 1161SOL     OW 4381   4.065   7.016   4.330
 1161SOL    HW1 4382   4.162   0.016   4.327
 1161SOL    HW2 4383   4.021   0.041   4.407
 1162SOL     OW 4384   3.894   4.523   1.570
 1162SOL    HW1 4385   3.917   4.511   1.473
 1162SOL    HW2 4386   3.940   4.453   1.624
 1163SOL     OW 4387   4.724   2.283   2.363
 1163SOL    HW1 4388   4.808   2.335   2.378
 1163SOL    HW2 4389   4.645   2.339   2.389
 1164SOL     OW 4390   5.848   3.536   3.820
 1164SOL    HW1 4391   5.805   3.617   3.781
 1164SOL    HW2 4392   5.924   3.507   3.762
 1165SOL     OW 4393   1.543   4.692   2.085
 1165SOL    HW1 4394   1.483   4.637   2.026
 1165SOL    HW2 4395   1.490   4.766   2.126
 1166SOL     OW 4396   3.580   2.972   6.416
 1166SOL    HW1 4397   3.575   2.889   6.472
 1166SOL    HW2 4398   3.631   2.953   6.332
 1167SOL     OW 4399   4.878   1.504   4.354
 1167SOL    HW1 4400   4.873   1.558   4.270
 1167SOL    HW2 4401   4.845   1.559   4.430
 1168SOL     OW 4402   6.294   6.143   3.471
 1168SOL    HW1 4403   6.224   6.137   3.400
 1168SOL    HW2 4404   6.293   6.234   3.511
 1169SOL     OW 4405   1.151   3.612   1.678
 1169SOL    HW1 4406   1.182   3.707   1.676
 1169SOL    HW2 4407   1.144   3.577   1.585
 1170SOL     OW 4408   2.590   0.493   0.784
 1170SOL    HW1 4409   2.610   0.572   0.726
 1170SOL    HW2 4410   2.590   0.410   0.728
 1171SOL     OW 4411   2.111   6.831   0.709
 1171SOL    HW1 4412   2.031   6.891   0.710
 1171SOL    HW2 4413   2.188   6.880   0.666
 1172SOL     OW 4414   2.947   3.209   4.945
 1172SOL    HW1 4415   2.934   3.111   4.961
 1172SOL    HW2 4416   2.956   3.257   5.033
 1173SOL     OW 4417   4.892   0.730   6.147
 1173SOL    HW1 4418   4.917   0.735   6.243
 1173SOL    HW2 4419   4.939   0.804   6.097
 1174SOL     OW 4420   3.120   6.600   0.847
 1174SOL    HW1 4421   3.198   6.555   0.801
 1174SOL    HW2 4422   3.131   6.591   0.946
 1175SOL     OW 4423   6.845   4.798   5.126
 1175SOL    HW1 4424   6.788   4.867   5.169
 1175SOL    HW2 4425   6.920   4.842   5.076
 1176SOL     OW 4426   6.805   3.642   1.053
 1176SOL    HW1 4427   6.868   3.683   0.987
 1176SOL    HW2 4428   6.856   3.607   1.131
 1177SOL     OW 4429   6.279   3.431   0.136
 1177SOL    HW1 4430   6.241   3.406   0.047
 1177SOL    HW2 4431   6.233   3.379   0.208
 1178SOL     OW 4432   5.652   4.113   1.804
 1178SOL    HW1 4433   5.669   4.015   1.798
 1178SOL    HW2 4434   5.573   4.130   1.863
 1179SOL     OW 4435   2.748   5.615   6.501
 1179SOL    HW1 4436   2.801   5.687   6.456
 1179SOL    HW2 4437   2.653   5.645   6.511
 1180SOL     OW 4438   2.635   2.065   4.038
 1180SOL    HW1 4439   2.672   1.985   3.991
 1180SOL    HW2 4440   2.540   2.048   4.064
 1181SOL     OW 4441   2.161   4.568   3.346
 1181SOL    HW1 4442   2.243   4.515   3.324
 1181SOL    HW2 4443   2.163   4.595   3.442
 1182SOL     OW 4444   1.428   4.626   3.573
 1182SOL    HW1 4445   1.370   4.545   3.567
 1182SOL    HW2 4446   1.391   4.698   3.515
 1183SOL     OW 4447   4.632   5.701   0.966
 1183SOL    HW1 4448   4.585   5.616   0.943
 1183SOL    HW2 4449   4.568   5.777   0.959
 1184SOL     OW 4450   3.204   2.487   5.649
 1184SOL    HW1 4451   3.217   2.412   5.714
 1184SOL    HW2 4452   3.151   2.454   5.571
 1185SOL     OW 4453   2.203   2.002   0.319
 1185SOL    HW1 4454   2.255   2.083   0.292
 1185SOL    HW2 4455   2.247   1.960   0.398
 1186SOL     OW 4456   4.103   1.052   5.187
 1186SOL    HW1 4457   4.122   0.954   5.190
 1186SOL    HW2 4458   4.005   1.068   5.199
 1187SOL     OW 4459   7.020   0.962   5.791
 1187SOL    HW1 4460   6.970   0.894   5.737
 1187SOL    HW2 4461   0.078   0.992   5.740
 1188SOL     OW 4462   1.429   0.055   5.750
 1188SOL    HW1 4463   1.475   6.990   5.761
 1188SOL    HW2 4464   1.330   0.041   5.749
 1189SOL     OW 4465   6.807   1.003   1.578
 1189SOL    HW1 4466   6.812   0.946   1.496
 1189SOL    HW2 4467   6.732   1.069   1.568
 1190SOL     OW 4468   4.663   4.611   2.751
 1190SOL    HW1 4469   4.574   4.654   2.740
 1190SOL    HW2 4470   4.659   4.517   2.718
 1191SOL     OW 4471   3.453   4.947   0.232
 1191SOL    HW1 4472   3.518   5.022   0.216
 1191SOL    HW2 4473   3.502   4.860   0.228
 1192SOL     OW 4474   4.592   4.988   2.105
 1192SOL    HW1 4475   4.502   4.996   2.148
 1192SOL    HW2 4476   4.661   5.033   2.162
 1193SOL     OW 4477   4.316   6.654   3.801
 1193SOL    HW1 4478   4.288   6.595   3.876
 1193SOL    HW2 4479   4.237   6.676   3.744
 1194SOL     OW 4480   6.107   0.274   1.605
 1194SOL    HW1 4481   6.156   0.301   1.523
 1194SOL    HW2 4482   6.069   0.182   1.593
 1195SOL     OW 4483   4.053   0.217   6.752
 1195SOL    HW1 4484   3.975   0.280   6.758
 1195SOL    HW2 4485   4.101   0.232   6.666
 1196SOL     OW 4486   0.163   5.641   2.987
 1196SOL    HW1 4487   0.196   5.560   3.036
 1196SOL    HW2 4488   0.216   5.721   3.015
 1197SOL     OW 4489   3.012   5.354   6.240
 1197SOL    HW1 4490   3.014   5.452   6.223
 1197SOL    HW2 4491   3.034   5.336   6.335
 1198SOL     OW 4492   3.397   1.548   2.619
 1198SOL    HW1 4493   3.387   1.616   2.547
 1198SOL    HW2 4494   3.494   1.526   2.632
 1199SOL     OW 4495   3.474   4.004   3.725
 1199SOL    HW1 4496   3.514   4.061   3.653
 1199SOL    HW2 4497   3.374   4.009   3.720
 1200SOL     OW 4498   3.950   3.822   0.624
 1200SOL    HW1 4499   3.992   3.745   0.673
 1200SOL    HW2 4500   3.902   3.788   0.543
 1201SOL     OW 4501   1.601   0.588   4.604
 1201SOL    HW1 4502   1.554   0.675   4.620
 1201SOL    HW2 4503   1.698   0.599   4.623
 1202SOL     OW 4504   5.788   0.401   5.084
 1202SOL    HW1 4505   5.872   0.378   5.035
 1202SOL    HW2 4506   5.720   0.329   5.071
 1203SOL     OW 4507   6.144   6.528   1.802
 1203SOL    HW1 4508   6.206   6.480   1.740
 1203SOL    HW2 4509   6.137   6.476   1.888
 1204SOL     OW 4510   3.036   0.002   0.073
 1204SOL    HW1 4511   2.987   0.017   7.010
 1204SOL    HW2 4512   2.987   6.960   0.129
 1205SOL     OW 4513   0.556   1.947   5.296
 1205SOL    HW1 4514   0.479   1.882   5.297
 1205SOL    HW2 4515   0.524   2.037   5.327
 1206SOL     OW 4516   0.747   1.614   4.975
 1206SOL    HW1 4517   0.826   1.644   4.921
 1206SOL    HW2 4518   0.681   1.689   4.981
 1207SOL     OW 4519   5.888   6.008   6.444
 1207SOL    HW1 4520   5.919   5.945   6.372
 1207SOL    HW2 4521   5.835   6.082   6.403
 1208SOL     OW 4522   3.940   3.947   3.604
 1208SOL    HW1 4523   3.959   4.035   3.647
 1208SOL    HW2 4524   3.844   3.923   3.617
 1209SOL     OW 4525   6.297   4.477   4.863
 1209SOL    HW1 4526   6.257   4.562   4.827
 1209SOL    HW2 4527   6.374   4.450   4.806
 1210SOL     OW 4528   2.849   6.559   2.785
 1210SOL    HW1 4529   2.880   6.592   2.874
 1210SOL    HW2 4530   2.920   6.578   2.716
 1211SOL     OW 4531   1.312   3.459   4.007
 1211SOL    HW1 4532   1.266   3.487   4.092
 1211SOL    HW2 4533   1.404   3.498   4.005
 1212SOL     OW 4534   2.262   4.132   4.750
 1212SOL    HW1 4535   2.202   4.212   4.752
 1212SOL    HW2 4536   2.300   4.115   4.841
 1213SOL     OW 4537   5.758   2.752   5.653
 1213SOL    HW1 4538   5.748   2.830   5.715
 1213SOL    HW2 4539   5.719   2.671   5.696
 1214SOL     OW 4540   1.696   2.654   2.815
 1214SOL    HW1 4541   1.705   2.725   2.746
 1214SOL    HW2 4542   1.681   2.566   2.770
 1215SOL     OW 4543   0.162   5.058   2.055
 1215SOL    HW1 4544   0.086   5.099   2.105
 1215SOL    HW2 4545   0.231   5.129   2.036
 1216SOL     OW 4546   2.963   0.392   1.756
 1216SOL    HW1 4547   3.009   0.433   1.834
 1216SOL    HW2 4548   2.918   0.307   1.784
 1217SOL     OW 4549   1.300   1.441   2.788
 1217SOL    HW1 4550   1.289   1.486   2.699
 1217SOL    HW2 4551   1.327   1.345   2.772
 1218SOL     OW 4552   0.416   3.696   4.381
 1218SOL    HW1 4553   0.364   3.630   4.434
 1218SOL    HW2 4554   0.399   3.682   4.284
 1219SOL     OW 4555   2.543   5.957   3.536
 1219SOL    HW1 4556   2.618   5.899   3.506
 1219SOL    HW2 4557   2.572   6.009   3.617
 1220SOL     OW 4558   6.675   4.230   2.610
 1220SOL    HW1 4559   6.662   4.307   2.548
 1220SOL    HW2 4560   6.589   4.208   2.654
 1221SOL     OW 4561   4.948   3.687   6.816
 1221SOL    HW1 4562   4.894   3.702   6.734
 1221SOL    HW2 4563   4.894   3.638   6.884
 1222SOL     OW 4564   5.517   5.859   1.272
 1222SOL    HW1 4565   5.494   5.846   1.368
 1222SOL    HW2 4566   5.616   5.851   1.260
 1223SOL     OW 4567   5.708   5.250   5.222
 1223SOL    HW1 4568   5.702   5.318   5.295
 1223SOL    HW2 4569   5.711   5.158   5.262
 1224SOL     OW 4570   4.676   4.721   1.838
 1224SOL    HW1 4571   4.624   4.796   1.879
 1224SOL    HW2 4572   4.766   4.755   1.809
 1225SOL     OW 4573   4.458   1.189   0.261
 1225SOL    HW1 4574   4.470   1.157   0.167
 1225SOL    HW2 4575   4.395   1.129   0.309
 1226SOL     OW 4576   5.066   5.020   0.473
 1226SOL    HW1 4577   4.980   4.992   0.432
 1226SOL    HW2 4578   5.083   4.965   0.555
 1227SOL     OW 4579   5.150   4.864   6.658
 1227SOL    HW1 4580   5.223   4.903   6.715
 1227SOL    HW2 4581   5.118   4.933   6.594
 1228SOL     OW 4582   3.699   3.471   4.611
 1228SOL    HW1 4583   3.689   3.373   4.591
 1228SOL    HW2 4584   3.612   3.508   4.643
 1229SOL     OW 4585   2.098   5.684   2.818
 1229SOL    HW1 4586   2.183   5.681   2.870
 1229SOL    HW2 4587   2.119   5.682   2.720
 1230SOL     OW 4588   5.227   5.065   1.842
 1230SOL    HW1 4589   5.246   5.121   1.922
 1230SOL    HW2 4590   5.223   4.969   1.869
 1231SOL     OW 4591   1.846   2.136   7.021
 1231SOL    HW1 4592   1.808   2.226   0.019
 1231SOL    HW2 4593   1.938   2.147   6.985
 1232SOL     OW 4594   2.949   1.177   4.813
 1232SOL    HW1 4595   2.883   1.214   4.747
 1232SOL    HW2 4596   2.959   1.241   4.889
 1233SOL     OW 4597   6.906   5.812   5.272
 1233SOL    HW1 4598   6.882   5.804   5.368
 1233SOL    HW2 4599   6.907   5.909   5.246
 1234SOL     OW 4600   6.140   3.644   6.996
 1234SOL    HW1 4601   6.093   3.732   6.985
 1234SOL    HW2 4602   6.120   3.608   0.064
 1235SOL     OW 4603   6.373   5.186   1.458
 1235SOL    HW1 4604   6.413   5.173   1.549
 1235SOL    HW2 4605   6.437   5.153   1.388
 1236SOL     OW 4606   1.534   1.674   2.860
 1236SOL    HW1 4607   1.627   1.655   2.891
 1236SOL    HW2 4608   1.481   1.589   2.860
 1237SOL     OW 4609   1.111   6.860   5.064
 1237SOL    HW1 4610   1.077   6.865   5.158
 1237SOL    HW2 4611   1.036   6.834   5.003
 1238SOL     OW 4612   0.606   0.368   4.594
 1238SOL    HW1 4613   0.656   0.433   4.537
 1238SOL    HW2 4614   0.671   0.308   4.641
 1239SOL     OW 4615   5.283   5.029   4.168
 1239SOL    HW1 4616   5.240   5.063   4.085
 1239SOL    HW2 4617   5.301   5.105   4.231
 1240SOL     OW 4618   1.089   4.022   2.128
 1240SOL    HW1 4619   1.131   3.955   2.189
 1240SOL    HW2 4620   0.993   3.996   2.112
 1241SOL     OW 4621   4.127   5.452   5.510
 1241SOL    HW1 4622   4.193   5.506   5.562
 1241SOL    HW2 4623   4.119   5.489   5.418
 1242SOL     OW 4624   2.042   4.340   0.911
 1242SOL    HW1 4625   2.107   4.317   0.983
 1242SOL    HW2 4626   1.973   4.268   0.903
 1243SOL     OW 4627   0.682   3.716   4.057
 1243SOL    HW1 4628   0.627   3.640   4.022
 1243SOL    HW2 4629   0.771   3.683   4.087
 1244SOL     OW 4630   6.135   0.415   5.634
 1244SOL    HW1 4631   6.129   0.344   5.565
 1244SOL    HW2 4632   6.231   0.430   5.659
 1245SOL     OW 4633   4.982   6.259   1.202
 1245SOL    HW1 4634   4.884   6.238   1.198
 1245SOL    HW2 4635   4.995   6.357   1.184
 1246SOL     OW 4636   5.233   0.928   0.705
 1246SOL    HW1 4637   5.169   0.958   0.775
 1246SOL    HW2 4638   5.187   0.929   0.616
 1247SOL     OW 4639   6.687   6.949   2.788
 1247SOL    HW1 4640   6.718   6.854   2.800
 1247SOL    HW2 4641   6.643   6.980   2.872
 1248SOL     OW 4642   1.252   6.516   4.437
 1248SOL    HW1 4643   1.286   6.520   4.343
 1248SOL    HW2 4644   1.204   6.601   4.459
 1249SOL     OW 4645   5.991   5.667   6.339
 1249SOL    HW1 4646   5.951   5.726   6.268
 1249SOL    HW2 4647   5.917   5.630   6.396
 1250SOL     OW 4648   0.226   2.969   4.977
 1250SOL    HW1 4649   0.217   2.886   4.922
 1250SOL    HW2 4650   0.136   3.011   4.990
 1251SOL     OW 4651   2.836   0.862   2.780
 1251SOL    HW1 4652   2.790   0.935   2.831
 1251SOL    HW2 4653   2.851   0.892   2.686
 1252SOL     OW 4654   2.010   5.731   6.306
 1252SOL    HW1 4655   2.077   5.790   6.351
 1252SOL    HW2 4656   2.024   5.735   6.207
 1253SOL     OW 4657   3.301   0.062   0.071
 1253SOL    HW1 4658   3.353   0.001   0.012
 1253SOL    HW2 4659   3.203   0.041   0.063
 1254SOL     OW 4660   5.892   0.619   3.162
 1254SOL    HW1 4661   5.868   0.693   3.224
 1254SOL    HW2 4662   5.914   0.537   3.216
 1255SOL     OW 4663   5.718   1.369   5.673
 1255SOL    HW1 4664   5.731   1.455   5.723
 1255SOL    HW2 4665   5.634   1.325   5.704
 1256SOL     OW 4666   0.019   5.733   4.856
 1256SOL    HW1 4667   6.963   5.709   4.911
 1256SOL    HW2 4668   0.012   5.689   4.766
 1257SOL     OW 4669   0.149   6.137   3.249
 1257SOL    HW1 4670   0.181   6.067   3.312
 1257SOL    HW2 4671   0.055   6.117   3.221
 1258SOL     OW 4672   4.507   5.600   6.024
 1258SOL    HW1 4673   4.483   5.560   5.936
 1258SOL    HW2 4674   4.454   5.683   6.039
 1259SOL     OW 4675   5.782   0.285   5.392
 1259SOL    HW1 4676   5.684   0.290   5.373
 1259SOL    HW2 4677   5.813   0.373   5.427
 1260SOL     OW 4678   2.961   1.255   1.458
 1260SOL    HW1 4679   3.059   1.269   1.475
 1260SOL    HW2 4680   2.908   1.316   1.517
 1261SOL     OW 4681   6.750   4.543   5.361
 1261SOL    HW1 4682   6.849   4.547   5.375
 1261SOL    HW2 4683   6.732   4.505   5.270
 1262SOL     OW 4684   4.136   4.925   1.184
 1262SOL    HW1 4685   4.073   4.988   1.138
 1262SOL    HW2 4686   4.094   4.893   1.269
 1263SOL     OW 4687   6.291   2.208   0.961
 1263SOL    HW1 4688   6.254   2.155   1.037
 1263SOL    HW2 4689   6.307   2.148   0.882
 1264SOL     OW 4690   6.811   2.871   3.943
 1264SOL    HW1 4691   6.767   2.871   4.032
 1264SOL    HW2 4692   6.772   2.799   3.885
 1265SOL     OW 4693   6.965   5.981   4.659
 1265SOL    HW1 4694   6.885   5.971   4.601
 1265SOL    HW2 4695   6.939   6.027   4.744
 1266SOL     OW 4696   2.327   1.261   4.425
 1266SOL    HW1 4697   2.330   1.172   4.470
 1266SOL    HW2 4698   2.236   1.301   4.434
 1267SOL     OW 4699   6.428   5.022   2.567
 1267SOL    HW1 4700   6.381   5.103   2.532
 1267SOL    HW2 4701   6.418   5.018   2.667
 1268SOL     OW 4702   6.005   3.494   0.518
 1268SOL    HW1 4703   5.990   3.545   0.433
 1268SOL    HW2 4704   5.998   3.557   0.595
 1269SOL     OW 4705   6.870   5.619   6.027
 1269SOL    HW1 4706   6.777   5.645   6.052
 1269SOL    HW2 4707   6.934   5.686   6.065
 1270SOL     OW 4708   1.897   2.563   5.031
 1270SOL    HW1 4709   1.871   2.638   5.091
 1270SOL    HW2 4710   1.918   2.599   4.940
 1271SOL     OW 4711   4.965   2.035   2.942
 1271SOL    HW1 4712   4.901   2.026   3.019
 1271SOL    HW2 4713   4.932   1.981   2.865
 1272SOL     OW 4714   0.122   6.607   2.044
 1272SOL    HW1 4715   0.124   6.703   2.015
 1272SOL    HW2 4716   0.204   6.561   2.013
 1273SOL     OW 4717   2.667   6.267   6.752
 1273SOL    HW1 4718   2.636   6.203   6.822
 1273SOL    HW2 4719   2.753   6.308   6.781
 1274SOL     OW 4720   6.399   2.477   1.425
 1274SOL    HW1 4721   6.491   2.452   1.395
 1274SOL    HW2 4722   6.339   2.486   1.346
 1275SOL     OW 4723   4.024   1.759   3.861
 1275SOL    HW1 4724   3.955   1.830   3.875
 1275SOL    HW2 4725   3.985   1.670   3.886
 1276SOL     OW 4726   6.230   0.354   3.247
 1276SOL    HW1 4727   6.263   0.386   3.158
 1276SOL    HW2 4728   6.306   0.351   3.312
 1277SOL     OW 4729   0.169   1.123   5.044
 1277SOL    HW1 4730   0.148   1.221   5.038
 1277SOL    HW2 4731   0.261   1.111   5.082
 1278SOL     OW 4732   2.902   1.702   5.182
 1278SOL    HW1 4733   2.906   1.799   5.205
 1278SOL    HW2 4734   2.994   1.669   5.160
 1279SOL     OW 4735   2.686   5.272   6.950
 1279SOL    HW1 4736   2.729   5.261   0.016
 1279SOL    HW2 4737   2.743   5.230   6.880
 1280SOL     OW 4738   1.815   6.478   3.227
 1280SOL    HW1 4739   1.863   6.558   3.191
 1280SOL    HW2 4740   1.882   6.407   3.252
 1281SOL     OW 4741   0.914   6.837   3.943
 1281SOL    HW1 4742   0.853   6.764   3.912
 1281SOL    HW2 4743   0.969   6.869   3.866
 1282SOL     OW 4744   1.177   0.715   2.502
 1282SOL    HW1 4745   1.160   0.617   2.486
 1282SOL    HW2 4746   1.189   0.761   2.414
 1283SOL     OW 4747   5.242   5.037   5.590
 1283SOL    HW1 4748   5.206   5.021   5.497
 1283SOL    HW2 4749   5.326   5.090   5.584
 1284SOL     OW 4750   2.522   1.970   2.453
 1284SOL    HW1 4751   2.612   1.981   2.412
 1284SOL    HW2 4752   2.484   1.881   2.427
 1285SOL     OW 4753   5.242   2.289   5.723
 1285SOL    HW1 4754   5.147   2.257   5.722
 1285SOL    HW2 4755   5.284   2.265   5.811
 1286SOL     OW 4756   6.090   5.699   1.432
 1286SOL    HW1 4757   6.098   5.618   1.374
 1286SOL    HW2 4758   5.994   5.726   1.440
 1287SOL     OW 4759   6.226   5.010   6.089
 1287SOL    HW1 4760   6.170   4.970   6.162
 1287SOL    HW2 4761   6.317   5.031   6.126
 1288SOL     OW 4762   6.584   2.498   2.903
 1288SOL    HW1 4763   6.667   2.447   2.924
 1288SOL    HW2 4764   6.555   2.479   2.810
 1289SOL     OW 4765   6.291   5.935   2.722
 1289SOL    HW1 4766   6.350   5.922   2.642
 1289SOL    HW2 4767   6.273   5.846   2.764
 1290SOL     OW 4768   0.822   6.938   1.476
 1290SOL    HW1 4769   0.919   6.942   1.503
 1290SOL    HW2 4770   0.810   6.985   1.389
 1291SOL     OW 4771   2.433   6.793   0.485
 1291SOL    HW1 4772   2.405   6.862   0.552
 1291SOL    HW2 4773   2.374   6.712   0.494
 1292SOL     OW 4774   1.235   6.015   0.079
 1292SOL    HW1 4775   1.333   5.999   0.085
 1292SOL    HW2 4776   1.217   6.086   0.011
 1293SOL     OW 4777   0.422   2.738   5.784
 1293SOL    HW1 4778   0.517   2.720   5.810
 1293SOL    HW2 4779   0.366   2.658   5.802
 1294SOL     OW 4780   6.738   1.664   2.607
 1294SOL    HW1 4781   6.806   1.594   2.627
 1294SOL    HW2 4782   6.663   1.659   2.673
 1295SOL     OW 4783   6.099   3.026   1.767
 1295SOL    HW1 4784   6.059   3.058   1.681
 1295SOL    HW2 4785   6.090   2.927   1.774
 1296SOL     OW 4786   3.670   2.640   6.253
 1296SOL    HW1 4787   3.745   2.669   6.313
 1296SOL    HW2 4788   3.708   2.606   6.167
 1297SOL     OW 4789   6.855   1.635   6.260
 1297SOL    HW1 4790   6.937   1.687   6.285
 1297SOL    HW2 4791   6.880   1.562   6.197
 1298SOL     OW 4792   5.728   3.137   3.226
 1298SOL    HW1 4793   5.802   3.164   3.288
 1298SOL    HW2 4794   5.640   3.160   3.266
 1299SOL     OW 4795   1.036   3.836   4.015
 1299SOL    HW1 4796   0.960   3.859   3.954
 1299SOL    HW2 4797   1.020   3.876   4.105
 1300SOL     OW 4798   2.736   3.263   1.294
 1300SOL    HW1 4799   2.713   3.332   1.363
 1300SOL    HW2 4800   2.797   3.303   1.225
 1301SOL     OW 4801   0.157   0.456   2.957
 1301SOL    HW1 4802   0.231   0.421   2.899
 1301SOL    HW2 4803   0.196   0.494   3.041
 1302SOL     OW 4804   2.264   5.958   5.021
 1302SOL    HW1 4805   2.201   5.882   5.040
 1302SOL    HW2 4806   2.319   5.936   4.941
 1303SOL     OW 4807   3.692   0.978   1.341
 1303SOL    HW1 4808   3.613   1.039   1.350
 1303SOL    HW2 4809   3.725   0.981   1.247
 1304SOL     OW 4810   2.910   0.761   6.591
 1304SOL    HW1 4811   2.979   0.806   6.535
 1304SOL    HW2 4812   2.920   0.661   6.581
 1305SOL     OW 4813   5.127   6.821   4.768
 1305SOL    HW1 4814   5.208   6.878   4.776
 1305SOL    HW2 4815   5.068   6.835   4.847
 1306SOL     OW 4816   0.988   4.465   4.051
 1306SOL    HW1 4817   0.893   4.443   4.029
 1306SOL    HW2 4818   0.996   4.485   4.148
 1307SOL     OW 4819   1.927   1.826   4.245
 1307SOL    HW1 4820   2.026   1.822   4.234
 1307SOL    HW2 4821   1.905   1.826   4.342
 1308SOL     OW 4822   4.629   5.647   2.680
 1308SOL    HW1 4823   4.577   5.600   2.608
 1308SOL    HW2 4824   4.636   5.587   2.760
 1309SOL     OW 4825   5.799   2.960   4.844
 1309SOL    HW1 4826   5.726   2.900   4.876
 1309SOL    HW2 4827   5.769   3.055   4.847
 1310SOL     OW 4828   4.772   3.729   5.362
 1310SOL    HW1 4829   4.830   3.693   5.434
 1310SOL    HW2 4830   4.735   3.654   5.308
 1311SOL     OW 4831   5.065   5.606   5.279
 1311SOL    HW1 4832   5.113   5.689   5.307
 1311SOL    HW2 4833   5.101   5.528   5.330
 1312SOL     OW 4834   0.562   6.877   1.050
 1312SOL    HW1 4835   0.545   6.873   1.148
 1312SOL    HW2 4836   0.475   6.879   1.001
 1313SOL     OW 4837   3.659   5.302   4.951
 1313SOL    HW1 4838   3.572   5.256   4.970
 1313SOL    HW2 4839   3.668   5.382   5.010
 1314SOL     OW 4840   6.280   1.659   4.642
 1314SOL    HW1 4841   6.287   1.641   4.543
 1314SOL    HW2 4842   6.185   1.645   4.670
 1315SOL     OW 4843   1.774   1.246   3.051
 1315SOL    HW1 4844   1.825   1.245   3.137
 1315SOL    HW2 4845   1.699   1.180   3.055
 1316SOL     OW 4846   3.000   6.605   2.555
 1316SOL    HW1 4847   3.058   6.548   2.497
 1316SOL    HW2 4848   2.958   6.677   2.499
 1317SOL     OW 4849   6.786   5.403   3.865
 1317SOL    HW1 4850   6.827   5.484   3.907
 1317SOL    HW2 4851   6.847   5.366   3.796
 1318SOL     OW 4852   0.407   6.587   0.870
 1318SOL    HW1 4853   0.381   6.547   0.782
 1318SOL    HW2 4854   0.374   6.682   0.874
 1319SOL     OW 4855   6.509   1.202   0.344
 1319SOL    HW1 4856   6.447   1.146   0.399
 1319SOL    HW2 4857   6.463   1.288   0.320
 1320SOL     OW 4858   5.505   4.941   6.114
 1320SOL    HW1 4859   5.591   4.915   6.071
 1320SOL    HW2 4860   5.523   4.973   6.207
 1321SOL     OW 4861   4.010   2.553   6.590
 1321SOL    HW1 4862   3.987   2.456   6.596
 1321SOL    HW2 4863   4.100   2.568   6.631
 1322SOL     OW 4864   6.103   1.353   5.014
 1322SOL    HW1 4865   6.195   1.389   4.998
 1322SOL    HW2 4866   6.102   1.299   5.098
 1323SOL     OW 4867   6.262   1.252   4.621
 1323SOL    HW1 4868   6.281   1.293   4.532
 1323SOL    HW2 4869   6.348   1.241   4.672
 1324SOL     OW 4870   0.856   3.697   0.597
 1324SOL    HW1 4871   0.828   3.719   0.503
 1324SOL    HW2 4872   0.898   3.778   0.638
 1325SOL     OW 4873   3.350   5.610   3.084
 1325SOL    HW1 4874   3.360   5.602   3.183
 1325SOL    HW2 4875   3.439   5.633   3.043
 1326SOL     OW 4876   5.281   3.390   3.869
 1326SOL    HW1 4877   5.285   3.460   3.940
 1326SOL    HW2 4878   5.195   3.340   3.876
 1327SOL     OW 4879   2.816   5.276   3.075
 1327SOL    HW1 4880   2.721   5.307   3.071
 1327SOL    HW2 4881   2.824   5.201   3.141
 1328SOL     OW 4882   1.958   2.333   6.738
 1328SOL    HW1 4883   2.033   2.287   6.785
 1328SOL    HW2 4884   1.948   2.295   6.646
 1329SOL     OW 4885   1.219   0.360   1.321
 1329SOL    HW1 4886   1.310   0.324   1.300
 1329SOL    HW2 4887   1.208   0.451   1.280
 1330SOL     OW 4888   6.198   6.625   1.425
 1330SOL    HW1 4889   6.155   6.539   1.454
 1330SOL    HW2 4890   6.126   6.692   1.403
 1331SOL     OW 4891   5.842   0.405   2.214
 1331SOL    HW1 4892   5.872   0.499   2.194
 1331SOL    HW2 4893   5.804   0.364   2.131
 1332SOL     OW 4894   4.236   1.524   1.618
 1332SOL    HW1 4895   4.247   1.446   1.680
 1332SOL    HW2 4896   4.309   1.591   1.637
 1333SOL     OW 4897   3.887   4.189   5.541
 1333SOL    HW1 4898   3.796   4.159   5.512
 1333SOL    HW2 4899   3.951   4.112   5.534
 1334SOL     OW 4900   0.602   3.924   4.386
 1334SOL    HW1 4901   0.516   3.875   4.370
 1334SOL    HW2 4902   0.621   3.926   4.484
 1335SOL     OW 4903   2.382   4.563   2.810
 1335SOL    HW1 4904   2.315   4.637   2.810
 1335SOL    HW2 4905   2.429   4.560   2.722
 1336SOL     OW 4906   0.690   0.631   5.330
 1336SOL    HW1 4907   0.623   0.705   5.319
 1336SOL    HW2 4908   0.644   0.543   5.322
 1337SOL     OW 4909   2.678   1.186   5.970
 1337SOL    HW1 4910   2.615   1.115   6.002
 1337SOL    HW2 4911   2.702   1.167   5.875
 1338SOL     OW 4912   4.018   5.629   0.408
 1338SOL    HW1 4913   4.088   5.640   0.479
 1338SOL    HW2 4914   4.056   5.652   0.319
 1339SOL     OW 4915   0.214   4.695   4.463
 1339SOL    HW1 4916   0.276   4.731   4.393
 1339SOL    HW2 4917   0.250   4.716   4.554
 1340SOL     OW 4918   2.110   1.607   6.194
 1340SOL    HW1 4919   2.044   1.619   6.268
 1340SOL    HW2 4920   2.067   1.560   6.117
 1341SOL     OW 4921   4.545   1.571   3.780
 1341SOL    HW1 4922   4.522   1.665   3.804
 1341SOL    HW2 4923   4.619   1.571   3.712
 1342SOL     OW 4924   0.589   6.084   0.767
 1342SOL    HW1 4925   0.499   6.119   0.793
 1342SOL    HW2 4926   0.610   6.115   0.674
 1343SOL     OW 4927   4.310   4.661   2.943
 1343SOL    HW1 4928   4.273   4.722   2.873
 1343SOL    HW2 4929   4.365   4.715   3.007
 1344SOL     OW 4930   5.671   1.330   2.527
 1344SOL    HW1 4931   5.613   1.265   2.479
 1344SOL    HW2 4932   5.735   1.373   2.463
 1345SOL     OW 4933   1.116   6.915   3.424
 1345SOL    HW1 4934   1.020   6.893   3.439
 1345SOL    HW2 4935   1.152   6.854   3.353
 1346SOL     OW 4936   0.136   0.658   3.719
 1346SOL    HW1 4937   0.142   0.638   3.621
 1346SOL    HW2 4938   0.178   0.747   3.737
 1347SOL     OW 4939   6.088   0.522   2.789
 1347SOL    HW1 4940   6.128   0.553   2.703
 1347SOL    HW2 4941   5.989   0.516   2.779
 1348SOL     OW 4942   5.069   4.483   4.311
 1348SOL    HW1 4943   5.141   4.551   4.299
 1348SOL    HW2 4944   5.094   4.419   4.384
 1349SOL     OW 4945   4.886   2.751   6.951
 1349SOL    HW1 4946   4.804   2.716   6.997
 1349SOL    HW2 4947   4.870   2.753   6.852
 1350SOL     OW 4948   3.456   6.736   5.947
 1350SOL    HW1 4949   3.489   6.821   5.989
 1350SOL    HW2 4950   3.367   6.753   5.905
 1351SOL     OW 4951   0.770   0.566   4.469
 1351SOL    HW1 4952   0.750   0.653   4.425
 1351SOL    HW2 4953   0.822   0.508   4.406
 1352SOL     OW 4954   0.558   0.267   3.745
 1352SOL    HW1 4955   0.481   0.297   3.688
 1352SOL    HW2 4956   0.540   0.291   3.840
 1353SOL     OW 4957   1.758   4.251   3.858
 1353SOL    HW1 4958   1.808   4.266   3.773
 1353SOL    HW2 4959   1.681   4.315   3.863
 1354SOL     OW 4960   0.174   0.281   1.400
 1354SOL    HW1 4961   0.166   0.233   1.488
 1354SOL    HW2 4962   0.265   0.322   1.393
 1355SOL     OW 4963   5.044   2.982   6.767
 1355SOL    HW1 4964   5.013   3.076   6.781
 1355SOL    HW2 4965   4.965   2.924   6.748
 1356SOL     OW 4966   3.061   3.887   2.063
 1356SOL    HW1 4967   2.989   3.919   2.002
 1356SOL    HW2 4968   3.149   3.922   2.031
 1357SOL     OW 4969   2.796   2.607   5.613
 1357SOL    HW1 4970   2.816   2.510   5.618
 1357SOL    HW2 4971   2.831   2.654   5.694
 1358SOL     OW 4972   2.729   2.610   5.336
 1358SOL    HW1 4973   2.652   2.670   5.318
 1358SOL    HW2 4974   2.757   2.618   5.431
 1359SOL     OW 4975   6.683   1.189   0.566
 1359SOL    HW1 4976   6.771   1.167   0.523
 1359SOL    HW2 4977   6.613   1.201   0.495
 1360SOL     OW 4978   2.975   3.452   4.235
 1360SOL    HW1 4979   2.974   3.365   4.186
 1360SOL    HW2 4980   3.031   3.518   4.184
 1361SOL     OW 4981   1.031   5.965   0.810
 1361SOL    HW1 4982   0.955   6.031   0.813
 1361SOL    HW2 4983   1.052   5.935   0.903
 1362SOL     OW 4984   3.147   2.807   6.173
 1362SOL    HW1 4985   3.185   2.899   6.178
 1362SOL    HW2 4986   3.171   2.766   6.086
 1363SOL     OW 4987   5.819   6.372   2.003
 1363SOL    HW1 4988   5.845   6.371   2.099
 1363SOL    HW2 4989   5.805   6.466   1.972
 1364SOL     OW 4990   0.607   3.817   0.772
 1364SOL    HW1 4991   0.644   3.865   0.852
 1364SOL    HW2 4992   0.635   3.721   0.774
 1365SOL     OW 4993   0.432   3.950   5.145
 1365SOL    HW1 4994   0.456   3.888   5.220
 1365SOL    HW2 4995   0.423   4.043   5.180
 1366SOL     OW 4996   5.283   0.378   1.160
 1366SOL    HW1 4997   5.236   0.417   1.081
 1366SOL    HW2 4998   5.348   0.309   1.128
 1367SOL     OW 4999   0.918   6.421   4.864
 1367SOL    HW1 5000   0.967   6.350   4.814
 1367SOL    HW2 5001   0.975   6.504   4.869
 1368SOL     OW 5002   1.275   6.422   5.443
 1368SOL    HW1 5003   1.226   6.411   5.529
 1368SOL    HW2 5004   1.286   6.333   5.399
 1369SOL     OW 5005   2.754   6.459   3.724
 1369SOL    HW1 5006   2.842   6.494   3.691
 1369SOL    HW2 5007   2.700   6.427   3.646
 1370SOL     OW 5008   6.741   2.206   2.965
 1370SOL    HW1 5009   6.808   2.192   2.892
 1370SOL    HW2 5010   6.776   2.274   3.029
 1371SOL     OW 5011   6.134   2.529   5.762
 1371SOL    HW1 5012   6.188   2.514   5.845
 1371SOL    HW2 5013   6.193   2.563   5.690
 1372SOL     OW 5014   6.665   3.001   0.259
 1372SOL    HW1 5015   6.703   2.911   0.280
 1372SOL    HW2 5016   6.720   3.044   0.188
 1373SOL     OW 5017   5.195   2.540   1.510
 1373SOL    HW1 5018   5.262   2.605   1.476
 1373SOL    HW2 5019   5.103   2.576   1.496
 1374SOL     OW 5020   3.853   3.912   0.956
 1374SOL    HW1 5021   3.802   3.996   0.934
 1374SOL    HW2 5022   3.791   3.834   0.953
 1375SOL     OW 5023   5.136   5.729   3.904
 1375SOL    HW1 5024   5.234   5.714   3.906
 1375SOL    HW2 5025   5.112   5.803   3.966
 1376SOL     OW 5026   2.515   4.642   6.213
 1376SOL    HW1 5027   2.582   4.636   6.139
 1376SOL    HW2 5028   2.477   4.734   6.216
 1377SOL     OW 5029   1.579   1.182   2.618
 1377SOL    HW1 5030   1.651   1.210   2.681
 1377SOL    HW2 5031   1.501   1.146   2.670
 1378SOL     OW 5032   4.814   2.390   4.182
 1378SOL    HW1 5033   4.773   2.299   4.170
 1378SOL    HW2 5034   4.877   2.388   4.260
 1379SOL     OW 5035   5.041   5.695   1.111
 1379SOL    HW1 5036   4.963   5.649   1.069
 1379SOL    HW2 5037   5.011   5.740   1.195
 1380SOL     OW 5038   7.018   6.361   1.978
 1380SOL    HW1 5039   0.036   6.332   2.064
 1380SOL    HW2 5040   0.016   6.458   1.962
 1381SOL     OW 5041   6.507   2.401   5.669
 1381SOL    HW1 5042   6.537   2.361   5.756
 1381SOL    HW2 5043   6.587   2.434   5.619
 1382SOL     OW 5044   4.687   2.688   0.116
 1382SOL    HW1 5045   4.742   2.647   0.188
 1382SOL    HW2 5046   4.652   2.776   0.147
 1383SOL     OW 5047   0.358   1.648   1.724
 1383SOL    HW1 5048   0.424   1.603   1.784
 1383SOL    HW2 5049   0.297   1.580   1.684
 1384SOL     OW 5050   6.028   1.666   1.727
 1384SOL    HW1 5051   6.123   1.694   1.739
 1384SOL    HW2 5052   5.968   1.745   1.740
 1385SOL     OW 5053   0.974   6.127   1.185
 1385SOL    HW1 5054   1.021   6.052   1.138
 1385SOL    HW2 5055   0.879   6.101   1.202
 1386SOL     OW 5056   2.242   5.793   3.867
 1386SOL    HW1 5057   2.176   5.732   3.825
 1386SOL    HW2 5058   2.334   5.756   3.856
 1387SOL     OW 5059   2.539   5.874   2.009
 1387SOL    HW1 5060   2.564   5.843   2.101
 1387SOL    HW2 5061   2.619   5.911   1.963
 1388SOL     OW 5062   6.847   0.806   2.023
 1388SOL    HW1 5063   6.754   0.843   2.027
 1388SOL    HW2 5064   6.886   0.823   1.932
 1389SOL     OW 5065   6.064   0.798   2.924
 1389SOL    HW1 5066   6.060   0.840   2.834
 1389SOL    HW2 5067   6.067   0.699   2.915
 1390SOL     OW 5068   0.933   1.578   5.995
 1390SOL    HW1 5069   0.911   1.583   5.897
 1390SOL    HW2 5070   0.907   1.489   6.031
 1391SOL     OW 5071   0.452   2.960   3.183
 1391SOL    HW1 5072   0.461   3.013   3.267
 1391SOL    HW2 5073   0.359   2.923   3.177
 1392SOL     OW 5074   4.879   4.425   5.509
 1392SOL    HW1 5075   4.959   4.448   5.454
 1392SOL    HW2 5076   4.804   4.398   5.448
 1393SOL     OW 5077   3.546   6.394   5.800
 1393SOL    HW1 5078   3.450   6.392   5.773
 1393SOL    HW2 5079   3.578   6.489   5.803
 1394SOL     OW 5080   1.987   6.235   6.050
 1394SOL    HW1 5081   1.925   6.165   6.085
 1394SOL    HW2 5082   2.077   6.224   6.093
 1395SOL     OW 5083   3.506   4.367   5.612
 1395SOL    HW1 5084   3.487   4.379   5.515
 1395SOL    HW2 5085   3.568   4.290   5.625
 1396SOL     OW 5086   5.786   5.831   4.224
 1396SOL    HW1 5087   5.854   5.758   4.221
 1396SOL    HW2 5088   5.832   5.919   4.240
 1397SOL     OW 5089   4.580   6.264   4.957
 1397SOL    HW1 5090   4.650   6.290   5.024
 1397SOL    HW2 5091   4.584   6.327   4.879
 1398SOL     OW 5092   1.698   1.571   4.483
 1398SOL    HW1 5093   1.680   1.544   4.578
 1398SOL    HW2 5094   1.653   1.658   4.464
 1399SOL     OW 5095   3.048   6.661   1.349
 1399SOL    HW1 5096   3.043   6.587   1.416
 1399SOL    HW2 5097   3.095   6.628   1.267
 1400SOL     OW 5098   0.848   6.971   2.009
 1400SOL    HW1 5099   0.810   6.958   2.100
 1400SOL    HW2 5100   0.884   0.041   2.001
 1401SOL     OW 5101   0.037   1.393   4.545
 1401SOL    HW1 5102   0.094   1.418   4.623
 1401SOL    HW2 5103   0.052   1.297   4.523
 1402SOL     OW 5104   6.964   3.430   0.348
 1402SOL    HW1 5105   6.997   3.337   0.366
 1402SOL    HW2 5106   6.864   3.430   0.342
 1403SOL     OW 5107   2.633   0.620   2.294
 1403SOL    HW1 5108   2.689   0.646   2.215
 1403SOL    HW2 5109   2.564   0.554   2.265
 1404SOL     OW 5110   5.633   0.257   0.339
 1404SOL    HW1 5111   5.731   0.242   0.328
 1404SOL    HW2 5112   5.616   0.353   0.359
 1405SOL     OW 5113   2.069   3.801   1.099
 1405SOL    HW1 5114   2.163   3.828   1.080
 1405SOL    HW2 5115   2.018   3.880   1.135
 1406SOL     OW 5116   1.592   4.023   1.150
 1406SOL    HW1 5117   1.598   4.068   1.061
 1406SOL    HW2 5118   1.613   3.926   1.140
 1407SOL     OW 5119   6.714   2.186   2.596
 1407SOL    HW1 5120   6.759   2.254   2.654
 1407SOL    HW2 5121   6.701   2.223   2.505
 1408SOL     OW 5122   6.568   0.878   6.677
 1408SOL    HW1 5123   6.493   0.812   6.670
 1408SOL    HW2 5124   6.602   0.900   6.586
 1409SOL     OW 5125   0.222   0.864   4.396
 1409SOL    HW1 5126   0.159   0.880   4.321
 1409SOL    HW2 5127   0.302   0.814   4.363
 1410SOL     OW 5128   0.579   2.840   0.020
 1410SOL    HW1 5129   0.554   2.813   6.950
 1410SOL    HW2 5130   0.498   2.836   0.079
 1411SOL     OW 5131   1.363   6.943   1.453
 1411SOL    HW1 5132   1.378   6.887   1.535
 1411SOL    HW2 5133   1.395   0.013   1.469
 1412SOL     OW 5134   1.027   2.625   6.951
 1412SOL    HW1 5135   0.971   2.659   0.004
 1412SOL    HW2 5136   0.986   2.542   6.913
 1413SOL     OW 5137   2.569   0.674   3.692
 1413SOL    HW1 5138   2.623   0.731   3.754
 1413SOL    HW2 5139   2.625   0.597   3.660
 1414SOL     OW 5140   1.890   1.650   1.847
 1414SOL    HW1 5141   1.841   1.736   1.865
 1414SOL    HW2 5142   1.986   1.661   1.872
 1415SOL     OW 5143   4.190   6.087   5.745
 1415SOL    HW1 5144   4.221   6.148   5.818
 1415SOL    HW2 5145   4.247   6.005   5.745
 1416SOL     OW 5146   4.586   5.373   1.943
 1416SOL    HW1 5147   4.560   5.332   1.856
 1416SOL    HW2 5148   4.682   5.402   1.938
 1417SOL     OW 5149   3.126   1.775   6.292
 1417SOL    HW1 5150   3.036   1.765   6.250
 1417SOL    HW2 5151   3.192   1.716   6.245
 1418SOL     OW 5152   3.842   4.002   2.960
 1418SOL    HW1 5153   3.793   3.926   3.002
 1418SOL    HW2 5154   3.783   4.047   2.892
 1419SOL     OW 5155   4.153   6.712   4.638
 1419SOL    HW1 5156   4.095   6.683   4.562
 1419SOL    HW2 5157   4.115   6.795   4.678
 1420SOL     OW 5158   0.720   5.910   2.104
 1420SOL    HW1 5159   0.766   5.951   2.025
 1420SOL    HW2 5160   0.755   5.817   2.119
 1421SOL     OW 5161   3.438   1.437   2.338
 1421SOL    HW1 5162   3.352   1.488   2.330
 1421SOL    HW2 5163   3.475   1.419   2.247
 1422SOL     OW 5164   2.930   5.358   0.394
 1422SOL    HW1 5165   2.875   5.340   0.313
 1422SOL    HW2 5166   2.915   5.451   0.426
 1423SOL     OW 5167   5.323   0.295   2.704
 1423SOL    HW1 5168   5.302   0.204   2.668
 1423SOL    HW2 5169   5.354   0.287   2.799
 1424SOL     OW 5170   6.379   5.054   4.957
 1424SOL    HW1 5171   6.332   4.966   4.962
 1424SOL    HW2 5172   6.386   5.094   5.048
 1425SOL     OW 5173   2.386   6.960   4.042
 1425SOL    HW1 5174   2.431   6.961   4.132
 1425SOL    HW2 5175   2.363   0.030   4.016
 1426SOL     OW 5176   0.791   1.419   5.575
 1426SOL    HW1 5177   0.862   1.377   5.518
 1426SOL    HW2 5178   0.732   1.476   5.518
 1427SOL     OW 5179   5.892   0.681   4.446
 1427SOL    HW1 5180   5.978   0.728   4.463
 1427SOL    HW2 5181   5.870   0.685   4.349
 1428SOL     OW 5182   5.646   1.742   6.627
 1428SOL    HW1 5183   5.723   1.731   6.565
 1428SOL    HW2 5184   5.560   1.731   6.577
 1429SOL     OW 5185   0.220   0.891   0.687
 1429SOL    HW1 5186   0.269   0.907   0.601
 1429SOL    HW2 5187   0.142   0.954   0.693
 1430SOL     OW 5188   1.631   5.341   3.781
 1430SOL    HW1 5189   1.674   5.367   3.867
 1430SOL    HW2 5190   1.618   5.242   3.778
 1431SOL     OW 5191   1.765   1.133   0.965
 1431SOL    HW1 5192   1.723   1.143   0.875
 1431SOL    HW2 5193   1.846   1.074   0.958
 1432SOL     OW 5194   1.957   1.304   2.146
 1432SOL    HW1 5195   1.884   1.351   2.097
 1432SOL    HW2 5196   1.942   1.205   2.142
 1433SOL     OW 5197   3.993   0.946   4.035
 1433SOL    HW1 5198   4.052   1.026   4.023
 1433SOL    HW2 5199   3.899   0.970   4.010
 1434SOL     OW 5200   1.281   1.020   5.442
 1434SOL    HW1 5201   1.302   1.056   5.533
 1434SOL    HW2 5202   1.184   0.998   5.437
 1435SOL     OW 5203   6.324   2.064   2.817
 1435SOL    HW1 5204   6.309   2.108   2.728
 1435SOL    HW2 5205   6.420   2.037   2.825
 1436SOL     OW 5206   4.126   3.609   0.494
 1436SOL    HW1 5207   4.175   3.652   0.570
 1436SOL    HW2 5208   4.108   3.677   0.423
 1437SOL     OW 5209   3.538   0.558   2.191
 1437SOL    HW1 5210   3.522   0.485   2.125
 1437SOL    HW2 5211   3.479   0.636   2.169
 1438SOL     OW 5212   2.840   6.711   1.188
 1438SOL    HW1 5213   2.925   6.709   1.241
 1438SOL    HW2 5214   2.837   6.793   1.132
 1439SOL     OW 5215   0.367   5.934   2.608
 1439SOL    HW1 5216   0.428   5.865   2.570
 1439SOL    HW2 5217   0.405   6.025   2.593
 1440SOL     OW 5218   3.032   3.466   1.372
 1440SOL    HW1 5219   2.937   3.498   1.371
 1440SOL    HW2 5220   3.034   3.366   1.368
 1441SOL     OW 5221   6.164   6.530   0.939
 1441SOL    HW1 5222   6.154   6.463   0.867
 1441SOL    HW2 5223   6.074   6.549   0.980
 1442SOL     OW 5224   5.892   5.348   0.538
 1442SOL    HW1 5225   5.987   5.321   0.523
 1442SOL    HW2 5226   5.831   5.282   0.494
 1443SOL     OW 5227   0.647   2.910   2.983
 1443SOL    HW1 5228   0.608   2.892   2.893
 1443SOL    HW2 5229   0.574   2.913   3.051
 1444SOL     OW 5230   6.071   5.423   0.136
 1444SOL    HW1 5231   6.141   5.414   0.207
 1444SOL    HW2 5232   6.012   5.501   0.157
 1445SOL     OW 5233   1.524   3.537   2.342
 1445SOL    HW1 5234   1.465   3.616   2.322
 1445SOL    HW2 5235   1.532   3.481   2.260
 1446SOL     OW 5236   6.855   0.427   6.996
 1446SOL    HW1 5237   6.871   0.330   7.011
 1446SOL    HW2 5238   6.758   0.443   6.976
 1447SOL     OW 5239   6.133   4.978   4.502
 1447SOL    HW1 5240   6.150   4.887   4.466
 1447SOL    HW2 5241   6.220   5.024   4.519
 1448SOL     OW 5242   1.306   3.260   5.891
 1448SOL    HW1 5243   1.390   3.300   5.855
 1448SOL    HW2 5244   1.245   3.333   5.921
 1449SOL     OW 5245   2.182   3.955   4.206
 1449SOL    HW1 5246   2.187   3.878   4.269
 1449SOL    HW2 5247   2.146   3.923   4.118
 1450SOL     OW 5248   2.159   2.419   4.359
 1450SOL    HW1 5249   2.247   2.376   4.377
 1450SOL    HW2 5250   2.087   2.349   4.359
 1451SOL     OW 5251   2.405   0.465   1.941
 1451SOL    HW1 5252   2.321   0.498   1.899
 1451SOL    HW2 5253   2.407   0.491   2.038
 1452SOL     OW 5254   4.789   2.858   5.782
 1452SOL    HW1 5255   4.863   2.924   5.793
 1452SOL    HW2 5256   4.754   2.833   5.873
 1453SOL     OW 5257   0.711   4.978   5.292
 1453SOL    HW1 5258   0.790   5.039   5.300
 1453SOL    HW2 5259   0.644   5.001   5.362
 1454SOL     OW 5260   3.493   1.837   3.776
 1454SOL    HW1 5261   3.450   1.819   3.688
 1454SOL    HW2 5262   3.481   1.934   3.799
 1455SOL     OW 5263   1.019   5.819   1.830
 1455SOL    HW1 5264   1.055   5.784   1.743
 1455SOL    HW2 5265   1.084   5.799   1.903
 1456SOL     OW 5266   6.132   5.508   5.220
 1456SOL    HW1 5267   6.158   5.515   5.124
 1456SOL    HW2 5268   6.077   5.426   5.235
 1457SOL     OW 5269   1.078   4.387   5.998
 1457SOL    HW1 5270   1.153   4.379   6.064
 1457SOL    HW2 5271   1.085   4.475   5.950
 1458SOL     OW 5272   5.067   5.372   4.933
 1458SOL    HW1 5273   5.015   5.335   5.010
 1458SOL    HW2 5274   5.164   5.372   4.957
 1459SOL     OW 5275   5.179   6.499   5.409
 1459SOL    HW1 5276   5.190   6.483   5.311
 1459SOL    HW2 5277   5.252   6.452   5.459
 1460SOL     OW 5278   1.775   6.606   5.620
 1460SOL    HW1 5279   1.825   6.531   5.575
 1460SOL    HW2 5280   1.693   6.627   5.567
 1461SOL     OW 5281   0.225   3.298   3.647
 1461SOL    HW1 5282   0.314   3.331   3.617
 1461SOL    HW2 5283   0.216   3.201   3.622
 1462SOL     OW 5284   1.113   0.638   0.901
 1462SOL    HW1 5285   1.060   0.575   0.845
 1462SOL    HW2 5286   1.084   0.631   0.996
 1463SOL     OW 5287   2.067   5.700   6.880
 1463SOL    HW1 5288   2.001   5.774   6.892
 1463SOL    HW2 5289   2.081   5.682   6.783
 1464SOL     OW 5290   0.701   4.254   4.197
 1464SOL    HW1 5291   0.784   4.240   4.252
 1464SOL    HW2 5292   0.661   4.165   4.174
 1465SOL     OW 5293   1.171   2.456   3.524
 1465SOL    HW1 5294   1.139   2.412   3.608
 1465SOL    HW2 5295   1.095   2.465   3.460
 1466SOL     OW 5296   4.837   2.355   1.391
 1466SOL    HW1 5297   4.851   2.440   1.340
 1466SOL    HW2 5298   4.833   2.375   1.488
 1467SOL     OW 5299   1.092   1.052   4.152
 1467SOL    HW1 5300   1.104   1.060   4.053
 1467SOL    HW2 5301   1.070   0.957   4.176
 1468SOL     OW 5302   2.447   5.718   2.430
 1468SOL    HW1 5303   2.355   5.681   2.427
 1468SOL    HW2 5304   2.508   5.653   2.476
 1469SOL     OW 5305   6.341   4.391   3.309
 1469SOL    HW1 5306   6.344   4.440   3.396
 1469SOL    HW2 5307   6.434   4.369   3.280
 1470SOL     OW 5308   6.399   1.817   0.764
 1470SOL    HW1 5309   6.489   1.802   0.806
 1470SOL    HW2 5310   6.357   1.729   0.742
 1471SOL     OW 5311   5.119   6.912   1.559
 1471SOL    HW1 5312   5.133   6.948   1.651
 1471SOL    HW2 5313   5.047   6.964   1.513
 1472SOL     OW 5314   1.696   6.935   6.147
 1472SOL    HW1 5315   1.780   6.903   6.192
 1472SOL    HW2 5316   1.626   6.954   6.216
 1473SOL     OW 5317   2.495   5.763   4.214
 1473SOL    HW1 5318   2.474   5.676   4.169
 1473SOL    HW2 5319   2.586   5.758   4.254
 1474SOL     OW 5320   3.373   5.002   1.311
 1474SOL    HW1 5321   3.329   4.980   1.398
 1474SOL    HW2 5322   3.302   5.024   1.243
 1475SOL     OW 5323   5.019   0.362   0.069
 1475SOL    HW1 5324   5.110   0.357   0.029
 1475SOL    HW2 5325   5.002   0.455   0.102
 1476SOL     OW 5326   5.105   0.718   1.203
 1476SOL    HW1 5327   5.109   0.710   1.303
 1476SOL    HW2 5328   5.009   0.726   1.175
 1477SOL     OW 5329   3.862   4.906   1.372
 1477SOL    HW1 5330   3.767   4.935   1.362
 1477SOL    HW2 5331   3.883   4.891   1.469
 1478SOL     OW 5332   5.277   5.536   6.327
 1478SOL    HW1 5333   5.367   5.553   6.368
 1478SOL    HW2 5334   5.272   5.441   6.297
 1479SOL     OW 5335   3.801   4.073   1.268
 1479SOL    HW1 5336   3.780   3.976   1.276
 1479SOL    HW2 5337   3.874   4.096   1.333
 1480SOL     OW 5338   2.817   0.112   5.005
 1480SOL    HW1 5339   2.754   0.117   4.927
 1480SOL    HW2 5340   2.912   0.111   4.971
 1481SOL     OW 5341   5.469   2.639   6.415
 1481SOL    HW1 5342   5.382   2.605   6.380
 1481SOL    HW2 5343   5.544   2.588   6.373
 1482SOL     OW 5344   4.624   1.196   0.667
 1482SOL    HW1 5345   4.651   1.208   0.572
 1482SOL    HW2 5346   4.568   1.113   0.676
 1483SOL     OW 5347   5.457   1.533   5.930
 1483SOL    HW1 5348   5.531   1.592   5.897
 1483SOL    HW2 5349   5.417   1.484   5.853
 1484SOL     OW 5350   3.097   5.707   4.921
 1484SOL    HW1 5351   3.148   5.715   4.835
 1484SOL    HW2 5352   3.030   5.781   4.926
 1485SOL     OW 5353   5.103   2.301   3.218
 1485SOL    HW1 5354   5.076   2.324   3.125
 1485SOL    HW2 5355   5.078   2.376   3.279
 1486SOL     OW 5356   5.237   6.962   4.135
 1486SOL    HW1 5357   5.210   0.023   4.088
 1486SOL    HW2 5358   5.205   6.966   4.230
 1487SOL     OW 5359   6.651   0.238   1.014
 1487SOL    HW1 5360   6.701   0.321   0.989
 1487SOL    HW2 5361   6.716   0.170   1.048
 1488SOL     OW 5362   5.972   0.840   2.420
 1488SOL    HW1 5363   5.885   0.889   2.413
 1488SOL    HW2 5364   6.005   0.844   2.514
 1489SOL     OW 5365   3.724   4.205   6.967
 1489SOL    HW1 5366   3.683   4.272   6.905
 1489SOL    HW2 5367   3.735   4.118   6.919
 1490SOL     OW 5368   6.947   2.205   2.794
 1490SOL    HW1 5369   7.014   2.264   2.750
 1490SOL    HW2 5370   6.939   2.119   2.743
 1491SOL     OW 5371   6.616   2.862   3.062
 1491SOL    HW1 5372   6.589   2.834   3.154
 1491SOL    HW2 5373   6.620   2.962   3.057
 1492SOL     OW 5374   5.728   1.148   2.969
 1492SOL    HW1 5375   5.683   1.227   2.927
 1492SOL    HW2 5376   5.745   1.078   2.899
 1493SOL     OW 5377   4.549   2.514   5.734
 1493SOL    HW1 5378   4.558   2.429   5.787
 1493SOL    HW2 5379   4.500   2.582   5.789
 1494SOL     OW 5380   6.390   4.351   5.360
 1494SOL    HW1 5381   6.391   4.320   5.265
 1494SOL    HW2 5382   6.395   4.450   5.363
 1495SOL     OW 5383   6.377   4.156   4.487
 1495SOL    HW1 5384   6.347   4.200   4.572
 1495SOL    HW2 5385   6.432   4.221   4.434
 1496SOL     OW 5386   6.435   5.550   6.529
 1496SOL    HW1 5387   6.445   5.587   6.621
 1496SOL    HW2 5388   6.467   5.455   6.528
 1497SOL     OW 5389   6.145   3.367   2.836
 1497SOL    HW1 5390   6.167   3.270   2.824
 1497SOL    HW2 5391   6.216   3.423   2.794
 1498SOL     OW 5392   3.376   4.344   0.760
 1498SOL    HW1 5393   3.310   4.371   0.690
 1498SOL    HW2 5394   3.444   4.282   0.719
 1499SOL     OW 5395   0.695   4.239   5.514
 1499SOL    HW1 5396   0.708   4.279   5.423
 1499SOL    HW2 5397   0.706   4.310   5.583
 1500SOL     OW 5398   0.797   5.655   1.822
 1500SOL    HW1 5399   0.878   5.712   1.807
 1500SOL    HW2 5400   0.715   5.712   1.814
 1501SOL     OW 5401   5.582   1.638   0.159
 1501SOL    HW1 5402   5.644   1.589   0.097
 1501SOL    HW2 5403   5.626   1.649   0.248
 1502SOL     OW 5404   6.381   0.283   6.716
 1502SOL    HW1 5405   6.393   0.268   6.618
 1502SOL    HW2 5406   6.304   0.229   6.749
 1503SOL     OW 5407   0.404   4.780   1.872
 1503SOL    HW1 5408   0.368   4.856   1.818
 1503SOL    HW2 5409   0.503   4.773   1.857
 1504SOL     OW 5410   0.766   0.140   2.423
 1504SOL    HW1 5411   0.678   0.112   2.462
 1504SOL    HW2 5412   0.800   0.068   2.362
 1505SOL     OW 5413   4.972   6.118   5.055
 1505SOL    HW1 5414   4.942   6.037   5.005
 1505SOL    HW2 5415   4.905   6.141   5.125
 1506SOL     OW 5416   0.605   1.697   0.843
 1506SOL    HW1 5417   0.651   1.610   0.862
 1506SOL    HW2 5418   0.524   1.681   0.787
 1507SOL     OW 5419   1.705   2.755   4.326
 1507SOL    HW1 5420   1.747   2.834   4.281
 1507SOL    HW2 5421   1.735   2.671   4.281
 1508SOL     OW 5422   1.223   0.838   0.723
 1508SOL    HW1 5423   1.184   0.794   0.804
 1508SOL    HW2 5424   1.162   0.825   0.645
 1509SOL     OW 5425   5.194   0.782   4.341
 1509SOL    HW1 5426   5.196   0.879   4.364
 1509SOL    HW2 5427   5.190   0.772   4.241
 1510SOL     OW 5428   3.448   5.480   4.028
 1510SOL    HW1 5429   3.520   5.543   3.998
 1510SOL    HW2 5430   3.465   5.453   4.123
 1511SOL     OW 5431   3.456   3.515   4.723
 1511SOL    HW1 5432   3.430   3.483   4.632
 1511SOL    HW2 5433   3.381   3.569   4.761
 1512SOL     OW 5434   6.168   6.315   0.766
 1512SOL    HW1 5435   6.225   6.233   0.778
 1512SOL    HW2 5436   6.197   6.363   0.684
 1513SOL     OW 5437   2.963   6.875   6.282
 1513SOL    HW1 5438   2.929   6.950   6.225
 1513SOL    HW2 5439   3.058   6.892   6.307
 1514SOL     OW 5440   3.194   2.043   5.776
 1514SOL    HW1 5441   3.220   2.136   5.803
 1514SOL    HW2 5442   3.169   1.990   5.858
 1515SOL     OW 5443   5.605   1.909   1.990
 1515SOL    HW1 5444   5.657   1.825   1.972
 1515SOL    HW2 5445   5.637   1.981   1.928
 1516SOL     OW 5446   5.627   6.744   4.887
 1516SOL    HW1 5447   5.540   6.780   4.921
 1516SOL    HW2 5448   5.624   6.644   4.885
 1517SOL     OW 5449   4.326   6.297   3.566
 1517SOL    HW1 5450   4.350   6.238   3.489
 1517SOL    HW2 5451   4.342   6.393   3.542
 1518SOL     OW 5452   0.464   2.503   0.004
 1518SOL    HW1 5453   0.427   2.577   0.060
 1518SOL    HW2 5454   0.430   2.513   6.933
 1519SOL     OW 5455   0.151   4.328   6.583
 1519SOL    HW1 5456   0.182   4.252   6.640
 1519SOL    HW2 5457   0.183   4.314   6.489
 1520SOL     OW 5458   0.077   6.070   2.607
 1520SOL    HW1 5459   0.135   6.081   2.527
 1520SOL    HW2 5460   0.114   5.997   2.665
 1521SOL     OW 5461   1.934   5.362   6.264
 1521SOL    HW1 5462   1.879   5.317   6.335
 1521SOL    HW2 5463   1.877   5.427   6.214
 1522SOL     OW 5464   4.551   5.818   4.021
 1522SOL    HW1 5465   4.520   5.910   3.997
 1522SOL    HW2 5466   4.647   5.820   4.048
 1523SOL     OW 5467   3.836   6.035   0.229
 1523SOL    HW1 5468   3.776   5.955   0.219
 1523SOL    HW2 5469   3.928   6.012   0.196
 1524SOL     OW 5470   2.278   1.765   2.268
 1524SOL    HW1 5471   2.283   1.738   2.364
 1524SOL    HW2 5472   2.302   1.862   2.259
 1525SOL     OW 5473   5.839   2.498   6.954
 1525SOL    HW1 5474   5.782   2.531   6.880
 1525SOL    HW2 5475   5.805   2.409   6.986
 1526SOL     OW 5476   0.846   1.429   0.374
 1526SOL    HW1 5477   0.760   1.390   0.344
 1526SOL    HW2 5478   0.895   1.468   0.296
 1527SOL     OW 5479   3.750   1.039   3.964
 1527SOL    HW1 5480   3.756   1.138   3.955
 1527SOL    HW2 5481   3.662   1.008   3.930
 1528SOL     OW 5482   4.323   3.772   1.243
 1528SOL    HW1 5483   4.238   3.806   1.285
 1528SOL    HW2 5484   4.400   3.793   1.304
 1529SOL     OW 5485   5.028   1.473   5.679
 1529SOL    HW1 5486   4.995   1.477   5.585
 1529SOL    HW2 5487   4.970   1.411   5.732
 1530SOL     OW 5488   3.578   6.478   1.776
 1530SOL    HW1 5489   3.592   6.477   1.677
 1530SOL    HW2 5490   3.666   6.460   1.822
 1531SOL     OW 5491   3.460   6.892   4.217
 1531SOL    HW1 5492   3.386   6.907   4.151
 1531SOL    HW2 5493   3.445   6.805   4.264
 1532SOL     OW 5494   2.368   5.222   6.244
 1532SOL    HW1 5495   2.299   5.294   6.245
 1532SOL    HW2 5496   2.326   5.135   6.218
 1533SOL     OW 5497   5.889   5.367   1.530
 1533SOL    HW1 5498   5.962   5.389   1.465
 1533SOL    HW2 5499   5.812   5.326   1.482
 1534SOL     OW 5500   3.530   5.095   6.324
 1534SOL    HW1 5501   3.498   5.186   6.351
 1534SOL    HW2 5502   3.535   5.090   6.224
 1535SOL     OW 5503   6.100   6.472   4.922
 1535SOL    HW1 5504   6.026   6.495   4.860
 1535SOL    HW2 5505   6.134   6.555   4.967
 1536SOL     OW 5506   4.468   4.095   6.728
 1536SOL    HW1 5507   4.460   4.180   6.781
 1536SOL    HW2 5508   4.418   4.105   6.642
 1537SOL     OW 5509   2.829   5.194   3.689
 1537SOL    HW1 5510   2.732   5.212   3.674
 1537SOL    HW2 5511   2.844   5.096   3.695
 1538SOL     OW 5512   3.076   1.368   0.004
 1538SOL    HW1 5513   3.141   1.373   6.951
 1538SOL    HW2 5514   2.983   1.361   6.990
 1539SOL     OW 5515   5.976   3.339   0.781
 1539SOL    HW1 5516   6.050   3.379   0.726
 1539SOL    HW2 5517   5.999   3.245   0.805
 1540SOL     OW 5518   3.357   6.949   4.591
 1540SOL    HW1 5519   3.364   0.019   4.554
 1540SOL    HW2 5520   3.292   6.896   4.536
 1541SOL     OW 5521   3.323   3.100   5.244
 1541SOL    HW1 5522   3.257   3.048   5.190
 1541SOL    HW2 5523   3.414   3.091   5.202
 1542SOL     OW 5524   6.710   0.232   2.681
 1542SOL    HW1 5525   6.686   0.145   2.723
 1542SOL    HW2 5526   6.643   0.254   2.610
 1543SOL     OW 5527   2.597   4.490   6.971
 1543SOL    HW1 5528   2.644   4.566   6.927
 1543SOL    HW2 5529   2.616   4.405   6.921
 1544SOL     OW 5530   3.979   3.119   4.680
 1544SOL    HW1 5531   3.992   3.024   4.708
 1544SOL    HW2 5532   3.938   3.122   4.589
 1545SOL     OW 5533   6.137   6.403   2.481
 1545SOL    HW1 5534   6.175   6.349   2.406
 1545SOL    HW2 5535   6.172   6.368   2.568
 1546SOL     OW 5536   5.336   6.387   5.886
 1546SOL    HW1 5537   5.391   6.431   5.815
 1546SOL    HW2 5538   5.300   6.300   5.851
 1547SOL     OW 5539   1.565   3.334   6.850
 1547SOL    HW1 5540   1.556   3.401   6.776
 1547SOL    HW2 5541   1.622   3.258   6.820
 1548SOL     OW 5542   6.088   2.322   6.439
 1548SOL    HW1 5543   6.087   2.223   6.424
 1548SOL    HW2 5544   6.170   2.348   6.489
 1549SOL     OW 5545   4.569   0.852   5.358
 1549SOL    HW1 5546   4.569   0.933   5.300
 1549SOL    HW2 5547   4.524   0.777   5.310
 1550SOL     OW 5548   3.033   3.095   3.204
 1550SOL    HW1 5549   2.999   3.119   3.113
 1550SOL    HW2 5550   3.111   3.034   3.196
 1551SOL     OW 5551   0.030   5.305   6.254
 1551SOL    HW1 5552   6.959   5.305   6.289
 1551SOL    HW2 5553   0.092   5.272   6.325
 1552SOL     OW 5554   2.262   4.285   2.267
 1552SOL    HW1 5555   2.186   4.350   2.276
 1552SOL    HW2 5556   2.347   4.330   2.294
 1553SOL     OW 5557   0.915   2.021   5.772
 1553SOL    HW1 5558   0.886   2.100   5.826
 1553SOL    HW2 5559   0.853   1.945   5.787
 1554SOL     OW 5560   2.764   1.757   3.550
 1554SOL    HW1 5561   2.844   1.818   3.554
 1554SOL    HW2 5562   2.794   1.663   3.565
 1555SOL     OW 5563   6.802   3.457   6.203
 1555SOL    HW1 5564   6.901   3.470   6.194
 1555SOL    HW2 5565   6.777   3.452   6.300
 1556SOL     OW 5566   2.053   1.238   5.807
 1556SOL    HW1 5567   2.095   1.251   5.717
 1556SOL    HW2 5568   1.964   1.194   5.797
 1557SOL     OW 5569   0.315   3.117   6.669
 1557SOL    HW1 5570   0.373   3.100   6.749
 1557SOL    HW2 5571   0.329   3.045   6.601
 1558SOL     OW 5572   6.552   6.907   4.921
 1558SOL    HW1 5573   6.510   6.852   4.849
 1558SOL    HW2 5574   6.610   6.978   4.880
 1559SOL     OW 5575   0.511   1.977   6.417
 1559SOL    HW1 5576   0.555   1.888   6.431
 1559SOL    HW2 5577   0.554   2.023   6.339
 1560SOL     OW 5578   0.218   0.735   6.712
 1560SOL    HW1 5579   0.179   0.646   6.740
 1560SOL    HW2 5580   0.309   0.744   6.751
 1561SOL     OW 5581   5.446   5.613   3.026
 1561SOL    HW1 5582   5.351   5.608   2.994
 1561SOL    HW2 5583   5.462   5.704   3.066
 1562SOL     OW 5584   5.849   0.833   3.359
 1562SOL    HW1 5585   5.776   0.883   3.404
 1562SOL    HW2 5586   5.925   0.896   3.340
 1563SOL     OW 5587   3.670   0.396   5.568
 1563SOL    HW1 5588   3.606   0.387   5.645
 1563SOL    HW2 5589   3.753   0.344   5.587
 1564SOL     OW 5590   1.545   2.197   2.812
 1564SOL    HW1 5591   1.552   2.100   2.835
 1564SOL    HW2 5592   1.558   2.209   2.714
 1565SOL     OW 5593   5.013   3.719   1.952
 1565SOL    HW1 5594   4.980   3.645   1.893
 1565SOL    HW2 5595   4.941   3.788   1.962
 1566SOL     OW 5596   5.593   4.134   3.729
 1566SOL    HW1 5597   5.597   4.152   3.631
 1566SOL    HW2 5598   5.535   4.054   3.745
 1567SOL     OW 5599   6.845   5.609   5.734
 1567SOL    HW1 5600   6.839   5.513   5.707
 1567SOL    HW2 5601   6.843   5.616   5.833
 1568SOL     OW 5602   0.091   0.515   0.913
 1568SOL    HW1 5603   0.036   0.457   0.974
 1568SOL    HW2 5604   0.047   0.518   0.823
 1569SOL     OW 5605   3.598   5.865   5.234
 1569SOL    HW1 5606   3.672   5.876   5.168
 1569SOL    HW2 5607   3.512   5.897   5.194
 1570SOL     OW 5608   3.743   1.957   1.673
 1570SOL    HW1 5609   3.811   1.940   1.601
 1570SOL    HW2 5610   3.696   1.871   1.695
 1571SOL     OW 5611   6.659   4.363   1.717
 1571SOL    HW1 5612   6.703   4.453   1.714
 1571SOL    HW2 5613   6.721   4.297   1.757
 1572SOL     OW 5614   1.564   6.915   2.256
 1572SOL    HW1 5615   1.619   6.907   2.340
 1572SOL    HW2 5616   1.622   6.950   2.182
 1573SOL     OW 5617   4.435   0.289   1.022
 1573SOL    HW1 5618   4.434   0.189   1.019
 1573SOL    HW2 5619   4.340   0.322   1.025
 1574SOL     OW 5620   6.774   2.519   2.116
 1574SOL    HW1 5621   6.675   2.513   2.128
 1574SOL    HW2 5622   6.810   2.592   2.174
 1575SOL     OW 5623   2.398   2.318   0.474
 1575SOL    HW1 5624   2.385   2.259   0.553
 1575SOL    HW2 5625   2.399   2.263   0.390
 1576SOL     OW 5626   6.403   6.405   4.093
 1576SOL    HW1 5627   6.366   6.321   4.053
 1576SOL    HW2 5628   6.469   6.445   4.031
 1577SOL     OW 5629   2.117   0.321   6.757
 1577SOL    HW1 5630   2.175   0.309   6.676
 1577SOL    HW2 5631   2.100   0.419   6.771
 1578SOL     OW 5632   5.826   4.942   5.133
 1578SOL    HW1 5633   5.755   4.874   5.116
 1578SOL    HW2 5634   5.817   4.978   5.225
 1579SOL     OW 5635   1.097   0.725   3.948
 1579SOL    HW1 5636   1.040   0.807   3.936
 1579SOL    HW2 5637   1.168   0.744   4.016
 1580SOL     OW 5638   3.206   4.128   5.573
 1580SOL    HW1 5639   3.285   4.110   5.631
 1580SOL    HW2 5640   3.146   4.048   5.572
 1581SOL     OW 5641   6.670   3.998   4.473
 1581SOL    HW1 5642   6.666   3.925   4.541
 1581SOL    HW2 5643   6.578   4.033   4.456
 1582SOL     OW 5644   6.256   5.185   4.705
 1582SOL    HW1 5645   6.168   5.230   4.719
 1582SOL    HW2 5646   6.287   5.145   4.792
 1583SOL     OW 5647   1.516   2.867   2.891
 1583SOL    HW1 5648   1.587   2.937   2.898
 1583SOL    HW2 5649   1.558   2.776   2.896
 1584SOL     OW 5650   2.534   6.971   6.417
 1584SOL    HW1 5651   2.631   6.973   6.390
 1584SOL    HW2 5652   2.512   6.880   6.453
 1585SOL     OW 5653   5.327   1.805   5.313
 1585SOL    HW1 5654   5.331   1.865   5.233
 1585SOL    HW2 5655   5.235   1.809   5.352
 1586SOL     OW 5656   3.759   3.751   3.055
 1586SOL    HW1 5657   3.713   3.790   3.135
 1586SOL    HW2 5658   3.848   3.716   3.081
 1587SOL     OW 5659   2.936   6.388   6.706
 1587SOL    HW1 5660   2.982   6.323   6.767
 1587SOL    HW2 5661   2.945   6.357   6.611
 1588SOL     OW 5662   5.849   3.201   1.874
 1588SOL    HW1 5663   5.899   3.148   1.806
 1588SOL    HW2 5664   5.888   3.184   1.965
 1589SOL     OW 5665   5.714   3.805   4.155
 1589SOL    HW1 5666   5.620   3.833   4.179
 1589SOL    HW2 5667   5.774   3.821   4.234
 1590SOL     OW 5668   1.857   0.921   5.903
 1590SOL    HW1 5669   1.786   0.950   5.968
 1590SOL    HW2 5670   1.840   0.826   5.876
 1591SOL     OW 5671   1.269   4.566   1.591
 1591SOL    HW1 5672   1.356   4.613   1.605
 1591SOL    HW2 5673   1.283   4.468   1.604
 1592SOL     OW 5674   3.118   3.536   2.821
 1592SOL    HW1 5675   3.040   3.576   2.869
 1592SOL    HW2 5676   3.085   3.470   2.753
 1593SOL     OW 5677   1.035   5.488   5.315
 1593SOL    HW1 5678   0.968   5.474   5.387
 1593SOL    HW2 5679   1.127   5.486   5.355
 1594SOL     OW 5680   6.591   5.231   2.846
 1594SOL    HW1 5681   6.597   5.131   2.853
 1594SOL    HW2 5682   6.497   5.259   2.868
 1595SOL     OW 5683   6.761   5.126   6.041
 1595SOL    HW1 5684   6.796   5.065   6.112
 1595SOL    HW2 5685   6.836   5.181   6.004
 1596SOL     OW 5686   2.767   4.966   6.319
 1596SOL    HW1 5687   2.770   4.927   6.411
 1596SOL    HW2 5688   2.679   4.945   6.277
 1597SOL     OW 5689   2.538   6.826   1.309
 1597SOL    HW1 5690   2.611   6.889   1.337
 1597SOL    HW2 5691   2.572   6.767   1.236
 1598SOL     OW 5692   0.116   5.379   1.452
 1598SOL    HW1 5693   0.215   5.383   1.437
 1598SOL    HW2 5694   0.072   5.334   1.375
 1599SOL     OW 5695   3.834   4.952   6.984
 1599SOL    HW1 5696   3.909   4.963   0.026
 1599SOL    HW2 5697   3.820   5.038   6.934
 1600SOL     OW 5698   3.878   1.469   4.259
 1600SOL    HW1 5699   3.822   1.394   4.296
 1600SOL    HW2 5700   3.900   1.533   4.332
 1601SOL     OW 5701   0.603   5.046   3.634
 1601SOL    HW1 5702   0.548   5.000   3.565
 1601SOL    HW2 5703   0.694   5.004   3.637
 1602SOL     OW 5704   0.846   4.886   3.655
 1602SOL    HW1 5705   0.852   4.912   3.751
 1602SOL    HW2 5706   0.932   4.909   3.609
 1603SOL     OW 5707   6.975   6.655   1.227
 1603SOL    HW1 5708   7.017   6.580   1.277
 1603SOL    HW2 5709   6.993   6.741   1.276
 1604SOL     OW 5710   0.579   5.415   6.280
 1604SOL    HW1 5711   0.535   5.496   6.319
 1604SOL    HW2 5712   0.554   5.407   6.183
 1605SOL     OW 5713   5.220   6.518   3.246
 1605SOL    HW1 5714   5.318   6.534   3.233
 1605SOL    HW2 5715   5.187   6.455   3.175
 1606SOL     OW 5716   4.922   6.657   6.331
 1606SOL    HW1 5717   4.964   6.695   6.413
 1606SOL    HW2 5718   4.823   6.664   6.339
 1607SOL     OW 5719   4.030   2.247   0.564
 1607SOL    HW1 5720   4.123   2.209   0.567
 1607SOL    HW2 5721   4.016   2.305   0.645
 1608SOL     OW 5722   2.519   6.983   0.817
 1608SOL    HW1 5723   2.584   6.921   0.773
 1608SOL    HW2 5724   2.564   0.047   0.835
 1609SOL     OW 5725   5.105   2.110   5.360
 1609SOL    HW1 5726   5.052   2.186   5.396
 1609SOL    HW2 5727   5.180   2.089   5.422
 1610SOL     OW 5728   5.928   5.596   4.911
 1610SOL    HW1 5729   5.849   5.623   4.966
 1610SOL    HW2 5730   5.939   5.497   4.915
 1611SOL     OW 5731   2.749   3.573   1.510
 1611SOL    HW1 5732   2.739   3.670   1.535
 1611SOL    HW2 5733   2.739   3.517   1.593
 1612SOL     OW 5734   3.259   0.901   4.370
 1612SOL    HW1 5735   3.350   0.911   4.410
 1612SOL    HW2 5736   3.242   0.977   4.306
 1613SOL     OW 5737   2.234   5.781   0.742
 1613SOL    HW1 5738   2.138   5.757   0.756
 1613SOL    HW2 5739   2.292   5.722   0.799
 1614SOL     OW 5740   6.629   2.564   6.709
 1614SOL    HW1 5741   6.666   2.544   6.799
 1614SOL    HW2 5742   6.596   2.479   6.667
 1615SOL     OW 5743   6.537   4.907   6.364
 1615SOL    HW1 5744   6.556   4.903   6.462
 1615SOL    HW2 5745   6.585   4.833   6.317
 1616SOL     OW 5746   2.718   1.857   5.715
 1616SOL    HW1 5747   2.708   1.882   5.619
 1616SOL    HW2 5748   2.807   1.814   5.729
 1617SOL     OW 5749   4.310   0.453   4.062
 1617SOL    HW1 5750   4.277   0.540   4.100
 1617SOL    HW2 5751   4.246   0.421   3.992
 1618SOL     OW 5752   5.753   2.393   0.646
 1618SOL    HW1 5753   5.717   2.467   0.589
 1618SOL    HW2 5754   5.691   2.377   0.723
 1619SOL     OW 5755   1.711   3.095   4.369
 1619SOL    HW1 5756   1.738   3.191   4.357
 1619SOL    HW2 5757   1.790   3.036   4.352
 1620SOL     OW 5758   3.476   5.149   0.926
 1620SOL    HW1 5759   3.524   5.194   1.001
 1620SOL    HW2 5760   3.506   5.054   0.919
 1621SOL     OW 5761   1.682   1.057   1.563
 1621SOL    HW1 5762   1.758   1.074   1.626
 1621SOL    HW2 5763   1.639   1.144   1.539
 1622SOL     OW 5764   2.188   1.784   4.264
 1622SOL    HW1 5765   2.179   1.684   4.271
 1622SOL    HW2 5766   2.254   1.816   4.332
 1623SOL     OW 5767   2.775   1.970   5.073
 1623SOL    HW1 5768   2.751   2.012   5.160
 1623SOL    HW2 5769   2.714   2.004   5.002
 1624SOL     OW 5770   2.156   1.105   0.131
 1624SOL    HW1 5771   2.063   1.091   0.097
 1624SOL    HW2 5772   2.204   1.171   0.073
 1625SOL     OW 5773   0.150   4.854   2.219
 1625SOL    HW1 5774   0.133   4.935   2.163
 1625SOL    HW2 5775   0.175   4.882   2.311
 1626SOL     OW 5776   2.055   1.926   6.543
 1626SOL    HW1 5777   2.012   1.929   6.633
 1626SOL    HW2 5778   2.154   1.913   6.554
 1627SOL     OW 5779   5.327   2.890   3.870
 1627SOL    HW1 5780   5.372   2.803   3.848
 1627SOL    HW2 5781   5.368   2.927   3.953
 1628SOL     OW 5782   3.116   3.299   6.989
 1628SOL    HW1 5783   3.092   3.392   6.964
 1628SOL    HW2 5784   3.157   3.253   6.910
 1629SOL     OW 5785   4.434   2.466   3.772
 1629SOL    HW1 5786   4.379   2.410   3.833
 1629SOL    HW2 5787   4.471   2.544   3.823
 1630SOL     OW 5788   0.140   4.813   4.136
 1630SOL    HW1 5789   0.142   4.880   4.210
 1630SOL    HW2 5790   0.231   4.771   4.127
 1631SOL     OW 5791   0.489   6.903   5.397
 1631SOL    HW1 5792   0.413   6.946   5.446
 1631SOL    HW2 5793   0.459   6.817   5.357
 1632SOL     OW 5794   5.984   0.448   1.777
 1632SOL    HW1 5795   6.021   0.377   1.716
 1632SOL    HW2 5796   5.995   0.537   1.734
 1633SOL     OW 5797   5.105   3.113   3.940
 1633SOL    HW1 5798   5.067   3.110   4.032
 1633SOL    HW2 5799   5.172   3.039   3.929
 1634SOL     OW 5800   3.308   0.879   6.656
 1634SOL    HW1 5801   3.218   0.881   6.699
 1634SOL    HW2 5802   3.379   0.875   6.727
 1635SOL     OW 5803   0.433   5.578   3.889
 1635SOL    HW1 5804   0.450   5.619   3.800
 1635SOL    HW2 5805   0.484   5.492   3.896
 1636SOL     OW 5806   2.033   5.951   1.217
 1636SOL    HW1 5807   2.116   5.899   1.197
 1636SOL    HW2 5808   2.054   6.022   1.284
 1637SOL     OW 5809   0.025   3.206   2.115
 1637SOL    HW1 5810   0.002   3.110   2.099
 1637SOL    HW2 5811   0.044   3.220   2.212
 1638SOL     OW 5812   1.271   2.821   5.066
 1638SOL    HW1 5813   1.209   2.745   5.048
 1638SOL    HW2 5814   1.219   2.906   5.068
 1639SOL     OW 5815   4.878   4.907   2.040
 1639SOL    HW1 5816   4.909   4.839   2.107
 1639SOL    HW2 5817   4.788   4.942   2.068
 1640SOL     OW 5818   5.708   0.283   1.558
 1640SOL    HW1 5819   5.740   0.355   1.497
 1640SOL    HW2 5820   5.778   0.265   1.628
 1641SOL     OW 5821   6.287   2.519   5.531
 1641SOL    HW1 5822   6.295   2.574   5.448
 1641SOL    HW2 5823   6.378   2.503   5.569
 1642SOL     OW 5824   0.431   2.616   1.869
 1642SOL    HW1 5825   0.375   2.590   1.790
 1642SOL    HW2 5826   0.469   2.707   1.854
 1643SOL     OW 5827   3.957   0.465   5.471
 1643SOL    HW1 5828   3.992   0.477   5.564
 1643SOL    HW2 5829   3.909   0.548   5.443
 1644SOL     OW 5830   3.265   0.647   0.842
 1644SOL    HW1 5831   3.311   0.723   0.795
 1644SOL    HW2 5832   3.262   0.667   0.940
 1645SOL     OW 5833   1.953   0.071   6.389
 1645SOL    HW1 5834   2.003   7.008   6.377
 1645SOL    HW2 5835   1.945   0.118   6.302
 1646SOL     OW 5836   1.342   3.529   1.271
 1646SOL    HW1 5837   1.354   3.491   1.179
 1646SOL    HW2 5838   1.332   3.455   1.337
 1647SOL     OW 5839   6.076   3.068   3.797
 1647SOL    HW1 5840   6.129   3.038   3.719
 1647SOL    HW2 5841   6.006   3.000   3.818
 1648SOL     OW 5842   4.279   6.819   2.246
 1648SOL    HW1 5843   4.358   6.859   2.200
 1648SOL    HW2 5844   4.254   6.876   2.325
 1649SOL     OW 5845   3.264   0.927   2.934
 1649SOL    HW1 5846   3.202   0.966   3.002
 1649SOL    HW2 5847   3.355   0.918   2.974
 1650SOL     OW 5848   2.398   6.242   3.675
 1650SOL    HW1 5849   2.327   6.311   3.686
 1650SOL    HW2 5850   2.437   6.219   3.765
 1651SOL     OW 5851   1.784   6.507   0.691
 1651SOL    HW1 5852   1.732   6.570   0.749
 1651SOL    HW2 5853   1.730   6.424   0.676
 1652SOL     OW 5854   2.993   2.553   1.447
 1652SOL    HW1 5855   3.035   2.634   1.406
 1652SOL    HW2 5856   2.978   2.569   1.545
 1653SOL     OW 5857   1.036   5.870   1.079
 1653SOL    HW1 5858   0.958   5.826   1.124
 1653SOL    HW2 5859   1.120   5.842   1.125
 1654SOL     OW 5860   0.208   3.493   3.065
 1654SOL    HW1 5861   0.229   3.572   3.123
 1654SOL    HW2 5862   0.163   3.423   3.119
 1655SOL     OW 5863   4.724   4.883   5.644
 1655SOL    HW1 5864   4.802   4.945   5.640
 1655SOL    HW2 5865   4.754   4.794   5.678
 1656SOL     OW 5866   0.255   5.037   3.013
 1656SOL    HW1 5867   0.159   5.010   3.003
 1656SOL    HW2 5868   0.314   4.959   2.996
 1657SOL     OW 5869   1.366   0.189   5.518
 1657SOL    HW1 5870   1.419   0.123   5.571
 1657SOL    HW2 5871   1.363   0.160   5.423
 1658SOL     OW 5872   5.777   6.166   2.844
 1658SOL    HW1 5873   5.876   6.165   2.830
 1658SOL    HW2 5874   5.757   6.155   2.941
 1659SOL     OW 5875   4.272   2.088   5.609
 1659SOL    HW1 5876   4.371   2.082   5.619
 1659SOL    HW2 5877   4.233   1.996   5.604
 1660SOL     OW 5878   2.031   5.475   3.368
 1660SOL    HW1 5879   2.022   5.472   3.467
 1660SOL    HW2 5880   1.951   5.431   3.326
 1661SOL     OW 5881   2.879   0.007   2.153
 1661SOL    HW1 5882   2.977   0.018   2.168
 1661SOL    HW2 5883   2.834   0.096   2.163
 1662SOL     OW 5884   0.228   0.644   3.146
 1662SOL    HW1 5885   0.194   0.695   3.067
 1662SOL    HW2 5886   0.208   0.696   3.229
 1663SOL     OW 5887   2.860   6.946   3.482
 1663SOL    HW1 5888   2.928   7.016   3.501
 1663SOL    HW2 5889   2.905   6.858   3.469
 1664SOL     OW 5890   2.294   5.650   4.545
 1664SOL    HW1 5891   2.320   5.559   4.577
 1664SOL    HW2 5892   2.366   5.716   4.568
 1665SOL     OW 5893   0.129   0.086   4.475
 1665SOL    HW1 5894   0.167   0.146   4.545
 1665SOL    HW2 5895   0.045   0.043   4.510
 1666SOL     OW 5896   6.052   2.786   6.137
 1666SOL    HW1 5897   6.126   2.719   6.140
 1666SOL    HW2 5898   6.055   2.836   6.050
 1667SOL     OW 5899   6.606   0.644   6.194
 1667SOL    HW1 5900   6.589   0.676   6.288
 1667SOL    HW2 5901   6.659   0.560   6.197
 1668SOL     OW 5902   3.655   0.911   5.079
 1668SOL    HW1 5903   3.716   0.955   5.146
 1668SOL    HW2 5904   3.560   0.933   5.101
 1669SOL     OW 5905   5.953   0.297   6.683
 1669SOL    HW1 5906   5.885   0.224   6.672
 1669SOL    HW2 5907   6.038   0.270   6.638
 1670SOL     OW 5908   5.559   4.346   5.666
 1670SOL    HW1 5909   5.536   4.430   5.715
 1670SOL    HW2 5910   5.476   4.293   5.649
 1671SOL     OW 5911   5.450   3.998   0.540
 1671SOL    HW1 5912   5.368   3.946   0.517
 1671SOL    HW2 5913   5.430   4.096   0.534
 1672SOL     OW 5914   1.694   5.611   2.465
 1672SOL    HW1 5915   1.648   5.678   2.406
 1672SOL    HW2 5916   1.785   5.590   2.429
 1673SOL     OW 5917   6.316   2.298   4.197
 1673SOL    HW1 5918   6.251   2.223   4.213
 1673SOL    HW2 5919   6.409   2.266   4.214
 1674SOL     OW 5920   0.656   4.469   6.452
 1674SOL    HW1 5921   0.570   4.466   6.503
 1674SOL    HW2 5922   0.636   4.480   6.354
 1675SOL     OW 5923   4.856   2.420   6.932
 1675SOL    HW1 5924   4.820   2.373   7.013
 1675SOL    HW2 5925   4.936   2.475   6.959
 1676SOL     OW 5926   1.399   0.584   3.206
 1676SOL    HW1 5927   1.339   0.512   3.242
 1676SOL    HW2 5928   1.494   0.552   3.206
 1677SOL     OW 5929   6.553   1.507   5.566
 1677SOL    HW1 5930   6.459   1.477   5.550
 1677SOL    HW2 5931   6.614   1.428   5.560
 1678SOL     OW 5932   5.472   6.890   1.518
 1678SOL    HW1 5933   5.405   6.846   1.458
 1678SOL    HW2 5934   5.478   6.987   1.496
 1679SOL     OW 5935   0.099   3.864   6.873
 1679SOL    HW1 5936   0.095   3.764   6.879
 1679SOL    HW2 5937   0.120   3.901   6.964
 1680SOL     OW 5938   1.182   1.448   4.339
 1680SOL    HW1 5939   1.180   1.526   4.277
 1680SOL    HW2 5940   1.175   1.481   4.433
 1681SOL     OW 5941   6.308   5.488   1.211
 1681SOL    HW1 5942   6.391   5.476   1.265
 1681SOL    HW2 5943   6.295   5.586   1.192
 1682SOL     OW 5944   6.440   3.373   5.513
 1682SOL    HW1 5945   6.539   3.376   5.525
 1682SOL    HW2 5946   6.398   3.448   5.565
 1683SOL     OW 5947   5.430   5.654   0.459
 1683SOL    HW1 5948   5.357   5.722   0.467
 1683SOL    HW2 5949   5.398   5.565   0.492
 1684SOL     OW 5950   0.738   5.757   5.099
 1684SOL    HW1 5951   0.680   5.810   5.160
 1684SOL    HW2 5952   0.696   5.754   5.008
 1685SOL     OW 5953   1.148   1.772   6.727
 1685SOL    HW1 5954   1.202   1.794   6.646
 1685SOL    HW2 5955   1.115   1.678   6.721
 1686SOL     OW 5956   1.915   6.480   7.014
 1686SOL    HW1 5957   2.007   6.480   6.973
 1686SOL    HW2 5958   1.895   6.389   0.027
 1687SOL     OW 5959   1.832   0.249   1.784
 1687SOL    HW1 5960   1.798   0.203   1.702
 1687SOL    HW2 5961   1.857   0.344   1.761
 1688SOL     OW 5962   0.696   2.126   3.306
 1688SOL    HW1 5963   0.653   2.117   3.216
 1688SOL    HW2 5964   0.737   2.039   3.332
 1689SOL     OW 5965   2.067   1.321   2.795
 1689SOL    HW1 5966   2.101   1.338   2.703
 1689SOL    HW2 5967   1.968   1.331   2.797
 1690SOL     OW 5968   1.086   2.153   0.957
 1690SOL    HW1 5969   0.998   2.179   0.916
 1690SOL    HW2 5970   1.078   2.153   1.057
 1691SOL     OW 5971   5.349   4.589   2.331
 1691SOL    HW1 5972   5.325   4.686   2.342
 1691SOL    HW2 5973   5.294   4.534   2.394
 1692SOL     OW 5974   1.648   0.792   3.486
 1692SOL    HW1 5975   1.670   0.878   3.531
 1692SOL    HW2 5976   1.608   0.729   3.552
 1693SOL     OW 5977   2.811   2.254   3.273
 1693SOL    HW1 5978   2.778   2.309   3.196
 1693SOL    HW2 5979   2.736   2.198   3.310
 1694SOL     OW 5980   4.855   6.110   5.316
 1694SOL    HW1 5981   4.947   6.146   5.328
 1694SOL    HW2 5982   4.790   6.167   5.367
 1695SOL     OW 5983   2.882   2.225   5.964
 1695SOL    HW1 5984   2.851   2.274   6.045
 1695SOL    HW2 5985   2.815   2.154   5.941
 1696SOL     OW 5986   3.265   5.299   0.851
 1696SOL    HW1 5987   3.345   5.254   0.889
 1696SOL    HW2 5988   3.294   5.380   0.799
 1697SOL     OW 5989   0.819   1.139   2.067
 1697SOL    HW1 5990   0.783   1.175   1.981
 1697SOL    HW2 5991   0.898   1.193   2.095
 1698SOL     OW 5992   4.778   2.303   1.003
 1698SOL    HW1 5993   4.741   2.371   1.067
 1698SOL    HW2 5994   4.703   2.252   0.962
 1699SOL     OW 5995   2.303   3.466   0.954
 1699SOL    HW1 5996   2.254   3.539   0.906
 1699SOL    HW2 5997   2.364   3.505   1.022
 1700SOL     OW 5998   6.356   3.045   4.217
 1700SOL    HW1 5999   6.413   2.963   4.213
 1700SOL    HW2 6000   6.375   3.095   4.302
 1701SOL     OW 6001   5.603   3.517   4.657
 1701SOL    HW1 6002   5.588   3.548   4.563
 1701SOL    HW2 6003   5.627   3.595   4.714
 1702SOL     OW 6004   4.978   3.155   0.495
 1702SOL    HW1 6005   5.018   3.242   0.469
 1702SOL    HW2 6006   5.050   3.087   0.510
 1703SOL     OW 6007   1.880   3.724   0.030
 1703SOL    HW1 6008   1.896   3.670   0.112
 1703SOL    HW2 6009   1.782   3.740   0.019
 1704SOL     OW 6010   1.011   1.000   1.903
 1704SOL    HW1 6011   1.035   1.009   2.000
 1704SOL    HW2 6012   0.940   0.930   1.893
 1705SOL     OW 6013   3.688   3.070   1.782
 1705SOL    HW1 6014   3.649   3.162   1.772
 1705SOL    HW2 6015   3.700   3.029   1.692
 1706SOL     OW 6016   3.007   1.170   6.749
 1706SOL    HW1 6017   2.955   1.224   6.815
 1706SOL    HW2 6018   2.955   1.165   6.663
 1707SOL     OW 6019   5.409   1.941   3.041
 1707SOL    HW1 6020   5.453   1.861   3.000
 1707SOL    HW2 6021   5.479   2.007   3.067
 1708SOL     OW 6022   6.832   4.853   2.714
 1708SOL    HW1 6023   6.882   4.888   2.635
 1708SOL    HW2 6024   6.894   4.798   2.771
 1709SOL     OW 6025   3.101   5.955   3.372
 1709SOL    HW1 6026   3.052   5.911   3.297
 1709SOL    HW2 6027   3.059   6.043   3.394
 1710SOL     OW 6028   6.978   6.236   3.659
 1710SOL    HW1 6029   6.888   6.210   3.693
 1710SOL    HW2 6030   6.970   6.262   3.562
 1711SOL     OW 6031   1.731   4.796   5.694
 1711SOL    HW1 6032   1.784   4.719   5.729
 1711SOL    HW2 6033   1.690   4.772   5.606
 1712SOL     OW 6034   0.981   4.952   0.730
 1712SOL    HW1 6035   0.910   4.941   0.661
 1712SOL    HW2 6036   1.058   4.891   0.709
 1713SOL     OW 6037   1.141   3.328   0.891
 1713SOL    HW1 6038   1.073   3.390   0.853
 1713SOL    HW2 6039   1.106   3.234   0.887
 1714SOL     OW 6040   3.545   1.437   0.709
 1714SOL    HW1 6041   3.480   1.455   0.635
 1714SOL    HW2 6042   3.557   1.519   0.764
 1715SOL     OW 6043   0.238   3.270   4.232
 1715SOL    HW1 6044   0.177   3.263   4.311
 1715SOL    HW2 6045   0.187   3.306   4.154
 1716SOL     OW 6046   0.318   6.934   0.307
 1716SOL    HW1 6047   0.418   6.935   0.310
 1716SOL    HW2 6048   0.287   6.963   0.216
 1717SOL     OW 6049   3.189   0.386   0.291
 1717SOL    HW1 6050   3.238   0.473   0.296
 1717SOL    HW2 6051   3.131   0.384   0.209
 1718SOL     OW 6052   1.121   4.986   5.473
 1718SOL    HW1 6053   1.067   5.023   5.397
 1718SOL    HW2 6054   1.111   4.887   5.475
 1719SOL     OW 6055   2.029   3.500   1.588
 1719SOL    HW1 6056   2.017   3.556   1.671
 1719SOL    HW2 6057   1.951   3.516   1.527
 1720SOL     OW 6058   6.791   1.735   1.314
 1720SOL    HW1 6059   6.822   1.787   1.393
 1720SOL    HW2 6060   6.753   1.648   1.344
 1721SOL     OW 6061   1.560   6.418   3.936
 1721SOL    HW1 6062   1.656   6.444   3.948
 1721SOL    HW2 6063   1.534   6.430   3.840
 1722SOL     OW 6064   5.758   6.127   1.920
 1722SOL    HW1 6065   5.803   6.052   1.968
 1722SOL    HW2 6066   5.789   6.214   1.959
 1723SOL     OW 6067   6.094   1.424   2.234
 1723SOL    HW1 6068   6.002   1.433   2.272
 1723SOL    HW2 6069   6.148   1.506   2.256
 1724SOL     OW 6070   4.642   0.481   0.205
 1724SOL    HW1 6071   4.687   0.555   0.254
 1724SOL    HW2 6072   4.597   0.419   0.270
 1725SOL     OW 6073   4.185   4.729   1.494
 1725SOL    HW1 6074   4.172   4.716   1.592
 1725SOL    HW2 6075   4.113   4.682   1.443
 1726SOL     OW 6076   0.659   5.073   4.383
 1726SOL    HW1 6077   0.744   5.059   4.435
 1726SOL    HW2 6078   0.583   5.083   4.447
 1727SOL     OW 6079   3.179   3.847   5.478
 1727SOL    HW1 6080   3.278   3.834   5.474
 1727SOL    HW2 6081   3.133   3.759   5.478
 1728SOL     OW 6082   4.736   4.212   2.971
 1728SOL    HW1 6083   4.662   4.277   2.955
 1728SOL    HW2 6084   4.822   4.261   2.977
 1729SOL     OW 6085   1.692   3.485   3.151
 1729SOL    HW1 6086   1.746   3.471   3.068
 1729SOL    HW2 6087   1.749   3.468   3.231
 1730SOL     OW 6088   5.802   2.492   5.034
 1730SOL    HW1 6089   5.759   2.493   4.944
 1730SOL    HW2 6090   5.892   2.536   5.029
 1731SOL     OW 6091   1.624   5.139   0.251
 1731SOL    HW1 6092   1.588   5.046   0.245
 1731SOL    HW2 6093   1.689   5.145   0.327
 1732SOL     OW 6094   0.252   4.907   7.005
 1732SOL    HW1 6095   0.316   4.837   6.971
 1732SOL    HW2 6096   0.171   4.862   0.020
 1733SOL     OW 6097   1.362   4.194   0.593
 1733SOL    HW1 6098   1.440   4.132   0.590
 1733SOL    HW2 6099   1.379   4.267   0.659
 1734SOL     OW 6100   5.163   3.360   0.433
 1734SOL    HW1 6101   5.250   3.319   0.406
 1734SOL    HW2 6102   5.180   3.437   0.495
 1735SOL     OW 6103   5.873   5.186   1.757
 1735SOL    HW1 6104   5.858   5.248   1.680
 1735SOL    HW2 6105   5.815   5.105   1.746
 1736SOL     OW 6106   3.605   3.764   0.612
 1736SOL    HW1 6107   3.653   3.782   0.698
 1736SOL    HW2 6108   3.513   3.802   0.617
 1737SOL     OW 6109   1.563   6.537   3.661
 1737SOL    HW1 6110   1.644   6.594   3.655
 1737SOL    HW2 6111   1.575   6.456   3.603
 1738SOL     OW 6112   1.232   2.695   2.201
 1738SOL    HW1 6113   1.265   2.789   2.190
 1738SOL    HW2 6114   1.285   2.649   2.272
 1739SOL     OW 6115   4.063   1.846   5.246
 1739SOL    HW1 6116   4.037   1.876   5.338
 1739SOL    HW2 6117   4.008   1.767   5.220
 1740SOL     OW 6118   0.548   1.019   5.539
 1740SOL    HW1 6119   0.577   1.078   5.615
 1740SOL    HW2 6120   0.609   0.940   5.534
 1741SOL     OW 6121   1.717   0.036   2.970
 1741SOL    HW1 6122   1.679   7.016   3.052
 1741SOL    HW2 6123   1.814   0.058   2.986
 1742SOL     OW 6124   5.847   0.143   4.575
 1742SOL    HW1 6125   5.921   0.087   4.614
 1742SOL    HW2 6126   5.841   0.126   4.476
 1743SOL     OW 6127   4.265   0.836   0.851
 1743SOL    HW1 6128   4.313   0.920   0.825
 1743SOL    HW2 6129   4.313   0.792   0.927
 1744SOL     OW 6130   2.308   0.712   1.326
 1744SOL    HW1 6131   2.257   0.626   1.334
 1744SOL    HW2 6132   2.402   0.698   1.358
 1745SOL     OW 6133   6.838   2.433   3.832
 1745SOL    HW1 6134   6.916   2.455   3.891
 1745SOL    HW2 6135   6.867   2.438   3.736
 1746SOL     OW 6136   3.171   0.264   6.056
 1746SOL    HW1 6137   3.217   0.179   6.083
 1746SOL    HW2 6138   3.077   0.263   6.091
 1747SOL     OW 6139   3.944   0.569   1.222
 1747SOL    HW1 6140   3.962   0.651   1.168
 1747SOL    HW2 6141   3.885   0.592   1.299
 1748SOL     OW 6142   5.664   2.265   2.001
 1748SOL    HW1 6143   5.575   2.226   1.978
 1748SOL    HW2 6144   5.653   2.362   2.024
 1749SOL     OW 6145   4.163   6.543   6.115
 1749SOL    HW1 6146   4.094   6.565   6.046
 1749SOL    HW2 6147   4.153   6.603   6.194
 1750SOL     OW 6148   5.218   0.545   3.967
 1750SOL    HW1 6149   5.215   0.643   3.981
 1750SOL    HW2 6150   5.125   0.508   3.965
 1751SOL     OW 6151   1.895   5.736   3.580
 1751SOL    HW1 6152   1.818   5.800   3.576
 1751SOL    HW2 6153   1.861   5.642   3.582
 1752SOL     OW 6154   6.148   2.137   0.412
 1752SOL    HW1 6155   6.063   2.158   0.460
 1752SOL    HW2 6156   6.151   2.040   0.388
 1753SOL     OW 6157   2.407   0.425   2.224
 1753SOL    HW1 6158   2.450   0.336   2.241
 1753SOL    HW2 6159   2.333   0.439   2.291
 1754SOL     OW 6160   4.113   2.984   0.533
 1754SOL    HW1 6161   4.021   3.020   0.517
 1754SOL    HW2 6162   4.106   2.891   0.569
 1755SOL     OW 6163   5.320   3.551   0.578
 1755SOL    HW1 6164   5.398   3.607   0.607
 1755SOL    HW2 6165   5.239   3.577   0.630
 1756SOL     OW 6166   6.255   5.615   4.513
 1756SOL    HW1 6167   6.301   5.555   4.578
 1756SOL    HW2 6168   6.324   5.663   4.458
 1757SOL     OW 6169   2.958   6.706   4.436
 1757SOL    HW1 6170   3.050   6.746   4.429
 1757SOL    HW2 6171   2.899   6.747   4.367
 1758SOL     OW 6172   1.972   0.994   3.125
 1758SOL    HW1 6173   1.873   1.001   3.143
 1758SOL    HW2 6174   1.987   0.925   3.054
 1759SOL     OW 6175   0.929   5.704   6.351
 1759SOL    HW1 6176   0.919   5.659   6.440
 1759SOL    HW2 6177   0.954   5.637   6.282
 1760SOL     OW 6178   5.912   0.690   2.162
 1760SOL    HW1 6179   5.973   0.713   2.087
 1760SOL    HW2 6180   5.944   0.734   2.246
 1761SOL     OW 6181   6.526   2.611   0.990
 1761SOL    HW1 6182   6.537   2.689   0.928
 1761SOL    HW2 6183   6.584   2.625   1.071
 1762SOL     OW 6184   6.296   1.620   6.363
 1762SOL    HW1 6185   6.385   1.649   6.330
 1762SOL    HW2 6186   6.272   1.533   6.320
 1763SOL     OW 6187   2.286   4.195   4.182
 1763SOL    HW1 6188   2.325   4.226   4.095
 1763SOL    HW2 6189   2.273   4.096   4.179
 1764SOL     OW 6190   6.608   3.062   3.865
 1764SOL    HW1 6191   6.557   2.980   3.841
 1764SOL    HW2 6192   6.698   3.036   3.900
 1765SOL     OW 6193   3.028   2.860   6.480
 1765SOL    HW1 6194   2.939   2.844   6.437
 1765SOL    HW2 6195   3.095   2.884   6.410
 1766SOL     OW 6196   5.451   3.328   5.151
 1766SOL    HW1 6197   5.464   3.292   5.244
 1766SOL    HW2 6198   5.539   3.361   5.116
 1767SOL     OW 6199   5.915   3.450   2.356
 1767SOL    HW1 6200   5.843   3.452   2.425
 1767SOL    HW2 6201   5.969   3.366   2.366
 1768SOL     OW 6202   5.681   6.897   4.440
 1768SOL    HW1 6203   5.715   6.804   4.448
 1768SOL    HW2 6204   5.731   6.945   4.368
 1769SOL     OW 6205   4.820   1.790   2.373
 1769SOL    HW1 6206   4.783   1.881   2.353
 1769SOL    HW2 6207   4.906   1.778   2.323
 1770SOL     OW 6208   2.638   5.625   5.168
 1770SOL    HW1 6209   2.640   5.592   5.074
 1770SOL    HW2 6210   2.660   5.549   5.230
 1771SOL     OW 6211   4.953   5.984   6.024
 1771SOL    HW1 6212   4.942   5.986   5.924
 1771SOL    HW2 6213   4.892   5.916   6.064
 1772SOL     OW 6214   3.482   6.595   2.637
 1772SOL    HW1 6215   3.385   6.611   2.654
 1772SOL    HW2 6216   3.534   6.676   2.665
 1773SOL     OW 6217   0.864   5.004   6.773
 1773SOL    HW1 6218   0.897   5.097   6.757
 1773SOL    HW2 6219   0.894   4.945   6.697
 1774SOL     OW 6220   3.830   5.387   1.422
 1774SOL    HW1 6221   3.907   5.326   1.443
 1774SOL    HW2 6222   3.863   5.481   1.412
 1775SOL     OW 6223   0.833   4.251   2.152
 1775SOL    HW1 6224   0.926   4.250   2.116
 1775SOL    HW2 6225   0.800   4.345   2.157
 1776SOL     OW 6226   2.888   5.885   4.916
 1776SOL    HW1 6227   2.806   5.845   4.957
 1776SOL    HW2 6228   2.870   5.981   4.892
 1777SOL     OW 6229   4.324   6.210   0.544
 1777SOL    HW1 6230   4.232   6.249   0.548
 1777SOL    HW2 6231   4.322   6.116   0.578
 1778SOL     OW 6232   5.457   3.591   5.702
 1778SOL    HW1 6233   5.381   3.589   5.637
 1778SOL    HW2 6234   5.482   3.498   5.727
 1779SOL     OW 6235   3.061   6.398   5.084
 1779SOL    HW1 6236   3.099   6.418   5.174
 1779SOL    HW2 6237   3.136   6.388   5.018
 1780SOL     OW 6238   3.284   3.058   6.398
 1780SOL    HW1 6239   3.277   3.054   6.497
 1780SOL    HW2 6240   3.362   3.003   6.368
 1781SOL     OW 6241   3.394   5.632   3.368
 1781SOL    HW1 6242   3.350   5.669   3.450
 1781SOL    HW2 6243   3.413   5.535   3.381
 1782SOL     OW 6244   3.270   1.818   3.593
 1782SOL    HW1 6245   3.242   1.856   3.505
 1782SOL    HW2 6246   3.208   1.848   3.665
 1783SOL     OW 6247   2.032   5.884   0.339
 1783SOL    HW1 6248   1.950   5.907   0.288
 1783SOL    HW2 6249   2.076   5.968   0.370
 1784SOL     OW 6250   3.465   6.779   5.284
 1784SOL    HW1 6251   3.464   6.736   5.374
 1784SOL    HW2 6252   3.435   6.712   5.216
 1785SOL     OW 6253   6.861   4.249   2.822
 1785SOL    HW1 6254   6.856   4.192   2.904
 1785SOL    HW2 6255   6.784   4.229   2.762
 1786SOL     OW 6256   3.324   2.564   1.396
 1786SOL    HW1 6257   3.227   2.585   1.403
 1786SOL    HW2 6258   3.343   2.477   1.443
 1787SOL     OW 6259   3.389   0.613   6.240
 1787SOL    HW1 6260   3.479   0.639   6.275
 1787SOL    HW2 6261   3.367   0.669   6.160
 1788SOL     OW 6262   1.881   5.257   5.083
 1788SOL    HW1 6263   1.884   5.168   5.130
 1788SOL    HW2 6264   1.952   5.316   5.121
 1789SOL     OW 6265   6.576   1.561   0.124
 1789SOL    HW1 6266   6.626   1.585   0.208
 1789SOL    HW2 6267   6.574   1.640   0.063
 1790SOL     OW 6268   3.476   6.946   3.539
 1790SOL    HW1 6269   3.463   6.990   3.450
 1790SOL    HW2 6270   3.473   6.847   3.529
 1791SOL     OW 6271   6.896   6.619   2.632
 1791SOL    HW1 6272   6.893   6.707   2.586
 1791SOL    HW2 6273   6.840   6.622   2.715
 1792SOL     OW 6274   1.052   3.020   4.747
 1792SOL    HW1 6275   0.970   2.983   4.791
 1792SOL    HW2 6276   1.033   3.038   4.651
 1793SOL     OW 6277   6.767   0.012   3.796
 1793SOL    HW1 6278   6.805   6.943   3.798
 1793SOL    HW2 6279   6.783   0.057   3.884
 1794SOL     OW 6280   4.591   5.155   5.761
 1794SOL    HW1 6281   4.495   5.146   5.788
 1794SOL    HW2 6282   4.617   5.076   5.705
 1795SOL     OW 6283   0.915   2.874   0.805
 1795SOL    HW1 6284   1.010   2.857   0.776
 1795SOL    HW2 6285   0.885   2.798   0.863
 1796SOL     OW 6286   3.175   0.566   6.403
 1796SOL    HW1 6287   3.272   0.544   6.392
 1796SOL    HW2 6288   3.165   0.664   6.422
 1797SOL     OW 6289   1.215   6.956   0.801
 1797SOL    HW1 6290   1.142   7.014   0.766
 1797SOL    HW2 6291   1.194   6.860   0.785
 1798SOL     OW 6292   5.067   2.736   3.044
 1798SOL    HW1 6293   4.996   2.775   3.103
 1798SOL    HW2 6294   5.062   2.778   2.954
 1799SOL     OW 6295   1.494   1.859   6.678
 1799SOL    HW1 6296   1.498   1.908   6.765
 1799SOL    HW2 6297   1.462   1.920   6.606
 1800SOL     OW 6298   4.207   5.011   1.577
 1800SOL    HW1 6299   4.222   4.921   1.537
 1800SOL    HW2 6300   4.294   5.060   1.584
 1801SOL     OW 6301   6.681   6.525   1.386
 1801SOL    HW1 6302   6.657   6.609   1.435
 1801SOL    HW2 6303   6.625   6.518   1.303
 1802SOL     OW 6304   5.252   5.623   4.545
 1802SOL    HW1 6305   5.175   5.684   4.524
 1802SOL    HW2 6306   5.337   5.663   4.510
 1803SOL     OW 6307   0.162   6.048   0.774
 1803SOL    HW1 6308   0.066   6.076   0.767
 1803SOL    HW2 6309   0.174   5.994   0.857
 1804SOL     OW 6310   2.765   3.371   5.350
 1804SOL    HW1 6311   2.726   3.279   5.357
 1804SOL    HW2 6312   2.692   3.439   5.358
 1805SOL     OW 6313   4.662   3.147   6.384
 1805SOL    HW1 6314   4.686   3.178   6.292
 1805SOL    HW2 6315   4.568   3.111   6.384
 1806SOL     OW 6316   0.635   0.074   1.661
 1806SOL    HW1 6317   0.637   0.166   1.621
 1806SOL    HW2 6318   0.709   0.019   1.622
 1807SOL     OW 6319   6.029   1.012   5.171
 1807SOL    HW1 6320   5.973   1.070   5.229
 1807SOL    HW2 6321   6.124   1.045   5.173
 1808SOL     OW 6322   1.160   4.773   4.214
 1808SOL    HW1 6323   1.228   4.793   4.284
 1808SOL    HW2 6324   1.203   4.722   4.139
 1809SOL     OW 6325   3.525   1.377   6.203
 1809SOL    HW1 6326   3.428   1.358   6.187
 1809SOL    HW2 6327   3.537   1.408   6.298
 1810SOL     OW 6328   2.620   6.451   2.859
 1810SOL    HW1 6329   2.616   6.351   2.869
 1810SOL    HW2 6330   2.709   6.477   2.820
 1811SOL     OW 6331   5.916   5.574   3.493
 1811SOL    HW1 6332   5.875   5.574   3.402
 1811SOL    HW2 6333   5.875   5.646   3.549
 1812SOL     OW 6334   4.386   5.397   6.398
 1812SOL    HW1 6335   4.315   5.407   6.328
 1812SOL    HW2 6336   4.343   5.398   6.488
 1813SOL     OW 6337   6.470   4.669   6.788
 1813SOL    HW1 6338   6.409   4.748   6.786
 1813SOL    HW2 6339   6.563   4.698   6.813
 1814SOL     OW 6340   4.553   6.617   2.770
 1814SOL    HW1 6341   4.504   6.701   2.796
 1814SOL    HW2 6342   4.646   6.641   2.740
 1815SOL     OW 6343   0.255   0.145   3.255
 1815SOL    HW1 6344   0.162   0.112   3.262
 1815SOL    HW2 6345   0.268   0.223   3.317
 1816SOL     OW 6346   0.955   4.381   0.331
 1816SOL    HW1 6347   1.007   4.447   0.386
 1816SOL    HW2 6348   1.000   4.292   0.333
 1817SOL     OW 6349   2.160   5.667   2.487
 1817SOL    HW1 6350   2.091   5.681   2.416
 1817SOL    HW2 6351   2.150   5.575   2.525
 1818SOL     OW 6352   1.673   1.286   3.351
 1818SOL    HW1 6353   1.641   1.344   3.276
 1818SOL    HW2 6354   1.766   1.311   3.375
 1819SOL     OW 6355   1.804   4.789   1.722
 1819SOL    HW1 6356   1.755   4.851   1.661
 1819SOL    HW2 6357   1.887   4.834   1.756
 1820SOL     OW 6358   4.871   0.317   2.572
 1820SOL    HW1 6359   4.847   0.256   2.497
 1820SOL    HW2 6360   4.969   0.338   2.568
 1821SOL     OW 6361   3.219   1.936   2.645
 1821SOL    HW1 6362   3.269   1.935   2.732
 1821SOL    HW2 6363   3.125   1.965   2.662
 1822SOL     OW 6364   3.224   3.177   1.757
 1822SOL    HW1 6365   3.189   3.231   1.834
 1822SOL    HW2 6366   3.148   3.138   1.706
 1823SOL     OW 6367   4.122   6.746   2.599
 1823SOL    HW1 6368   4.166   6.822   2.551
 1823SOL    HW2 6369   4.188   6.671   2.611
 1824SOL     OW 6370   5.230   3.034   1.500
 1824SOL    HW1 6371   5.307   2.975   1.525
 1824SOL    HW2 6372   5.242   3.124   1.540
 1825SOL     OW 6373   1.037   0.652   1.959
 1825SOL    HW1 6374   1.095   0.580   1.920
 1825SOL    HW2 6375   0.951   0.657   1.910
 1826SOL     OW 6376   3.545   6.622   6.694
 1826SOL    HW1 6377   3.608   6.697   6.675
 1826SOL    HW2 6378   3.586   6.536   6.662
 1827SOL     OW 6379   6.871   6.332   1.424
 1827SOL    HW1 6380   6.965   6.361   1.407
 1827SOL    HW2 6381   6.809   6.408   1.405
 1828SOL     OW 6382   1.135   2.257   6.362
 1828SOL    HW1 6383   1.071   2.330   6.384
 1828SOL    HW2 6384   1.217   2.296   6.319
 1829SOL     OW 6385   5.137   5.736   2.565
 1829SOL    HW1 6386   5.174   5.651   2.603
 1829SOL    HW2 6387   5.039   5.726   2.550
 1830SOL     OW 6388   4.748   6.507   3.428
 1830SOL    HW1 6389   4.740   6.599   3.469
 1830SOL    HW2 6390   4.834   6.502   3.377
 1831SOL     OW 6391   5.136   6.821   2.310
 1831SOL    HW1 6392   5.149   6.920   2.308
 1831SOL    HW2 6393   5.217   6.777   2.350
 1832SOL     OW 6394   4.766   3.005   0.749
 1832SOL    HW1 6395   4.761   2.968   0.842
 1832SOL    HW2 6396   4.833   3.079   0.745
 1833SOL     OW 6397   5.312   1.315   5.308
 1833SOL    HW1 6398   5.401   1.338   5.267
 1833SOL    HW2 6399   5.239   1.343   5.246
 1834SOL     OW 6400   2.840   3.365   1.074
 1834SOL    HW1 6401   2.773   3.320   1.015
 1834SOL    HW2 6402   2.911   3.408   1.019
 1835SOL     OW 6403   1.663   5.099   0.779
 1835SOL    HW1 6404   1.574   5.126   0.817
 1835SOL    HW2 6405   1.733   5.162   0.813
 1836SOL     OW 6406   0.477   6.828   0.573
 1836SOL    HW1 6407   0.527   6.853   0.656
 1836SOL    HW2 6408   0.540   6.787   0.508
 1837SOL     OW 6409   0.996   2.249   4.717
 1837SOL    HW1 6410   0.954   2.181   4.656
 1837SOL    HW2 6411   0.986   2.340   4.678
 1838SOL     OW 6412   6.525   2.480   4.383
 1838SOL    HW1 6413   6.432   2.508   4.362
 1838SOL    HW2 6414   6.549   2.400   4.327
 1839SOL     OW 6415   0.101   2.511   5.466
 1839SOL    HW1 6416   0.168   2.585   5.471
 1839SOL    HW2 6417   0.111   2.462   5.380
 1840SOL     OW 6418   1.878   5.888   0.923
 1840SOL    HW1 6419   1.793   5.865   0.970
 1840SOL    HW2 6420   1.899   5.985   0.937
 1841SOL     OW 6421   1.534   2.877   3.481
 1841SOL    HW1 6422   1.536   2.864   3.382
 1841SOL    HW2 6423   1.596   2.812   3.525
 1842SOL     OW 6424   0.789   4.978   0.231
 1842SOL    HW1 6425   0.832   5.055   0.185
 1842SOL    HW2 6426   0.859   4.921   0.274
 1843SOL     OW 6427   2.809   2.001   4.587
 1843SOL    HW1 6428   2.801   1.985   4.488
 1843SOL    HW2 6429   2.760   1.929   4.636
 1844SOL     OW 6430   4.621   2.583   4.102
 1844SOL    HW1 6431   4.636   2.639   4.021
 1844SOL    HW2 6432   4.694   2.516   4.111
 1845SOL     OW 6433   4.410   0.588   6.748
 1845SOL    HW1 6434   4.341   0.525   6.785
 1845SOL    HW2 6435   4.372   0.637   6.669
 1846SOL     OW 6436   3.234   1.288   5.720
 1846SOL    HW1 6437   3.210   1.192   5.708
 1846SOL    HW2 6438   3.214   1.338   5.636
 1847SOL     OW 6439   0.186   0.633   0.603
 1847SOL    HW1 6440   0.286   0.629   0.600
 1847SOL    HW2 6441   0.157   0.726   0.626
 1848SOL     OW 6442   2.769   6.791   2.050
 1848SOL    HW1 6443   2.819   6.868   2.010
 1848SOL    HW2 6444   2.696   6.826   2.110
 1849SOL     OW 6445   2.998   1.645   6.482
 1849SOL    HW1 6446   3.070   1.692   6.432
 1849SOL    HW2 6447   3.024   1.634   6.578
 1850SOL     OW 6448   5.980   2.590   2.593
 1850SOL    HW1 6449   6.051   2.649   2.631
 1850SOL    HW2 6450   6.005   2.494   2.607
 1851SOL     OW 6451   0.050   2.576   2.947
 1851SOL    HW1 6452   0.093   2.667   2.948
 1851SOL    HW2 6453   0.098   2.516   3.011
 1852SOL     OW 6454   4.832   3.075   0.216
 1852SOL    HW1 6455   4.879   3.108   0.298
 1852SOL    HW2 6456   4.761   3.010   0.243
 1853SOL     OW 6457   0.909   4.609   0.820
 1853SOL    HW1 6458   0.812   4.624   0.802
 1853SOL    HW2 6459   0.951   4.695   0.850
 1854SOL     OW 6460   2.565   5.708   4.836
 1854SOL    HW1 6461   2.475   5.673   4.862
 1854SOL    HW2 6462   2.557   5.804   4.811
 1855SOL     OW 6463   5.396   5.199   1.156
 1855SOL    HW1 6464   5.412   5.298   1.161
 1855SOL    HW2 6465   5.337   5.179   1.078
 1856SOL     OW 6466   5.362   2.390   5.486
 1856SOL    HW1 6467   5.291   2.421   5.422
 1856SOL    HW2 6468   5.320   2.336   5.558
 1857SOL     OW 6469   4.162   0.928   3.416
 1857SOL    HW1 6470   4.233   0.908   3.349
 1857SOL    HW2 6471   4.181   0.878   3.500
 1858SOL     OW 6472   4.855   3.606   3.496
 1858SOL    HW1 6473   4.910   3.523   3.484
 1858SOL    HW2 6474   4.762   3.581   3.521
 1859SOL     OW 6475   4.840   1.957   3.161
 1859SOL    HW1 6476   4.896   2.012   3.223
 1859SOL    HW2 6477   4.761   1.922   3.212
 1860SOL     OW 6478   5.400   0.917   4.786
 1860SOL    HW1 6479   5.395   0.959   4.877
 1860SOL    HW2 6480   5.330   0.846   4.778
 1861SOL     OW 6481   5.478   6.545   3.188
 1861SOL    HW1 6482   5.544   6.517   3.119
 1861SOL    HW2 6483   5.471   6.645   3.187
 1862SOL     OW 6484   2.142   1.550   0.339
 1862SOL    HW1 6485   2.071   1.618   0.322
 1862SOL    HW2 6486   2.218   1.593   0.388
 1863SOL     OW 6487   3.142   2.805   1.323
 1863SOL    HW1 6488   3.219   2.865   1.345
 1863SOL    HW2 6489   3.142   2.785   1.225
 1864SOL     OW 6490   1.787   6.638   4.309
 1864SOL    HW1 6491   1.861   6.617   4.245
 1864SOL    HW2 6492   1.817   6.618   4.402
 1865SOL     OW 6493   4.718   2.455   6.426
 1865SOL    HW1 6494   4.621   2.444   6.408
 1865SOL    HW2 6495   4.732   2.480   6.522
 1866SOL     OW 6496   4.896   4.750   2.653
 1866SOL    HW1 6497   4.932   4.792   2.736
 1866SOL    HW2 6498   4.820   4.690   2.676
 1867SOL     OW 6499   0.893   4.016   6.925
 1867SOL    HW1 6500   0.861   3.962   7.003
 1867SOL    HW2 6501   0.835   4.097   6.915
 1868SOL     OW 6502   5.992   4.549   5.887
 1868SOL    HW1 6503   5.902   4.572   5.924
 1868SOL    HW2 6504   6.014   4.454   5.912
 1869SOL     OW 6505   6.434   0.905   5.333
 1869SOL    HW1 6506   6.370   0.953   5.394
 1869SOL    HW2 6507   6.445   0.957   5.249
 1870SOL     OW 6508   1.599   5.736   4.156
 1870SOL    HW1 6509   1.645   5.724   4.244
 1870SOL    HW2 6510   1.655   5.794   4.097
 1871SOL     OW 6511   1.664   6.929   0.886
 1871SOL    HW1 6512   1.666   6.829   0.882
 1871SOL    HW2 6513   1.657   6.958   0.981
 1872SOL     OW 6514   2.157   4.406   0.066
 1872SOL    HW1 6515   2.240   4.451   0.098
 1872SOL    HW2 6516   2.093   4.396   0.143
 1873SOL     OW 6517   4.692   1.365   6.652
 1873SOL    HW1 6518   4.628   1.437   6.628
 1873SOL    HW2 6519   4.642   1.281   6.674
 1874SOL     OW 6520   1.246   2.147   2.932
 1874SOL    HW1 6521   1.336   2.189   2.935
 1874SOL    HW2 6522   1.200   2.174   2.847
 1875SOL     OW 6523   1.098   6.830   6.961
 1875SOL    HW1 6524   1.032   6.798   6.893
 1875SOL    HW2 6525   1.107   6.761   0.010
 1876SOL     OW 6526   2.781   0.210   4.314
 1876SOL    HW1 6527   2.869   0.210   4.362
 1876SOL    HW2 6528   2.790   0.256   4.226
 1877SOL     OW 6529   0.544   0.144   3.315
 1877SOL    HW1 6530   0.509   0.050   3.312
 1877SOL    HW2 6531   0.474   0.204   3.354
 1878SOL     OW 6532   6.087   2.554   5.048
 1878SOL    HW1 6533   6.177   2.509   5.044
 1878SOL    HW2 6534   6.090   2.637   4.992
 1879SOL     OW 6535   1.237   3.734   5.473
 1879SOL    HW1 6536   1.288   3.723   5.388
 1879SOL    HW2 6537   1.187   3.821   5.471
 1880SOL     OW 6538   6.041   0.594   5.833
 1880SOL    HW1 6539   6.057   0.609   5.735
 1880SOL    HW2 6540   5.965   0.529   5.844
 1881SOL     OW 6541   6.518   2.166   0.533
 1881SOL    HW1 6542   6.502   2.259   0.568
 1881SOL    HW2 6543   6.608   2.135   0.564
 1882SOL     OW 6544   0.654   4.446   6.194
 1882SOL    HW1 6545   0.591   4.487   6.128
 1882SOL    HW2 6546   0.668   4.349   6.172
 1883SOL     OW 6547   0.103   2.153   3.604
 1883SOL    HW1 6548   0.062   2.098   3.676
 1883SOL    HW2 6549   0.190   2.191   3.635
 1884SOL     OW 6550   0.442   2.686   1.347
 1884SOL    HW1 6551   0.490   2.762   1.304
 1884SOL    HW2 6552   0.484   2.664   1.434
 1885SOL     OW 6553   1.900   1.898   5.056
 1885SOL    HW1 6554   1.938   1.806   5.041
 1885SOL    HW2 6555   1.834   1.895   5.131
 1886SOL     OW 6556   1.060   6.409   3.225
 1886SOL    HW1 6557   1.096   6.462   3.149
 1886SOL    HW2 6558   1.131   6.349   3.261
 1887SOL     OW 6559   1.767   5.918   6.565
 1887SOL    HW1 6560   1.766   5.990   6.495
 1887SOL    HW2 6561   1.741   5.831   6.523
 1888SOL     OW 6562   2.266   0.887   1.519
 1888SOL    HW1 6563   2.322   0.858   1.597
 1888SOL    HW2 6564   2.252   0.809   1.458
 1889SOL     OW 6565   0.853   3.190   3.671
 1889SOL    HW1 6566   0.857   3.096   3.639
 1889SOL    HW2 6567   0.829   3.251   3.595
 1890SOL     OW 6568   0.515   6.027   3.509
 1890SOL    HW1 6569   0.488   6.122   3.523
 1890SOL    HW2 6570   0.451   5.983   3.447
 1891SOL     OW 6571   4.022   3.148   2.841
 1891SOL    HW1 6572   3.939   3.163   2.787
 1891SOL    HW2 6573   4.102   3.151   2.781
 1892SOL     OW 6574   0.444   0.915   2.322
 1892SOL    HW1 6575   0.530   0.907   2.273
 1892SOL    HW2 6576   0.457   0.884   2.416
 1893SOL     OW 6577   3.172   3.235   3.759
 1893SOL    HW1 6578   3.192   3.137   3.763
 1893SOL    HW2 6579   3.213   3.274   3.677
 1894SOL     OW 6580   3.217   3.968   4.308
 1894SOL    HW1 6581   3.297   4.008   4.352
 1894SOL    HW2 6582   3.208   3.872   4.336
 1895SOL     OW 6583   2.782   5.908   6.761
 1895SOL    HW1 6584   2.827   5.826   6.794
 1895SOL    HW2 6585   2.715   5.884   6.691
 1896SOL     OW 6586   5.625   2.547   1.171
 1896SOL    HW1 6587   5.540   2.564   1.120
 1896SOL    HW2 6588   5.618   2.588   1.261
 1897SOL     OW 6589   2.035   5.107   4.126
 1897SOL    HW1 6590   1.985   5.159   4.196
 1897SOL    HW2 6591   2.010   5.011   4.132
 1898SOL     OW 6592   1.675   6.085   3.213
 1898SOL    HW1 6593   1.658   6.183   3.227
 1898SOL    HW2 6594   1.685   6.067   3.115
 1899SOL     OW 6595   0.118   0.223   2.358
 1899SOL    HW1 6596   0.047   0.174   2.307
 1899SOL    HW2 6597   0.139   0.173   2.442
 1900SOL     OW 6598   2.648   6.740   0.305
 1900SOL    HW1 6599   2.585   6.766   0.378
 1900SOL    HW2 6600   2.630   6.645   0.278
 1901SOL     OW 6601   2.848   3.668   1.132
 1901SOL    HW1 6602   2.871   3.650   1.228
 1901SOL    HW2 6603   2.933   3.680   1.079
 1902SOL     OW 6604   1.296   6.574   4.166
 1902SOL    HW1 6605   1.394   6.595   4.174
 1902SOL    HW2 6606   1.277   6.540   4.074
 1903SOL     OW 6607   1.206   2.780   4.722
 1903SOL    HW1 6608   1.301   2.766   4.751
 1903SOL    HW2 6609   1.165   2.854   4.775
 1904SOL     OW 6610   5.272   5.334   2.609
 1904SOL    HW1 6611   5.344   5.402   2.620
 1904SOL    HW2 6612   5.298   5.268   2.539
 1905SOL     OW 6613   6.795   0.487   3.752
 1905SOL    HW1 6614   6.826   0.571   3.707
 1905SOL    HW2 6615   6.702   0.500   3.786
 1906SOL     OW 6616   2.173   0.055   5.128
 1906SOL    HW1 6617   2.228   0.135   5.153
 1906SOL    HW2 6618   2.233   6.999   5.117
 1907SOL     OW 6619   5.654   2.345   0.331
 1907SOL    HW1 6620   5.579   2.406   0.353
 1907SOL    HW2 6621   5.741   2.391   0.348
 1908SOL     OW 6622   3.259   1.052   1.127
 1908SOL    HW1 6623   3.275   1.150   1.123
 1908SOL    HW2 6624   3.162   1.035   1.147
 1909SOL     OW 6625   6.878   4.520   5.065
 1909SOL    HW1 6626   6.960   4.473   5.095
 1909SOL    HW2 6627   6.888   4.618   5.080
 1910SOL     OW 6628   6.705   6.505   5.806
 1910SOL    HW1 6629   6.725   6.411   5.777
 1910SOL    HW2 6630   6.774   6.535   5.871
 1911SOL     OW 6631   0.010   4.896   3.935
 1911SOL    HW1 6632   0.058   4.863   4.016
 1911SOL    HW2 6633   6.996   4.987   3.953
 1912SOL     OW 6634   2.691   5.747   2.312
 1912SOL    HW1 6635   2.608   5.736   2.366
 1912SOL    HW2 6636   2.699   5.672   2.247
 1913SOL     OW 6637   2.822   4.513   5.717
 1913SOL    HW1 6638   2.907   4.461   5.712
 1913SOL    HW2 6639   2.842   4.610   5.699
 1914SOL     OW 6640   2.524   4.315   6.514
 1914SOL    HW1 6641   2.516   4.232   6.460
 1914SOL    HW2 6642   2.434   4.355   6.529
 1915SOL     OW 6643   4.185   2.104   6.049
 1915SOL    HW1 6644   4.130   2.181   6.081
 1915SOL    HW2 6645   4.251   2.136   5.981
 1916SOL     OW 6646   4.156   0.771   2.177
 1916SOL    HW1 6647   4.074   0.806   2.132
 1916SOL    HW2 6648   4.135   0.684   2.222
 1917SOL     OW 6649   2.445   3.812   1.692
 1917SOL    HW1 6650   2.418   3.908   1.703
 1917SOL    HW2 6651   2.364   3.756   1.676
 1918SOL     OW 6652   5.535   2.666   3.903
 1918SOL    HW1 6653   5.592   2.726   3.959
 1918SOL    HW2 6654   5.478   2.608   3.962
 1919SOL     OW 6655   0.632   2.025   1.305
 1919SOL    HW1 6656   0.678   1.991   1.223
 1919SOL    HW2 6657   0.651   1.963   1.382
 1920SOL     OW 6658   5.204   2.551   0.742
 1920SOL    HW1 6659   5.230   2.469   0.691
 1920SOL    HW2 6660   5.201   2.530   0.840
 1921SOL     OW 6661   1.853   2.759   0.231
 1921SOL    HW1 6662   1.810   2.793   0.147
 1921SOL    HW2 6663   1.951   2.747   0.217
 1922SOL     OW 6664   3.040   3.206   2.434
 1922SOL    HW1 6665   3.027   3.151   2.351
 1922SOL    HW2 6666   3.000   3.297   2.420
 1923SOL     OW 6667   4.064   0.304   5.299
 1923SOL    HW1 6668   4.035   0.369   5.370
 1923SOL    HW2 6669   4.014   0.323   5.214
 1924SOL     OW 6670   3.978   0.165   0.280
 1924SOL    HW1 6671   3.980   0.132   0.374
 1924SOL    HW2 6672   4.071   0.171   0.244
 1925SOL     OW 6673   1.451   4.407   0.739
 1925SOL    HW1 6674   1.393   4.485   0.763
 1925SOL    HW2 6675   1.542   4.419   0.780
 1926SOL     OW 6676   3.819   0.183   1.911
 1926SOL    HW1 6677   3.786   0.134   1.830
 1926SOL    HW2 6678   3.807   0.125   1.992
 1927SOL     OW 6679   2.286   5.189   1.816
 1927SOL    HW1 6680   2.337   5.121   1.763
 1927SOL    HW2 6681   2.201   5.212   1.769
 1928SOL     OW 6682   5.440   4.471   3.103
 1928SOL    HW1 6683   5.439   4.510   3.195
 1928SOL    HW2 6684   5.384   4.528   3.042
 1929SOL     OW 6685   3.373   6.819   3.090
 1929SOL    HW1 6686   3.446   6.797   3.155
 1929SOL    HW2 6687   3.411   6.870   3.013
 1930SOL     OW 6688   4.646   3.074   6.627
 1930SOL    HW1 6689   4.727   3.090   6.683
 1930SOL    HW2 6690   4.664   3.104   6.533
 1931SOL     OW 6691   0.149   1.842   4.440
 1931SOL    HW1 6692   0.157   1.904   4.362
 1931SOL    HW2 6693   0.216   1.768   4.432
 1932SOL     OW 6694   4.278   2.713   1.608
 1932SOL    HW1 6695   4.359   2.735   1.552
 1932SOL    HW2 6696   4.304   2.646   1.678
 1933SOL     OW 6697   1.274   1.542   1.220
 1933SOL    HW1 6698   1.332   1.489   1.157
 1933SOL    HW2 6699   1.297   1.639   1.213
 1934SOL     OW 6700   0.153   0.235   6.818
 1934SOL    HW1 6701   0.079   0.168   6.821
 1934SOL    HW2 6702   0.231   0.202   6.872
 1935SOL     OW 6703   6.603   5.238   4.074
 1935SOL    HW1 6704   6.554   5.272   3.993
 1935SOL    HW2 6705   6.632   5.316   4.129
 1936SOL     OW 6706   4.681   2.703   5.597
 1936SOL    HW1 6707   4.623   2.639   5.649
 1936SOL    HW2 6708   4.696   2.785   5.651
 1937SOL     OW 6709   5.679   5.109   6.715
 1937SOL    HW1 6710   5.605   5.107   6.647
 1937SOL    HW2 6711   5.692   5.018   6.753
 1938SOL     OW 6712   7.014   3.252   6.463
 1938SOL    HW1 6713   0.052   3.324   6.429
 1938SOL    HW2 6714   6.922   3.288   6.475
 1939SOL     OW 6715   0.815   0.271   4.713
 1939SOL    HW1 6716   0.904   0.294   4.673
 1939SOL    HW2 6717   0.791   0.177   4.690
 1940SOL     OW 6718   6.860   5.000   0.731
 1940SOL    HW1 6719   6.892   4.909   0.706
 1940SOL    HW2 6720   6.819   4.998   0.822
 1941SOL     OW 6721   5.926   2.171   4.229
 1941SOL    HW1 6722   5.918   2.096   4.163
 1941SOL    HW2 6723   5.971   2.249   4.186
 1942SOL     OW 6724   6.293   3.542   2.674
 1942SOL    HW1 6725   6.383   3.545   2.632
 1942SOL    HW2 6726   6.226   3.584   2.613
 1943SOL     OW 6727   0.807   1.837   3.002
 1943SOL    HW1 6728   0.868   1.861   3.078
 1943SOL    HW2 6729   0.718   1.880   3.016
 1944SOL     OW 6730   6.854   2.857   3.314
 1944SOL    HW1 6731   6.901   2.781   3.267
 1944SOL    HW2 6732   6.815   2.824   3.400
 1945SOL     OW 6733   4.883   1.446   1.752
 1945SOL    HW1 6734   4.787   1.445   1.725
 1945SOL    HW2 6735   4.928   1.362   1.723
 1946SOL     OW 6736   6.132   5.284   1.201
 1946SOL    HW1 6737   6.122   5.243   1.110
 1946SOL    HW2 6738   6.210   5.346   1.201
 1947SOL     OW 6739   5.924   4.893   3.587
 1947SOL    HW1 6740   5.907   4.959   3.659
 1947SOL    HW2 6741   6.008   4.841   3.608
 1948SOL     OW 6742   4.937   3.619   3.147
 1948SOL    HW1 6743   4.879   3.695   3.119
 1948SOL    HW2 6744   5.011   3.653   3.204
 1949SOL     OW 6745   3.768   4.721   0.095
 1949SOL    HW1 6746   3.696   4.729   0.164
 1949SOL    HW2 6747   3.786   4.811   0.054
 1950SOL     OW 6748   3.215   3.848   3.490
 1950SOL    HW1 6749   3.123   3.817   3.465
 1950SOL    HW2 6750   3.214   3.947   3.502
 1951SOL     OW 6751   6.057   5.051   5.402
 1951SOL    HW1 6752   6.081   5.069   5.498
 1951SOL    HW2 6753   6.022   4.958   5.393
 1952SOL     OW 6754   5.910   4.998   0.416
 1952SOL    HW1 6755   5.880   4.902   0.408
 1952SOL    HW2 6756   5.838   5.058   0.382
 1953SOL     OW 6757   0.927   1.221   6.799
 1953SOL    HW1 6758   0.850   1.161   6.777
 1953SOL    HW2 6759   0.952   1.209   6.894
 1954SOL     OW 6760   4.615   6.764   2.033
 1954SOL    HW1 6761   4.628   6.821   2.115
 1954SOL    HW2 6762   4.633   6.819   1.951
 1955SOL     OW 6763   0.086   2.140   3.319
 1955SOL    HW1 6764   0.092   2.133   3.419
 1955SOL    HW2 6765   7.014   2.156   3.293
 1956SOL     OW 6766   5.745   0.421   1.962
 1956SOL    HW1 6767   5.742   0.481   1.883
 1956SOL    HW2 6768   5.674   0.351   1.954
 1957SOL     OW 6769   5.488   1.991   4.734
 1957SOL    HW1 6770   5.469   2.000   4.832
 1957SOL    HW2 6771   5.530   1.901   4.716
 1958SOL     OW 6772   4.543   2.085   0.643
 1958SOL    HW1 6773   4.461   2.029   0.650
 1958SOL    HW2 6774   4.546   2.129   0.553
 1959SOL     OW 6775   0.373   0.647   4.848
 1959SOL    HW1 6776   0.453   0.656   4.907
 1959SOL    HW2 6777   0.290   0.668   4.900
 1960SOL     OW 6778   6.076   3.962   4.245
 1960SOL    HW1 6779   6.131   4.044   4.264
 1960SOL    HW2 6780   6.137   3.886   4.220
 1961SOL     OW 6781   0.014   3.849   4.418
 1961SOL    HW1 6782   6.987   3.926   4.458
 1961SOL    HW2 6783   0.106   3.878   4.392
 1962SOL     OW 6784   1.158   0.437   2.473
 1962SOL    HW1 6785   1.137   0.451   2.569
 1962SOL    HW2 6786   1.075   0.410   2.424
 1963SOL     OW 6787   0.506   2.881   0.994
 1963SOL    HW1 6788   0.440   2.955   0.983
 1963SOL    HW2 6789   0.554   2.892   1.081
 1964SOL     OW 6790   6.031   3.674   1.387
 1964SOL    HW1 6791   6.101   3.603   1.380
 1964SOL    HW2 6792   6.012   3.711   1.296
 1965SOL     OW 6793   6.627   4.357   3.837
 1965SOL    HW1 6794   6.641   4.259   3.845
 1965SOL    HW2 6795   6.568   4.377   3.759
 1966SOL     OW 6796   1.516   4.875   0.068
 1966SOL    HW1 6797   1.509   4.907   0.163
 1966SOL    HW2 6798   1.597   4.817   0.059
 1967SOL     OW 6799   6.186   3.538   3.937
 1967SOL    HW1 6800   6.138   3.521   4.023
 1967SOL    HW2 6801   6.126   3.515   3.860
 1968SOL     OW 6802   2.905   1.142   5.192
 1968SOL    HW1 6803   2.932   1.235   5.168
 1968SOL    HW2 6804   2.807   1.131   5.179
 1969SOL     OW 6805   2.675   6.586   0.011
 1969SOL    HW1 6806   2.767   6.589   6.996
 1969SOL    HW2 6807   2.678   6.552   0.105
 1970SOL     OW 6808   5.657   5.585   4.815
 1970SOL    HW1 6809   5.739   5.568   4.761
 1970SOL    HW2 6810   5.660   5.677   4.854
 1971SOL     OW 6811   1.770   5.612   5.252
 1971SOL    HW1 6812   1.754   5.643   5.158
 1971SOL    HW2 6813   1.685   5.576   5.290
 1972SOL     OW 6814   6.229   3.052   2.943
 1972SOL    HW1 6815   6.164   3.027   2.871
 1972SOL    HW2 6816   6.309   2.992   2.939
 1973SOL     OW 6817   2.515   2.818   0.412
 1973SOL    HW1 6818   2.583   2.855   0.349
 1973SOL    HW2 6819   2.559   2.794   0.499
 1974SOL     OW 6820   2.590   6.040   4.881
 1974SOL    HW1 6821   2.522   6.112   4.869
 1974SOL    HW2 6822   2.577   5.997   4.971
 1975SOL     OW 6823   2.021   2.769   3.441
 1975SOL    HW1 6824   1.953   2.770   3.514
 1975SOL    HW2 6825   2.014   2.683   3.391
 1976SOL     OW 6826   0.038   0.032   6.283
 1976SOL    HW1 6827   0.126   0.011   6.239
 1976SOL    HW2 6828   0.012   0.125   6.260
 1977SOL     OW 6829   1.946   4.622   5.542
 1977SOL    HW1 6830   1.990   4.710   5.559
 1977SOL    HW2 6831   1.956   4.598   5.446
 1978SOL     OW 6832   2.624   6.963   1.533
 1978SOL    HW1 6833   2.713   6.918   1.535
 1978SOL    HW2 6834   2.637   0.038   1.519
 1979SOL     OW 6835   6.697   4.748   6.185
 1979SOL    HW1 6836   6.765   4.681   6.213
 1979SOL    HW2 6837   6.739   4.838   6.178
 1980SOL     OW 6838   3.594   1.661   0.839
 1980SOL    HW1 6839   3.573   1.754   0.811
 1980SOL    HW2 6840   3.682   1.659   0.887
 1981SOL     OW 6841   3.334   2.123   2.885
 1981SOL    HW1 6842   3.364   2.193   2.951
 1981SOL    HW2 6843   3.406   2.109   2.817
 1982SOL     OW 6844   0.885   2.409   5.391
 1982SOL    HW1 6845   0.882   2.476   5.317
 1982SOL    HW2 6846   0.973   2.363   5.391
 1983SOL     OW 6847   0.040   0.593   2.399
 1983SOL    HW1 6848   0.101   0.667   2.370
 1983SOL    HW2 6849   7.010   0.561   2.320
 1984SOL     OW 6850   4.406   2.746   5.854
 1984SOL    HW1 6851   4.356   2.747   5.768
 1984SOL    HW2 6852   4.343   2.730   5.930
 1985SOL     OW 6853   6.338   3.381   2.378
 1985SOL    HW1 6854   6.247   3.400   2.342
 1985SOL    HW2 6855   6.391   3.465   2.383
 1986SOL     OW 6856   3.745   2.722   1.674
 1986SOL    HW1 6857   3.673   2.658   1.703
 1986SOL    HW2 6858   3.834   2.680   1.689
 1987SOL     OW 6859   2.636   1.282   1.099
 1987SOL    HW1 6860   2.730   1.313   1.116
 1987SOL    HW2 6861   2.621   1.271   1.001
 1988SOL     OW 6862   0.113   2.416   1.794
 1988SOL    HW1 6863   0.178   2.467   1.736
 1988SOL    HW2 6864   0.164   2.367   1.865
 1989SOL     OW 6865   2.968   4.826   4.548
 1989SOL    HW1 6866   3.006   4.820   4.640
 1989SOL    HW2 6867   2.881   4.778   4.544
 1990SOL     OW 6868   3.745   0.300   0.229
 1990SOL    HW1 6869   3.711   0.291   0.136
 1990SOL    HW2 6870   3.839   0.266   0.234
 1991SOL     OW 6871   2.680   4.935   0.733
 1991SOL    HW1 6872   2.753   4.900   0.791
 1991SOL    HW2 6873   2.689   5.033   0.721
 1992SOL     OW 6874   0.462   6.889   1.299
 1992SOL    HW1 6875   0.521   6.870   1.377
 1992SOL    HW2 6876   0.367   6.868   1.324
 1993SOL     OW 6877   2.593   2.433   3.436
 1993SOL    HW1 6878   2.499   2.458   3.462
 1993SOL    HW2 6879   2.657   2.499   3.475
 1994SOL     OW 6880   3.013   2.736   0.709
 1994SOL    HW1 6881   2.976   2.656   0.662
 1994SOL    HW2 6882   3.027   2.810   0.643
 1995SOL     OW 6883   5.633   2.034   4.077
 1995SOL    HW1 6884   5.542   1.991   4.078
 1995SOL    HW2 6885   5.643   2.092   4.157
 1996SOL     OW 6886   4.199   1.235   1.005
 1996SOL    HW1 6887   4.139   1.271   0.933
 1996SOL    HW2 6888   4.285   1.205   0.966
 1997SOL     OW 6889   3.960   0.310   4.106
 1997SOL    HW1 6890   3.932   0.390   4.053
 1997SOL    HW2 6891   3.892   0.238   4.097
 1998SOL     OW 6892   1.721   3.854   1.662
 1998SOL    HW1 6893   1.770   3.906   1.593
 1998SOL    HW2 6894   1.683   3.916   1.731
 1999SOL     OW 6895   1.694   0.155   0.540
 1999SOL    HW1 6896   1.628   0.108   0.599
 1999SOL    HW2 6897   1.722   0.241   0.583
 2000SOL     OW 6898   3.670   4.199   5.847
 2000SOL    HW1 6899   3.677   4.296   5.870
 2000SOL    HW2 6900   3.718   4.145   5.915
 2001SOL     OW 6901   2.146   2.119   0.664
 2001SOL    HW1 6902   2.100   2.110   0.752
 2001SOL    HW2 6903   2.172   2.029   0.629
 2002SOL     OW 6904   0.160   5.229   0.501
 2002SOL    HW1 6905   0.138   5.246   0.597
 2002SOL    HW2 6906   0.203   5.139   0.492
 2003SOL     OW 6907   6.416   4.665   2.977
 2003SOL    HW1 6908   6.322   4.631   2.980
 2003SOL    HW2 6909   6.477   4.589   2.954
 2004SOL     OW 6910   3.629   6.821   3.196
 2004SOL    HW1 6911   3.606   6.907   3.241
 2004SOL    HW2 6912   3.682   6.840   3.112
 2005SOL     OW 6913   1.522   6.115   0.278
 2005SOL    HW1 6914   1.611   6.082   0.310
 2005SOL    HW2 6915   1.525   6.128   0.179
 2006SOL     OW 6916   5.721   5.967   2.579
 2006SOL    HW1 6917   5.793   5.902   2.605
 2006SOL    HW2 6918   5.633   5.932   2.611
 2007SOL     OW 6919   5.590   4.442   6.955
 2007SOL    HW1 6920   5.501   4.481   6.977
 2007SOL    HW2 6921   5.662   4.494   7.001
 2008SOL     OW 6922   1.715   3.323   3.794
 2008SOL    HW1 6923   1.776   3.392   3.756
 2008SOL    HW2 6924   1.673   3.271   3.720
 2009SOL     OW 6925   6.125   0.199   2.614
 2009SOL    HW1 6926   6.038   0.159   2.641
 2009SOL    HW2 6927   6.113   0.296   2.595
 2010SOL     OW 6928   0.714   1.895   1.559
 2010SOL    HW1 6929   0.788   1.962   1.568
 2010SOL    HW2 6930   0.633   1.929   1.607
 2011SOL     OW 6931   1.003   6.860   5.307
 2011SOL    HW1 6932   1.069   6.887   5.377
 2011SOL    HW2 6933   0.916   6.907   5.323
 2012SOL     OW 6934   1.509   3.131   2.050
 2012SOL    HW1 6935   1.579   3.117   1.980
 2012SOL    HW2 6936   1.496   3.229   2.066
 2013SOL     OW 6937   0.634   3.389   2.124
 2013SOL    HW1 6938   0.698   3.391   2.201
 2013SOL    HW2 6939   0.685   3.381   2.039
 2014SOL     OW 6940   3.871   0.857   4.299
 2014SOL    HW1 6941   3.878   0.770   4.347
 2014SOL    HW2 6942   3.932   0.857   4.220
 2015SOL     OW 6943   4.351   0.470   2.047
 2015SOL    HW1 6944   4.304   0.541   1.995
 2015SOL    HW2 6945   4.449   0.492   2.054
 2016SOL     OW 6946   1.876   0.284   5.003
 2016SOL    HW1 6947   1.891   0.186   4.989
 2016SOL    HW2 6948   1.945   0.336   4.954
 2017SOL     OW 6949   3.893   6.290   3.271
 2017SOL    HW1 6950   3.857   6.260   3.359
 2017SOL    HW2 6951   3.882   6.216   3.204
 2018SOL     OW 6952   1.368   0.974   4.003
 2018SOL    HW1 6953   1.381   0.928   3.915
 2018SOL    HW2 6954   1.345   1.070   3.987
 2019SOL     OW 6955   5.846   5.262   6.533
 2019SOL    HW1 6956   5.814   5.210   6.612
 2019SOL    HW2 6957   5.800   5.229   6.450
 2020SOL     OW 6958   1.941   5.943   6.777
 2020SOL    HW1 6959   1.945   6.043   6.782
 2020SOL    HW2 6960   1.876   5.915   6.706
 2021SOL     OW 6961   6.811   5.851   4.343
 2021SOL    HW1 6962   6.867   5.768   4.334
 2021SOL    HW2 6963   6.820   5.905   4.259
 2022SOL     OW 6964   2.207   4.317   4.412
 2022SOL    HW1 6965   2.123   4.268   4.436
 2022SOL    HW2 6966   2.244   4.278   4.328
 2023SOL     OW 6967   6.680   6.709   0.373
 2023SOL    HW1 6968   6.669   6.680   0.469
 2023SOL    HW2 6969   6.706   6.630   0.318
 2024SOL     OW 6970   0.447   5.606   4.589
 2024SOL    HW1 6971   0.525   5.559   4.549
 2024SOL    HW2 6972   0.401   5.546   4.655
 2025SOL     OW 6973   1.571   6.206   4.138
 2025SOL    HW1 6974   1.536   6.213   4.044
 2025SOL    HW2 6975   1.534   6.282   4.192
 2026SOL     OW 6976   6.844   0.335   6.005
 2026SOL    HW1 6977   6.837   0.371   6.098
 2026SOL    HW2 6978   6.879   0.242   6.008
 2027SOL     OW 6979   6.641   5.969   2.022
 2027SOL    HW1 6980   6.590   5.884   2.032
 2027SOL    HW2 6981   6.607   6.036   2.088
 2028SOL     OW 6982   3.278   5.563   4.572
 2028SOL    HW1 6983   3.182   5.572   4.596
 2028SOL    HW2 6984   3.322   5.495   4.631
 2029SOL     OW 6985   6.777   2.887   6.479
 2029SOL    HW1 6986   6.702   2.918   6.420
 2029SOL    HW2 6987   6.802   2.959   6.543
 2030SOL     OW 6988   2.023   0.010   1.993
 2030SOL    HW1 6989   2.117   7.008   1.970
 2030SOL    HW2 6990   1.967   0.009   1.910
 2031SOL     OW 6991   0.152   5.962   4.461
 2031SOL    HW1 6992   0.180   5.868   4.442
 2031SOL    HW2 6993   0.111   5.967   4.552
 2032SOL     OW 6994   2.548   2.141   5.957
 2032SOL    HW1 6995   2.470   2.165   5.899
 2032SOL    HW2 6996   2.514   2.104   6.044
 2033SOL     OW 6997   2.748   2.081   1.007
 2033SOL    HW1 6998   2.813   2.038   0.945
 2033SOL    HW2 6999   2.733   2.176   0.980
 2034SOL     OW 7000   0.265   3.540   4.833
 2034SOL    HW1 7001   0.317   3.580   4.908
 2034SOL    HW2 7002   0.328   3.493   4.770
 2035SOL     OW 7003   5.495   0.123   2.984
 2035SOL    HW1 7004   5.576   0.167   2.944
 2035SOL    HW2 7005   5.460   0.054   2.921
 2036SOL     OW 7006   0.450   4.370   0.019
 2036SOL    HW1 7007   0.509   4.294   7.015
 2036SOL    HW2 7008   0.490   4.416   0.099
 2037SOL     OW 7009   0.748   2.291   6.665
 2037SOL    HW1 7010   0.650   2.291   6.683
 2037SOL    HW2 7011   0.764   2.275   6.568
 2038SOL     OW 7012   1.110   0.866   6.420
 2038SOL    HW1 7013   1.157   0.926   6.486
 2038SOL    HW2 7014   1.123   0.771   6.446
 2039SOL     OW 7015   5.382   6.109   3.123
 2039SOL    HW1 7016   5.370   6.139   3.028
 2039SOL    HW2 7017   5.300   6.132   3.176
 2040SOL     OW 7018   1.762   2.422   0.697
 2040SOL    HW1 7019   1.683   2.463   0.650
 2040SOL    HW2 7020   1.731   2.374   0.779
 2041SOL     OW 7021   2.433   0.925   6.606
 2041SOL    HW1 7022   2.337   0.939   6.626
 2041SOL    HW2 7023   2.488   0.995   6.652
 2042SOL     OW 7024   6.127   1.414   5.769
 2042SOL    HW1 7025   6.177   1.407   5.855
 2042SOL    HW2 7026   6.046   1.355   5.773
 2043SOL     OW 7027   0.522   3.959   1.147
 2043SOL    HW1 7028   0.450   3.933   1.083
 2043SOL    HW2 7029   0.481   3.995   1.231
 2044SOL     OW 7030   4.172   0.739   1.334
 2044SOL    HW1 7031   4.134   0.811   1.392
 2044SOL    HW2 7032   4.116   0.730   1.251
 2045SOL     OW 7033   1.400   6.682   4.776
 2045SOL    HW1 7034   1.374   6.680   4.872
 2045SOL    HW2 7035   1.351   6.756   4.729
 2046SOL     OW 7036   0.574   2.011   4.826
 2046SOL    HW1 7037   0.555   2.107   4.804
 2046SOL    HW2 7038   0.660   2.005   4.877
 2047SOL     OW 7039   0.321   0.978   0.926
 2047SOL    HW1 7040   0.399   0.937   0.974
 2047SOL    HW2 7041   0.305   0.928   0.841
 2048SOL     OW 7042   1.035   2.076   4.155
 2048SOL    HW1 7043   1.048   2.047   4.250
 2048SOL    HW2 7044   1.078   2.166   4.142
 2049SOL     OW 7045   4.610   2.159   4.791
 2049SOL    HW1 7046   4.513   2.169   4.811
 2049SOL    HW2 7047   4.663   2.177   4.874
 2050SOL     OW 7048   0.636   0.938   4.138
 2050SOL    HW1 7049   0.613   0.862   4.078
 2050SOL    HW2 7050   0.716   0.986   4.103
 2051SOL     OW 7051   2.940   6.592   6.891
 2051SOL    HW1 7052   2.937   6.516   6.826
 2051SOL    HW2 7053   3.018   6.580   6.952
 2052SOL     OW 7054   1.363   4.106   6.345
 2052SOL    HW1 7055   1.272   4.127   6.380
 2052SOL    HW2 7056   1.432   4.148   6.404
 2053SOL     OW 7057   0.140   5.805   3.248
 2053SOL    HW1 7058   0.050   5.823   3.208
 2053SOL    HW2 7059   0.154   5.706   3.257
 2054SOL     OW 7060   3.112   3.888   3.155
 2054SOL    HW1 7061   3.207   3.855   3.160
 2054SOL    HW2 7062   3.087   3.904   3.060
 2055SOL     OW 7063   3.585   2.191   5.629
 2055SOL    HW1 7064   3.509   2.177   5.566
 2055SOL    HW2 7065   3.584   2.285   5.662
 2056SOL     OW 7066   3.482   4.808   1.157
 2056SOL    HW1 7067   3.418   4.771   1.091
 2056SOL    HW2 7068   3.434   4.868   1.221
 2057SOL     OW 7069   5.181   3.013   4.709
 2057SOL    HW1 7070   5.147   3.032   4.801
 2057SOL    HW2 7071   5.269   3.059   4.696
 2058SOL     OW 7072   6.879   0.043   3.208
 2058SOL    HW1 7073   6.785   0.047   3.241
 2058SOL    HW2 7074   6.937   0.001   3.277
 2059SOL     OW 7075   1.372   0.897   5.197
 2059SOL    HW1 7076   1.365   0.946   5.284
 2059SOL    HW2 7077   1.464   0.859   5.186
 2060SOL     OW 7078   1.761   2.704   6.832
 2060SOL    HW1 7079   1.689   2.772   6.846
 2060SOL    HW2 7080   1.845   2.735   6.876
 2061SOL     OW 7081   1.836   2.465   2.668
 2061SOL    HW1 7082   1.875   2.378   2.698
 2061SOL    HW2 7083   1.909   2.531   2.651
 2062SOL     OW 7084   0.288   5.163   5.277
 2062SOL    HW1 7085   0.296   5.202   5.369
 2062SOL    HW2 7086   0.269   5.065   5.285
 2063SOL     OW 7087   1.147   1.477   4.605
 2063SOL    HW1 7088   1.189   1.396   4.646
 2063SOL    HW2 7089   1.206   1.556   4.620
 2064SOL     OW 7090   0.808   3.453   3.829
 2064SOL    HW1 7091   0.864   3.489   3.904
 2064SOL    HW2 7092   0.867   3.424   3.754
 2065SOL     OW 7093   4.065   3.758   5.524
 2065SOL    HW1 7094   4.064   3.752   5.624
 2065SOL    HW2 7095   4.106   3.676   5.486
 2066SOL     OW 7096   0.964   3.271   5.952
 2066SOL    HW1 7097   0.934   3.346   5.894
 2066SOL    HW2 7098   1.033   3.305   6.017
 2067SOL     OW 7099   6.492   5.478   1.530
 2067SOL    HW1 7100   6.460   5.414   1.600
 2067SOL    HW2 7101   6.449   5.568   1.546
 2068SOL     OW 7102   4.526   0.711   4.901
 2068SOL    HW1 7103   4.563   0.758   4.820
 2068SOL    HW2 7104   4.493   0.621   4.874
 2069SOL     OW 7105   0.166   1.209   3.438
 2069SOL    HW1 7106   0.254   1.233   3.397
 2069SOL    HW2 7107   0.093   1.231   3.375
 2070SOL     OW 7108   1.000   4.713   1.158
 2070SOL    HW1 7109   0.969   4.803   1.187
 2070SOL    HW2 7110   0.962   4.643   1.218
 2071SOL     OW 7111   0.334   1.791   5.322
 2071SOL    HW1 7112   0.343   1.694   5.345
 2071SOL    HW2 7113   0.289   1.800   5.233
 2072SOL     OW 7114   5.146   4.150   5.682
 2072SOL    HW1 7115   5.163   4.247   5.701
 2072SOL    HW2 7116   5.159   4.097   5.766
 2073SOL     OW 7117   3.060   5.401   6.787
 2073SOL    HW1 7118   3.158   5.405   6.773
 2073SOL    HW2 7119   3.026   5.310   6.764
 2074SOL     OW 7120   1.521   4.582   5.841
 2074SOL    HW1 7121   1.484   4.655   5.784
 2074SOL    HW2 7122   1.619   4.572   5.822
 2075SOL     OW 7123   6.188   2.835   1.249
 2075SOL    HW1 7124   6.095   2.801   1.244
 2075SOL    HW2 7125   6.241   2.800   1.171
 2076SOL     OW 7126   6.098   6.692   4.674
 2076SOL    HW1 7127   6.017   6.722   4.725
 2076SOL    HW2 7128   6.177   6.693   4.735
 2077SOL     OW 7129   6.422   4.984   1.258
 2077SOL    HW1 7130   6.503   4.926   1.265
 2077SOL    HW2 7131   6.342   4.928   1.239
 2078SOL     OW 7132   0.593   3.308   5.614
 2078SOL    HW1 7133   0.680   3.355   5.600
 2078SOL    HW2 7134   0.518   3.370   5.592
 2079SOL     OW 7135   5.126   1.083   2.309
 2079SOL    HW1 7136   5.154   1.036   2.225
 2079SOL    HW2 7137   5.027   1.085   2.316
 2080SOL     OW 7138   2.785   3.242   6.321
 2080SOL    HW1 7139   2.736   3.329   6.317
 2080SOL    HW2 7140   2.883   3.258   6.331
 2081SOL     OW 7141   5.863   5.891   2.006
 2081SOL    HW1 7142   5.829   5.859   2.095
 2081SOL    HW2 7143   5.963   5.887   2.005
 2082SOL     OW 7144   6.560   6.205   4.313
 2082SOL    HW1 7145   6.475   6.255   4.328
 2082SOL    HW2 7146   6.637   6.267   4.320
 2083SOL     OW 7147   0.255   6.661   3.775
 2083SOL    HW1 7148   0.172   6.606   3.774
 2083SOL    HW2 7149   0.260   6.712   3.861
 2084SOL     OW 7150   6.406   2.565   0.352
 2084SOL    HW1 7151   6.368   2.482   0.392
 2084SOL    HW2 7152   6.495   2.584   0.393
 2085SOL     OW 7153   6.065   5.721   1.035
 2085SOL    HW1 7154   6.121   5.690   0.959
 2085SOL    HW2 7155   6.050   5.646   1.099
 2086SOL     OW 7156   4.731   0.996   0.097
 2086SOL    HW1 7157   4.647   1.016   0.047
 2086SOL    HW2 7158   4.788   1.078   0.100
 2087SOL     OW 7159   3.882   1.401   0.077
 2087SOL    HW1 7160   3.948   1.453   0.022
 2087SOL    HW2 7161   3.902   1.414   0.174
 2088SOL     OW 7162   1.218   5.567   5.823
 2088SOL    HW1 7163   1.129   5.607   5.839
 2088SOL    HW2 7164   1.213   5.468   5.836
 2089SOL     OW 7165   2.492   3.259   6.948
 2089SOL    HW1 7166   2.581   3.233   6.912
 2089SOL    HW2 7167   2.433   3.292   6.874
 2090SOL     OW 7168   5.453   2.858   5.884
 2090SOL    HW1 7169   5.552   2.858   5.900
 2090SOL    HW2 7170   5.417   2.767   5.903
 2091SOL     OW 7171   5.308   6.516   1.287
 2091SOL    HW1 7172   5.252   6.504   1.370
 2091SOL    HW2 7173   5.398   6.551   1.312
 2092SOL     OW 7174   3.759   3.544   1.171
 2092SOL    HW1 7175   3.741   3.486   1.250
 2092SOL    HW2 7176   3.690   3.527   1.100
 2093SOL     OW 7177   4.473   0.975   1.192
 2093SOL    HW1 7178   4.452   1.070   1.169
 2093SOL    HW2 7179   4.449   0.916   1.115
 2094SOL     OW 7180   5.511   2.004   6.419
 2094SOL    HW1 7181   5.493   2.029   6.514
 2094SOL    HW2 7182   5.434   2.031   6.362
 2095SOL     OW 7183   4.842   5.909   3.771
 2095SOL    HW1 7184   4.910   5.897   3.699
 2095SOL    HW2 7185   4.880   5.880   3.858
 2096SOL     OW 7186   4.081   6.663   1.470
 2096SOL    HW1 7187   4.044   6.722   1.398
 2096SOL    HW2 7188   4.012   6.649   1.541
 2097SOL     OW 7189   0.805   6.084   6.093
 2097SOL    HW1 7190   0.758   6.157   6.044
 2097SOL    HW2 7191   0.895   6.069   6.054
 2098SOL     OW 7192   2.773   5.865   3.413
 2098SOL    HW1 7193   2.802   5.808   3.490
 2098SOL    HW2 7194   2.824   5.840   3.331
 2099SOL     OW 7195   4.555   1.723   6.344
 2099SOL    HW1 7196   4.523   1.634   6.376
 2099SOL    HW2 7197   4.497   1.755   6.270
 2100SOL     OW 7198   5.228   6.740   1.820
 2100SOL    HW1 7199   5.252   6.670   1.887
 2100SOL    HW2 7200   5.271   6.720   1.732
 2101SOL     OW 7201   0.573   0.556   2.649
 2101SOL    HW1 7202   0.656   0.506   2.676
 2101SOL    HW2 7203   0.500   0.491   2.629
 2102SOL     OW 7204   4.015   2.420   1.045
 2102SOL    HW1 7205   4.034   2.412   1.142
 2102SOL    HW2 7206   4.100   2.408   0.993
 2103SOL     OW 7207   2.084   6.339   0.318
 2103SOL    HW1 7208   1.986   6.350   0.333
 2103SOL    HW2 7209   2.115   6.254   0.360
 2104SOL     OW 7210   1.847   4.309   3.610
 2104SOL    HW1 7211   1.797   4.225   3.592
 2104SOL    HW2 7212   1.792   4.388   3.581
 2105SOL     OW 7213   5.136   6.489   5.073
 2105SOL    HW1 7214   5.223   6.529   5.042
 2105SOL    HW2 7215   5.082   6.462   4.993
 2106SOL     OW 7216   4.524   3.043   0.934
 2106SOL    HW1 7217   4.566   3.122   0.978
 2106SOL    HW2 7218   4.573   2.960   0.961
 2107SOL     OW 7219   5.472   4.821   4.989
 2107SOL    HW1 7220   5.458   4.918   5.009
 2107SOL    HW2 7221   5.427   4.766   5.059
 2108SOL     OW 7222   4.938   0.343   4.859
 2108SOL    HW1 7223   5.024   0.292   4.860
 2108SOL    HW2 7224   4.903   0.351   4.953
 2109SOL     OW 7225   3.110   6.378   1.925
 2109SOL    HW1 7226   3.097   6.467   1.969
 2109SOL    HW2 7227   3.145   6.312   1.991
 2110SOL     OW 7228   3.362   6.323   6.830
 2110SOL    HW1 7229   3.376   6.262   6.752
 2110SOL    HW2 7230   3.271   6.308   6.869
 2111SOL     OW 7231   1.543   2.327   5.963
 2111SOL    HW1 7232   1.570   2.418   5.931
 2111SOL    HW2 7233   1.445   2.326   5.979
 2112SOL     OW 7234   1.215   0.580   0.319
 2112SOL    HW1 7235   1.312   0.605   0.325
 2112SOL    HW2 7236   1.189   0.572   0.223
 2113SOL     OW 7237   6.690   1.128   4.359
 2113SOL    HW1 7238   6.654   1.185   4.285
 2113SOL    HW2 7239   6.746   1.055   4.321
 2114SOL     OW 7240   1.702   1.596   6.141
 2114SOL    HW1 7241   1.783   1.620   6.195
 2114SOL    HW2 7242   1.715   1.627   6.047
 2115SOL     OW 7243   6.120   6.121   3.253
 2115SOL    HW1 7244   6.131   6.206   3.201
 2115SOL    HW2 7245   6.109   6.045   3.189
 2116SOL     OW 7246   1.685   2.112   6.730
 2116SOL    HW1 7247   1.705   2.210   6.736
 2116SOL    HW2 7248   1.614   2.089   6.796
 2117SOL     OW 7249   6.281   1.802   2.551
 2117SOL    HW1 7250   6.310   1.731   2.615
 2117SOL    HW2 7251   6.317   1.782   2.460
 2118SOL     OW 7252   6.761   2.421   3.183
 2118SOL    HW1 7253   6.703   2.449   3.259
 2118SOL    HW2 7254   6.845   2.475   3.182
 2119SOL     OW 7255   1.087   1.656   0.630
 2119SOL    HW1 7256   1.103   1.570   0.581
 2119SOL    HW2 7257   1.101   1.641   0.728
 2120SOL     OW 7258   5.823   1.294   0.692
 2120SOL    HW1 7259   5.739   1.340   0.721
 2120SOL    HW2 7260   5.902   1.348   0.721
 2121SOL     OW 7261   1.974   0.356   0.044
 2121SOL    HW1 7262   2.009   0.268   0.013
 2121SOL    HW2 7263   1.899   0.341   0.109
 2122SOL     OW 7264   6.479   0.673   4.447
 2122SOL    HW1 7265   6.396   0.677   4.502
 2122SOL    HW2 7266   6.457   0.699   4.352
 2123SOL     OW 7267   1.486   5.121   2.761
 2123SOL    HW1 7268   1.555   5.143   2.692
 2123SOL    HW2 7269   1.493   5.186   2.837
 2124SOL     OW 7270   4.278   3.718   6.535
 2124SOL    HW1 7271   4.222   3.637   6.520
 2124SOL    HW2 7272   4.288   3.734   6.633
 2125SOL     OW 7273   1.895   5.826   4.229
 2125SOL    HW1 7274   1.995   5.824   4.233
 2125SOL    HW2 7275   1.860   5.878   4.307
 2126SOL     OW 7276   2.546   4.072   6.941
 2126SOL    HW1 7277   2.447   4.082   6.931
 2126SOL    HW2 7278   2.568   4.040   0.010
 2127SOL     OW 7279   0.797   2.356   4.427
 2127SOL    HW1 7280   0.778   2.450   4.399
 2127SOL    HW2 7281   0.820   2.301   4.347
 2128SOL     OW 7282   5.481   3.214   2.088
 2128SOL    HW1 7283   5.475   3.157   2.006
 2128SOL    HW2 7284   5.486   3.310   2.062
 2129SOL     OW 7285   5.322   4.330   4.586
 2129SOL    HW1 7286   5.348   4.411   4.534
 2129SOL    HW2 7287   5.403   4.289   4.627
 2130SOL     OW 7288   2.984   0.953   1.122
 2130SOL    HW1 7289   2.924   0.995   1.190
 2130SOL    HW2 7290   2.930   0.906   1.053
 2131SOL     OW 7291   5.340   0.517   5.561
 2131SOL    HW1 7292   5.415   0.515   5.495
 2131SOL    HW2 7293   5.267   0.576   5.527
 2132SOL     OW 7294   2.419   2.176   0.246
 2132SOL    HW1 7295   2.483   2.124   0.302
 2132SOL    HW2 7296   2.470   2.228   0.177
 2133SOL     OW 7297   3.041   2.392   1.705
 2133SOL    HW1 7298   2.988   2.344   1.635
 2133SOL    HW2 7299   2.992   2.389   1.792
 2134SOL     OW 7300   2.081   6.401   5.202
 2134SOL    HW1 7301   2.123   6.403   5.292
 2134SOL    HW2 7302   2.021   6.480   5.191
 2135SOL     OW 7303   0.888   6.251   4.116
 2135SOL    HW1 7304   0.889   6.337   4.065
 2135SOL    HW2 7305   0.880   6.270   4.214
 2136SOL     OW 7306   1.360   4.326   3.705
 2136SOL    HW1 7307   1.355   4.264   3.627
 2136SOL    HW2 7308   1.274   4.376   3.714
 2137SOL     OW 7309   1.326   1.286   4.721
 2137SOL    HW1 7310   1.314   1.266   4.818
 2137SOL    HW2 7311   1.422   1.306   4.703
 2138SOL     OW 7312   1.290   2.607   6.030
 2138SOL    HW1 7313   1.257   2.590   6.123
 2138SOL    HW2 7314   1.390   2.609   6.029
 2139SOL     OW 7315   2.485   0.636   4.596
 2139SOL    HW1 7316   2.545   0.713   4.573
 2139SOL    HW2 7317   2.525   0.585   4.672
 2140SOL     OW 7318   1.745   5.923   3.470
 2140SOL    HW1 7319   1.785   5.999   3.521
 2140SOL    HW2 7320   1.752   5.941   3.372
 2141SOL     OW 7321   6.881   1.476   0.310
 2141SOL    HW1 7322   6.914   1.475   0.215
 2141SOL    HW2 7323   6.901   1.388   0.353
 2142SOL     OW 7324   2.623   1.363   3.633
 2142SOL    HW1 7325   2.630   1.266   3.657
 2142SOL    HW2 7326   2.707   1.392   3.585
 2143SOL     OW 7327   3.907   6.125   6.331
 2143SOL    HW1 7328   3.914   6.126   6.431
 2143SOL    HW2 7329   3.951   6.206   6.293
 2144SOL     OW 7330   0.162   0.809   2.266
 2144SOL    HW1 7331   0.258   0.835   2.282
 2144SOL    HW2 7332   0.108   0.890   2.247
 2145SOL     OW 7333   3.793   5.586   3.090
 2145SOL    HW1 7334   3.845   5.501   3.090
 2145SOL    HW2 7335   3.813   5.636   3.174
 2146SOL     OW 7336   3.435   2.670   0.935
 2146SOL    HW1 7337   3.341   2.676   0.969
 2146SOL    HW2 7338   3.498   2.702   1.006
 2147SOL     OW 7339   7.007   0.968   5.155
 2147SOL    HW1 7340   0.012   0.977   5.251
 2147SOL    HW2 7341   0.049   1.018   5.097
 2148SOL     OW 7342   5.190   3.110   2.611
 2148SOL    HW1 7343   5.191   3.179   2.684
 2148SOL    HW2 7344   5.122   3.135   2.542
 2149SOL     OW 7345   3.569   0.976   2.988
 2149SOL    HW1 7346   3.625   1.050   3.025
 2149SOL    HW2 7347   3.554   0.991   2.890
 2150SOL     OW 7348   3.844   1.259   1.899
 2150SOL    HW1 7349   3.837   1.159   1.893
 2150SOL    HW2 7350   3.904   1.283   1.974
 2151SOL     OW 7351   3.569   2.726   5.823
 2151SOL    HW1 7352   3.521   2.768   5.746
 2151SOL    HW2 7353   3.644   2.785   5.852
 2152SOL     OW 7354   5.896   6.009   1.485
 2152SOL    HW1 7355   5.869   5.913   1.481
 2152SOL    HW2 7356   5.831   6.064   1.433
 2153SOL     OW 7357   4.955   2.461   2.363
 2153SOL    HW1 7358   4.975   2.511   2.279
 2153SOL    HW2 7359   5.026   2.478   2.430
 2154SOL     OW 7360   4.128   6.293   5.122
 2154SOL    HW1 7361   4.038   6.290   5.080
 2154SOL    HW2 7362   4.194   6.242   5.066
 2155SOL     OW 7363   5.725   3.827   6.620
 2155SOL    HW1 7364   5.763   3.792   6.705
 2155SOL    HW2 7365   5.799   3.847   6.556
 2156SOL     OW 7366   0.590   0.793   1.494
 2156SOL    HW1 7367   0.600   0.883   1.535
 2156SOL    HW2 7368   0.493   0.769   1.489
 2157SOL     OW 7369   0.061   1.110   4.489
 2157SOL    HW1 7370   0.013   1.027   4.461
 2157SOL    HW2 7371   0.080   1.107   4.587
 2158SOL     OW 7372   4.483   6.451   2.536
 2158SOL    HW1 7373   4.510   6.511   2.611
 2158SOL    HW2 7374   4.482   6.502   2.450
 2159SOL     OW 7375   1.896   6.596   5.209
 2159SOL    HW1 7376   1.852   6.533   5.274
 2159SOL    HW2 7377   1.827   6.651   5.163
 2160SOL     OW 7378   2.718   2.991   0.769
 2160SOL    HW1 7379   2.672   3.036   0.846
 2160SOL    HW2 7380   2.687   2.897   0.761
 2161SOL     OW 7381   4.753   2.110   4.142
 2161SOL    HW1 7382   4.783   2.044   4.074
 2161SOL    HW2 7383   4.810   2.103   4.224
 2162SOL     OW 7384   1.669   1.449   6.941
 2162SOL    HW1 7385   1.705   1.370   6.990
 2162SOL    HW2 7386   1.646   1.521   7.007
 2163SOL     OW 7387   2.973   1.861   1.095
 2163SOL    HW1 7388   3.026   1.924   1.037
 2163SOL    HW2 7389   3.033   1.824   1.166
 2164SOL     OW 7390   0.567   0.608   1.775
 2164SOL    HW1 7391   0.532   0.684   1.721
 2164SOL    HW2 7392   0.505   0.530   1.765
 2165SOL     OW 7393   2.918   0.036   1.520
 2165SOL    HW1 7394   2.887   6.964   1.518
 2165SOL    HW2 7395   2.976   0.051   1.600
 2166SOL     OW 7396   6.397   2.731   6.529
 2166SOL    HW1 7397   6.303   2.732   6.495
 2166SOL    HW2 7398   6.435   2.823   6.526
 2167SOL     OW 7399   2.490   0.799   1.942
 2167SOL    HW1 7400   2.480   0.842   1.852
 2167SOL    HW2 7401   2.418   0.731   1.955
 2168SOL     OW 7402   5.677   5.863   4.862
 2168SOL    HW1 7403   5.772   5.878   4.835
 2168SOL    HW2 7404   5.617   5.876   4.783
 2169SOL     OW 7405   6.212   1.748   5.098
 2169SOL    HW1 7406   6.261   1.697   5.169
 2169SOL    HW2 7407   6.121   1.772   5.131
 2170SOL     OW 7408   5.705   5.265   4.242
 2170SOL    HW1 7409   5.776   5.330   4.214
 2170SOL    HW2 7410   5.691   5.197   4.171
 2171SOL     OW 7411   6.805   2.768   0.790
 2171SOL    HW1 7412   6.850   2.755   0.702
 2171SOL    HW2 7413   6.710   2.795   0.775
 2172SOL     OW 7414   2.302   0.469   0.943
 2172SOL    HW1 7415   2.365   0.512   0.879
 2172SOL    HW2 7416   2.308   0.370   0.935
 2173SOL     OW 7417   5.174   1.888   4.795
 2173SOL    HW1 7418   5.212   1.827   4.726
 2173SOL    HW2 7419   5.168   1.981   4.757
 2174SOL     OW 7420   1.478   5.073   4.585
 2174SOL    HW1 7421   1.518   5.165   4.587
 2174SOL    HW2 7422   1.449   5.047   4.677
 2175SOL     OW 7423   1.926   6.397   5.498
 2175SOL    HW1 7424   1.962   6.321   5.444
 2175SOL    HW2 7425   1.988   6.418   5.573
 2176SOL     OW 7426   1.926   2.711   2.515
 2176SOL    HW1 7427   1.892   2.688   2.424
 2176SOL    HW2 7428   1.861   2.771   2.561
 2177SOL     OW 7429   6.826   1.145   2.536
 2177SOL    HW1 7430   6.910   1.101   2.505
 2177SOL    HW2 7431   6.849   1.231   2.581
 2178SOL     OW 7432   0.770   5.230   0.953
 2178SOL    HW1 7433   0.763   5.329   0.938
 2178SOL    HW2 7434   0.714   5.204   1.032
 2179SOL     OW 7435   1.411   4.264   3.972
 2179SOL    HW1 7436   1.449   4.172   3.971
 2179SOL    HW2 7437   1.389   4.293   3.879
 2180SOL     OW 7438   3.955   3.224   1.573
 2180SOL    HW1 7439   3.917   3.297   1.630
 2180SOL    HW2 7440   3.881   3.165   1.541
 2181SOL     OW 7441   4.423   6.533   0.957
 2181SOL    HW1 7442   4.329   6.535   0.993
 2181SOL    HW2 7443   4.420   6.542   0.857
 2182SOL     OW 7444   5.297   1.868   0.413
 2182SOL    HW1 7445   5.356   1.871   0.494
 2182SOL    HW2 7446   5.244   1.952   0.407
 2183SOL     OW 7447   2.820   2.301   0.544
 2183SOL    HW1 7448   2.791   2.205   0.539
 2183SOL    HW2 7449   2.800   2.347   0.458
 2184SOL     OW 7450   4.146   2.796   5.925
 2184SOL    HW1 7451   4.119   2.826   6.016
 2184SOL    HW2 7452   4.134   2.871   5.860
 2185SOL     OW 7453   0.978   0.566   1.569
 2185SOL    HW1 7454   1.018   0.477   1.591
 2185SOL    HW2 7455   1.040   0.616   1.508
 2186SOL     OW 7456   0.208   4.930   2.478
 2186SOL    HW1 7457   0.210   4.975   2.567
 2186SOL    HW2 7458   0.210   4.831   2.490
 2187SOL     OW 7459   6.840   1.510   6.530
 2187SOL    HW1 7460   6.838   1.580   6.459
 2187SOL    HW2 7461   6.899   1.435   6.502
 2188SOL     OW 7462   5.329   0.986   3.450
 2188SOL    HW1 7463   5.365   0.905   3.404
 2188SOL    HW2 7464   5.359   0.987   3.545
 2189SOL     OW 7465   3.217   6.900   6.395
 2189SOL    HW1 7466   3.181   6.933   6.482
 2189SOL    HW2 7467   3.248   6.978   6.340
 2190SOL     OW 7468   5.026   2.212   1.074
 2190SOL    HW1 7469   4.931   2.233   1.052
 2190SOL    HW2 7470   5.032   2.181   1.169
 2191SOL     OW 7471   3.314   1.761   0.229
 2191SOL    HW1 7472   3.230   1.707   0.220
 2191SOL    HW2 7473   3.386   1.704   0.268
 2192SOL     OW 7474   3.952   5.296   3.604
 2192SOL    HW1 7475   4.010   5.368   3.641
 2192SOL    HW2 7476   3.885   5.336   3.541
 2193SOL     OW 7477   6.948   5.423   5.464
 2193SOL    HW1 7478   6.996   5.347   5.508
 2193SOL    HW2 7479   6.999   5.452   5.382
 2194SOL     OW 7480   3.155   6.978   1.091
 2194SOL    HW1 7481   3.068   6.972   1.041
 2194SOL    HW2 7482   3.137   6.995   1.188
 2195SOL     OW 7483   0.957   4.864   2.524
 2195SOL    HW1 7484   0.959   4.911   2.613
 2195SOL    HW2 7485   1.047   4.825   2.506
 2196SOL     OW 7486   4.836   2.795   6.684
 2196SOL    HW1 7487   4.886   2.713   6.656
 2196SOL    HW2 7488   4.786   2.832   6.606
 2197SOL     OW 7489   4.286   4.337   0.008
 2197SOL    HW1 7490   4.275   4.399   0.085
 2197SOL    HW2 7491   4.204   4.338   6.975
 2198SOL     OW 7492   6.269   4.533   0.687
 2198SOL    HW1 7493   6.325   4.455   0.658
 2198SOL    HW2 7494   6.287   4.553   0.783
 2199SOL     OW 7495   4.268   0.216   1.986
 2199SOL    HW1 7496   4.250   0.169   2.072
 2199SOL    HW2 7497   4.298   0.310   2.005
 2200SOL     OW 7498   2.150   6.914   4.365
 2200SOL    HW1 7499   2.148   6.904   4.465
 2200SOL    HW2 7500   2.184   6.829   4.324
 2201SOL     OW 7501   4.810   4.080   3.188
 2201SOL    HW1 7502   4.750   4.103   3.265
 2201SOL    HW2 7503   4.776   4.125   3.105
 2202SOL     OW 7504   4.859   6.120   3.604
 2202SOL    HW1 7505   4.832   6.037   3.653
 2202SOL    HW2 7506   4.781   6.183   3.601
 2203SOL     OW 7507   3.792   2.154   3.011
 2203SOL    HW1 7508   3.699   2.117   3.008
 2203SOL    HW2 7509   3.827   2.163   2.918
 2204SOL     OW 7510   2.679   2.987   1.150
 2204SOL    HW1 7511   2.665   2.910   1.088
 2204SOL    HW2 7512   2.720   3.063   1.099
 2205SOL     OW 7513   1.940   0.674   1.465
 2205SOL    HW1 7514   1.987   0.591   1.435
 2205SOL    HW2 7515   1.891   0.714   1.387
 2206SOL     OW 7516   2.365   3.097   0.113
 2206SOL    HW1 7517   2.399   3.152   0.037
 2206SOL    HW2 7518   2.269   3.122   0.132
 2207SOL     OW 7519   0.783   4.617   4.484
 2207SOL    HW1 7520   0.695   4.643   4.443
 2207SOL    HW2 7521   0.817   4.693   4.540
 2208SOL     OW 7522   6.503   4.595   2.161
 2208SOL    HW1 7523   6.496   4.695   2.155
 2208SOL    HW2 7524   6.542   4.559   2.076
 2209SOL     OW 7525   1.433   6.325   1.474
 2209SOL    HW1 7526   1.525   6.287   1.481
 2209SOL    HW2 7527   1.397   6.307   1.383
 2210SOL     OW 7528   1.745   5.050   3.727
 2210SOL    HW1 7529   1.749   4.996   3.643
 2210SOL    HW2 7530   1.736   4.989   3.806
 2211SOL     OW 7531   6.898   1.607   5.346
 2211SOL    HW1 7532   6.803   1.589   5.321
 2211SOL    HW2 7533   6.912   1.588   5.443
 2212SOL     OW 7534   2.152   6.889   6.398
 2212SOL    HW1 7535   2.236   6.907   6.348
 2212SOL    HW2 7536   2.162   6.805   6.451
 2213SOL     OW 7537   3.445   1.031   3.408
 2213SOL    HW1 7538   3.491   1.035   3.496
 2213SOL    HW2 7539   3.487   1.096   3.345
 2214SOL     OW 7540   4.061   6.908   5.580
 2214SOL    HW1 7541   4.100   6.999   5.588
 2214SOL    HW2 7542   4.127   6.839   5.609
 2215SOL     OW 7543   5.770   2.849   5.400
 2215SOL    HW1 7544   5.759   2.805   5.488
 2215SOL    HW2 7545   5.725   2.795   5.329
 2216SOL     OW 7546   2.268   0.942   2.345
 2216SOL    HW1 7547   2.184   0.890   2.330
 2216SOL    HW2 7548   2.341   0.880   2.373
 2217SOL     OW 7549   4.438   0.802   1.780
 2217SOL    HW1 7550   4.380   0.735   1.826
 2217SOL    HW2 7551   4.427   0.891   1.825
 2218SOL     OW 7552   1.219   6.575   3.009
 2218SOL    HW1 7553   1.207   6.652   2.946
 2218SOL    HW2 7554   1.244   6.494   2.957
 2219SOL     OW 7555   1.467   2.311   3.055
 2219SOL    HW1 7556   1.488   2.279   2.962
 2219SOL    HW2 7557   1.385   2.369   3.052
 2220SOL     OW 7558   0.642   0.383   1.057
 2220SOL    HW1 7559   0.677   0.290   1.062
 2220SOL    HW2 7560   0.548   0.381   1.024
 2221SOL     OW 7561   0.973   1.512   6.790
 2221SOL    HW1 7562   1.056   1.518   6.847
 2221SOL    HW2 7563   0.941   1.418   6.787
 2222SOL     OW 7564   6.023   5.952   3.051
 2222SOL    HW1 7565   6.021   5.891   3.130
 2222SOL    HW2 7566   6.013   5.899   2.967
 2223SOL     OW 7567   6.282   5.868   1.490
 2223SOL    HW1 7568   6.221   5.790   1.476
 2223SOL    HW2 7569   6.254   5.943   1.431
 2224SOL     OW 7570   1.051   4.981   2.138
 2224SOL    HW1 7571   1.103   4.932   2.067
 2224SOL    HW2 7572   1.114   5.013   2.209
 2225SOL     OW 7573   0.288   4.652   1.290
 2225SOL    HW1 7574   0.236   4.621   1.370
 2225SOL    HW2 7575   0.307   4.574   1.230
 2226SOL     OW 7576   4.067   3.814   1.364
 2226SOL    HW1 7577   4.021   3.903   1.369
 2226SOL    HW2 7578   4.002   3.744   1.334
 2227SOL     OW 7579   0.375   3.177   4.549
 2227SOL    HW1 7580   0.289   3.158   4.596
 2227SOL    HW2 7581   0.412   3.093   4.509
 2228SOL     OW 7582   3.185   4.900   4.398
 2228SOL    HW1 7583   3.093   4.887   4.435
 2228SOL    HW2 7584   3.198   4.997   4.374
 2229SOL     OW 7585   5.560   0.404   3.385
 2229SOL    HW1 7586   5.535   0.311   3.359
 2229SOL    HW2 7587   5.610   0.447   3.310
 2230SOL     OW 7588   2.684   5.296   1.047
 2230SOL    HW1 7589   2.756   5.276   1.113
 2230SOL    HW2 7590   2.654   5.391   1.058
 2231SOL     OW 7591   2.537   5.560   1.167
 2231SOL    HW1 7592   2.528   5.655   1.138
 2231SOL    HW2 7593   2.529   5.555   1.267
 2232SOL     OW 7594   5.605   3.041   3.620
 2232SOL    HW1 7595   5.552   2.972   3.668
 2232SOL    HW2 7596   5.564   3.131   3.634
 2233SOL     OW 7597   2.939   2.095   6.330
 2233SOL    HW1 7598   2.993   2.013   6.315
 2233SOL    HW2 7599   2.967   2.138   6.416
 2234SOL     OW 7600   3.878   2.448   1.485
 2234SOL    HW1 7601   3.835   2.412   1.568
 2234SOL    HW2 7602   3.845   2.541   1.469
 2235SOL     OW 7603   2.399   1.414   1.123
 2235SOL    HW1 7604   2.490   1.375   1.117
 2235SOL    HW2 7605   2.350   1.399   1.038
 2236SOL     OW 7606   0.194   4.148   5.881
 2236SOL    HW1 7607   0.248   4.064   5.882
 2236SOL    HW2 7608   0.109   4.135   5.931
 2237SOL     OW 7609   6.130   3.017   4.077
 2237SOL    HW1 7610   6.135   3.050   3.983
 2237SOL    HW2 7611   6.220   3.024   4.119
 2238SOL     OW 7612   6.317   6.384   1.647
 2238SOL    HW1 7613   6.405   6.369   1.601
 2238SOL    HW2 7614   6.242   6.371   1.582
 2239SOL     OW 7615   5.131   5.521   2.751
 2239SOL    HW1 7616   5.040   5.537   2.712
 2239SOL    HW2 7617   5.174   5.443   2.705
 2240SOL     OW 7618   5.818   3.483   2.095
 2240SOL    HW1 7619   5.870   3.457   2.176
 2240SOL    HW2 7620   5.806   3.404   2.036
 2241SOL     OW 7621   0.858   6.958   2.280
 2241SOL    HW1 7622   0.805   6.891   2.332
 2241SOL    HW2 7623   0.951   6.964   2.317
 2242SOL     OW 7624   4.047   1.919   2.955
 2242SOL    HW1 7625   4.098   1.882   3.033
 2242SOL    HW2 7626   3.951   1.892   2.962
 2243SOL     OW 7627   2.793   6.496   5.543
 2243SOL    HW1 7628   2.837   6.411   5.571
 2243SOL    HW2 7629   2.706   6.506   5.591
 2244SOL     OW 7630   3.208   0.851   5.058
 2244SOL    HW1 7631   3.284   0.792   5.031
 2244SOL    HW2 7632   3.161   0.885   4.976
 2245SOL     OW 7633   0.296   2.137   2.295
 2245SOL    HW1 7634   0.254   2.100   2.378
 2245SOL    HW2 7635   0.340   2.224   2.316
 2246SOL     OW 7636   1.916   4.756   5.022
 2246SOL    HW1 7637   1.976   4.716   4.952
 2246SOL    HW2 7638   1.937   4.715   5.111
 2247SOL     OW 7639   2.249   1.657   5.155
 2247SOL    HW1 7640   2.226   1.583   5.091
 2247SOL    HW2 7641   2.298   1.729   5.106
 2248SOL     OW 7642   4.482   4.278   5.227
 2248SOL    HW1 7643   4.512   4.183   5.222
 2248SOL    HW2 7644   4.390   4.286   5.187
 2249SOL     OW 7645   4.079   5.267   4.693
 2249SOL    HW1 7646   3.986   5.232   4.701
 2249SOL    HW2 7647   4.093   5.340   4.761
 2250SOL     OW 7648   5.283   5.129   0.918
 2250SOL    HW1 7649   5.184   5.128   0.928
 2250SOL    HW2 7650   5.316   5.037   0.897
 2251SOL     OW 7651   0.227   0.553   6.085
 2251SOL    HW1 7652   0.144   0.551   6.029
 2251SOL    HW2 7653   0.206   0.523   6.178
 2252SOL     OW 7654   3.676   1.158   6.067
 2252SOL    HW1 7655   3.725   1.104   6.134
 2252SOL    HW2 7656   3.628   1.233   6.113
 2253SOL     OW 7657   1.545   2.608   6.050
 2253SOL    HW1 7658   1.591   2.613   6.138
 2253SOL    HW2 7659   1.599   2.657   5.981
 2254SOL     OW 7660   1.475   3.677   5.785
 2254SOL    HW1 7661   1.543   3.611   5.753
 2254SOL    HW2 7662   1.461   3.665   5.884
 2255SOL     OW 7663   5.393   3.321   0.694
 2255SOL    HW1 7664   5.341   3.407   0.696
 2255SOL    HW2 7665   5.443   3.315   0.608
 2256SOL     OW 7666   3.470   5.004   2.000
 2256SOL    HW1 7667   3.540   5.064   2.040
 2256SOL    HW2 7668   3.505   4.911   1.994
 2257SOL     OW 7669   2.148   3.729   4.361
 2257SOL    HW1 7670   2.165   3.801   4.428
 2257SOL    HW2 7671   2.189   3.643   4.393
 2258SOL     OW 7672   2.100   4.835   5.577
 2258SOL    HW1 7673   2.160   4.788   5.641
 2258SOL    HW2 7674   2.143   4.921   5.548
 2259SOL     OW 7675   6.489   3.313   6.553
 2259SOL    HW1 7676   6.464   3.279   6.643
 2259SOL    HW2 7677   6.406   3.338   6.503
 2260SOL     OW 7678   4.609   3.779   1.004
 2260SOL    HW1 7679   4.543   3.705   0.989
 2260SOL    HW2 7680   4.561   3.859   1.041
 2261SOL     OW 7681   3.757   6.463   4.381
 2261SOL    HW1 7682   3.676   6.475   4.439
 2261SOL    HW2 7683   3.728   6.434   4.290
 2262SOL     OW 7684   3.593   1.671   3.243
 2262SOL    HW1 7685   3.678   1.617   3.242
 2262SOL    HW2 7686   3.523   1.622   3.296
 2263SOL     OW 7687   0.215   4.146   5.473
 2263SOL    HW1 7688   0.267   4.060   5.475
 2263SOL    HW2 7689   0.145   4.141   5.402
 2264SOL     OW 7690   3.225   4.127   3.562
 2264SOL    HW1 7691   3.210   4.225   3.577
 2264SOL    HW2 7692   3.196   4.075   3.642
 2265SOL     OW 7693   0.667   0.140   2.972
 2265SOL    HW1 7694   0.573   0.129   3.003
 2265SOL    HW2 7695   0.700   0.231   2.996
 2266SOL     OW 7696   6.368   0.674   6.655
 2266SOL    HW1 7697   6.282   0.714   6.687
 2266SOL    HW2 7698   6.386   0.589   6.704
 2267SOL     OW 7699   5.779   1.863   5.656
 2267SOL    HW1 7700   5.713   1.893   5.587
 2267SOL    HW2 7701   5.869   1.903   5.637
 2268SOL     OW 7702   6.657   5.180   0.270
 2268SOL    HW1 7703   6.727   5.118   0.305
 2268SOL    HW2 7704   6.701   5.255   0.219
 2269SOL     OW 7705   0.498   5.729   3.665
 2269SOL    HW1 7706   0.578   5.713   3.608
 2269SOL    HW2 7707   0.519   5.798   3.735
 2270SOL     OW 7708   3.862   3.188   2.627
 2270SOL    HW1 7709   3.943   3.205   2.572
 2270SOL    HW2 7710   3.796   3.135   2.573
 2271SOL     OW 7711   0.565   4.101   2.570
 2271SOL    HW1 7712   0.563   4.027   2.502
 2271SOL    HW2 7713   0.649   4.155   2.557
 2272SOL     OW 7714   5.281   2.613   5.907
 2272SOL    HW1 7715   5.223   2.610   5.826
 2272SOL    HW2 7716   5.226   2.638   5.987
 2273SOL     OW 7717   0.716   0.627   3.766
 2273SOL    HW1 7718   0.658   0.632   3.685
 2273SOL    HW2 7719   0.776   0.548   3.760
 2274SOL     OW 7720   1.304   3.784   2.858
 2274SOL    HW1 7721   1.310   3.857   2.789
 2274SOL    HW2 7722   1.256   3.818   2.939
 2275SOL     OW 7723   4.604   6.684   3.205
 2275SOL    HW1 7724   4.673   6.611   3.207
 2275SOL    HW2 7725   4.649   6.773   3.209
 2276SOL     OW 7726   3.351   5.502   1.547
 2276SOL    HW1 7727   3.436   5.450   1.536
 2276SOL    HW2 7728   3.373   5.596   1.574
 2277SOL     OW 7729   3.410   3.919   1.233
 2277SOL    HW1 7730   3.450   3.919   1.141
 2277SOL    HW2 7731   3.461   3.855   1.291
 2278SOL     OW 7732   5.175   6.479   1.059
 2278SOL    HW1 7733   5.214   6.477   1.151
 2278SOL    HW2 7734   5.137   6.569   1.041
 2279SOL     OW 7735   5.233   3.906   5.383
 2279SOL    HW1 7736   5.282   3.836   5.331
 2279SOL    HW2 7737   5.272   3.913   5.475
 2280SOL     OW 7738   6.144   6.800   5.883
 2280SOL    HW1 7739   6.196   6.881   5.858
 2280SOL    HW2 7740   6.153   6.783   5.981
 2281SOL     OW 7741   3.398   2.398   0.363
 2281SOL    HW1 7742   3.363   2.324   0.420
 2281SOL    HW2 7743   3.477   2.440   0.407
 2282SOL     OW 7744   4.240   5.737   2.161
 2282SOL    HW1 7745   4.281   5.768   2.247
 2282SOL    HW2 7746   4.306   5.682   2.110
 2283SOL     OW 7747   0.391   3.929   1.848
 2283SOL    HW1 7748   0.454   3.924   1.771
 2283SOL    HW2 7749   0.401   3.847   1.904
 2284SOL     OW 7750   2.702   2.231   2.194
 2284SOL    HW1 7751   2.659   2.144   2.167
 2284SOL    HW2 7752   2.788   2.241   2.145
 2285SOL     OW 7753   1.812   3.477   6.513
 2285SOL    HW1 7754   1.889   3.508   6.457
 2285SOL    HW2 7755   1.843   3.465   6.607
 2286SOL     OW 7756   5.545   0.060   4.585
 2286SOL    HW1 7757   5.586   7.011   4.530
 2286SOL    HW2 7758   5.562   0.149   4.542
 2287SOL     OW 7759   2.429   2.245   1.134
 2287SOL    HW1 7760   2.399   2.164   1.085
 2287SOL    HW2 7761   2.485   2.302   1.073
 2288SOL     OW 7762   1.774   5.781   4.633
 2288SOL    HW1 7763   1.745   5.857   4.691
 2288SOL    HW2 7764   1.829   5.816   4.557
 2289SOL     OW 7765   4.511   1.460   0.264
 2289SOL    HW1 7766   4.457   1.510   0.196
 2289SOL    HW2 7767   4.491   1.362   0.257
 2290SOL     OW 7768   3.174   3.440   3.069
 2290SOL    HW1 7769   3.156   3.448   2.971
 2290SOL    HW2 7770   3.092   3.469   3.119
 2291SOL     OW 7771   0.982   2.628   6.070
 2291SOL    HW1 7772   1.007   2.720   6.100
 2291SOL    HW2 7773   1.018   2.612   5.978
 2292SOL     OW 7774   4.767   2.121   2.602
 2292SOL    HW1 7775   4.782   2.151   2.508
 2292SOL    HW2 7776   4.743   2.199   2.659
 2293SOL     OW 7777   0.848   0.980   0.030
 2293SOL    HW1 7778   0.755   0.960   0.059
 2293SOL    HW2 7779   0.912   0.924   0.082
 2294SOL     OW 7780   6.799   0.884   5.978
 2294SOL    HW1 7781   6.845   0.969   5.950
 2294SOL    HW2 7782   6.771   0.891   6.073
 2295SOL     OW 7783   6.282   6.061   0.740
 2295SOL    HW1 7784   6.237   6.043   0.653
 2295SOL    HW2 7785   6.376   6.025   0.737
 2296SOL     OW 7786   3.829   4.834   3.852
 2296SOL    HW1 7787   3.839   4.788   3.763
 2296SOL    HW2 7788   3.741   4.880   3.856
 2297SOL     OW 7789   5.234   3.604   5.557
 2297SOL    HW1 7790   5.142   3.643   5.562
 2297SOL    HW2 7791   5.242   3.551   5.472
 2298SOL     OW 7792   3.404   4.114   4.452
 2298SOL    HW1 7793   3.503   4.127   4.445
 2298SOL    HW2 7794   3.358   4.200   4.431
 2299SOL     OW 7795   5.378   2.987   4.134
 2299SOL    HW1 7796   5.365   3.067   4.193
 2299SOL    HW2 7797   5.451   2.930   4.171
 2300SOL     OW 7798   5.089   0.192   1.994
 2300SOL    HW1 7799   5.149   0.219   2.070
 2300SOL    HW2 7800   4.994   0.202   2.023
 2301SOL     OW 7801   3.802   3.068   5.027
 2301SOL    HW1 7802   3.802   2.981   4.978
 2301SOL    HW2 7803   3.876   3.125   4.993
 2302SOL     OW 7804   6.365   3.181   5.928
 2302SOL    HW1 7805   6.425   3.110   5.894
 2302SOL    HW2 7806   6.418   3.263   5.948
 2303SOL     OW 7807   3.000   2.469   0.136
 2303SOL    HW1 7808   3.080   2.525   0.157
 2303SOL    HW2 7809   2.951   2.509   0.058
 2304SOL     OW 7810   6.690   5.914   2.455
 2304SOL    HW1 7811   6.748   5.879   2.382
 2304SOL    HW2 7812   6.734   5.993   2.498
 2305SOL     OW 7813   2.624   7.003   5.190
 2305SOL    HW1 7814   2.539   6.985   5.141
 2305SOL    HW2 7815   2.690   0.021   5.128
 2306SOL     OW 7816   1.515   4.789   4.549
 2306SOL    HW1 7817   1.502   4.766   4.645
 2306SOL    HW2 7818   1.548   4.883   4.540
 2307SOL     OW 7819   6.344   3.114   5.505
 2307SOL    HW1 7820   6.262   3.142   5.456
 2307SOL    HW2 7821   6.393   3.195   5.538
 2308SOL     OW 7822   1.391   5.058   2.021
 2308SOL    HW1 7823   1.410   5.121   1.946
 2308SOL    HW2 7824   1.326   4.988   1.990
 2309SOL     OW 7825   2.056   0.182   4.718
 2309SOL    HW1 7826   1.989   0.201   4.647
 2309SOL    HW2 7827   2.052   0.253   4.788
 2310SOL     OW 7828   4.567   6.873   0.900
 2310SOL    HW1 7829   4.618   6.889   0.815
 2310SOL    HW2 7830   4.626   6.826   0.966
 2311SOL     OW 7831   2.315   5.304   1.372
 2311SOL    HW1 7832   2.401   5.258   1.353
 2311SOL    HW2 7833   2.297   5.300   1.470
 2312SOL     OW 7834   3.282   4.868   1.852
 2312SOL    HW1 7835   3.330   4.802   1.794
 2312SOL    HW2 7836   3.343   4.945   1.870
 2313SOL     OW 7837   4.880   5.446   1.052
 2313SOL    HW1 7838   4.897   5.435   0.954
 2313SOL    HW2 7839   4.940   5.385   1.104
 2314SOL     OW 7840   2.509   5.054   4.615
 2314SOL    HW1 7841   2.451   4.987   4.662
 2314SOL    HW2 7842   2.519   5.135   4.672
 2315SOL     OW 7843   4.411   2.522   6.294
 2315SOL    HW1 7844   4.323   2.519   6.246
 2315SOL    HW2 7845   4.402   2.476   6.382
 2316SOL     OW 7846   5.482   3.753   2.038
 2316SOL    HW1 7847   5.468   3.828   2.102
 2316SOL    HW2 7848   5.410   3.754   1.968
 2317SOL     OW 7849   0.314   5.881   3.023
 2317SOL    HW1 7850   0.264   5.897   3.108
 2317SOL    HW2 7851   0.339   5.968   2.983
 2318SOL     OW 7852   6.540   0.478   3.856
 2318SOL    HW1 7853   6.517   0.561   3.805
 2318SOL    HW2 7854   6.456   0.437   3.893
 2319SOL     OW 7855   0.849   5.442   2.646
 2319SOL    HW1 7856   0.867   5.538   2.624
 2319SOL    HW2 7857   0.768   5.411   2.596
 2320SOL     OW 7858   6.485   5.193   5.203
 2320SOL    HW1 7859   6.486   5.288   5.170
 2320SOL    HW2 7860   6.419   5.185   5.277
 2321SOL     OW 7861   3.942   4.864   4.614
 2321SOL    HW1 7862   3.853   4.886   4.575
 2321SOL    HW2 7863   3.936   4.860   4.713
 2322SOL     OW 7864   3.259   0.395   5.261
 2322SOL    HW1 7865   3.186   0.425   5.200
 2322SOL    HW2 7866   3.274   0.297   5.249
 2323SOL     OW 7867   5.308   3.697   2.279
 2323SOL    HW1 7868   5.279   3.620   2.221
 2323SOL    HW2 7869   5.245   3.706   2.356
 2324SOL     OW 7870   0.049   5.172   3.374
 2324SOL    HW1 7871   6.986   5.222   3.372
 2324SOL    HW2 7872   0.120   5.224   3.327
 2325SOL     OW 7873   0.762   2.445   0.722
 2325SOL    HW1 7874   0.782   2.527   0.669
 2325SOL    HW2 7875   0.717   2.470   0.808
 2326SOL     OW 7876   1.164   4.369   0.537
 2326SOL    HW1 7877   1.090   4.350   0.602
 2326SOL    HW2 7878   1.236   4.300   0.546
 2327SOL     OW 7879   5.407   1.819   3.842
 2327SOL    HW1 7880   5.381   1.823   3.938
 2327SOL    HW2 7881   5.460   1.900   3.818
 2328SOL     OW 7882   6.037   6.743   3.658
 2328SOL    HW1 7883   6.053   6.702   3.748
 2328SOL    HW2 7884   6.092   6.826   3.650
 2329SOL     OW 7885   6.613   5.711   3.312
 2329SOL    HW1 7886   6.695   5.659   3.291
 2329SOL    HW2 7887   6.635   5.786   3.375
 2330SOL     OW 7888   0.655   3.580   1.449
 2330SOL    HW1 7889   0.676   3.644   1.375
 2330SOL    HW2 7890   0.584   3.620   1.507
 2331SOL     OW 7891   1.104   5.000   5.857
 2331SOL    HW1 7892   1.018   4.950   5.853
 2331SOL    HW2 7893   1.123   5.041   5.767
 2332SOL     OW 7894   5.386   2.485   5.129
 2332SOL    HW1 7895   5.305   2.451   5.080
 2332SOL    HW2 7896   5.459   2.503   5.063
 2333SOL     OW 7897   2.628   4.610   3.525
 2333SOL    HW1 7898   2.566   4.646   3.455
 2333SOL    HW2 7899   2.601   4.517   3.548
 2334SOL     OW 7900   2.692   0.089   0.413
 2334SOL    HW1 7901   2.754   0.118   0.340
 2334SOL    HW2 7902   2.598   0.097   0.381
 2335SOL     OW 7903   4.579   5.552   4.329
 2335SOL    HW1 7904   4.673   5.518   4.338
 2335SOL    HW2 7905   4.515   5.476   4.342
 2336SOL     OW 7906   4.109   2.482   5.667
 2336SOL    HW1 7907   4.026   2.535   5.650
 2336SOL    HW2 7908   4.114   2.405   5.603
 2337SOL     OW 7909   6.251   0.241   4.436
 2337SOL    HW1 7910   6.211   0.150   4.449
 2337SOL    HW2 7911   6.280   0.277   4.525
 2338SOL     OW 7912   1.315   0.572   6.187
 2338SOL    HW1 7913   1.282   0.595   6.095
 2338SOL    HW2 7914   1.339   0.655   6.236
 2339SOL     OW 7915   4.383   4.869   6.359
 2339SOL    HW1 7916   4.353   4.917   6.441
 2339SOL    HW2 7917   4.391   4.771   6.378
 2340SOL     OW 7918   4.058   5.123   2.966
 2340SOL    HW1 7919   4.031   5.028   2.962
 2340SOL    HW2 7920   4.033   5.169   2.881
 2341SOL     OW 7921   5.904   4.705   6.175
 2341SOL    HW1 7922   5.977   4.637   6.171
 2341SOL    HW2 7923   5.848   4.689   6.256
 2342SOL     OW 7924   6.426   0.246   5.533
 2342SOL    HW1 7925   6.444   0.228   5.630
 2342SOL    HW2 7926   6.390   0.163   5.491
 2343SOL     OW 7927   0.985   0.074   0.729
 2343SOL    HW1 7928   0.921   0.031   0.665
 2343SOL    HW2 7929   1.017   0.160   0.690
 2344SOL     OW 7930   2.691   1.515   2.983
 2344SOL    HW1 7931   2.651   1.526   2.892
 2344SOL    HW2 7932   2.713   1.419   2.999
 2345SOL     OW 7933   0.945   1.558   3.319
 2345SOL    HW1 7934   0.909   1.539   3.410
 2345SOL    HW2 7935   1.014   1.631   3.324
 2346SOL     OW 7936   5.049   3.017   5.395
 2346SOL    HW1 7937   4.995   3.085   5.347
 2346SOL    HW2 7938   5.031   3.022   5.493
 2347SOL     OW 7939   1.369   3.439   1.005
 2347SOL    HW1 7940   1.309   3.397   0.937
 2347SOL    HW2 7941   1.463   3.440   0.969
 2348SOL     OW 7942   2.362   6.052   1.893
 2348SOL    HW1 7943   2.406   6.104   1.819
 2348SOL    HW2 7944   2.433   6.013   1.952
 2349SOL     OW 7945   4.575   4.489   6.201
 2349SOL    HW1 7946   4.559   4.401   6.247
 2349SOL    HW2 7947   4.606   4.556   6.268
 2350SOL     OW 7948   2.206   5.647   5.306
 2350SOL    HW1 7949   2.263   5.707   5.362
 2350SOL    HW2 7950   2.171   5.699   5.228
 2351SOL     OW 7951   2.463   5.134   2.996
 2351SOL    HW1 7952   2.376   5.122   2.949
 2351SOL    HW2 7953   2.484   5.051   3.049
 2352SOL     OW 7954   6.412   4.013   1.633
 2352SOL    HW1 7955   6.391   3.916   1.640
 2352SOL    HW2 7956   6.338   4.060   1.587
 2353SOL     OW 7957   2.737   3.793   6.672
 2353SOL    HW1 7958   2.650   3.840   6.684
 2353SOL    HW2 7959   2.788   3.836   6.597
 2354SOL     OW 7960   4.048   2.338   1.764
 2354SOL    HW1 7961   3.964   2.294   1.731
 2354SOL    HW2 7962   4.060   2.317   1.861
 2355SOL     OW 7963   6.736   1.553   1.567
 2355SOL    HW1 7964   6.667   1.625   1.577
 2355SOL    HW2 7965   6.713   1.476   1.625
 2356SOL     OW 7966   2.708   5.232   3.371
 2356SOL    HW1 7967   2.646   5.215   3.447
 2356SOL    HW2 7968   2.741   5.144   3.335
 2357SOL     OW 7969   6.828   4.508   1.204
 2357SOL    HW1 7970   6.757   4.447   1.239
 2357SOL    HW2 7971   6.846   4.485   1.108
 2358SOL     OW 7972   3.409   1.641   5.043
 2358SOL    HW1 7973   3.433   1.733   5.013
 2358SOL    HW2 7974   3.470   1.613   5.117
 2359SOL     OW 7975   1.769   1.588   5.860
 2359SOL    HW1 7976   1.820   1.637   5.789
 2359SOL    HW2 7977   1.684   1.551   5.821
 2360SOL     OW 7978   3.633   5.235   0.145
 2360SOL    HW1 7979   3.545   5.279   0.161
 2360SOL    HW2 7980   3.644   5.217   0.047
 2361SOL     OW 7981   3.674   5.604   1.460
 2361SOL    HW1 7982   3.643   5.520   1.504
 2361SOL    HW2 7983   3.641   5.683   1.512
 2362SOL     OW 7984   3.332   5.044   3.447
 2362SOL    HW1 7985   3.257   5.110   3.448
 2362SOL    HW2 7986   3.314   4.972   3.514
 2363SOL     OW 7987   2.214   3.608   0.269
 2363SOL    HW1 7988   2.129   3.578   0.226
 2363SOL    HW2 7989   2.225   3.706   0.257
 2364SOL     OW 7990   3.879   1.611   2.661
 2364SOL    HW1 7991   3.952   1.580   2.721
 2364SOL    HW2 7992   3.899   1.583   2.567
 2365SOL     OW 7993   4.926   4.544   3.158
 2365SOL    HW1 7994   4.844   4.556   3.102
 2365SOL    HW2 7995   4.977   4.629   3.162
 2366SOL     OW 7996   2.783   4.877   5.214
 2366SOL    HW1 7997   2.778   4.788   5.169
 2366SOL    HW2 7998   2.730   4.944   5.162
 2367SOL     OW 7999   5.717   4.837   6.016
 2367SOL    HW1 8000   5.758   4.917   5.973
 2367SOL    HW2 8001   5.788   4.781   6.058
 2368SOL     OW 8002   5.915   6.765   4.854
 2368SOL    HW1 8003   5.949   6.801   4.941
 2368SOL    HW2 8004   5.815   6.757   4.858
 2369SOL     OW 8005   3.596   2.024   4.191
 2369SOL    HW1 8006   3.570   1.973   4.109
 2369SOL    HW2 8007   3.688   2.061   4.178
 2370SOL     OW 8008   5.523   2.413   1.667
 2370SOL    HW1 8009   5.612   2.368   1.659
 2370SOL    HW2 8010   5.452   2.351   1.636
 2371SOL     OW 8011   0.969   6.225   2.018
 2371SOL    HW1 8012   1.003   6.166   2.091
 2371SOL    HW2 8013   0.988   6.321   2.040
 2372SOL     OW 8014   6.277   6.652   6.859
 2372SOL    HW1 8015   6.181   6.677   6.850
 2372SOL    HW2 8016   6.328   6.688   6.781
 2373SOL     OW 8017   6.586   4.933   6.628
 2373SOL    HW1 8018   6.630   4.860   6.680
 2373SOL    HW2 8019   6.539   4.994   6.692
 2374SOL     OW 8020   5.820   6.401   2.272
 2374SOL    HW1 8021   5.890   6.443   2.331
 2374SOL    HW2 8022   5.812   6.304   2.297
 2375SOL     OW 8023   1.857   0.585   4.380
 2375SOL    HW1 8024   1.913   0.550   4.456
 2375SOL    HW2 8025   1.837   0.510   4.317
 2376SOL     OW 8026   5.136   2.197   2.686
 2376SOL    HW1 8027   5.081   2.121   2.651
 2376SOL    HW2 8028   5.203   2.161   2.751
 2377SOL     OW 8029   4.884   3.825   5.761
 2377SOL    HW1 8030   4.827   3.905   5.780
 2377SOL    HW2 8031   4.841   3.743   5.797
 2378SOL     OW 8032   0.192   1.155   0.468
 2378SOL    HW1 8033   0.234   1.222   0.407
 2378SOL    HW2 8034   0.243   1.069   0.464
 2379SOL     OW 8035   6.901   5.674   2.720
 2379SOL    HW1 8036   6.805   5.698   2.702
 2379SOL    HW2 8037   6.952   5.675   2.634
 2380SOL     OW 8038   4.943   5.512   6.032
 2380SOL    HW1 8039   4.988   5.522   6.120
 2380SOL    HW2 8040   4.976   5.429   5.987
 2381SOL     OW 8041   2.206   4.532   4.116
 2381SOL    HW1 8042   2.187   4.434   4.121
 2381SOL    HW2 8043   2.121   4.583   4.122
 2382SOL     OW 8044   6.986   5.457   3.022
 2382SOL    HW1 8045   0.009   5.541   2.991
 2382SOL    HW2 8046   6.899   5.447   2.974
 2383SOL     OW 8047   5.182   4.417   5.727
 2383SOL    HW1 8048   5.259   4.475   5.752
 2383SOL    HW2 8049   5.106   4.474   5.695
 2384SOL     OW 8050   6.947   1.536   3.134
 2384SOL    HW1 8051   7.011   1.575   3.068
 2384SOL    HW2 8052   6.856   1.527   3.092
 2385SOL     OW 8053   0.721   1.476   1.040
 2385SOL    HW1 8054   0.658   1.400   1.022
 2385SOL    HW2 8055   0.812   1.453   1.005
 2386SOL     OW 8056   5.983   5.932   4.865
 2386SOL    HW1 8057   6.031   5.850   4.832
 2386SOL    HW2 8058   6.014   6.012   4.814
 2387SOL     OW 8059   0.863   1.546   3.618
 2387SOL    HW1 8060   0.898   1.560   3.711
 2387SOL    HW2 8061   0.796   1.617   3.597
 2388SOL     OW 8062   0.314   2.943   5.667
 2388SOL    HW1 8063   0.333   2.857   5.715
 2388SOL    HW2 8064   0.332   2.931   5.569
 2389SOL     OW 8065   4.027   5.100   3.421
 2389SOL    HW1 8066   4.026   5.125   3.517
 2389SOL    HW2 8067   4.035   5.182   3.364
 2390SOL     OW 8068   4.709   2.850   6.064
 2390SOL    HW1 8069   4.791   2.898   6.095
 2390SOL    HW2 8070   4.665   2.806   6.142
 2391SOL     OW 8071   3.370   4.125   6.308
 2391SOL    HW1 8072   3.297   4.171   6.358
 2391SOL    HW2 8073   3.393   4.177   6.225
 2392SOL     OW 8074   4.342   4.131   5.656
 2392SOL    HW1 8075   4.285   4.208   5.685
 2392SOL    HW2 8076   4.412   4.163   5.592
 2393SOL     OW 8077   4.842   4.527   1.244
 2393SOL    HW1 8078   4.769   4.551   1.180
 2393SOL    HW2 8079   4.912   4.474   1.197
 2394SOL     OW 8080   0.340   2.260   3.684
 2394SOL    HW1 8081   0.435   2.282   3.667
 2394SOL    HW2 8082   0.297   2.334   3.735
 2395SOL     OW 8083   1.111   2.619   4.382
 2395SOL    HW1 8084   1.201   2.578   4.398
 2395SOL    HW2 8085   1.070   2.645   4.469
 2396SOL     OW 8086   0.862   0.475   5.682
 2396SOL    HW1 8087   0.870   0.572   5.702
 2396SOL    HW2 8088   0.881   0.459   5.585
 2397SOL     OW 8089   0.414   3.736   4.975
 2397SOL    HW1 8090   0.501   3.723   4.928
 2397SOL    HW2 8091   0.413   3.826   5.020
 2398SOL     OW 8092   3.535   6.774   3.892
 2398SOL    HW1 8093   3.537   6.800   3.796
 2398SOL    HW2 8094   3.455   6.815   3.936
 2399SOL     OW 8095   3.313   2.169   3.576
 2399SOL    HW1 8096   3.408   2.154   3.606
 2399SOL    HW2 8097   3.254   2.174   3.657
 2400SOL     OW 8098   1.542   4.377   0.381
 2400SOL    HW1 8099   1.449   4.352   0.409
 2400SOL    HW2 8100   1.545   4.390   0.282
 2401SOL     OW 8101   1.383   0.121   0.002
 2401SOL    HW1 8102   1.376   0.105   0.101
 2401SOL    HW2 8103   1.304   0.081   6.980
 2402SOL     OW 8104   1.233   4.311   2.350
 2402SOL    HW1 8105   1.199   4.218   2.366
 2402SOL    HW2 8106   1.167   4.376   2.388
 2403SOL     OW 8107   3.805   3.911   4.487
 2403SOL    HW1 8108   3.869   3.860   4.545
 2403SOL    HW2 8109   3.713   3.876   4.501
 2404SOL     OW 8110   6.183   1.146   0.901
 2404SOL    HW1 8111   6.100   1.113   0.856
 2404SOL    HW2 8112   6.217   1.076   0.964
 2405SOL     OW 8113   1.440   3.103   0.593
 2405SOL    HW1 8114   1.511   3.033   0.584
 2405SOL    HW2 8115   1.483   3.191   0.614
 2406SOL     OW 8116   2.367   6.220   4.378
 2406SOL    HW1 8117   2.431   6.296   4.366
 2406SOL    HW2 8118   2.364   6.166   4.293
 2407SOL     OW 8119   2.718   1.051   3.127
 2407SOL    HW1 8120   2.707   1.069   3.224
 2407SOL    HW2 8121   2.756   0.959   3.114
 2408SOL     OW 8122   2.917   6.244   5.599
 2408SOL    HW1 8123   2.957   6.264   5.689
 2408SOL    HW2 8124   2.835   6.189   5.610
 2409SOL     OW 8125   1.147   3.184   0.104
 2409SOL    HW1 8126   1.170   3.091   0.131
 2409SOL    HW2 8127   1.231   3.237   0.090
 2410SOL     OW 8128   0.323   2.541   4.451
 2410SOL    HW1 8129   0.234   2.504   4.479
 2410SOL    HW2 8130   0.335   2.526   4.353
 2411SOL     OW 8131   3.386   1.964   0.011
 2411SOL    HW1 8132   3.379   1.930   0.105
 2411SOL    HW2 8133   3.365   2.061   0.009
 2412SOL     OW 8134   3.169   1.603   5.501
 2412SOL    HW1 8135   3.202   1.528   5.444
 2412SOL    HW2 8136   3.070   1.593   5.515
 2413SOL     OW 8137   0.486   3.216   0.244
 2413SOL    HW1 8138   0.517   3.290   0.303
 2413SOL    HW2 8139   0.559   3.190   0.181
 2414SOL     OW 8140   6.627   1.617   4.906
 2414SOL    HW1 8141   6.683   1.631   4.824
 2414SOL    HW2 8142   6.543   1.672   4.899
 2415SOL     OW 8143   2.391   4.771   6.480
 2415SOL    HW1 8144   2.475   4.722   6.454
 2415SOL    HW2 8145   2.416   4.859   6.520
 2416SOL     OW 8146   0.117   2.892   2.875
 2416SOL    HW1 8147   0.025   2.920   2.902
 2416SOL    HW2 8148   0.179   2.969   2.881
 2417SOL     OW 8149   3.032   2.760   1.667
 2417SOL    HW1 8150   2.959   2.697   1.690
 2417SOL    HW2 8151   3.098   2.765   1.742
 2418SOL     OW 8152   4.770   3.985   6.938
 2418SOL    HW1 8153   4.803   3.916   7.002
 2418SOL    HW2 8154   4.675   4.007   6.960
 2419SOL     OW 8155   2.776   0.856   3.780
 2419SOL    HW1 8156   2.832   0.825   3.703
 2419SOL    HW2 8157   2.723   0.937   3.752
 2420SOL     OW 8158   1.555   4.109   2.733
 2420SOL    HW1 8159   1.536   4.151   2.822
 2420SOL    HW2 8160   1.570   4.011   2.744
 2421SOL     OW 8161   3.145   6.753   3.650
 2421SOL    HW1 8162   3.142   6.798   3.561
 2421SOL    HW2 8163   3.150   6.823   3.722
 2422SOL     OW 8164   4.285   5.390   0.916
 2422SOL    HW1 8165   4.226   5.310   0.924
 2422SOL    HW2 8166   4.335   5.403   1.001
 2423SOL     OW 8167   2.378   5.646   2.915
 2423SOL    HW1 8168   2.341   5.696   2.994
 2423SOL    HW2 8169   2.413   5.557   2.945
 2424SOL     OW 8170   5.039   6.812   6.599
 2424SOL    HW1 8171   5.055   6.911   6.603
 2424SOL    HW2 8172   5.121   6.767   6.564
 2425SOL     OW 8173   4.890   5.562   4.527
 2425SOL    HW1 8174   4.952   5.629   4.568
 2425SOL    HW2 8175   4.891   5.478   4.582
 2426SOL     OW 8176   1.818   2.730   5.229
 2426SOL    HW1 8177   1.792   2.815   5.183
 2426SOL    HW2 8178   1.817   2.745   5.328
 2427SOL     OW 8179   5.416   0.736   0.636
 2427SOL    HW1 8180   5.340   0.799   0.648
 2427SOL    HW2 8181   5.485   0.778   0.578
 2428SOL     OW 8182   0.832   0.858   3.256
 2428SOL    HW1 8183   0.875   0.867   3.166
 2428SOL    HW2 8184   0.874   0.923   3.320
 2429SOL     OW 8185   5.659   5.013   1.463
 2429SOL    HW1 8186   5.700   4.927   1.431
 2429SOL    HW2 8187   5.673   5.021   1.562
 2430SOL     OW 8188   6.001   0.685   6.449
 2430SOL    HW1 8189   5.921   0.628   6.470
 2430SOL    HW2 8190   6.081   0.626   6.438
 2431SOL     OW 8191   0.742   3.344   1.872
 2431SOL    HW1 8192   0.661   3.303   1.832
 2431SOL    HW2 8193   0.820   3.333   1.810
 2432SOL     OW 8194   2.325   5.254   2.064
 2432SOL    HW1 8195   2.345   5.348   2.036
 2432SOL    HW2 8196   2.321   5.195   1.984
 2433SOL     OW 8197   0.025   4.108   5.266
 2433SOL    HW1 8198   0.039   4.041   5.193
 2433SOL    HW2 8199   6.958   4.094   5.307
 2434SOL     OW 8200   4.307   0.434   2.313
 2434SOL    HW1 8201   4.309   0.425   2.213
 2434SOL    HW2 8202   4.249   0.362   2.352
 2435SOL     OW 8203   6.162   0.131   6.859
 2435SOL    HW1 8204   6.169   0.107   6.955
 2435SOL    HW2 8205   6.073   0.174   6.842
 2436SOL     OW 8206   1.105   2.284   1.980
 2436SOL    HW1 8207   1.096   2.346   2.058
 2436SOL    HW2 8208   1.033   2.304   1.914
 2437SOL     OW 8209   0.047   4.145   3.210
 2437SOL    HW1 8210   6.975   4.165   3.185
 2437SOL    HW2 8211   0.102   4.137   3.128
 2438SOL     OW 8212   3.564   1.411   4.607
 2438SOL    HW1 8213   3.541   1.502   4.640
 2438SOL    HW2 8214   3.570   1.348   4.685
 2439SOL     OW 8215   1.426   5.799   1.477
 2439SOL    HW1 8216   1.514   5.751   1.481
 2439SOL    HW2 8217   1.439   5.893   1.508
 2440SOL     OW 8218   5.791   1.329   5.427
 2440SOL    HW1 8219   5.731   1.267   5.377
 2440SOL    HW2 8220   5.752   1.349   5.516
 2441SOL     OW 8221   5.935   0.287   0.299
 2441SOL    HW1 8222   6.004   0.350   0.334
 2441SOL    HW2 8223   5.935   0.289   0.199
 2442SOL     OW 8224   5.496   2.961   1.448
 2442SOL    HW1 8225   5.411   3.002   1.414
 2442SOL    HW2 8226   5.556   2.938   1.370
 2443SOL     OW 8227   0.913   3.171   2.346
 2443SOL    HW1 8228   0.844   3.235   2.381
 2443SOL    HW2 8229   0.926   3.187   2.248
 2444SOL     OW 8230   3.517   5.684   2.190
 2444SOL    HW1 8231   3.492   5.674   2.094
 2444SOL    HW2 8232   3.567   5.769   2.203
 2445SOL     OW 8233   0.554   2.662   1.577
 2445SOL    HW1 8234   0.588   2.741   1.629
 2445SOL    HW2 8235   0.457   2.649   1.597
 2446SOL     OW 8236   1.343   5.601   1.672
 2446SOL    HW1 8237   1.329   5.650   1.585
 2446SOL    HW2 8238   1.262   5.548   1.693
 2447SOL     OW 8239   2.207   6.773   6.902
 2447SOL    HW1 8240   2.289   6.803   6.951
 2447SOL    HW2 8241   2.192   6.831   6.822
 2448SOL     OW 8242   5.649   1.113   4.534
 2448SOL    HW1 8243   5.552   1.109   4.559
 2448SOL    HW2 8244   5.701   1.052   4.594
 2449SOL     OW 8245   1.594   4.282   2.018
 2449SOL    HW1 8246   1.560   4.189   2.032
 2449SOL    HW2 8247   1.586   4.334   2.103
 2450SOL     OW 8248   1.175   0.022   5.781
 2450SOL    HW1 8249   1.212   0.011   5.873
 2450SOL    HW2 8250   1.085   0.065   5.786
 2451SOL     OW 8251   1.010   6.156   5.508
 2451SOL    HW1 8252   0.974   6.119   5.423
 2451SOL    HW2 8253   0.937   6.199   5.560
 2452SOL     OW 8254   1.820   2.349   3.437
 2452SOL    HW1 8255   1.742   2.356   3.375
 2452SOL    HW2 8256   1.890   2.291   3.395
 2453SOL     OW 8257   0.316   0.875   5.863
 2453SOL    HW1 8258   0.270   0.920   5.787
 2453SOL    HW2 8259   0.389   0.934   5.898
 2454SOL     OW 8260   3.522   5.743   0.764
 2454SOL    HW1 8261   3.603   5.685   0.753
 2454SOL    HW2 8262   3.548   5.825   0.817
 2455SOL     OW 8263   4.276   2.752   0.295
 2455SOL    HW1 8264   4.314   2.776   0.385
 2455SOL    HW2 8265   4.240   2.659   0.299
 2456SOL     OW 8266   0.734   3.370   6.681
 2456SOL    HW1 8267   0.744   3.470   6.684
 2456SOL    HW2 8268   0.641   3.347   6.652
 2457SOL     OW 8269   4.948   2.174   4.921
 2457SOL    HW1 8270   5.026   2.148   4.977
 2457SOL    HW2 8271   4.871   2.199   4.980
 2458SOL     OW 8272   0.941   0.320   2.361
 2458SOL    HW1 8273   0.982   0.296   2.273
 2458SOL    HW2 8274   0.872   0.251   2.386
 2459SOL     OW 8275   2.483   6.956   0.204
 2459SOL    HW1 8276   2.434   7.004   0.277
 2459SOL    HW2 8277   2.515   6.868   0.238
 2460SOL     OW 8278   1.089   0.957   4.818
 2460SOL    HW1 8279   1.045   1.003   4.895
 2460SOL    HW2 8280   1.070   1.008   4.734
 2461SOL     OW 8281   4.587   0.054   3.662
 2461SOL    HW1 8282   4.544   0.111   3.732
 2461SOL    HW2 8283   4.529   6.997   3.645
 2462SOL     OW 8284   0.174   4.434   0.273
 2462SOL    HW1 8285   0.193   4.467   0.180
 2462SOL    HW2 8286   0.257   4.397   0.312
 2463SOL     OW 8287   6.942   0.693   0.451
 2463SOL    HW1 8288   6.970   0.726   0.361
 2463SOL    HW2 8289   6.968   0.597   0.461
 2464SOL     OW 8290   0.686   2.824   3.867
 2464SOL    HW1 8291   0.592   2.816   3.833
 2464SOL    HW2 8292   0.737   2.889   3.811
 2465SOL     OW 8293   0.061   6.747   5.826
 2465SOL    HW1 8294   0.090   6.836   5.862
 2465SOL    HW2 8295   0.126   6.716   5.757
 2466SOL     OW 8296   0.527   2.287   1.868
 2466SOL    HW1 8297   0.579   2.225   1.927
 2466SOL    HW2 8298   0.571   2.377   1.866
 2467SOL     OW 8299   6.022   2.434   5.377
 2467SOL    HW1 8300   6.068   2.360   5.329
 2467SOL    HW2 8301   6.029   2.518   5.323
 2468SOL     OW 8302   3.226   6.556   5.251
 2468SOL    HW1 8303   3.312   6.507   5.236
 2468SOL    HW2 8304   3.214   6.573   5.349
 2469SOL     OW 8305   3.571   1.909   6.119
 2469SOL    HW1 8306   3.515   1.991   6.129
 2469SOL    HW2 8307   3.545   1.860   6.036
 2470SOL     OW 8308   2.877   4.471   6.394
 2470SOL    HW1 8309   2.957   4.529   6.372
 2470SOL    HW2 8310   2.796   4.529   6.402
 2471SOL     OW 8311   2.667   6.023   2.315
 2471SOL    HW1 8312   2.587   6.032   2.374
 2471SOL    HW2 8313   2.685   5.926   2.298
 2472SOL     OW 8314   4.877   1.682   3.407
 2472SOL    HW1 8315   4.896   1.769   3.451
 2472SOL    HW2 8316   4.781   1.678   3.379
 2473SOL     OW 8317   0.609   4.084   4.952
 2473SOL    HW1 8318   0.694   4.041   4.981
 2473SOL    HW2 8319   0.532   4.040   4.999
 2474SOL     OW 8320   1.374   6.164   1.795
 2474SOL    HW1 8321   1.340   6.099   1.863
 2474SOL    HW2 8322   1.470   6.185   1.814
 2475SOL     OW 8323   5.303   0.816   0.994
 2475SOL    HW1 8324   5.266   0.804   1.086
 2475SOL    HW2 8325   5.241   0.874   0.940
 2476SOL     OW 8326   5.345   0.851   0.111
 2476SOL    HW1 8327   5.361   0.943   0.146
 2476SOL    HW2 8328   5.338   0.854   0.011
 2477SOL     OW 8329   3.758   0.212   3.305
 2477SOL    HW1 8330   3.832   0.245   3.246
 2477SOL    HW2 8331   3.797   0.174   3.389
 2478SOL     OW 8332   4.412   6.809   4.750
 2478SOL    HW1 8333   4.381   6.843   4.839
 2478SOL    HW2 8334   4.333   6.787   4.693
 2479SOL     OW 8335   6.003   2.898   0.023
 2479SOL    HW1 8336   5.971   2.940   0.108
 2479SOL    HW2 8337   5.976   2.802   0.021
 2480SOL     OW 8338   3.290   2.530   1.720
 2480SOL    HW1 8339   3.269   2.598   1.790
 2480SOL    HW2 8340   3.213   2.467   1.709
 2481SOL     OW 8341   3.164   0.247   0.928
 2481SOL    HW1 8342   3.079   0.273   0.884
 2481SOL    HW2 8343   3.151   0.161   0.978
 2482SOL     OW 8344   6.046   3.232   6.568
 2482SOL    HW1 8345   6.046   3.133   6.575
 2482SOL    HW2 8346   5.972   3.270   6.625
 2483SOL     OW 8347   1.107   2.415   0.757
 2483SOL    HW1 8348   1.154   2.365   0.684
 2483SOL    HW2 8349   1.012   2.432   0.730
 2484SOL     OW 8350   5.216   1.392   1.244
 2484SOL    HW1 8351   5.137   1.443   1.280
 2484SOL    HW2 8352   5.195   1.294   1.246
 2485SOL     OW 8353   6.529   2.318   6.188
 2485SOL    HW1 8354   6.620   2.276   6.197
 2485SOL    HW2 8355   6.510   2.372   6.270
 2486SOL     OW 8356   0.028   4.469   5.378
 2486SOL    HW1 8357   0.015   4.397   5.446
 2486SOL    HW2 8358   0.049   4.427   5.289
 2487SOL     OW 8359   4.952   5.625   6.741
 2487SOL    HW1 8360   4.943   5.711   6.792
 2487SOL    HW2 8361   5.021   5.636   6.670
 2488SOL     OW 8362   6.644   3.886   1.043
 2488SOL    HW1 8363   6.675   3.794   1.067
 2488SOL    HW2 8364   6.573   3.879   0.972
 2489SOL     OW 8365   0.343   6.444   4.441
 2489SOL    HW1 8366   0.287   6.368   4.474
 2489SOL    HW2 8367   0.435   6.438   4.481
 2490SOL     OW 8368   2.458   6.011   2.495
 2490SOL    HW1 8369   2.372   5.964   2.513
 2490SOL    HW2 8370   2.466   6.090   2.556
 2491SOL     OW 8371   3.568   4.635   1.361
 2491SOL    HW1 8372   3.580   4.709   1.295
 2491SOL    HW2 8373   3.470   4.624   1.381
 2492SOL     OW 8374   0.248   4.597   1.724
 2492SOL    HW1 8375   0.320   4.652   1.766
 2492SOL    HW2 8376   0.195   4.552   1.796
 2493SOL     OW 8377   6.709   6.844   1.197
 2493SOL    HW1 8378   6.612   6.828   1.183
 2493SOL    HW2 8379   6.746   6.773   1.257
 2494SOL     OW 8380   6.309   3.416   1.897
 2494SOL    HW1 8381   6.404   3.445   1.911
 2494SOL    HW2 8382   6.247   3.473   1.950
 2495SOL     OW 8383   6.260   4.634   4.212
 2495SOL    HW1 8384   6.169   4.618   4.174
 2495SOL    HW2 8385   6.329   4.609   4.143
 2496SOL     OW 8386   6.264   4.969   6.416
 2496SOL    HW1 8387   6.360   4.944   6.407
 2496SOL    HW2 8388   6.249   5.019   6.501
 2497SOL     OW 8389   0.301   0.410   2.286
 2497SOL    HW1 8390   0.220   0.356   2.306
 2497SOL    HW2 8391   0.348   0.433   2.372
 2498SOL     OW 8392   1.984   3.596   6.141
 2498SOL    HW1 8393   2.023   3.512   6.177
 2498SOL    HW2 8394   2.054   3.647   6.092
 2499SOL     OW 8395   6.982   3.414   1.630
 2499SOL    HW1 8396   0.058   3.420   1.621
 2499SOL    HW2 8397   6.955   3.320   1.646
 2500SOL     OW 8398   4.138   4.085   6.706
 2500SOL    HW1 8399   4.069   4.153   6.685
 2500SOL    HW2 8400   4.101   4.017   6.769
 2501SOL     OW 8401   5.843   5.684   0.113
 2501SOL    HW1 8402   5.864   5.701   0.209
 2501SOL    HW2 8403   5.744   5.688   0.100
 2502SOL     OW 8404   3.014   5.347   4.195
 2502SOL    HW1 8405   2.956   5.269   4.219
 2502SOL    HW2 8406   3.008   5.365   4.097
 2503SOL     OW 8407   2.393   6.438   5.885
 2503SOL    HW1 8408   2.295   6.422   5.895
 2503SOL    HW2 8409   2.438   6.353   5.860
 2504SOL     OW 8410   3.278   5.913   2.908
 2504SOL    HW1 8411   3.369   5.946   2.883
 2504SOL    HW2 8412   3.283   5.868   2.998
 2505SOL     OW 8413   0.231   5.332   3.109
 2505SOL    HW1 8414   0.291   5.272   3.057
 2505SOL    HW2 8415   0.142   5.338   3.065
 2506SOL     OW 8416   4.997   5.294   5.832
 2506SOL    HW1 8417   4.932   5.363   5.800
 2506SOL    HW2 8418   5.084   5.305   5.784
 2507SOL     OW 8419   6.901   3.377   0.065
 2507SOL    HW1 8420   6.996   3.397   0.087
 2507SOL    HW2 8421   6.853   3.349   0.148
 2508SOL     OW 8422   4.580   1.859   3.854
 2508SOL    HW1 8423   4.550   1.909   3.936
 2508SOL    HW2 8424   4.594   1.924   3.779
 2509SOL     OW 8425   0.191   3.703   5.393
 2509SOL    HW1 8426   0.093   3.684   5.385
 2509SOL    HW2 8427   0.239   3.663   5.315
 2510SOL     OW 8428   3.289   3.961   1.937
 2510SOL    HW1 8429   3.348   4.021   1.991
 2510SOL    HW2 8430   3.234   4.016   1.875
 2511SOL     OW 8431   2.114   0.473   5.104
 2511SOL    HW1 8432   2.143   0.448   5.196
 2511SOL    HW2 8433   2.064   0.560   5.108
 2512SOL     OW 8434   3.949   4.974   4.323
 2512SOL    HW1 8435   4.004   4.918   4.385
 2512SOL    HW2 8436   3.995   4.980   4.234
 2513SOL     OW 8437   2.190   6.090   6.153
 2513SOL    HW1 8438   2.262   6.058   6.092
 2513SOL    HW2 8439   2.216   6.070   6.248
 2514SOL     OW 8440   1.133   3.108   3.461
 2514SOL    HW1 8441   1.153   3.084   3.556
 2514SOL    HW2 8442   1.153   3.205   3.447
 2515SOL     OW 8443   1.696   1.527   1.692
 2515SOL    HW1 8444   1.616   1.525   1.752
 2515SOL    HW2 8445   1.757   1.601   1.721
 2516SOL     OW 8446   5.680   1.751   3.631
 2516SOL    HW1 8447   5.636   1.661   3.635
 2516SOL    HW2 8448   5.746   1.752   3.556
 2517SOL     OW 8449   1.366   1.289   4.219
 2517SOL    HW1 8450   1.309   1.360   4.261
 2517SOL    HW2 8451   1.355   1.203   4.269
 2518SOL     OW 8452   2.990   4.387   1.439
 2518SOL    HW1 8453   2.971   4.342   1.526
 2518SOL    HW2 8454   3.089   4.401   1.430
 2519SOL     OW 8455   1.884   1.368   0.649
 2519SOL    HW1 8456   1.948   1.336   0.718
 2519SOL    HW2 8457   1.800   1.401   0.693
 2520SOL     OW 8458   3.561   2.312   1.157
 2520SOL    HW1 8459   3.583   2.307   1.254
 2520SOL    HW2 8460   3.622   2.377   1.112
 2521SOL     OW 8461   5.008   1.880   5.238
 2521SOL    HW1 8462   5.064   1.958   5.266
 2521SOL    HW2 8463   5.030   1.801   5.295
 2522SOL     OW 8464   0.603   1.812   5.562
 2522SOL    HW1 8465   0.659   1.885   5.524
 2522SOL    HW2 8466   0.595   1.738   5.495
 2523SOL     OW 8467   1.848   4.782   6.941
 2523SOL    HW1 8468   1.928   4.823   6.985
 2523SOL    HW2 8469   1.795   4.853   6.896
 2524SOL     OW 8470   1.350   6.713   3.833
 2524SOL    HW1 8471   1.274   6.660   3.872
 2524SOL    HW2 8472   1.420   6.650   3.800
 2525SOL     OW 8473   6.642   2.276   4.214
 2525SOL    HW1 8474   6.639   2.178   4.233
 2525SOL    HW2 8475   6.637   2.291   4.116
 2526SOL     OW 8476   1.304   6.506   0.618
 2526SOL    HW1 8477   1.372   6.480   0.549
 2526SOL    HW2 8478   1.336   6.589   0.665
 2527SOL     OW 8479   5.546   4.987   6.427
 2527SOL    HW1 8480   5.567   4.894   6.456
 2527SOL    HW2 8481   5.494   5.034   6.498
 2528SOL     OW 8482   4.846   5.200   6.341
 2528SOL    HW1 8483   4.786   5.130   6.381
 2528SOL    HW2 8484   4.890   5.164   6.259
 2529SOL     OW 8485   0.410   0.063   6.368
 2529SOL    HW1 8486   0.494   0.033   6.413
 2529SOL    HW2 8487   0.419   0.158   6.339
 2530SOL     OW 8488   2.411   5.913   5.421
 2530SOL    HW1 8489   2.477   5.867   5.480
 2530SOL    HW2 8490   2.457   5.983   5.367
 2531SOL     OW 8491   6.431   5.355   5.948
 2531SOL    HW1 8492   6.457   5.347   5.852
 2531SOL    HW2 8493   6.336   5.327   5.960
 2532SOL     OW 8494   0.327   6.873   0.914
 2532SOL    HW1 8495   0.313   6.946   0.847
 2532SOL    HW2 8496   0.253   6.875   0.981
 2533SOL     OW 8497   5.243   0.717   3.095
 2533SOL    HW1 8498   5.171   0.679   3.037
 2533SOL    HW2 8499   5.201   0.769   3.170
 2534SOL     OW 8500   4.508   2.050   2.056
 2534SOL    HW1 8501   4.410   2.031   2.060
 2534SOL    HW2 8502   4.530   2.123   2.121
 2535SOL     OW 8503   3.516   2.813   6.077
 2535SOL    HW1 8504   3.543   2.772   5.990
 2535SOL    HW2 8505   3.589   2.800   6.144
 2536SOL     OW 8506   1.431   0.575   6.744
 2536SOL    HW1 8507   1.467   0.485   6.720
 2536SOL    HW2 8508   1.505   0.632   6.780
 2537SOL     OW 8509   4.206   1.074   0.345
 2537SOL    HW1 8510   4.194   1.023   0.260
 2537SOL    HW2 8511   4.126   1.131   0.362
 2538SOL     OW 8512   6.859   3.804   4.211
 2538SOL    HW1 8513   6.933   3.834   4.272
 2538SOL    HW2 8514   6.894   3.794   4.118
 2539SOL     OW 8515   5.328   1.575   4.777
 2539SOL    HW1 8516   5.239   1.534   4.796
 2539SOL    HW2 8517   5.400   1.508   4.793
 2540SOL     OW 8518   3.666   1.198   2.426
 2540SOL    HW1 8519   3.721   1.218   2.508
 2540SOL    HW2 8520   3.693   1.259   2.352
 2541SOL     OW 8521   3.611   6.187   5.159
 2541SOL    HW1 8522   3.664   6.115   5.114
 2541SOL    HW2 8523   3.573   6.248   5.090
 2542SOL     OW 8524   1.071   4.810   6.654
 2542SOL    HW1 8525   1.056   4.738   6.586
 2542SOL    HW2 8526   1.103   4.770   6.739
 2543SOL     OW 8527   1.462   1.658   4.179
 2543SOL    HW1 8528   1.366   1.666   4.208
 2543SOL    HW2 8529   1.465   1.634   4.082
 2544SOL     OW 8530   0.990   5.489   0.350
 2544SOL    HW1 8531   0.990   5.409   0.411
 2544SOL    HW2 8532   0.930   5.560   0.387
 2545SOL     OW 8533   2.152   6.275   2.934
 2545SOL    HW1 8534   2.127   6.196   2.877
 2545SOL    HW2 8535   2.094   6.353   2.910
 2546SOL     OW 8536   6.331   2.082   0.730
 2546SOL    HW1 8537   6.378   2.115   0.648
 2546SOL    HW2 8538   6.361   1.989   0.751
 2547SOL     OW 8539   0.201   4.009   5.022
 2547SOL    HW1 8540   0.291   3.979   5.053
 2547SOL    HW2 8541   0.163   3.941   4.959
 2548SOL     OW 8542   0.485   6.498   3.997
 2548SOL    HW1 8543   0.457   6.409   3.960
 2548SOL    HW2 8544   0.413   6.533   4.058
 2549SOL     OW 8545   0.576   1.072   1.503
 2549SOL    HW1 8546   0.641   1.145   1.524
 2549SOL    HW2 8547   0.563   1.067   1.404
 2550SOL     OW 8548   5.820   6.383   0.658
 2550SOL    HW1 8549   5.873   6.389   0.743
 2550SOL    HW2 8550   5.724   6.403   0.677
 2551SOL     OW 8551   1.699   4.002   6.431
 2551SOL    HW1 8552   1.692   4.100   6.413
 2551SOL    HW2 8553   1.678   3.950   6.348
 2552SOL     OW 8554   2.534   5.411   2.955
 2552SOL    HW1 8555   2.500   5.319   2.971
 2552SOL    HW2 8556   2.531   5.432   2.858
 2553SOL     OW 8557   4.102   3.493   6.461
 2553SOL    HW1 8558   4.175   3.440   6.417
 2553SOL    HW2 8559   4.013   3.453   6.438
 2554SOL     OW 8560   1.321   1.640   0.420
 2554SOL    HW1 8561   1.300   1.556   0.471
 2554SOL    HW2 8562   1.306   1.719   0.479
 2555SOL     OW 8563   5.853   2.633   6.453
 2555SOL    HW1 8564   5.802   2.647   6.368
 2555SOL    HW2 8565   5.851   2.536   6.477
 2556SOL     OW 8566   3.531   6.016   0.840
 2556SOL    HW1 8567   3.597   6.029   0.914
 2556SOL    HW2 8568   3.476   6.099   0.829
 2557SOL     OW 8569   2.030   4.141   6.461
 2557SOL    HW1 8570   1.931   4.157   6.457
 2557SOL    HW2 8571   2.077   4.211   6.408
 2558SOL     OW 8572   4.604   0.984   5.578
 2558SOL    HW1 8573   4.580   0.940   5.491
 2558SOL    HW2 8574   4.612   1.082   5.564
 2559SOL     OW 8575   0.511   4.764   4.961
 2559SOL    HW1 8576   0.416   4.795   4.951
 2559SOL    HW2 8577   0.524   4.678   4.912
 2560SOL     OW 8578   6.067   2.040   6.031
 2560SOL    HW1 8579   6.024   2.122   5.993
 2560SOL    HW2 8580   6.029   2.021   6.121
 2561SOL     OW 8581   2.793   5.578   4.770
 2561SOL    HW1 8582   2.793   5.492   4.821
 2561SOL    HW2 8583   2.707   5.626   4.786
 2562SOL     OW 8584   1.693   3.518   0.359
 2562SOL    HW1 8585   1.665   3.424   0.376
 2562SOL    HW2 8586   1.781   3.519   0.312
 2563SOL     OW 8587   2.822   1.311   6.899
 2563SOL    HW1 8588   2.766   1.350   6.825
 2563SOL    HW2 8589   2.788   1.343   6.987
 2564SOL     OW 8590   1.436   5.213   1.753
 2564SOL    HW1 8591   1.516   5.265   1.723
 2564SOL    HW2 8592   1.361   5.277   1.771
 2565SOL     OW 8593   1.426   0.705   1.874
 2565SOL    HW1 8594   1.400   0.609   1.875
 2565SOL    HW2 8595   1.380   0.751   1.797
 2566SOL     OW 8596   1.922   6.811   6.821
 2566SOL    HW1 8597   1.925   6.894   6.766
 2566SOL    HW2 8598   2.014   6.783   6.846
 2567SOL     OW 8599   1.515   6.430   0.478
 2567SOL    HW1 8600   1.564   6.428   0.390
 2567SOL    HW2 8601   1.476   6.340   0.495
 2568SOL     OW 8602   4.498   2.332   6.853
 2568SOL    HW1 8603   4.569   2.265   6.833
 2568SOL    HW2 8604   4.519   2.380   6.938
 2569SOL     OW 8605   3.395   0.386   3.510
 2569SOL    HW1 8606   3.318   0.450   3.506
 2569SOL    HW2 8607   3.463   0.413   3.442
 2570SOL     OW 8608   5.297   1.762   6.288
 2570SOL    HW1 8609   5.324   1.755   6.384
 2570SOL    HW2 8610   5.275   1.671   6.253
 2571SOL     OW 8611   1.185   4.900   3.853
 2571SOL    HW1 8612   1.245   4.977   3.832
 2571SOL    HW2 8613   1.122   4.885   3.778
 2572SOL     OW 8614   2.421   4.869   3.214
 2572SOL    HW1 8615   2.356   4.944   3.221
 2572SOL    HW2 8616   2.377   4.790   3.173
 2573SOL     OW 8617   0.601   0.605   1.217
 2573SOL    HW1 8618   0.627   0.536   1.149
 2573SOL    HW2 8619   0.611   0.567   1.309
 2574SOL     OW 8620   6.100   3.269   0.328
 2574SOL    HW1 8621   6.078   3.344   0.391
 2574SOL    HW2 8622   6.152   3.198   0.376
 2575SOL     OW 8623   7.021   5.642   6.565
 2575SOL    HW1 8624   0.073   5.586   6.599
 2575SOL    HW2 8625   0.031   5.706   6.497
 2576SOL     OW 8626   4.651   6.324   3.882
 2576SOL    HW1 8627   4.675   6.329   3.785
 2576SOL    HW2 8628   4.600   6.240   3.899
 2577SOL     OW 8629   2.564   4.738   2.039
 2577SOL    HW1 8630   2.546   4.752   2.136
 2577SOL    HW2 8631   2.657   4.703   2.027
 2578SOL     OW 8632   4.164   1.717   3.598
 2578SOL    HW1 8633   4.119   1.757   3.519
 2578SOL    HW2 8634   4.114   1.741   3.681
 2579SOL     OW 8635   0.722   6.602   3.620
 2579SOL    HW1 8636   0.759   6.544   3.548
 2579SOL    HW2 8637   0.664   6.673   3.579
 2580SOL     OW 8638   2.321   2.591   0.193
 2580SOL    HW1 8639   2.420   2.601   0.209
 2580SOL    HW2 8640   2.276   2.563   0.278
 2581SOL     OW 8641   3.105   6.956   5.065
 2581SOL    HW1 8642   3.032   6.902   5.106
 2581SOL    HW2 8643   3.132   0.006   5.127
 2582SOL     OW 8644   0.296   3.199   1.233
 2582SOL    HW1 8645   0.205   3.203   1.274
 2582SOL    HW2 8646   0.363   3.181   1.305
 2583SOL     OW 8647   6.011   6.811   1.280
 2583SOL    HW1 8648   5.994   6.776   1.188
 2583SOL    HW2 8649   6.050   6.902   1.275
 2584SOL     OW 8650   4.393   4.741   5.333
 2584SOL    HW1 8651   4.391   4.839   5.313
 2584SOL    HW2 8652   4.473   4.700   5.289
 2585SOL     OW 8653   3.408   4.931   6.829
 2585SOL    HW1 8654   3.346   4.998   6.869
 2585SOL    HW2 8655   3.446   4.968   6.744
 2586SOL     OW 8656   2.062   0.439   4.815
 2586SOL    HW1 8657   2.072   0.451   4.914
 2586SOL    HW2 8658   2.149   0.455   4.770
 2587SOL     OW 8659   6.613   1.677   3.509
 2587SOL    HW1 8660   6.521   1.717   3.521
 2587SOL    HW2 8661   6.613   1.619   3.428
 2588SOL     OW 8662   4.533   1.065   5.197
 2588SOL    HW1 8663   4.541   1.163   5.215
 2588SOL    HW2 8664   4.443   1.046   5.158
 2589SOL     OW 8665   1.574   6.386   0.014
 2589SOL    HW1 8666   1.526   6.420   6.957
 2589SOL    HW2 8667   1.548   6.439   0.094
 2590SOL     OW 8668   3.062   5.091   0.227
 2590SOL    HW1 8669   3.074   5.119   0.322
 2590SOL    HW2 8670   3.094   4.996   0.216
 2591SOL     OW 8671   5.612   5.475   4.038
 2591SOL    HW1 8672   5.534   5.431   4.081
 2591SOL    HW2 8673   5.697   5.443   4.081
 2592SOL     OW 8674   2.374   4.568   0.135
 2592SOL    HW1 8675   2.395   4.633   0.208
 2592SOL    HW2 8676   2.460   4.539   0.091
 2593SOL     OW 8677   3.172   4.073   0.599
 2593SOL    HW1 8678   3.228   4.113   0.527
 2593SOL    HW2 8679   3.105   4.141   0.630
 2594SOL     OW 8680   1.803   3.865   4.560
 2594SOL    HW1 8681   1.805   3.890   4.657
 2594SOL    HW2 8682   1.750   3.933   4.510
 2595SOL     OW 8683   1.466   0.620   3.593
 2595SOL    HW1 8684   1.470   0.568   3.679
 2595SOL    HW2 8685   1.482   0.559   3.516
 2596SOL     OW 8686   1.238   2.407   0.037
 2596SOL    HW1 8687   1.265   2.398   6.964
 2596SOL    HW2 8688   1.139   2.421   0.042
 2597SOL     OW 8689   6.883   6.338   6.596
 2597SOL    HW1 8690   6.796   6.346   6.644
 2597SOL    HW2 8691   6.876   6.268   6.524
 2598SOL     OW 8692   5.508   2.856   2.592
 2598SOL    HW1 8693   5.494   2.892   2.500
 2598SOL    HW2 8694   5.422   2.822   2.627
 2599SOL     OW 8695   2.680   6.487   1.759
 2599SOL    HW1 8696   2.674   6.553   1.684
 2599SOL    HW2 8697   2.673   6.535   1.846
 2600SOL     OW 8698   6.311   3.904   4.557
 2600SOL    HW1 8699   6.318   3.949   4.646
 2600SOL    HW2 8700   6.345   3.966   4.486
 2601SOL     OW 8701   0.626   2.333   3.425
 2601SOL    HW1 8702   0.571   2.397   3.372
 2601SOL    HW2 8703   0.650   2.255   3.368
 2602SOL     OW 8704   1.505   5.581   3.812
 2602SOL    HW1 8705   1.568   5.505   3.797
 2602SOL    HW2 8706   1.439   5.556   3.883
 2603SOL     OW 8707   3.159   0.322   2.910
 2603SOL    HW1 8708   3.136   0.388   2.981
 2603SOL    HW2 8709   3.099   0.333   2.831
 2604SOL     OW 8710   4.353   2.334   3.010
 2604SOL    HW1 8711   4.254   2.322   3.018
 2604SOL    HW2 8712   4.387   2.276   2.936
 2605SOL     OW 8713   1.749   3.420   1.895
 2605SOL    HW1 8714   1.655   3.439   1.870
 2605SOL    HW2 8715   1.806   3.499   1.876
 2606SOL     OW 8716   4.230   3.608   1.033
 2606SOL    HW1 8717   4.169   3.562   1.098
 2606SOL    HW2 8718   4.270   3.688   1.077
 2607SOL     OW 8719   2.755   1.690   1.125
 2607SOL    HW1 8720   2.748   1.665   1.221
 2607SOL    HW2 8721   2.824   1.762   1.114
 2608SOL     OW 8722   2.304   5.638   6.018
 2608SOL    HW1 8723   2.315   5.669   5.924
 2608SOL    HW2 8724   2.383   5.666   6.073
 2609SOL     OW 8725   6.949   1.140   1.114
 2609SOL    HW1 8726   6.902   1.207   1.171
 2609SOL    HW2 8727   0.015   1.119   1.153
 2610SOL     OW 8728   1.392   4.726   4.813
 2610SOL    HW1 8729   1.471   4.724   4.874
 2610SOL    HW2 8730   1.328   4.654   4.839
 2611SOL     OW 8731   5.532   6.945   6.568
 2611SOL    HW1 8732   5.442   6.966   6.529
 2611SOL    HW2 8733   5.544   6.846   6.571
 2612SOL     OW 8734   6.131   7.020   5.650
 2612SOL    HW1 8735   6.056   6.991   5.709
 2612SOL    HW2 8736   6.174   0.078   5.689
 2613SOL     OW 8737   1.041   5.851   0.151
 2613SOL    HW1 8738   1.066   5.755   0.138
 2613SOL    HW2 8739   1.121   5.909   0.138
 2614SOL     OW 8740   6.956   1.270   6.856
 2614SOL    HW1 8741   6.926   1.365   6.868
 2614SOL    HW2 8742   6.985   1.256   6.762
 2615SOL     OW 8743   0.969   3.142   0.450
 2615SOL    HW1 8744   1.055   3.093   0.431
 2615SOL    HW2 8745   0.917   3.091   0.518
 2616SOL     OW 8746   1.645   0.294   5.446
 2616SOL    HW1 8747   1.605   0.217   5.495
 2616SOL    HW2 8748   1.588   0.318   5.368
 2617SOL     OW 8749   5.470   0.181   1.144
 2617SOL    HW1 8750   5.556   0.215   1.106
 2617SOL    HW2 8751   5.472   0.187   1.244
 2618SOL     OW 8752   1.219   6.780   6.307
 2618SOL    HW1 8753   1.200   6.718   6.231
 2618SOL    HW2 8754   1.148   6.850   6.311
 2619SOL     OW 8755   4.572   1.420   2.534
 2619SOL    HW1 8756   4.614   1.348   2.589
 2619SOL    HW2 8757   4.630   1.440   2.455
 2620SOL     OW 8758   6.451   0.412   1.114
 2620SOL    HW1 8759   6.455   0.487   1.048
 2620SOL    HW2 8760   6.521   0.344   1.091
 2621SOL     OW 8761   1.615   6.291   1.943
 2621SOL    HW1 8762   1.639   6.205   1.898
 2621SOL    HW2 8763   1.629   6.282   2.042
 2622SOL     OW 8764   3.620   3.233   6.368
 2622SOL    HW1 8765   3.611   3.136   6.388
 2622SOL    HW2 8766   3.542   3.283   6.405
 2623SOL     OW 8767   0.738   6.733   3.307
 2623SOL    HW1 8768   0.767   6.640   3.330
 2623SOL    HW2 8769   0.769   6.756   3.215
 2624SOL     OW 8770   0.186   2.022   4.742
 2624SOL    HW1 8771   0.210   1.958   4.669
 2624SOL    HW2 8772   0.088   2.040   4.739
 2625SOL     OW 8773   2.083   5.430   6.503
 2625SOL    HW1 8774   2.055   5.354   6.562
 2625SOL    HW2 8775   2.043   5.419   6.413
 2626SOL     OW 8776   6.811   5.211   6.347
 2626SOL    HW1 8777   6.738   5.256   6.297
 2626SOL    HW2 8778   6.833   5.263   6.430
 2627SOL     OW 8779   2.093   6.935   5.578
 2627SOL    HW1 8780   2.060   6.976   5.493
 2627SOL    HW2 8781   2.169   6.989   5.614
 2628SOL     OW 8782   0.303   5.187   2.382
 2628SOL    HW1 8783   0.280   5.198   2.285
 2628SOL    HW2 8784   0.278   5.095   2.412
 2629SOL     OW 8785   3.382   3.816   3.259
 2629SOL    HW1 8786   3.335   3.829   3.346
 2629SOL    HW2 8787   3.481   3.827   3.273
 2630SOL     OW 8788   3.807   0.627   3.638
 2630SOL    HW1 8789   3.715   0.615   3.676
 2630SOL    HW2 8790   3.861   0.684   3.699
 2631SOL     OW 8791   6.047   0.669   0.036
 2631SOL    HW1 8792   6.020   0.752   0.086
 2631SOL    HW2 8793   5.983   0.653   6.984
 2632SOL     OW 8794   5.475   4.122   2.318
 2632SOL    HW1 8795   5.389   4.082   2.286
 2632SOL    HW2 8796   5.514   4.065   2.390
 2633SOL     OW 8797   0.074   3.024   5.745
 2633SOL    HW1 8798   0.167   3.001   5.717
 2633SOL    HW2 8799   0.025   2.940   5.769
 2634SOL     OW 8800   0.054   1.193   5.923
 2634SOL    HW1 8801   0.033   1.100   5.892
 2634SOL    HW2 8802   6.998   1.232   5.971
 2635SOL     OW 8803   5.565   5.116   3.587
 2635SOL    HW1 8804   5.539   5.164   3.503
 2635SOL    HW2 8805   5.493   5.130   3.656
 2636SOL     OW 8806   3.948   5.551   5.249
 2636SOL    HW1 8807   3.993   5.640   5.256
 2636SOL    HW2 8808   3.977   5.506   5.164
 2637SOL     OW 8809   0.506   1.861   3.726
 2637SOL    HW1 8810   0.590   1.882   3.777
 2637SOL    HW2 8811   0.528   1.801   3.649
 2638SOL     OW 8812   1.047   6.337   4.477
 2638SOL    HW1 8813   0.959   6.354   4.433
 2638SOL    HW2 8814   1.114   6.404   4.443
 2639SOL     OW 8815   4.047   4.724   5.258
 2639SOL    HW1 8816   3.958   4.682   5.237
 2639SOL    HW2 8817   4.033   4.810   5.306
 2640SOL     OW 8818   1.539   6.648   4.226
 2640SOL    HW1 8819   1.523   6.724   4.163
 2640SOL    HW2 8820   1.633   6.651   4.259
 2641SOL     OW 8821   5.697   3.086   6.709
 2641SOL    HW1 8822   5.738   3.155   6.650
 2641SOL    HW2 8823   5.614   3.050   6.666
 2642SOL     OW 8824   6.155   1.302   3.531
 2642SOL    HW1 8825   6.121   1.274   3.621
 2642SOL    HW2 8826   6.106   1.252   3.460
 2643SOL     OW 8827   2.352   4.885   3.898
 2643SOL    HW1 8828   2.392   4.800   3.933
 2643SOL    HW2 8829   2.347   4.952   3.971
 2644SOL     OW 8830   4.820   4.903   4.511
 2644SOL    HW1 8831   4.764   4.916   4.594
 2644SOL    HW2 8832   4.761   4.874   4.436
 2645SOL     OW 8833   5.068   5.350   3.171
 2645SOL    HW1 8834   5.109   5.388   3.087
 2645SOL    HW2 8835   5.138   5.301   3.223
 2646SOL     OW 8836   0.570   2.798   6.776
 2646SOL    HW1 8837   0.490   2.776   6.721
 2646SOL    HW2 8838   0.653   2.784   6.721
 2647SOL     OW 8839   5.270   0.601   1.657
 2647SOL    HW1 8840   5.209   0.553   1.721
 2647SOL    HW2 8841   5.348   0.543   1.636
 2648SOL     OW 8842   0.994   0.352   6.410
 2648SOL    HW1 8843   1.001   0.278   6.343
 2648SOL    HW2 8844   1.035   0.323   6.496
 2649SOL     OW 8845   5.022   2.296   1.826
 2649SOL    HW1 8846   5.012   2.206   1.784
 2649SOL    HW2 8847   5.091   2.349   1.776
 2650SOL     OW 8848   2.592   6.409   4.351
 2650SOL    HW1 8849   2.692   6.410   4.348
 2650SOL    HW2 8850   2.557   6.483   4.293
 2651SOL     OW 8851   4.159   2.278   4.310
 2651SOL    HW1 8852   4.176   2.312   4.403
 2651SOL    HW2 8853   4.197   2.343   4.244
 2652SOL     OW 8854   5.020   4.047   5.451
 2652SOL    HW1 8855   5.100   3.997   5.419
 2652SOL    HW2 8856   5.046   4.109   5.525
 2653SOL     OW 8857   2.313   5.171   0.169
 2653SOL    HW1 8858   2.261   5.217   0.242
 2653SOL    HW2 8859   2.347   5.239   0.104
 2654SOL     OW 8860   6.627   1.323   7.003
 2654SOL    HW1 8861   6.713   1.351   6.959
 2654SOL    HW2 8862   6.617   1.372   0.066
 2655SOL     OW 8863   4.625   6.242   2.474
 2655SOL    HW1 8864   4.586   6.170   2.531
 2655SOL    HW2 8865   4.573   6.327   2.487
 2656SOL     OW 8866   3.938   6.166   2.935
 2656SOL    HW1 8867   3.926   6.072   2.969
 2656SOL    HW2 8868   4.027   6.200   2.963
 2657SOL     OW 8869   0.558   4.049   0.409
 2657SOL    HW1 8870   0.593   4.044   0.315
 2657SOL    HW2 8871   0.527   3.959   0.438
 2658SOL     OW 8872   3.482   5.619   6.983
 2658SOL    HW1 8873   3.582   5.627   6.979
 2658SOL    HW2 8874   3.442   5.706   7.009
 2659SOL     OW 8875   0.114   2.234   5.067
 2659SOL    HW1 8876   0.202   2.195   5.042
 2659SOL    HW2 8877   0.093   2.311   5.006
 2660SOL     OW 8878   0.371   1.901   2.185
 2660SOL    HW1 8879   0.312   1.823   2.204
 2660SOL    HW2 8880   0.330   1.984   2.223
 2661SOL     OW 8881   2.002   1.289   0.887
 2661SOL    HW1 8882   1.944   1.317   0.963
 2661SOL    HW2 8883   2.034   1.195   0.902
 2662SOL     OW 8884   2.849   1.161   2.080
 2662SOL    HW1 8885   2.839   1.260   2.082
 2662SOL    HW2 8886   2.803   1.124   2.000
 2663SOL     OW 8887   4.081   6.192   6.991
 2663SOL    HW1 8888   4.011   6.263   7.001
 2663SOL    HW2 8889   4.115   6.165   0.058
 2664SOL     OW 8890   4.351   3.858   5.727
 2664SOL    HW1 8891   4.287   3.858   5.804
 2664SOL    HW2 8892   4.341   3.943   5.675
 2665SOL     OW 8893   1.991   4.146   4.548
 2665SOL    HW1 8894   1.951   4.141   4.457
 2665SOL    HW2 8895   2.039   4.061   4.568
 2666SOL     OW 8896   2.133   3.664   2.509
 2666SOL    HW1 8897   2.231   3.651   2.517
 2666SOL    HW2 8898   2.114   3.740   2.447
 2667SOL     OW 8899   6.778   2.950   5.000
 2667SOL    HW1 8900   6.830   2.865   4.985
 2667SOL    HW2 8901   6.683   2.935   4.971
 2668SOL     OW 8902   6.292   0.655   3.577
 2668SOL    HW1 8903   6.207   0.708   3.583
 2668SOL    HW2 8904   6.348   0.690   3.502
 2669SOL     OW 8905   2.426   0.608   6.835
 2669SOL    HW1 8906   2.486   0.597   6.756
 2669SOL    HW2 8907   2.331   0.617   6.804
 2670SOL     OW 8908   0.224   6.959   0.001
 2670SOL    HW1 8909   0.265   6.871   7.003
 2670SOL    HW2 8910   0.125   6.954   7.012
 2671SOL     OW 8911   5.130   4.304   6.152
 2671SOL    HW1 8912   5.167   4.236   6.215
 2671SOL    HW2 8913   5.049   4.346   6.192
 2672SOL     OW 8914   3.469   1.016   2.055
 2672SOL    HW1 8915   3.421   1.090   2.101
 2672SOL    HW2 8916   3.449   1.020   1.957
 2673SOL     OW 8917   4.145   0.265   2.436
 2673SOL    HW1 8918   4.085   0.307   2.368
 2673SOL    HW2 8919   4.092   0.239   2.516
 2674SOL     OW 8920   0.266   5.422   2.490
 2674SOL    HW1 8921   0.350   5.463   2.526
 2674SOL    HW2 8922   0.289   5.340   2.438
 2675SOL     OW 8923   5.687   0.658   4.218
 2675SOL    HW1 8924   5.680   0.754   4.192
 2675SOL    HW2 8925   5.618   0.637   4.287
 2676SOL     OW 8926   4.042   3.597   3.120
 2676SOL    HW1 8927   4.040   3.509   3.166
 2676SOL    HW2 8928   4.101   3.660   3.171
 2677SOL     OW 8929   2.505   5.179   1.243
 2677SOL    HW1 8930   2.500   5.111   1.170
 2677SOL    HW2 8931   2.581   5.241   1.226
 2678SOL     OW 8932   4.225   1.871   3.176
 2678SOL    HW1 8933   4.292   1.797   3.180
 2678SOL    HW2 8934   4.269   1.958   3.199
 2679SOL     OW 8935   2.096   3.568   3.052
 2679SOL    HW1 8936   1.998   3.565   3.035
 2679SOL    HW2 8937   2.145   3.518   2.980
 2680SOL     OW 8938   6.092   1.577   0.147
 2680SOL    HW1 8939   6.176   1.578   0.094
 2680SOL    HW2 8940   6.055   1.669   0.154
 2681SOL     OW 8941   2.105   1.857   4.742
 2681SOL    HW1 8942   2.117   1.939   4.798
 2681SOL    HW2 8943   2.194   1.817   4.721
 2682SOL     OW 8944   4.126   4.051   1.694
 2682SOL    HW1 8945   4.114   3.966   1.745
 2682SOL    HW2 8946   4.222   4.062   1.670
 2683SOL     OW 8947   2.447   4.452   2.024
 2683SOL    HW1 8948   2.455   4.551   2.031
 2683SOL    HW2 8949   2.416   4.415   2.112
 2684SOL     OW 8950   6.782   6.578   3.744
 2684SOL    HW1 8951   6.757   6.640   3.670
 2684SOL    HW2 8952   6.748   6.486   3.724
 2685SOL     OW 8953   1.269   5.804   5.650
 2685SOL    HW1 8954   1.369   5.811   5.647
 2685SOL    HW2 8955   1.242   5.738   5.720
 2686SOL     OW 8956   0.052   1.543   5.153
 2686SOL    HW1 8957   7.006   1.574   5.217
 2686SOL    HW2 8958   0.116   1.482   5.200
 2687SOL     OW 8959   4.185   1.957   1.463
 2687SOL    HW1 8960   4.239   1.950   1.547
 2687SOL    HW2 8961   4.088   1.950   1.485
 2688SOL     OW 8962   3.743   2.970   6.166
 2688SOL    HW1 8963   3.728   3.068   6.178
 2688SOL    HW2 8964   3.763   2.950   6.070
 2689SOL     OW 8965   1.634   4.218   3.216
 2689SOL    HW1 8966   1.687   4.147   3.261
 2689SOL    HW2 8967   1.695   4.293   3.190
 2690SOL     OW 8968   3.982   1.465   5.393
 2690SOL    HW1 8969   3.954   1.492   5.485
 2690SOL    HW2 8970   4.056   1.398   5.398
 2691SOL     OW 8971   6.659   3.797   4.654
 2691SOL    HW1 8972   6.622   3.710   4.625
 2691SOL    HW2 8973   6.620   3.822   4.743
 2692SOL     OW 8974   2.224   6.005   2.230
 2692SOL    HW1 8975   2.140   6.040   2.272
 2692SOL    HW2 8976   2.290   6.080   2.222
 2693SOL     OW 8977   1.213   6.184   2.917
 2693SOL    HW1 8978   1.133   6.154   2.968
 2693SOL    HW2 8979   1.280   6.109   2.913
 2694SOL     OW 8980   3.058   0.663   2.771
 2694SOL    HW1 8981   3.014   0.596   2.830
 2694SOL    HW2 8982   2.997   0.741   2.757
 2695SOL     OW 8983   6.949   6.013   3.465
 2695SOL    HW1 8984   6.981   6.009   3.371
 2695SOL    HW2 8985   0.003   6.029   3.526
 2696SOL     OW 8986   5.254   4.550   6.079
 2696SOL    HW1 8987   5.317   4.579   6.151
 2696SOL    HW2 8988   5.208   4.466   6.107
 2697SOL     OW 8989   4.265   2.607   6.682
 2697SOL    HW1 8990   4.324   2.646   6.753
 2697SOL    HW2 8991   4.312   2.532   6.636
 2698SOL     OW 8992   1.658   5.050   5.692
 2698SOL    HW1 8993   1.664   4.952   5.712
 2698SOL    HW2 8994   1.663   5.102   5.778
 2699SOL     OW 8995   2.901   6.299   1.774
 2699SOL    HW1 8996   2.961   6.362   1.823
 2699SOL    HW2 8997   2.810   6.339   1.766
 2700SOL     OW 8998   3.569   1.760   1.749
 2700SOL    HW1 8999   3.583   1.686   1.684
 2700SOL    HW2 9000   3.472   1.765   1.774
 2701SOL     OW 9001   5.404   3.094   5.000
 2701SOL    HW1 9002   5.425   2.999   5.022
 2701SOL    HW2 9003   5.454   3.155   5.061
 2702SOL     OW 9004   2.740   0.744   4.589
 2702SOL    HW1 9005   2.810   0.717   4.656
 2702SOL    HW2 9006   2.769   0.828   4.542
 2703SOL     OW 9007   2.105   6.890   2.692
 2703SOL    HW1 9008   2.077   6.984   2.673
 2703SOL    HW2 9009   2.197   6.890   2.730
 2704SOL     OW 9010   5.329   0.629   3.555
 2704SOL    HW1 9011   5.246   0.574   3.547
 2704SOL    HW2 9012   5.380   0.600   3.636
 2705SOL     OW 9013   0.215   0.763   5.471
 2705SOL    HW1 9014   0.155   0.684   5.462
 2705SOL    HW2 9015   0.202   0.805   5.561
 2706SOL     OW 9016   6.945   3.779   3.710
 2706SOL    HW1 9017   7.017   3.835   3.669
 2706SOL    HW2 9018   6.958   3.684   3.684
 2707SOL     OW 9019   4.352   1.432   2.924
 2707SOL    HW1 9020   4.435   1.382   2.948
 2707SOL    HW2 9021   4.377   1.522   2.888
 2708SOL     OW 9022   5.689   3.795   6.201
 2708SOL    HW1 9023   5.725   3.705   6.177
 2708SOL    HW2 9024   5.736   3.865   6.148
 2709SOL     OW 9025   5.070   1.701   5.418
 2709SOL    HW1 9026   5.038   1.607   5.404
 2709SOL    HW2 9027   5.035   1.736   5.504
 2710SOL     OW 9028   0.867   2.580   4.217
 2710SOL    HW1 9029   0.941   2.600   4.280
 2710SOL    HW2 9030   0.791   2.644   4.233
 2711SOL     OW 9031   3.405   0.859   1.529
 2711SOL    HW1 9032   3.306   0.851   1.515
 2711SOL    HW2 9033   3.440   0.938   1.479
 2712SOL     OW 9034   3.514   6.082   2.035
 2712SOL    HW1 9035   3.568   6.030   2.101
 2712SOL    HW2 9036   3.575   6.124   1.968
 2713SOL     OW 9037   3.827   4.818   5.788
 2713SOL    HW1 9038   3.893   4.893   5.792
 2713SOL    HW2 9039   3.764   4.826   5.865
 2714SOL     OW 9040   3.118   4.770   6.394
 2714SOL    HW1 9041   3.161   4.697   6.340
 2714SOL    HW2 9042   3.189   4.827   6.435
 2715SOL     OW 9043   4.221   0.977   6.954
 2715SOL    HW1 9044   4.121   0.970   6.963
 2715SOL    HW2 9045   4.254   1.055   7.006
 2716SOL     OW 9046   4.115   1.381   2.777
 2716SOL    HW1 9047   4.128   1.342   2.686
 2716SOL    HW2 9048   4.204   1.406   2.816
 2717SOL     OW 9049   0.481   1.203   2.507
 2717SOL    HW1 9050   0.475   1.145   2.426
 2717SOL    HW2 9051   0.480   1.146   2.589
 2718SOL     OW 9052   7.003   0.766   6.132
 2718SOL    HW1 9053   6.946   0.821   6.071
 2718SOL    HW2 9054   0.076   0.795   6.122
 2719SOL     OW 9055   1.737   4.527   2.662
 2719SOL    HW1 9056   1.772   4.568   2.745
 2719SOL    HW2 9057   1.792   4.557   2.584
 2720SOL     OW 9058   2.468   6.400   6.630
 2720SOL    HW1 9059   2.441   6.474   6.692
 2720SOL    HW2 9060   2.550   6.354   6.666
 2721SOL     OW 9061   3.365   6.295   1.811
 2721SOL    HW1 9062   3.304   6.319   1.887
 2721SOL    HW2 9063   3.445   6.355   1.812
 2722SOL     OW 9064   4.433   6.029   6.753
 2722SOL    HW1 9065   4.504   6.025   6.824
 2722SOL    HW2 9066   4.445   5.953   6.690
 2723SOL     OW 9067   3.467   6.279   6.253
 2723SOL    HW1 9068   3.458   6.370   6.211
 2723SOL    HW2 9069   3.521   6.220   6.192
 2724SOL     OW 9070   0.742   6.536   0.717
 2724SOL    HW1 9071   0.660   6.584   0.748
 2724SOL    HW2 9072   0.794   6.503   0.796
 2725SOL     OW 9073   6.167   3.926   5.017
 2725SOL    HW1 9074   6.071   3.903   5.007
 2725SOL    HW2 9075   6.191   3.926   5.114
 2726SOL     OW 9076   6.009   2.032   2.357
 2726SOL    HW1 9077   5.934   2.098   2.359
 2726SOL    HW2 9078   5.991   1.963   2.287
 2727SOL     OW 9079   1.395   5.117   3.716
 2727SOL    HW1 9080   1.454   5.049   3.672
 2727SOL    HW2 9081   1.389   5.199   3.659
 2728SOL     OW 9082   5.207   5.103   5.130
 2728SOL    HW1 9083   5.287   5.163   5.124
 2728SOL    HW2 9084   5.216   5.042   5.208
 2729SOL     OW 9085   5.311   0.012   6.424
 2729SOL    HW1 9086   5.287   6.984   6.341
 2729SOL    HW2 9087   5.230   0.060   6.458
 2730SOL     OW 9088   1.307   5.994   1.982
 2730SOL    HW1 9089   1.292   5.905   1.938
 2730SOL    HW2 9090   1.237   6.009   2.051
 2731SOL     OW 9091   3.540   3.971   4.116
 2731SOL    HW1 9092   3.600   3.893   4.097
 2731SOL    HW2 9093   3.589   4.038   4.171
 2732SOL     OW 9094   5.627   0.635   1.763
 2732SOL    HW1 9095   5.560   0.589   1.704
 2732SOL    HW2 9096   5.688   0.691   1.707
 2733SOL     OW 9097   1.536   6.922   6.737
 2733SOL    HW1 9098   1.454   6.971   6.766
 2733SOL    HW2 9099   1.580   6.972   6.662
 2734SOL     OW 9100   3.043   6.441   2.334
 2734SOL    HW1 9101   3.093   6.355   2.329
 2734SOL    HW2 9102   3.047   6.487   2.246
 2735SOL     OW 9103   0.638   1.480   2.202
 2735SOL    HW1 9104   0.538   1.481   2.203
 2735SOL    HW2 9105   0.673   1.441   2.287
 2736SOL     OW 9106   5.563   4.481   2.833
 2736SOL    HW1 9107   5.491   4.486   2.902
 2736SOL    HW2 9108   5.631   4.414   2.860
 2737SOL     OW 9109   2.936   0.644   5.122
 2737SOL    HW1 9110   2.960   0.730   5.166
 2737SOL    HW2 9111   2.848   0.611   5.157
 2738SOL     OW 9112   5.029   6.251   1.699
 2738SOL    HW1 9113   4.998   6.195   1.776
 2738SOL    HW2 9114   4.954   6.264   1.634
 2739SOL     OW 9115   6.683   5.964   1.667
 2739SOL    HW1 9116   6.767   5.953   1.721
 2739SOL    HW2 9117   6.604   5.960   1.727
 2740SOL     OW 9118   6.648   5.652   3.673
 2740SOL    HW1 9119   6.710   5.725   3.643
 2740SOL    HW2 9120   6.701   5.568   3.690
 2741SOL     OW 9121   1.562   1.145   5.628
 2741SOL    HW1 9122   1.559   1.242   5.653
 2741SOL    HW2 9123   1.497   1.094   5.683
 2742SOL     OW 9124   3.274   6.005   1.572
 2742SOL    HW1 9125   3.226   6.089   1.549
 2742SOL    HW2 9126   3.281   5.996   1.671
 2743SOL     OW 9127   5.732   2.992   2.406
 2743SOL    HW1 9128   5.694   3.082   2.383
 2743SOL    HW2 9129   5.743   2.938   2.323
 2744SOL     OW 9130   3.214   3.795   2.675
 2744SOL    HW1 9131   3.266   3.847   2.608
 2744SOL    HW2 9132   3.259   3.708   2.693
 2745SOL     OW 9133   0.619   6.719   0.364
 2745SOL    HW1 9134   0.597   6.790   0.297
 2745SOL    HW2 9135   0.708   6.679   0.341
 2746SOL     OW 9136   0.713   1.299   3.628
 2746SOL    HW1 9137   0.711   1.273   3.532
 2746SOL    HW2 9138   0.794   1.355   3.646
 2747SOL     OW 9139   3.842   4.745   0.717
 2747SOL    HW1 9140   3.814   4.841   0.708
 2747SOL    HW2 9141   3.910   4.737   0.789
 2748SOL     OW 9142   3.914   6.547   0.938
 2748SOL    HW1 9143   3.884   6.640   0.955
 2748SOL    HW2 9144   3.841   6.496   0.891
 2749SOL     OW 9145   3.590   2.743   0.115
 2749SOL    HW1 9146   3.562   2.763   0.209
 2749SOL    HW2 9147   3.509   2.733   0.057
 2750SOL     OW 9148   2.787   6.009   1.935
 2750SOL    HW1 9149   2.877   6.019   1.976
 2750SOL    HW2 9150   2.726   6.080   1.971
 2751SOL     OW 9151   5.706   3.960   1.094
 2751SOL    HW1 9152   5.794   4.007   1.104
 2751SOL    HW2 9153   5.672   3.974   1.001
 2752SOL     OW 9154   4.482   5.192   0.064
 2752SOL    HW1 9155   4.578   5.165   0.058
 2752SOL    HW2 9156   4.432   5.155   7.009
 2753SOL     OW 9157   6.354   5.937   5.459
 2753SOL    HW1 9158   6.270   5.928   5.512
 2753SOL    HW2 9159   6.368   5.855   5.403
 2754SOL     OW 9160   1.051   6.987   6.283
 2754SOL    HW1 9161   0.996   6.912   6.245
 2754SOL    HW2 9162   1.054   0.039   6.218
 2755SOL     OW 9163   3.022   0.593   2.476
 2755SOL    HW1 9164   3.030   0.652   2.556
 2755SOL    HW2 9165   2.981   0.644   2.401
 2756SOL     OW 9166   4.610   6.115   0.674
 2756SOL    HW1 9167   4.626   6.088   0.580
 2756SOL    HW2 9168   4.516   6.094   0.700
 2757SOL     OW 9169   0.363   5.477   1.393
 2757SOL    HW1 9170   0.459   5.450   1.388
 2757SOL    HW2 9171   0.354   5.558   1.450
 2758SOL     OW 9172   4.848   0.516   5.978
 2758SOL    HW1 9173   4.758   0.485   5.950
 2758SOL    HW2 9174   4.838   0.592   6.043
 2759SOL     OW 9175   5.026   5.826   4.525
 2759SOL    HW1 9176   5.055   5.892   4.456
 2759SOL    HW2 9177   4.964   5.870   4.589
 2760SOL     OW 9178   2.658   5.643   3.054
 2760SOL    HW1 9179   2.603   5.569   3.012
 2760SOL    HW2 9180   2.689   5.614   3.144
 2761SOL     OW 9181   2.245   5.733   3.148
 2761SOL    HW1 9182   2.307   5.745   3.226
 2761SOL    HW2 9183   2.159   5.692   3.180
 2762SOL     OW 9184   1.127   6.585   4.953
 2762SOL    HW1 9185   1.203   6.520   4.947
 2762SOL    HW2 9186   1.114   6.611   5.049
 2763SOL     OW 9187   5.634   2.024   1.733
 2763SOL    HW1 9188   5.579   1.989   1.658
 2763SOL    HW2 9189   5.578   2.080   1.794
 2764SOL     OW 9190   6.207   1.271   2.030
 2764SOL    HW1 9191   6.177   1.336   2.100
 2764SOL    HW2 9192   6.163   1.182   2.046
 2765SOL     OW 9193   5.405   1.691   1.839
 2765SOL    HW1 9194   5.464   1.631   1.784
 2765SOL    HW2 9195   5.347   1.745   1.779
 2766SOL     OW 9196   5.777   1.033   2.472
 2766SOL    HW1 9197   5.685   1.070   2.464
 2766SOL    HW2 9198   5.841   1.090   2.420
 2767SOL     OW 9199   5.469   4.535   6.295
 2767SOL    HW1 9200   5.396   4.483   6.340
 2767SOL    HW2 9201   5.506   4.602   6.359
 2768SOL     OW 9202   6.047   1.394   6.669
 2768SOL    HW1 9203   6.021   1.319   6.731
 2768SOL    HW2 9204   6.078   1.472   6.723
 2769SOL     OW 9205   1.088   3.812   1.134
 2769SOL    HW1 9206   1.044   3.841   1.219
 2769SOL    HW2 9207   1.174   3.863   1.122
 2770SOL     OW 9208   6.929   5.777   1.265
 2770SOL    HW1 9209   7.001   5.757   1.198
 2770SOL    HW2 9210   6.958   5.852   1.324
 2771SOL     OW 9211   5.017   1.232   1.669
 2771SOL    HW1 9212   4.961   1.168   1.617
 2771SOL    HW2 9213   5.048   1.188   1.754
 2772SOL     OW 9214   3.275   2.811   5.886
 2772SOL    HW1 9215   3.255   2.903   5.853
 2772SOL    HW2 9216   3.373   2.803   5.906
 2773SOL     OW 9217   3.575   3.829   6.512
 2773SOL    HW1 9218   3.605   3.777   6.432
 2773SOL    HW2 9219   3.649   3.889   6.543
 2774SOL     OW 9220   5.718   3.523   2.725
 2774SOL    HW1 9221   5.794   3.582   2.700
 2774SOL    HW2 9222   5.708   3.450   2.658
 2775SOL     OW 9223   0.116   6.040   1.735
 2775SOL    HW1 9224   0.090   5.960   1.788
 2775SOL    HW2 9225   0.206   6.073   1.764
 2776SOL     OW 9226   3.072   5.626   6.311
 2776SOL    HW1 9227   3.025   5.709   6.339
 2776SOL    HW2 9228   3.072   5.560   6.387
 2777SOL     OW 9229   3.646   1.568   2.797
 2777SOL    HW1 9230   3.717   1.592   2.730
 2777SOL    HW2 9231   3.640   1.469   2.805
 2778SOL     OW 9232   2.271   1.847   5.485
 2778SOL    HW1 9233   2.351   1.814   5.535
 2778SOL    HW2 9234   2.301   1.907   5.411
 2779SOL     OW 9235   6.055   1.138   6.788
 2779SOL    HW1 9236   6.149   1.114   6.765
 2779SOL    HW2 9237   5.992   1.085   6.732
 2780SOL     OW 9238   5.098   5.218   6.799
 2780SOL    HW1 9239   5.126   5.148   6.733
 2780SOL    HW2 9240   5.082   5.175   6.888
 2781SOL     OW 9241   5.020   4.611   0.414
 2781SOL    HW1 9242   5.003   4.708   0.428
 2781SOL    HW2 9243   4.971   4.579   0.333
 2782SOL     OW 9244   2.891   2.382   6.444
 2782SOL    HW1 9245   2.810   2.328   6.421
 2782SOL    HW2 9246   2.866   2.478   6.454
 2783SOL     OW 9247   0.310   4.868   5.333
 2783SOL    HW1 9248   0.393   4.886   5.386
 2783SOL    HW2 9249   0.263   4.789   5.372
 2784SOL     OW 9250   2.014   1.632   2.254
 2784SOL    HW1 9251   2.096   1.644   2.198
 2784SOL    HW2 9252   2.030   1.670   2.345
 2785SOL     OW 9253   6.254   0.929   1.052
 2785SOL    HW1 9254   6.178   0.872   1.080
 2785SOL    HW2 9255   6.332   0.912   1.112
 2786SOL     OW 9256   3.697   6.726   1.310
 2786SOL    HW1 9257   3.793   6.752   1.305
 2786SOL    HW2 9258   3.660   6.716   1.218
 2787SOL     OW 9259   2.370   2.577   5.910
 2787SOL    HW1 9260   2.308   2.501   5.931
 2787SOL    HW2 9261   2.464   2.545   5.914
 2788SOL     OW 9262   1.163   3.729   0.761
 2788SOL    HW1 9263   1.084   3.669   0.758
 2788SOL    HW2 9264   1.139   3.819   0.723
 2789SOL     OW 9265   0.217   2.041   4.274
 2789SOL    HW1 9266   0.313   2.065   4.283
 2789SOL    HW2 9267   0.198   2.011   4.180
 2790SOL     OW 9268   3.597   5.277   3.272
 2790SOL    HW1 9269   3.566   5.188   3.305
 2790SOL    HW2 9270   3.664   5.315   3.336
 2791SOL     OW 9271   1.672   2.911   4.052
 2791SOL    HW1 9272   1.579   2.877   4.065
 2791SOL    HW2 9273   1.673   3.010   4.064
 2792SOL     OW 9274   1.072   2.141   5.487
 2792SOL    HW1 9275   1.169   2.133   5.512
 2792SOL    HW2 9276   1.041   2.055   5.448
 2793SOL     OW 9277   5.055   1.473   3.329
 2793SOL    HW1 9278   5.129   1.466   3.396
 2793SOL    HW2 9279   5.020   1.567   3.327
 2794SOL     OW 9280   0.963   0.728   1.159
 2794SOL    HW1 9281   0.889   0.777   1.206
 2794SOL    HW2 9282   1.015   0.793   1.103
 2795SOL     OW 9283   2.674   4.216   1.642
 2795SOL    HW1 9284   2.628   4.214   1.553
 2795SOL    HW2 9285   2.651   4.302   1.688
 2796SOL     OW 9286   5.481   3.941   2.524
 2796SOL    HW1 9287   5.526   3.861   2.486
 2796SOL    HW2 9288   5.518   3.962   2.614
 2797SOL     OW 9289   4.526   4.715   4.837
 2797SOL    HW1 9290   4.445   4.724   4.895
 2797SOL    HW2 9291   4.553   4.619   4.831
 2798SOL     OW 9292   1.391   3.877   4.249
 2798SOL    HW1 9293   1.466   3.831   4.297
 2798SOL    HW2 9294   1.407   3.976   4.250
 2799SOL     OW 9295   6.402   4.830   5.851
 2799SOL    HW1 9296   6.348   4.878   5.920
 2799SOL    HW2 9297   6.343   4.770   5.798
 2800SOL     OW 9298   3.167   3.786   7.015
 2800SOL    HW1 9299   3.102   3.861   0.000
 2800SOL    HW2 9300   3.194   3.776   6.919
 2801SOL     OW 9301   5.231   5.430   2.206
 2801SOL    HW1 9302   5.184   5.401   2.289
 2801SOL    HW2 9303   5.178   5.502   2.161
 2802SOL     OW 9304   4.772   1.115   5.980
 2802SOL    HW1 9305   4.871   1.122   5.990
 2802SOL    HW2 9306   4.735   1.058   6.053
 2803SOL     OW 9307   2.695   6.066   6.304
 2803SOL    HW1 9308   2.692   6.165   6.294
 2803SOL    HW2 9309   2.674   6.041   6.398
 2804SOL     OW 9310   6.963   4.487   3.352
 2804SOL    HW1 9311   6.959   4.413   3.285
 2804SOL    HW2 9312   6.875   4.494   3.399
 2805SOL     OW 9313   5.516   3.716   0.161
 2805SOL    HW1 9314   5.536   3.798   0.215
 2805SOL    HW2 9315   5.458   3.654   0.214
 2806SOL     OW 9316   6.334   5.969   3.815
 2806SOL    HW1 9317   6.302   5.889   3.865
 2806SOL    HW2 9318   6.339   5.947   3.718
 2807SOL     OW 9319   4.676   5.219   3.463
 2807SOL    HW1 9320   4.756   5.262   3.423
 2807SOL    HW2 9321   4.705   5.144   3.523
 2808SOL     OW 9322   5.233   0.326   4.360
 2808SOL    HW1 9323   5.234   0.236   4.404
 2808SOL    HW2 9324   5.150   0.375   4.385
 2809SOL     OW 9325   5.491   2.921   0.549
 2809SOL    HW1 9326   5.560   2.994   0.549
 2809SOL    HW2 9327   5.494   2.873   0.462
 2810SOL     OW 9328   1.972   0.018   5.341
 2810SOL    HW1 9329   1.927   0.107   5.337
 2810SOL    HW2 9330   2.036   0.009   5.264
 2811SOL     OW 9331   0.096   1.089   3.680
 2811SOL    HW1 9332   0.131   1.112   3.589
 2811SOL    HW2 9333   0.163   1.033   3.728
 2812SOL     OW 9334   4.983   4.069   2.451
 2812SOL    HW1 9335   4.933   4.125   2.516
 2812SOL    HW2 9336   4.960   3.973   2.465
 2813SOL     OW 9337   5.930   1.156   6.277
 2813SOL    HW1 9338   6.013   1.107   6.304
 2813SOL    HW2 9339   5.944   1.202   6.190
 2814SOL     OW 9340   4.708   3.970   5.195
 2814SOL    HW1 9341   4.705   3.895   5.261
 2814SOL    HW2 9342   4.758   4.047   5.233
 2815SOL     OW 9343   0.098   0.667   4.942
 2815SOL    HW1 9344   0.059   0.649   5.032
 2815SOL    HW2 9345   0.039   0.628   4.872
 2816SOL     OW 9346   5.660   0.008   3.330
 2816SOL    HW1 9347   5.565   0.016   3.360
 2816SOL    HW2 9348   5.717   7.003   3.406
 2817SOL     OW 9349   1.143   2.551   1.695
 2817SOL    HW1 9350   1.059   2.557   1.641
 2817SOL    HW2 9351   1.169   2.455   1.705
 2818SOL     OW 9352   0.230   4.802   5.046
 2818SOL    HW1 9353   0.260   4.795   5.141
 2818SOL    HW2 9354   0.149   4.862   5.041
 2819SOL     OW 9355   6.911   3.078   0.650
 2819SOL    HW1 9356   6.988   3.052   0.708
 2819SOL    HW2 9357   6.944   3.096   0.557
 2820SOL     OW 9358   6.379   3.208   4.450
 2820SOL    HW1 9359   6.337   3.218   4.540
 2820SOL    HW2 9360   6.472   3.244   4.452
 2821SOL     OW 9361   1.290   4.152   4.520
 2821SOL    HW1 9362   1.268   4.167   4.423
 2821SOL    HW2 9363   1.337   4.064   4.530
 2822SOL     OW 9364   4.379   1.553   0.039
 2822SOL    HW1 9365   4.351   1.599   6.977
 2822SOL    HW2 9366   4.298   1.531   0.093
 2823SOL     OW 9367   1.474   6.651   3.400
 2823SOL    HW1 9368   1.550   6.589   3.379
 2823SOL    HW2 9369   1.509   6.740   3.429
 2824SOL     OW 9370   3.258   1.496   4.750
 2824SOL    HW1 9371   3.171   1.543   4.766
 2824SOL    HW2 9372   3.302   1.535   4.669
 2825SOL     OW 9373   6.503   5.740   0.948
 2825SOL    HW1 9374   6.472   5.748   1.043
 2825SOL    HW2 9375   6.517   5.831   0.909
 2826SOL     OW 9376   5.005   2.295   4.399
 2826SOL    HW1 9377   5.087   2.254   4.358
 2826SOL    HW2 9378   5.017   2.301   4.498
 2827SOL     OW 9379   5.676   0.515   5.503
 2827SOL    HW1 9380   5.611   0.441   5.521
 2827SOL    HW2 9381   5.670   0.542   5.407
 2828SOL     OW 9382   3.555   1.599   5.277
 2828SOL    HW1 9383   3.474   1.631   5.326
 2828SOL    HW2 9384   3.636   1.612   5.333
 2829SOL     OW 9385   2.435   6.660   6.717
 2829SOL    HW1 9386   2.448   6.681   6.814
 2829SOL    HW2 9387   2.502   6.711   6.663
 2830SOL     OW 9388   3.615   3.875   0.162
 2830SOL    HW1 9389   3.548   3.801   0.163
 2830SOL    HW2 9390   3.674   3.867   0.242
 2831SOL     OW 9391   5.859   6.016   4.559
 2831SOL    HW1 9392   5.884   6.068   4.640
 2831SOL    HW2 9393   5.793   6.067   4.505
 2832SOL     OW 9394   0.157   1.064   1.929
 2832SOL    HW1 9395   0.118   1.033   1.842
 2832SOL    HW2 9396   0.243   1.016   1.946
 2833SOL     OW 9397   6.202   2.629   2.182
 2833SOL    HW1 9398   6.159   2.690   2.249
 2833SOL    HW2 9399   6.163   2.646   2.092
 2834SOL     OW 9400   3.766   1.007   5.575
 2834SOL    HW1 9401   3.670   1.027   5.556
 2834SOL    HW2 9402   3.824   1.069   5.523
 2835SOL     OW 9403   0.219   6.402   2.525
 2835SOL    HW1 9404   0.131   6.381   2.569
 2835SOL    HW2 9405   0.206   6.479   2.462
 2836SOL     OW 9406   6.724   0.853   1.360
 2836SOL    HW1 9407   6.655   0.809   1.303
 2836SOL    HW2 9408   6.814   0.842   1.317
 2837SOL     OW 9409   5.458   3.631   3.727
 2837SOL    HW1 9410   5.437   3.588   3.815
 2837SOL    HW2 9411   5.489   3.561   3.663
 2838SOL     OW 9412   3.492   5.388   2.825
 2838SOL    HW1 9413   3.404   5.346   2.801
 2838SOL    HW2 9414   3.528   5.344   2.908
 2839SOL     OW 9415   5.319   1.970   1.085
 2839SOL    HW1 9416   5.310   1.949   0.988
 2839SOL    HW2 9417   5.256   1.914   1.138
 2840SOL     OW 9418   6.679   1.564   5.169
 2840SOL    HW1 9419   6.671   1.581   5.071
 2840SOL    HW2 9420   6.646   1.644   5.220
 2841SOL     OW 9421   1.007   6.439   1.178
 2841SOL    HW1 9422   0.957   6.494   1.111
 2841SOL    HW2 9423   0.971   6.346   1.179
 2842SOL     OW 9424   6.774   3.495   3.045
 2842SOL    HW1 9425   6.693   3.508   2.987
 2842SOL    HW2 9426   6.856   3.494   2.988
 2843SOL     OW 9427   4.594   1.424   4.817
 2843SOL    HW1 9428   4.559   1.466   4.734
 2843SOL    HW2 9429   4.622   1.494   4.882
 2844SOL     OW 9430   6.992   4.098   6.034
 2844SOL    HW1 9431   6.963   4.028   5.969
 2844SOL    HW2 9432   6.998   4.058   6.126
 2845SOL     OW 9433   0.386   4.677   5.623
 2845SOL    HW1 9434   0.393   4.613   5.546
 2845SOL    HW2 9435   0.295   4.669   5.664
 2846SOL     OW 9436   4.897   1.765   6.444
 2846SOL    HW1 9437   4.974   1.704   6.424
 2846SOL    HW2 9438   4.926   1.835   6.509
 2847SOL     OW 9439   5.731   4.355   4.495
 2847SOL    HW1 9440   5.696   4.322   4.407
 2847SOL    HW2 9441   5.697   4.447   4.513
 2848SOL     OW 9442   0.935   5.241   4.083
 2848SOL    HW1 9443   0.936   5.141   4.084
 2848SOL    HW2 9444   0.964   5.276   4.172
 2849SOL     OW 9445   2.852   2.375   1.252
 2849SOL    HW1 9446   2.904   2.400   1.334
 2849SOL    HW2 9447   2.901   2.407   1.170
 2850SOL     OW 9448   3.720   1.111   0.135
 2850SOL    HW1 9449   3.658   1.033   0.140
 2850SOL    HW2 9450   3.791   1.102   0.205
 2851SOL     OW 9451   1.428   4.378   6.007
 2851SOL    HW1 9452   1.428   4.459   5.948
 2851SOL    HW2 9453   1.365   4.392   6.083
 2852SOL     OW 9454   0.219   3.474   6.474
 2852SOL    HW1 9455   0.288   3.532   6.432
 2852SOL    HW2 9456   0.259   3.426   6.553
 2853SOL     OW 9457   3.376   3.665   0.903
 2853SOL    HW1 9458   3.336   3.682   0.994
 2853SOL    HW2 9459   3.332   3.724   0.836
 2854SOL     OW 9460   2.283   1.596   3.540
 2854SOL    HW1 9461   2.362   1.639   3.497
 2854SOL    HW2 9462   2.199   1.628   3.497
 2855SOL     OW 9463   2.711   0.919   4.978
 2855SOL    HW1 9464   2.684   0.998   4.922
 2855SOL    HW2 9465   2.748   0.847   4.919
 2856SOL     OW 9466   2.269   2.788   5.127
 2856SOL    HW1 9467   2.275   2.881   5.090
 2856SOL    HW2 9468   2.351   2.768   5.180
 2857SOL     OW 9469   3.190   3.311   2.014
 2857SOL    HW1 9470   3.264   3.270   2.068
 2857SOL    HW2 9471   3.191   3.410   2.025
 2858SOL     OW 9472   6.979   3.531   2.874
 2858SOL    HW1 9473   0.042   3.501   2.916
 2858SOL    HW2 9474   6.989   3.624   2.839
 2859SOL     OW 9475   5.933   6.794   0.369
 2859SOL    HW1 9476   5.881   6.798   0.284
 2859SOL    HW2 9477   5.965   6.886   0.393
 2860SOL     OW 9478   4.270   1.337   1.810
 2860SOL    HW1 9479   4.340   1.360   1.877
 2860SOL    HW2 9480   4.259   1.238   1.806
 2861SOL     OW 9481   3.574   5.792   5.651
 2861SOL    HW1 9482   3.537   5.792   5.558
 2861SOL    HW2 9483   3.674   5.795   5.647
 2862SOL     OW 9484   5.733   1.316   4.374
 2862SOL    HW1 9485   5.726   1.408   4.412
 2862SOL    HW2 9486   5.705   1.249   4.443
 2863SOL     OW 9487   6.548   2.315   6.607
 2863SOL    HW1 9488   6.465   2.298   6.660
 2863SOL    HW2 9489   6.614   2.242   6.625
 2864SOL     OW 9490   3.641   1.547   0.409
 2864SOL    HW1 9491   3.594   1.472   0.362
 2864SOL    HW2 9492   3.605   1.554   0.503
 2865SOL     OW 9493   4.557   4.653   5.122
 2865SOL    HW1 9494   4.566   4.698   5.034
 2865SOL    HW2 9495   4.483   4.586   5.119
 2866SOL     OW 9496   0.277   6.709   6.706
 2866SOL    HW1 9497   0.254   6.625   6.657
 2866SOL    HW2 9498   0.192   6.754   6.736
 2867SOL     OW 9499   6.764   4.285   4.127
 2867SOL    HW1 9500   6.700   4.208   4.131
 2867SOL    HW2 9501   6.767   4.320   4.033
 2868SOL     OW 9502   1.635   4.225   5.499
 2868SOL    HW1 9503   1.729   4.215   5.468
 2868SOL    HW2 9504   1.572   4.196   5.427
 2869SOL     OW 9505   5.970   1.167   2.300
 2869SOL    HW1 9506   6.032   1.128   2.233
 2869SOL    HW2 9507   5.943   1.259   2.270
 2870SOL     OW 9508   5.759   2.237   2.372
 2870SOL    HW1 9509   5.766   2.220   2.470
 2870SOL    HW2 9510   5.801   2.325   2.350
 2871SOL     OW 9511   1.370   1.966   6.445
 2871SOL    HW1 9512   1.378   1.870   6.417
 2871SOL    HW2 9513   1.428   2.023   6.386
 2872SOL     OW 9514   2.468   0.149   3.604
 2872SOL    HW1 9515   2.524   0.066   3.601
 2872SOL    HW2 9516   2.422   0.162   3.516
 2873SOL     OW 9517   0.586   5.296   1.458
 2873SOL    HW1 9518   0.631   5.359   1.521
 2873SOL    HW2 9519   0.543   5.222   1.510
 2874SOL     OW 9520   5.815   2.183   2.630
 2874SOL    HW1 9521   5.825   2.084   2.642
 2874SOL    HW2 9522   5.888   2.229   2.680
 2875SOL     OW 9523   3.382   4.868   6.448
 2875SOL    HW1 9524   3.456   4.922   6.409
 2875SOL    HW2 9525   3.409   4.771   6.451
 2876SOL     OW 9526   0.004   1.137   1.636
 2876SOL    HW1 9527   6.958   1.066   1.628
 2876SOL    HW2 9528   7.018   1.202   1.560
 2877SOL     OW 9529   2.971   2.941   5.857
 2877SOL    HW1 9530   2.925   2.855   5.877
 2877SOL    HW2 9531   2.929   3.015   5.911
 2878SOL     OW 9532   2.713   4.622   6.045
 2878SOL    HW1 9533   2.691   4.706   5.995
 2878SOL    HW2 9534   2.812   4.608   6.043
 2879SOL     OW 9535   5.272   4.686   0.498
 2879SOL    HW1 9536   5.271   4.673   0.597
 2879SOL    HW2 9537   5.186   4.653   0.459
 2880SOL     OW 9538   1.351   6.254   1.233
 2880SOL    HW1 9539   1.415   6.193   1.187
 2880SOL    HW2 9540   1.294   6.300   1.165
 2881SOL     OW 9541   0.053   6.644   0.710
 2881SOL    HW1 9542   7.005   6.580   0.682
 2881SOL    HW2 9543   0.108   6.670   0.630
 2882SOL     OW 9544   0.224   3.028   3.607
 2882SOL    HW1 9545   0.269   2.958   3.551
 2882SOL    HW2 9546   0.137   2.992   3.641
 2883SOL     OW 9547   3.751   7.003   2.114
 2883SOL    HW1 9548   3.810   6.961   2.183
 2883SOL    HW2 9549   3.716   6.932   2.053
 2884SOL     OW 9550   1.016   6.077   3.078
 2884SOL    HW1 9551   0.961   6.151   3.115
 2884SOL    HW2 9552   1.083   6.047   3.146
 2885SOL     OW 9553   0.811   2.933   3.606
 2885SOL    HW1 9554   0.865   2.850   3.625
 2885SOL    HW2 9555   0.793   2.939   3.508
 2886SOL     OW 9556   2.479   2.196   6.348
 2886SOL    HW1 9557   2.469   2.134   6.270
 2886SOL    HW2 9558   2.561   2.172   6.399
 2887SOL     OW 9559   1.609   0.430   5.049
 2887SOL    HW1 9560   1.692   0.378   5.026
 2887SOL    HW2 9561   1.551   0.436   4.968
 2888SOL     OW 9562   6.114   4.917   7.018
 2888SOL    HW1 9563   6.138   4.940   0.089
 2888SOL    HW2 9564   6.081   4.999   6.971
 2889SOL     OW 9565   0.123   0.163   1.627
 2889SOL    HW1 9566   0.183   0.103   1.680
 2889SOL    HW2 9567   0.028   0.137   1.645
 2890SOL     OW 9568   4.243   0.294   1.523
 2890SOL    HW1 9569   4.226   0.393   1.517
 2890SOL    HW2 9570   4.297   0.265   1.444
 2891SOL     OW 9571   2.704   4.684   3.785
 2891SOL    HW1 9572   2.759   4.614   3.830
 2891SOL    HW2 9573   2.667   4.647   3.700
 2892SOL     OW 9574   4.721   3.931   6.099
 2892SOL    HW1 9575   4.667   3.852   6.125
 2892SOL    HW2 9576   4.713   3.945   6.000
 2893SOL     OW 9577   2.516   0.028   5.437
 2893SOL    HW1 9578   2.536   0.050   5.341
 2893SOL    HW2 9579   2.469   0.104   5.480
 2894SOL     OW 9580   3.877   2.934   0.180
 2894SOL    HW1 9581   3.944   2.861   0.188
 2894SOL    HW2 9582   3.878   2.990   0.263
 2895SOL     OW 9583   3.691   3.612   6.337
 2895SOL    HW1 9584   3.688   3.570   6.428
 2895SOL    HW2 9585   3.761   3.566   6.282
 2896SOL     OW 9586   2.812   4.812   0.968
 2896SOL    HW1 9587   2.911   4.822   0.959
 2896SOL    HW2 9588   2.782   4.731   0.917
 2897SOL     OW 9589   1.782   5.815   3.966
 2897SOL    HW1 9590   1.832   5.760   4.033
 2897SOL    HW2 9591   1.845   5.875   3.918
 2898SOL     OW 9592   3.440   5.324   1.876
 2898SOL    HW1 9593   3.365   5.369   1.827
 2898SOL    HW2 9594   3.500   5.394   1.916
 2899SOL     OW 9595   6.810   6.732   0.080
 2899SOL    HW1 9596   6.770   6.647   0.115
 2899SOL    HW2 9597   6.755   6.810   0.108
 2900SOL     OW 9598   2.006   5.462   5.223
 2900SOL    HW1 9599   2.087   5.517   5.245
 2900SOL    HW2 9600   1.924   5.514   5.244
 2901SOL     OW 9601   2.728   1.049   1.855
 2901SOL    HW1 9602   2.750   0.951   1.852
 2901SOL    HW2 9603   2.633   1.062   1.828
 2902SOL     OW 9604   5.644   6.022   1.064
 2902SOL    HW1 9605   5.728   6.070   1.087
 2902SOL    HW2 9606   5.663   5.925   1.052
 2903SOL     OW 9607   2.080   1.634   1.569
 2903SOL    HW1 9608   2.138   1.621   1.649
 2903SOL    HW2 9609   1.998   1.685   1.596
 2904SOL     OW 9610   2.095   2.886   4.785
 2904SOL    HW1 9611   2.187   2.873   4.822
 2904SOL    HW2 9612   2.039   2.806   4.808
 2905SOL     OW 9613   2.027   2.267   2.263
 2905SOL    HW1 9614   2.034   2.238   2.168
 2905SOL    HW2 9615   1.950   2.220   2.307
 2906SOL     OW 9616   5.915   5.610   2.337
 2906SOL    HW1 9617   5.930   5.621   2.435
 2906SOL    HW2 9618   5.830   5.654   2.311
 2907SOL     OW 9619   6.338   1.388   3.980
 2907SOL    HW1 9620   6.386   1.410   3.895
 2907SOL    HW2 9621   6.279   1.309   3.966
 2908SOL     OW 9622   3.398   6.059   4.636
 2908SOL    HW1 9623   3.385   5.960   4.642
 2908SOL    HW2 9624   3.450   6.090   4.716
 2909SOL     OW 9625   1.435   5.791   4.798
 2909SOL    HW1 9626   1.465   5.784   4.703
 2909SOL    HW2 9627   1.455   5.706   4.847
 2910SOL     OW 9628   5.285   5.895   6.523
 2910SOL    HW1 9629   5.262   5.798   6.518
 2910SOL    HW2 9630   5.383   5.904   6.540
 2911SOL     OW 9631   1.982   4.252   3.121
 2911SOL    HW1 9632   2.081   4.262   3.107
 2911SOL    HW2 9633   1.954   4.159   3.099
 2912SOL     OW 9634   2.606   6.161   0.641
 2912SOL    HW1 9635   2.549   6.090   0.601
 2912SOL    HW2 9636   2.550   6.240   0.665
 2913SOL     OW 9637   1.338   3.889   3.136
 2913SOL    HW1 9638   1.305   3.830   3.210
 2913SOL    HW2 9639   1.435   3.868   3.118
 2914SOL     OW 9640   5.758   5.308   5.862
 2914SOL    HW1 9641   5.756   5.389   5.921
 2914SOL    HW2 9642   5.697   5.322   5.784
 2915SOL     OW 9643   4.759   1.497   3.566
 2915SOL    HW1 9644   4.792   1.551   3.489
 2915SOL    HW2 9645   4.827   1.497   3.639
 2916SOL     OW 9646   5.538   6.038   5.101
 2916SOL    HW1 9647   5.444   6.071   5.112
 2916SOL    HW2 9648   5.555   6.018   5.004
 2917SOL     OW 9649   4.570   0.324   2.409
 2917SOL    HW1 9650   4.513   0.396   2.369
 2917SOL    HW2 9651   4.666   0.348   2.398
 2918SOL     OW 9652   0.317   4.025   3.770
 2918SOL    HW1 9653   0.386   4.044   3.700
 2918SOL    HW2 9654   0.234   4.076   3.749
 2919SOL     OW 9655   6.460   5.728   0.123
 2919SOL    HW1 9656   6.463   5.656   0.192
 2919SOL    HW2 9657   6.379   5.716   0.065
 2920SOL     OW 9658   4.280   2.339   3.428
 2920SOL    HW1 9659   4.187   2.359   3.396
 2920SOL    HW2 9660   4.276   2.302   3.521
 2921SOL     OW 9661   0.185   0.446   1.920
 2921SOL    HW1 9662   0.253   0.447   1.993
 2921SOL    HW2 9663   0.147   0.355   1.910
 2922SOL     OW 9664   4.331   6.281   5.533
 2922SOL    HW1 9665   4.353   6.207   5.469
 2922SOL    HW2 9666   4.290   6.357   5.483
 2923SOL     OW 9667   5.959   4.954   2.139
 2923SOL    HW1 9668   5.871   5.001   2.139
 2923SOL    HW2 9669   6.015   4.986   2.063
 2924SOL     OW 9670   6.796   1.122   4.977
 2924SOL    HW1 9671   6.818   1.033   4.938
 2924SOL    HW2 9672   6.818   1.194   4.911
 2925SOL     OW 9673   5.272   3.764   1.578
 2925SOL    HW1 9674   5.216   3.846   1.572
 2925SOL    HW2 9675   5.251   3.703   1.501
 2926SOL     OW 9676   0.515   1.118   4.788
 2926SOL    HW1 9677   0.440   1.067   4.745
 2926SOL    HW2 9678   0.602   1.091   4.747
 2927SOL     OW 9679   0.628   2.558   2.466
 2927SOL    HW1 9680   0.622   2.466   2.506
 2927SOL    HW2 9681   0.719   2.596   2.482
 2928SOL     OW 9682   6.140   6.734   0.503
 2928SOL    HW1 9683   6.156   6.637   0.521
 2928SOL    HW2 9684   6.060   6.744   0.444
 2929SOL     OW 9685   0.426   6.809   6.065
 2929SOL    HW1 9686   0.477   6.726   6.089
 2929SOL    HW2 9687   0.415   6.814   5.966
 2930SOL     OW 9688   3.656   6.800   4.540
 2930SOL    HW1 9689   3.703   6.786   4.452
 2930SOL    HW2 9690   3.611   6.714   4.567
 2931SOL     OW 9691   4.380   6.305   5.821
 2931SOL    HW1 9692   4.366   6.290   5.723
 2931SOL    HW2 9693   4.459   6.364   5.834
 2932SOL     OW 9694   1.468   4.362   1.423
 2932SOL    HW1 9695   1.490   4.353   1.325
 2932SOL    HW2 9696   1.472   4.272   1.466
 2933SOL     OW 9697   5.070   2.073   3.336
 2933SOL    HW1 9698   5.095   2.152   3.279
 2933SOL    HW2 9699   5.095   1.989   3.289
 2934SOL     OW 9700   2.413   0.768   0.095
 2934SOL    HW1 9701   2.436   0.863   0.072
 2934SOL    HW2 9702   2.411   0.713   0.012
 2935SOL     OW 9703   5.975   2.455   1.127
 2935SOL    HW1 9704   5.989   2.398   1.046
 2935SOL    HW2 9705   5.899   2.419   1.180
 2936SOL     OW 9706   4.508   5.773   0.452
 2936SOL    HW1 9707   4.543   5.717   0.376
 2936SOL    HW2 9708   4.556   5.748   0.536
 2937SOL     OW 9709   3.370   4.671   6.862
 2937SOL    HW1 9710   3.380   4.770   6.857
 2937SOL    HW2 9711   3.375   4.641   6.958
 2938SOL     OW 9712   4.633   5.403   5.225
 2938SOL    HW1 9713   4.599   5.336   5.291
 2938SOL    HW2 9714   4.681   5.476   5.274
 2939SOL     OW 9715   0.258   6.946   5.580
 2939SOL    HW1 9716   0.163   6.958   5.551
 2939SOL    HW2 9717   0.306   0.011   5.577
 2940SOL     OW 9718   4.947   6.861   4.982
 2940SOL    HW1 9719   4.850   6.856   4.959
 2940SOL    HW2 9720   4.975   6.775   5.025
 2941SOL     OW 9721   2.146   1.947   5.722
 2941SOL    HW1 9722   2.159   1.907   5.631
 2941SOL    HW2 9723   2.145   1.874   5.791
 2942SOL     OW 9724   3.185   6.631   3.155
 2942SOL    HW1 9725   3.112   6.625   3.087
 2942SOL    HW2 9726   3.245   6.708   3.132
 2943SOL     OW 9727   5.909   3.881   3.651
 2943SOL    HW1 9728   5.898   3.871   3.552
 2943SOL    HW2 9729   5.821   3.867   3.696
 2944SOL     OW 9730   4.261   5.603   5.736
 2944SOL    HW1 9731   4.329   5.537   5.768
 2944SOL    HW2 9732   4.169   5.569   5.757
 2945SOL     OW 9733   2.918   3.437   3.186
 2945SOL    HW1 9734   2.930   3.519   3.242
 2945SOL    HW2 9735   2.938   3.355   3.241
 2946SOL     OW 9736   6.925   5.974   6.840
 2946SOL    HW1 9737   6.830   6.002   6.846
 2946SOL    HW2 9738   6.981   6.034   6.897
 2947SOL     OW 9739   6.498   4.434   0.593
 2947SOL    HW1 9740   6.552   4.457   0.675
 2947SOL    HW2 9741   6.504   4.509   0.528
 2948SOL     OW 9742   5.960   4.321   4.629
 2948SOL    HW1 9743   6.002   4.410   4.610
 2948SOL    HW2 9744   5.873   4.315   4.579
 2949SOL     OW 9745   1.458   6.829   0.495
 2949SOL    HW1 9746   1.483   6.900   0.561
 2949SOL    HW2 9747   1.541   6.794   0.451
 2950SOL     OW 9748   4.988   3.429   4.100
 2950SOL    HW1 9749   4.955   3.522   4.084
 2950SOL    HW2 9750   5.081   3.432   4.137
 2951SOL     OW 9751   0.153   2.139   1.652
 2951SOL    HW1 9752   0.154   2.081   1.733
 2951SOL    HW2 9753   0.246   2.163   1.626
 2952SOL     OW 9754   1.840   4.104   2.139
 2952SOL    HW1 9755   1.856   4.152   2.226
 2952SOL    HW2 9756   1.742   4.086   2.130
 2953SOL     OW 9757   4.604   2.248   1.818
 2953SOL    HW1 9758   4.524   2.276   1.872
 2953SOL    HW2 9759   4.678   2.223   1.880
 2954SOL     OW 9760   6.314   6.318   2.274
 2954SOL    HW1 9761   6.391   6.372   2.238
 2954SOL    HW2 9762   6.345   6.264   2.352
 2955SOL     OW 9763   0.661   3.053   0.513
 2955SOL    HW1 9764   0.668   3.045   0.613
 2955SOL    HW2 9765   0.566   3.042   0.485
 2956SOL     OW 9766   6.905   5.408   2.665
 2956SOL    HW1 9767   6.808   5.403   2.641
 2956SOL    HW2 9768   6.925   5.499   2.703
 2957SOL     OW 9769   1.132   3.579   2.060
 2957SOL    HW1 9770   1.094   3.561   2.151
 2957SOL    HW2 9771   1.058   3.601   1.997
 2958SOL     OW 9772   1.887   4.408   6.141
 2958SOL    HW1 9773   1.823   4.484   6.130
 2958SOL    HW2 9774   1.950   4.429   6.216
 2959SOL     OW 9775   4.324   5.041   6.896
 2959SOL    HW1 9776   4.320   4.958   6.951
 2959SOL    HW2 9777   4.231   5.069   6.872
 2960SOL     OW 9778   1.898   1.673   0.306
 2960SOL    HW1 9779   1.898   1.735   0.228
 2960SOL    HW2 9780   1.803   1.653   0.332
 2961SOL     OW 9781   5.733   3.529   4.076
 2961SOL    HW1 9782   5.724   3.628   4.076
 2961SOL    HW2 9783   5.768   3.498   3.988
 2962SOL     OW 9784   4.823   1.033   3.218
 2962SOL    HW1 9785   4.829   1.117   3.271
 2962SOL    HW2 9786   4.910   1.015   3.173
 2963SOL     OW 9787   2.327   2.109   4.794
 2963SOL    HW1 9788   2.234   2.091   4.828
 2963SOL    HW2 9789   2.331   2.200   4.753
 2964SOL     OW 9790   3.376   6.227   0.539
 2964SOL    HW1 9791   3.441   6.151   0.531
 2964SOL    HW2 9792   3.283   6.193   0.529
 2965SOL     OW 9793   0.203   1.930   6.424
 2965SOL    HW1 9794   0.154   2.016   6.437
 2965SOL    HW2 9795   0.295   1.948   6.392
 2966SOL     OW 9796   4.649   4.298   4.043
 2966SOL    HW1 9797   4.736   4.305   4.092
 2966SOL    HW2 9798   4.597   4.382   4.058
 2967SOL     OW 9799   5.950   2.739   4.083
 2967SOL    HW1 9800   5.916   2.789   4.004
 2967SOL    HW2 9801   5.923   2.787   4.167
 2968SOL     OW 9802   0.481   4.076   3.570
 2968SOL    HW1 9803   0.538   4.138   3.517
 2968SOL    HW2 9804   0.428   4.017   3.508
 2969SOL     OW 9805   4.861   1.787   4.711
 2969SOL    HW1 9806   4.863   1.809   4.809
 2969SOL    HW2 9807   4.923   1.848   4.662
 2970SOL     OW 9808   0.726   4.196   6.147
 2970SOL    HW1 9809   0.747   4.138   6.226
 2970SOL    HW2 9810   0.735   4.142   6.063
 2971SOL     OW 9811   5.160   2.430   2.521
 2971SOL    HW1 9812   5.231   2.407   2.454
 2971SOL    HW2 9813   5.147   2.352   2.583
 2972SOL     OW 9814   6.704   3.837   5.305
 2972SOL    HW1 9815   6.719   3.935   5.310
 2972SOL    HW2 9816   6.645   3.816   5.227
 2973SOL     OW 9817   5.051   6.455   3.824
 2973SOL    HW1 9818   5.150   6.443   3.828
 2973SOL    HW2 9819   5.008   6.367   3.806
 2974SOL     OW 9820   0.231   3.901   2.623
 2974SOL    HW1 9821   0.318   3.851   2.626
 2974SOL    HW2 9822   0.248   3.998   2.640
 2975SOL     OW 9823   6.965   0.991   5.417
 2975SOL    HW1 9824   6.981   1.074   5.470
 2975SOL    HW2 9825   6.951   0.914   5.479
 2976SOL     OW 9826   3.313   0.285   2.188
 2976SOL    HW1 9827   3.388   0.311   2.127
 2976SOL    HW2 9828   3.346   0.286   2.283
 2977SOL     OW 9829   3.277   6.223   4.135
 2977SOL    HW1 9830   3.295   6.149   4.200
 2977SOL    HW2 9831   3.316   6.199   4.046
 2978SOL     OW 9832   4.743   5.112   0.021
 2978SOL    HW1 9833   4.820   5.168   0.055
 2978SOL    HW2 9834   4.770   5.067   6.960
 2979SOL     OW 9835   3.739   0.589   3.167
 2979SOL    HW1 9836   3.801   0.630   3.235
 2979SOL    HW2 9837   3.783   0.590   3.078
 2980SOL     OW 9838   0.598   6.021   4.387
 2980SOL    HW1 9839   0.637   5.992   4.299
 2980SOL    HW2 9840   0.575   6.119   4.382
 2981SOL     OW 9841   2.465   0.921   5.801
 2981SOL    HW1 9842   2.402   0.984   5.847
 2981SOL    HW2 9843   2.501   0.856   5.867
 2982SOL     OW 9844   5.154   6.503   2.286
 2982SOL    HW1 9845   5.093   6.582   2.281
 2982SOL    HW2 9846   5.190   6.482   2.196
 2983SOL     OW 9847   6.595   0.841   3.561
 2983SOL    HW1 9848   6.663   0.895   3.611
 2983SOL    HW2 9849   6.620   0.836   3.465
 2984SOL     OW 9850   5.585   5.722   1.754
 2984SOL    HW1 9851   5.492   5.707   1.788
 2984SOL    HW2 9852   5.651   5.682   1.817
 2985SOL     OW 9853   5.936   2.361   3.088
 2985SOL    HW1 9854   5.849   2.391   3.048
 2985SOL    HW2 9855   6.009   2.423   3.058
 2986SOL     OW 9856   1.983   3.711   5.295
 2986SOL    HW1 9857   2.036   3.723   5.210
 2986SOL    HW2 9858   2.039   3.740   5.372
 2987SOL     OW 9859   4.263   2.238   4.612
 2987SOL    HW1 9860   4.277   2.159   4.551
 2987SOL    HW2 9861   4.270   2.322   4.560
 2988SOL     OW 9862   0.845   0.676   1.777
 2988SOL    HW1 9863   0.746   0.666   1.769
 2988SOL    HW2 9864   0.889   0.621   1.706
 2989SOL     OW 9865   6.780   5.005   1.421
 2989SOL    HW1 9866   6.706   5.055   1.467
 2989SOL    HW2 9867   6.741   4.928   1.370
 2990SOL     OW 9868   3.849   1.020   1.766
 2990SOL    HW1 9869   3.803   0.946   1.717
 2990SOL    HW2 9870   3.912   1.066   1.704
 2991SOL     OW 9871   6.686   3.595   0.361
 2991SOL    HW1 9872   6.606   3.538   0.345
 2991SOL    HW2 9873   6.731   3.615   0.274
 2992SOL     OW 9874   3.159   5.228   6.446
 2992SOL    HW1 9875   3.250   5.264   6.469
 2992SOL    HW2 9876   3.169   5.148   6.387
 2993SOL     OW 9877   1.513   5.504   1.299
 2993SOL    HW1 9878   1.513   5.544   1.391
 2993SOL    HW2 9879   1.421   5.510   1.260
 2994SOL     OW 9880   4.899   6.678   0.003
 2994SOL    HW1 9881   4.987   6.696   0.048
 2994SOL    HW2 9882   4.915   6.648   6.932
 2995SOL     OW 9883   1.993   1.211   6.164
 2995SOL    HW1 9884   1.902   1.251   6.164
 2995SOL    HW2 9885   2.058   1.274   6.121
 2996SOL     OW 9886   4.149   5.149   6.292
 2996SOL    HW1 9887   4.160   5.217   6.365
 2996SOL    HW2 9888   4.235   5.140   6.242
 2997SOL     OW 9889   5.734   6.522   0.437
 2997SOL    HW1 9890   5.785   6.542   0.353
 2997SOL    HW2 9891   5.793   6.474   0.501
 2998SOL     OW 9892   6.619   5.696   4.798
 2998SOL    HW1 9893   6.593   5.688   4.702
 2998SOL    HW2 9894   6.713   5.664   4.810
 2999SOL     OW 9895   3.144   0.263   3.329
 2999SOL    HW1 9896   3.236   0.292   3.354
 2999SOL    HW2 9897   3.147   0.173   3.286
 3000SOL     OW 9898   0.967   2.846   5.287
 3000SOL    HW1 9899   1.007   2.903   5.358
 3000SOL    HW2 9900   1.019   2.857   5.202
 3001SOL     OW 9901   5.166   0.107   5.783
 3001SOL    HW1 9902   5.215   0.096   5.869
 3001SOL    HW2 9903   5.152   0.204   5.763
 3002SOL     OW 9904   3.759   0.459   5.925
 3002SOL    HW1 9905   3.760   0.508   6.012
 3002SOL    HW2 9906   3.678   0.486   5.873
 3003SOL     OW 9907   2.666   6.686   6.029
 3003SOL    HW1 9908   2.669   6.756   5.958
 3003SOL    HW2 9909   2.759   6.666   6.059
 3004SOL     OW 9910   5.874   2.925   4.556
 3004SOL    HW1 9911   5.851   2.922   4.653
 3004SOL    HW2 9912   5.939   2.999   4.539
 3005SOL     OW 9913   4.324   2.779   1.073
 3005SOL    HW1 9914   4.346   2.696   1.125
 3005SOL    HW2 9915   4.330   2.759   0.975
 3006SOL     OW 9916   5.751   0.790   1.569
 3006SOL    HW1 9917   5.789   0.876   1.602
 3006SOL    HW2 9918   5.699   0.806   1.485
 3007SOL     OW 9919   6.063   5.071   3.182
 3007SOL    HW1 9920   6.015   5.159   3.180
 3007SOL    HW2 9921   6.010   5.006   3.237
 3008SOL     OW 9922   3.153   6.070   6.024
 3008SOL    HW1 9923   3.237   6.095   5.976
 3008SOL    HW2 9924   3.168   5.987   6.077
 3009SOL     OW 9925   1.456   0.197   3.034
 3009SOL    HW1 9926   1.550   0.226   3.052
 3009SOL    HW2 9927   1.434   0.119   3.091
 3010SOL     OW 9928   3.783   6.240   2.507
 3010SOL    HW1 9929   3.853   6.178   2.473
 3010SOL    HW2 9930   3.725   6.192   2.573
 3011SOL     OW 9931   5.276   0.112   0.123
 3011SOL    HW1 9932   5.275   0.061   0.037
 3011SOL    HW2 9933   5.331   0.195   0.111
 3012SOL     OW 9934   0.296   3.961   3.427
 3012SOL    HW1 9935   0.196   3.959   3.432
 3012SOL    HW2 9936   0.324   3.995   3.337
 3013SOL     OW 9937   6.035   5.249   2.622
 3013SOL    HW1 9938   5.952   5.250   2.567
 3013SOL    HW2 9939   6.018   5.201   2.708
 3014SOL     OW 9940   4.602   0.810   4.660
 3014SOL    HW1 9941   4.648   0.782   4.576
 3014SOL    HW2 9942   4.661   0.873   4.711
 3015SOL     OW 9943   3.109   1.957   0.622
 3015SOL    HW1 9944   3.208   1.948   0.635
 3015SOL    HW2 9945   3.072   1.871   0.587
 3016SOL     OW 9946   3.731   6.548   3.161
 3016SOL    HW1 9947   3.796   6.472   3.163
 3016SOL    HW2 9948   3.671   6.543   3.241
 3017SOL     OW 9949   0.155   5.919   1.007
 3017SOL    HW1 9950   0.182   5.977   1.084
 3017SOL    HW2 9951   0.099   5.843   1.040
 3018SOL     OW 9952   3.924   6.076   6.595
 3018SOL    HW1 9953   3.858   6.002   6.602
 3018SOL    HW2 9954   3.975   6.084   6.681
 3019SOL     OW 9955   3.981   6.810   1.246
 3019SOL    HW1 9956   4.043   6.786   1.172
 3019SOL    HW2 9957   3.956   6.907   1.240
 3020SOL     OW 9958   2.244   2.904   1.210
 3020SOL    HW1 9959   2.162   2.898   1.152
 3020SOL    HW2 9960   2.222   2.953   1.294
 3021SOL     OW 9961   2.186   1.896   6.896
 3021SOL    HW1 9962   2.264   1.958   6.907
 3021SOL    HW2 9963   2.211   1.823   6.833
 3022SOL     OW 9964   5.056   0.015   2.920
 3022SOL    HW1 9965   4.958   0.009   2.902
 3022SOL    HW2 9966   5.075   7.007   3.013
 3023SOL     OW 9967   4.766   6.034   2.304
 3023SOL    HW1 9968   4.858   6.066   2.282
 3023SOL    HW2 9969   4.717   6.106   2.353
 3024SOL     OW 9970   3.305   6.600   6.582
 3024SOL    HW1 9971   3.289   6.699   6.572
 3024SOL    HW2 9972   3.389   6.585   6.635
 3025SOL     OW 9973   2.233   2.405   1.343
 3025SOL    HW1 9974   2.268   2.405   1.436
 3025SOL    HW2 9975   2.302   2.367   1.281
 3026SOL     OW 9976   1.863   4.128   0.637
 3026SOL    HW1 9977   1.849   4.141   0.735
 3026SOL    HW2 9978   1.958   4.102   0.620
 3027SOL     OW 9979   1.174   1.673   3.466
 3027SOL    HW1 9980   1.201   1.583   3.499
 3027SOL    HW2 9981   1.243   1.706   3.400
 3028SOL     OW 9982   1.168   6.882   5.512
 3028SOL    HW1 9983   1.157   6.969   5.560
 3028SOL    HW2 9984   1.146   6.806   5.573
 3029SOL     OW 9985   5.415   5.598   5.118
 3029SOL    HW1 9986   5.499   5.649   5.102
 3029SOL    HW2 9987   5.340   5.662   5.135
 3030SOL     OW 9988   1.671   2.188   5.330
 3030SOL    HW1 9989   1.704   2.137   5.410
 3030SOL    HW2 9990   1.572   2.198   5.336
 3031SOL     OW 9991   0.058   4.849   6.320
 3031SOL    HW1 9992   0.065   4.854   6.420
 3031SOL    HW2 9993   0.123   4.782   6.285
 3032SOL     OW 9994   5.149   0.363   5.716
 3032SOL    HW1 9995   5.216   0.415   5.663
 3032SOL    HW2 9996   5.149   0.396   5.810
 3033SOL     OW 9997   6.329   3.711   6.815
 3033SOL    HW1 9998   6.257   3.691   6.881
 3033SOL    HW2 9999   6.289   3.743   6.729
 3034SOL     OW10000   2.857   6.547   4.778
 3034SOL    HW110001   2.913   6.614   4.730
 3034SOL    HW210002   2.776   6.527   4.724
 3035SOL     OW10003   5.751   1.132   6.996
 3035SOL    HW110004   5.837   1.176   7.019
 3035SOL    HW210005   5.757   1.034   7.016
 3036SOL     OW10006   1.051   4.398   6.976
 3036SOL    HW110007   1.102   4.397   6.890
 3036SOL    HW210008   1.110   4.368   0.028
 3037SOL     OW10009   6.705   6.595   5.290
 3037SOL    HW110010   6.679   6.516   5.234
 3037SOL    HW210011   6.800   6.620   5.271
 3038SOL     OW10012   5.362   6.764   5.997
 3038SOL    HW110013   5.389   6.843   6.053
 3038SOL    HW210014   5.291   6.712   6.045
 3039SOL     OW10015   1.255   4.792   1.173
 3039SOL    HW110016   1.165   4.755   1.150
 3039SOL    HW210017   1.259   4.811   1.271
 3040SOL     OW10018   2.740   3.143   6.872
 3040SOL    HW110019   2.806   3.119   6.800
 3040SOL    HW210020   2.790   3.167   6.955
 3041SOL     OW10021   2.141   2.027   6.117
 3041SOL    HW110022   2.094   1.980   6.192
 3041SOL    HW210023   2.075   2.046   6.044
 3042SOL     OW10024   4.588   0.147   1.966
 3042SOL    HW110025   4.537   0.134   2.051
 3042SOL    HW210026   4.598   0.245   1.948
 3043SOL     OW10027   0.667   5.495   0.337
 3043SOL    HW110028   0.745   5.474   0.396
 3043SOL    HW210029   0.583   5.491   0.391
 3044SOL     OW10030   3.191   4.536   6.278
 3044SOL    HW110031   3.223   4.488   6.359
 3044SOL    HW210032   3.267   4.550   6.215
 3045SOL     OW10033   5.353   2.373   2.921
 3045SOL    HW110034   5.440   2.383   2.873
 3045SOL    HW210035   5.291   2.316   2.868
 3046SOL     OW10036   2.084   3.168   5.713
 3046SOL    HW110037   2.145   3.201   5.641
 3046SOL    HW210038   2.135   3.162   5.800
 3047SOL     OW10039   6.276   5.235   2.484
 3047SOL    HW110040   6.183   5.239   2.522
 3047SOL    HW210041   6.273   5.258   2.387
 3048SOL     OW10042   3.367   2.972   1.464
 3048SOL    HW110043   3.420   3.043   1.417
 3048SOL    HW210044   3.409   2.952   1.553
 3049SOL     OW10045   0.331   0.621   2.140
 3049SOL    HW110046   0.330   0.538   2.197
 3049SOL    HW210047   0.242   0.665   2.144
 3050SOL     OW10048   4.475   6.094   3.965
 3050SOL    HW110049   4.404   6.159   3.938
 3050SOL    HW210050   4.504   6.114   4.059
 3051SOL     OW10051   2.635   4.731   6.832
 3051SOL    HW110052   2.678   4.752   6.744
 3051SOL    HW210053   2.549   4.682   6.816
 3052SOL     OW10054   4.571   0.017   3.066
 3052SOL    HW110055   4.508   0.093   3.053
 3052SOL    HW210056   4.583   0.000   3.164
 3053SOL     OW10057   5.566   6.495   0.019
 3053SOL    HW110058   5.666   6.489   0.017
 3053SOL    HW210059   5.529   6.416   0.066
 3054SOL     OW10060   1.200   3.404   6.518
 3054SOL    HW110061   1.219   3.468   6.592
 3054SOL    HW210062   1.276   3.339   6.510
 3055SOL     OW10063   5.834   6.581   3.541
 3055SOL    HW110064   5.738   6.610   3.536
 3055SOL    HW210065   5.891   6.658   3.570
 3056SOL     OW10066   6.796   0.711   0.994
 3056SOL    HW110067   6.840   0.800   0.984
 3056SOL    HW210068   6.730   0.714   1.068
 3057SOL     OW10069   6.024   5.203   2.897
 3057SOL    HW110070   6.022   5.103   2.904
 3057SOL    HW210071   5.999   5.243   2.985
 3058SOL     OW10072   6.434   5.316   1.726
 3058SOL    HW110073   6.507   5.356   1.782
 3058SOL    HW210074   6.350   5.312   1.781
 3059SOL     OW10075   1.954   2.223   4.371
 3059SOL    HW110076   1.880   2.261   4.316
 3059SOL    HW210077   1.926   2.221   4.467
 3060SOL     OW10078   6.823   6.475   1.090
 3060SOL    HW110079   6.727   6.465   1.115
 3060SOL    HW210080   6.862   6.553   1.139
 3061SOL     OW10081   0.192   0.257   6.544
 3061SOL    HW110082   0.175   0.274   6.641
 3061SOL    HW210083   0.266   0.190   6.534
 3062SOL     OW10084   3.254   6.653   0.297
 3062SOL    HW110085   3.312   6.581   0.335
 3062SOL    HW210086   3.295   6.742   0.317
 3063SOL     OW10087   1.715   4.732   1.322
 3063SOL    HW110088   1.682   4.664   1.388
 3063SOL    HW210089   1.813   4.746   1.334
 3064SOL     OW10090   6.178   3.957   3.678
 3064SOL    HW110091   6.211   3.875   3.724
 3064SOL    HW210092   6.078   3.955   3.674
 3065SOL     OW10093   1.527   0.857   0.006
 3065SOL    HW110094   1.445   0.907   7.003
 3065SOL    HW210095   1.536   0.858   0.106
 3066SOL     OW10096   5.965   4.729   1.813
 3066SOL    HW110097   5.998   4.697   1.902
 3066SOL    HW210098   5.893   4.668   1.780
 3067SOL     OW10099   5.158   6.961   4.390
 3067SOL    HW110100   5.065   6.936   4.417
 3067SOL    HW210101   5.224   6.901   4.434
 3068SOL     OW10102   6.049   4.772   0.788
 3068SOL    HW110103   6.127   4.774   0.850
 3068SOL    HW210104   6.080   4.744   0.697
 3069SOL     OW10105   0.867   5.898   2.356
 3069SOL    HW110106   0.883   5.993   2.384
 3069SOL    HW210107   0.790   5.894   2.293
 3070SOL     OW10108   3.858   1.369   3.647
 3070SOL    HW110109   3.956   1.364   3.664
 3070SOL    HW210110   3.833   1.305   3.575
 3071SOL     OW10111   5.397   0.012   3.363
 3071SOL    HW110112   5.364   0.067   3.286
 3071SOL    HW210113   5.357   6.944   3.359
 3072SOL     OW10114   0.543   0.103   2.571
 3072SOL    HW110115   0.464   0.149   2.612
 3072SOL    HW210116   0.584   0.041   2.638
 3073SOL     OW10117   0.993   3.857   5.373
 3073SOL    HW110118   0.940   3.937   5.345
 3073SOL    HW210119   0.986   3.786   5.303
 3074SOL     OW10120   4.486   2.999   6.036
 3074SOL    HW110121   4.552   2.926   6.018
 3074SOL    HW210122   4.520   3.085   5.999
 3075SOL     OW10123   1.684   5.712   1.478
 3075SOL    HW110124   1.745   5.751   1.547
 3075SOL    HW210125   1.730   5.711   1.390
 3076SOL     OW10126   6.833   0.460   4.934
 3076SOL    HW110127   6.804   0.377   4.887
 3076SOL    HW210128   6.898   0.510   4.877
 3077SOL     OW10129   4.895   4.878   3.955
 3077SOL    HW110130   4.919   4.957   4.011
 3077SOL    HW210131   4.815   4.833   3.993
 3078SOL     OW10132   1.558   3.630   1.602
 3078SOL    HW110133   1.622   3.553   1.598
 3078SOL    HW210134   1.608   3.715   1.610
 3079SOL     OW10135   6.935   2.135   5.242
 3079SOL    HW110136   7.006   2.173   5.183
 3079SOL    HW210137   6.956   2.040   5.262
 3080SOL     OW10138   6.512   5.033   0.850
 3080SOL    HW110139   6.610   5.016   0.839
 3080SOL    HW210140   6.499   5.117   0.904
 3081SOL     OW10141   0.337   5.195   5.558
 3081SOL    HW110142   0.306   5.252   5.634
 3081SOL    HW210143   0.277   5.116   5.548
 3082SOL     OW10144   3.004   0.027   2.624
 3082SOL    HW110145   3.011   7.014   2.717
 3082SOL    HW210146   3.014   0.127   2.626
 3083SOL     OW10147   3.240   0.375   1.643
 3083SOL    HW110148   3.269   0.387   1.548
 3083SOL    HW210149   3.142   0.358   1.646
 3084SOL     OW10150   5.322   5.987   4.707
 3084SOL    HW110151   5.403   5.975   4.651
 3084SOL    HW210152   5.306   5.905   4.762
 3085SOL     OW10153   0.503   5.492   2.120
 3085SOL    HW110154   0.511   5.543   2.206
 3085SOL    HW210155   0.579   5.428   2.111
 3086SOL     OW10156   4.545   1.233   3.535
 3086SOL    HW110157   4.565   1.193   3.445
 3086SOL    HW210158   4.607   1.309   3.552
 3087SOL     OW10159   6.652   3.551   2.756
 3087SOL    HW110160   6.621   3.625   2.815
 3087SOL    HW210161   6.618   3.463   2.792
 3088SOL     OW10162   2.907   4.962   5.942
 3088SOL    HW110163   2.895   5.021   6.022
 3088SOL    HW210164   2.997   4.919   5.946
 3089SOL     OW10165   1.644   2.869   0.414
 3089SOL    HW110166   1.731   2.833   0.380
 3089SOL    HW210167   1.623   2.955   0.367
 3090SOL     OW10168   1.368   1.787   1.189
 3090SOL    HW110169   1.299   1.855   1.213
 3090SOL    HW210170   1.459   1.825   1.205
 3091SOL     OW10171   3.203   6.905   0.514
 3091SOL    HW110172   3.301   6.896   0.498
 3091SOL    HW210173   3.153   6.853   0.444
 3092SOL     OW10174   5.773   6.731   0.849
 3092SOL    HW110175   5.757   6.764   0.756
 3092SOL    HW210176   5.692   6.683   0.882
 3093SOL     OW10177   5.311   5.797   4.877
 3093SOL    HW110178   5.260   5.797   4.963
 3093SOL    HW210179   5.335   5.703   4.853
 3094SOL     OW10180   2.811   5.722   6.061
 3094SOL    HW110181   2.736   5.661   6.037
 3094SOL    HW210182   2.893   5.696   6.009
 3095SOL     OW10183   2.836   4.864   4.846
 3095SOL    HW110184   2.837   4.784   4.906
 3095SOL    HW210185   2.930   4.898   4.834
 3096SOL     OW10186   0.862   1.053   5.813
 3096SOL    HW110187   0.888   0.958   5.795
 3096SOL    HW210188   0.822   1.059   5.904
 3097SOL     OW10189   1.677   2.883   0.061
 3097SOL    HW110190   1.623   2.808   0.022
 3097SOL    HW210191   1.617   2.948   0.107
 3098SOL     OW10192   3.036   2.496   0.577
 3098SOL    HW110193   2.975   2.417   0.577
 3098SOL    HW210194   3.126   2.468   0.610
 3099SOL     OW10195   0.775   5.743   5.598
 3099SOL    HW110196   0.817   5.653   5.585
 3099SOL    HW210197   0.677   5.736   5.583
 3100SOL     OW10198   0.053   6.826   6.793
 3100SOL    HW110199   6.998   6.763   6.797
 3100SOL    HW210200   0.030   6.910   6.841
 3101SOL     OW10201   4.529   7.012   0.621
 3101SOL    HW110202   4.485   0.071   0.583
 3101SOL    HW210203   4.471   6.975   0.694
 3102SOL     OW10204   1.830   4.268   1.285
 3102SOL    HW110205   1.744   4.294   1.241
 3102SOL    HW210206   1.894   4.344   1.281
 3103SOL     OW10207   4.127   3.108   1.951
 3103SOL    HW110208   4.199   3.044   1.978
 3103SOL    HW210209   4.056   3.058   1.902
 3104SOL     OW10210   6.079   5.802   4.268
 3104SOL    HW110211   6.123   5.767   4.185
 3104SOL    HW210212   6.119   5.758   4.348
 3105SOL     OW10213   5.746   6.307   4.346
 3105SOL    HW110214   5.810   6.356   4.286
 3105SOL    HW210215   5.742   6.352   4.435
 3106SOL     OW10216   6.975   2.406   3.593
 3106SOL    HW110217   0.031   2.465   3.577
 3106SOL    HW210218   7.006   2.312   3.607
 3107SOL     OW10219   2.711   0.626   3.971
 3107SOL    HW110220   2.724   0.705   4.030
 3107SOL    HW210221   2.655   0.558   4.018
 3108SOL     OW10222   3.099   1.041   3.122
 3108SOL    HW110223   3.045   1.125   3.116
 3108SOL    HW210224   3.044   0.970   3.167
 3109SOL     OW10225   4.419   5.280   2.954
 3109SOL    HW110226   4.484   5.307   3.025
 3109SOL    HW210227   4.343   5.345   2.951
 3110SOL     OW10228   0.880   3.004   2.599
 3110SOL    HW110229   0.792   2.974   2.562
 3110SOL    HW210230   0.943   3.026   2.525
 3111SOL     OW10231   6.894   5.254   3.652
 3111SOL    HW110232   6.965   5.322   3.633
 3111SOL    HW210233   6.936   5.166   3.673
 3112SOL     OW10234   4.551   4.204   6.308
 3112SOL    HW110235   4.570   4.118   6.355
 3112SOL    HW210236   4.553   4.190   6.209
 3113SOL     OW10237   2.640   6.437   3.969
 3113SOL    HW110238   2.586   6.353   3.971
 3113SOL    HW210239   2.684   6.445   3.879
 3114SOL     OW10240   6.406   5.360   0.879
 3114SOL    HW110241   6.309   5.339   0.864
 3114SOL    HW210242   6.437   5.311   0.961
 3115SOL     OW10243   2.651   3.651   0.941
 3115SOL    HW110244   2.686   3.735   0.900
 3115SOL    HW210245   2.709   3.625   1.019
 3116SOL     OW10246   6.879   2.543   0.400
 3116SOL    HW110247   6.827   2.498   0.327
 3116SOL    HW210248   6.968   2.499   0.409
 3117SOL     OW10249   3.799   3.495   5.442
 3117SOL    HW110250   3.742   3.422   5.480
 3117SOL    HW210251   3.747   3.580   5.438
 3118SOL     OW10252   6.401   3.766   0.922
 3118SOL    HW110253   6.347   3.825   0.982
 3118SOL    HW210254   6.385   3.670   0.945
 3119SOL     OW10255   2.039   4.122   5.596
 3119SOL    HW110256   1.990   4.044   5.635
 3119SOL    HW210257   2.073   4.180   5.670
 3120SOL     OW10258   2.949   5.407   5.082
 3120SOL    HW110259   3.001   5.492   5.092
 3120SOL    HW210260   2.978   5.360   4.999
 3121SOL     OW10261   6.471   0.065   2.134
 3121SOL    HW110262   6.427   0.155   2.131
 3121SOL    HW210263   6.525   0.057   2.217
 3122SOL     OW10264   3.044   5.492   0.007
 3122SOL    HW110265   3.035   5.449   6.940
 3122SOL    HW210266   2.961   5.477   0.059
 3123SOL     OW10267   3.565   6.372   3.572
 3123SOL    HW110268   3.564   6.272   3.575
 3123SOL    HW210269   3.606   6.402   3.486
 3124SOL     OW10270   4.053   1.071   5.670
 3124SOL    HW110271   4.016   1.152   5.717
 3124SOL    HW210272   4.149   1.089   5.645
 3125SOL     OW10273   0.119   1.467   6.178
 3125SOL    HW110274   0.155   1.485   6.270
 3125SOL    HW210275   0.194   1.465   6.113
 3126SOL     OW10276   4.766   6.177   0.148
 3126SOL    HW110277   4.851   6.145   0.107
 3126SOL    HW210278   4.750   6.127   0.234
 3127SOL     OW10279   0.457   1.733   4.137
 3127SOL    HW110280   0.495   1.820   4.106
 3127SOL    HW210281   0.416   1.685   4.060
 3128SOL     OW10282   1.782   1.319   1.381
 3128SOL    HW110283   1.869   1.350   1.420
 3128SOL    HW210284   1.710   1.385   1.404
 3129SOL     OW10285   0.765   3.549   5.065
 3129SOL    HW110286   0.812   3.506   4.988
 3129SOL    HW210287   0.713   3.480   5.116
 3130SOL     OW10288   1.669   5.203   2.598
 3130SOL    HW110289   1.638   5.119   2.553
 3130SOL    HW210290   1.657   5.281   2.536
 3131SOL     OW10291   6.985   3.419   3.203
 3131SOL    HW110292   6.901   3.413   3.150
 3131SOL    HW210293   7.013   3.328   3.233
 3132SOL     OW10294   5.749   5.840   5.781
 3132SOL    HW110295   5.729   5.814   5.687
 3132SOL    HW210296   5.780   5.935   5.784
 3133SOL     OW10297   2.756   2.034   3.047
 3133SOL    HW110298   2.796   2.096   3.114
 3133SOL    HW210299   2.826   1.971   3.014
 3134SOL     OW10300   4.938   3.055   2.148
 3134SOL    HW110301   4.893   3.062   2.237
 3134SOL    HW210302   4.870   3.039   2.077
 3135SOL     OW10303   3.494   1.931   3.328
 3135SOL    HW110304   3.395   1.922   3.332
 3135SOL    HW210305   3.537   1.847   3.361
 3136SOL     OW10306   5.628   6.114   5.582
 3136SOL    HW110307   5.678   6.145   5.663
 3136SOL    HW210308   5.689   6.117   5.502
 3137SOL     OW10309   5.443   2.105   3.799
 3137SOL    HW110310   5.487   2.173   3.857
 3137SOL    HW210311   5.366   2.147   3.750
 3138SOL     OW10312   5.625   1.205   5.013
 3138SOL    HW110313   5.602   1.301   5.030
 3138SOL    HW210314   5.714   1.200   4.967
 3139SOL     OW10315   5.185   5.841   5.414
 3139SOL    HW110316   5.163   5.873   5.506
 3139SOL    HW210317   5.284   5.851   5.398
 3140SOL     OW10318   6.281   5.996   6.783
 3140SOL    HW110319   6.282   5.906   6.826
 3140SOL    HW210320   6.202   6.048   6.817
 3141SOL     OW10321   1.255   5.251   6.940
 3141SOL    HW110322   1.176   5.310   6.953
 3141SOL    HW210323   1.336   5.293   6.983
 3142SOL     OW10324   4.342   6.274   6.738
 3142SOL    HW110325   4.374   6.179   6.737
 3142SOL    HW210326   4.266   6.284   6.673
 3143SOL     OW10327   6.258   1.397   0.923
 3143SOL    HW110328   6.281   1.425   1.017
 3143SOL    HW210329   6.225   1.303   0.923
 3144SOL     OW10330   1.920   3.110   6.529
 3144SOL    HW110331   1.846   3.105   6.597
 3144SOL    HW210332   1.886   3.154   6.446
 3145SOL     OW10333   3.389   6.030   3.340
 3145SOL    HW110334   3.460   5.991   3.281
 3145SOL    HW210335   3.307   5.972   3.337
 3146SOL     OW10336   1.258   0.370   3.292
 3146SOL    HW110337   1.183   0.320   3.248
 3146SOL    HW210338   1.234   0.387   3.388
 3147SOL     OW10339   4.821   4.168   0.317
 3147SOL    HW110340   4.754   4.144   0.387
 3147SOL    HW210341   4.868   4.085   0.286
 3148SOL     OW10342   3.383   5.271   4.513
 3148SOL    HW110343   3.321   5.257   4.590
 3148SOL    HW210344   3.477   5.257   4.543
 3149SOL     OW10345   3.705   6.640   5.818
 3149SOL    HW110346   3.627   6.676   5.869
 3149SOL    HW210347   3.740   6.711   5.757
 3150SOL     OW10348   5.732   7.014   4.891
 3150SOL    HW110349   5.678   6.942   4.934
 3150SOL    HW210350   5.746   6.992   4.794
 3151SOL     OW10351   4.496   1.408   5.873
 3151SOL    HW110352   4.480   1.311   5.857
 3151SOL    HW210353   4.472   1.431   5.968
 3152SOL     OW10354   1.647   5.727   0.983
 3152SOL    HW110355   1.697   5.643   0.963
 3152SOL    HW210356   1.611   5.765   0.897
 3153SOL     OW10357   0.172   4.121   2.273
 3153SOL    HW110358   0.100   4.141   2.339
 3153SOL    HW210359   0.255   4.171   2.298
 3154SOL     OW10360   6.151   2.734   6.429
 3154SOL    HW110361   6.134   2.740   6.331
 3154SOL    HW210362   6.079   2.678   6.472
 3155SOL     OW10363   5.769   5.754   0.778
 3155SOL    HW110364   5.818   5.840   0.760
 3155SOL    HW210365   5.681   5.775   0.822
 3156SOL     OW10366   3.390   3.546   3.860
 3156SOL    HW110367   3.449   3.521   3.937
 3156SOL    HW210368   3.438   3.611   3.801
 3157SOL     OW10369   2.016   3.729   4.670
 3157SOL    HW110370   1.956   3.650   4.686
 3157SOL    HW210371   1.969   3.796   4.614
 3158SOL     OW10372   4.995   6.379   0.331
 3158SOL    HW110373   4.977   6.281   0.340
 3158SOL    HW210374   4.914   6.431   0.361
 3159SOL     OW10375   5.389   4.948   0.717
 3159SOL    HW110376   5.434   4.887   0.652
 3159SOL    HW210377   5.296   4.915   0.735
 3160SOL     OW10378   5.601   3.947   0.285
 3160SOL    HW110379   5.667   3.968   0.358
 3160SOL    HW210380   5.633   3.986   0.199
 3161SOL     OW10381   0.840   2.195   2.965
 3161SOL    HW110382   0.763   2.244   3.009
 3161SOL    HW210383   0.901   2.262   2.922
 3162SOL     OW10384   0.161   6.185   6.443
 3162SOL    HW110385   0.100   6.121   6.489
 3162SOL    HW210386   0.149   6.178   6.344
 3163SOL     OW10387   2.628   3.834   6.140
 3163SOL    HW110388   2.572   3.909   6.102
 3163SOL    HW210389   2.725   3.856   6.128
 3164SOL     OW10390   5.475   5.392   6.747
 3164SOL    HW110391   5.558   5.382   6.801
 3164SOL    HW210392   5.402   5.430   6.804
 3165SOL     OW10393   6.857   1.915   1.698
 3165SOL    HW110394   6.894   1.934   1.607
 3165SOL    HW210395   6.847   2.000   1.749
 3166SOL     OW10396   5.050   2.905   6.341
 3166SOL    HW110397   5.109   2.856   6.405
 3166SOL    HW210398   4.954   2.883   6.361
 3167SOL     OW10399   1.179   4.774   2.400
 3167SOL    HW110400   1.229   4.693   2.431
 3167SOL    HW210401   1.224   4.812   2.318
 3168SOL     OW10402   5.651   3.508   1.129
 3168SOL    HW110403   5.643   3.603   1.158
 3168SOL    HW210404   5.716   3.501   1.053
 3169SOL     OW10405   1.727   2.070   5.613
 3169SOL    HW110406   1.743   2.000   5.682
 3169SOL    HW210407   1.643   2.120   5.635
 3170SOL     OW10408   4.294   0.773   6.536
 3170SOL    HW110409   4.196   0.793   6.540
 3170SOL    HW210410   4.345   0.859   6.544
 3171SOL     OW10411   6.023   6.814   3.286
 3171SOL    HW110412   5.958   6.876   3.241
 3171SOL    HW210413   5.973   6.754   3.349
 3172SOL     OW10414   6.119   0.138   5.351
 3172SOL    HW110415   6.097   0.216   5.293
 3172SOL    HW210416   6.037   0.111   5.403
 3173SOL     OW10417   2.057   0.801   1.678
 3173SOL    HW110418   2.014   0.723   1.633
 3173SOL    HW210419   2.087   0.867   1.609
 3174SOL     OW10420   2.034   3.145   6.012
 3174SOL    HW110421   2.016   3.048   6.029
 3174SOL    HW210422   2.068   3.188   6.096
 3175SOL     OW10423   0.783   6.985   0.548
 3175SOL    HW110424   0.714   6.952   0.612
 3175SOL    HW210425   0.742   0.029   0.486
 3176SOL     OW10426   0.366   5.108   6.857
 3176SOL    HW110427   0.457   5.066   6.858
 3176SOL    HW210428   0.299   5.043   6.892
 3177SOL     OW10429   6.493   6.849   5.605
 3177SOL    HW110430   6.399   6.862   5.573
 3177SOL    HW210431   6.536   6.775   5.552
 3178SOL     OW10432   1.537   3.184   1.609
 3178SOL    HW110433   1.610   3.118   1.624
 3178SOL    HW210434   1.570   3.276   1.628
 3179SOL     OW10435   2.111   1.714   2.790
 3179SOL    HW110436   2.150   1.645   2.851
 3179SOL    HW210437   2.154   1.802   2.808
 3180SOL     OW10438   6.207   0.747   6.265
 3180SOL    HW110439   6.167   0.748   6.174
 3180SOL    HW210440   6.135   0.730   6.333
 3181SOL     OW10441   0.329   1.287   2.947
 3181SOL    HW110442   0.413   1.276   3.000
 3181SOL    HW210443   0.302   1.384   2.948
 3182SOL     OW10444   1.743   4.814   5.317
 3182SOL    HW110445   1.802   4.733   5.314
 3182SOL    HW210446   1.664   4.800   5.257
 3183SOL     OW10447   3.885   3.465   1.734
 3183SOL    HW110448   3.859   3.549   1.686
 3183SOL    HW210449   3.929   3.489   1.821
 3184SOL     OW10450   2.438   1.416   2.403
 3184SOL    HW110451   2.409   1.461   2.318
 3184SOL    HW210452   2.384   1.333   2.417
 3185SOL     OW10453   6.911   6.577   5.963
 3185SOL    HW110454   6.984   6.629   5.918
 3185SOL    HW210455   6.943   6.486   5.985
 3186SOL     OW10456   3.180   0.677   1.826
 3186SOL    HW110457   3.163   0.774   1.837
 3186SOL    HW210458   3.158   0.649   1.733
 3187SOL     OW10459   3.136   4.152   0.045
 3187SOL    HW110460   3.170   4.200   6.987
 3187SOL    HW210461   3.078   4.076   0.017
 3188SOL     OW10462   4.051   6.505   3.147
 3188SOL    HW110463   3.996   6.427   3.175
 3188SOL    HW210464   4.137   6.505   3.198
 3189SOL     OW10465   1.327   6.786   2.173
 3189SOL    HW110466   1.307   6.692   2.145
 3189SOL    HW210467   1.419   6.790   2.211
 3190SOL     OW10468   0.624   6.430   1.987
 3190SOL    HW110469   0.626   6.342   2.035
 3190SOL    HW210470   0.622   6.504   2.055
 3191SOL     OW10471   3.685   0.791   1.000
 3191SOL    HW110472   3.661   0.695   1.014
 3191SOL    HW210473   3.649   0.821   0.911
 3192SOL     OW10474   7.003   3.145   3.243
 3192SOL    HW110475   6.983   3.048   3.246
 3192SOL    HW210476   0.079   3.158   3.249
 3193SOL     OW10477   4.550   3.831   6.622
 3193SOL    HW110478   4.500   3.877   6.696
 3193SOL    HW210479   4.546   3.887   6.540
 3194SOL     OW10480   0.371   3.592   5.782
 3194SOL    HW110481   0.311   3.520   5.747
 3194SOL    HW210482   0.452   3.551   5.824
 3195SOL     OW10483   0.354   3.703   3.564
 3195SOL    HW110484   0.320   3.796   3.550
 3195SOL    HW210485   0.333   3.673   3.657
 3196SOL     OW10486   0.247   0.243   5.747
 3196SOL    HW110487   0.162   0.194   5.728
 3196SOL    HW210488   0.255   0.260   5.845
 3197SOL     OW10489   1.326   4.140   4.247
 3197SOL    HW110490   1.247   4.150   4.188
 3197SOL    HW210491   1.375   4.227   4.253
 3198SOL     OW10492   0.068   1.598   0.129
 3198SOL    HW110493   0.126   1.523   0.161
 3198SOL    HW210494   0.072   1.673   0.196
 3199SOL     OW10495   3.907   2.177   2.665
 3199SOL    HW110496   3.920   2.079   2.676
 3199SOL    HW210497   3.988   2.217   2.621
 3200SOL     OW10498   0.001   2.125   1.232
 3200SOL    HW110499   0.093   2.087   1.223
 3200SOL    HW210500   7.020   2.185   1.312
 3201SOL     OW10501   4.956   4.324   3.030
 3201SOL    HW110502   5.031   4.259   3.044
 3201SOL    HW210503   4.962   4.396   3.100
 3202SOL     OW10504   2.165   5.816   1.830
 3202SOL    HW110505   2.145   5.865   1.745
 3202SOL    HW210506   2.202   5.879   1.897
 3203SOL     OW10507   6.411   0.255   1.615
 3203SOL    HW110508   6.364   0.286   1.698
 3203SOL    HW210509   6.348   0.262   1.538
 3204SOL     OW10510   5.925   5.408   1.893
 3204SOL    HW110511   5.929   5.320   1.847
 3204SOL    HW210512   6.011   5.423   1.943
 3205SOL     OW10513   1.344   4.112   3.302
 3205SOL    HW110514   1.424   4.170   3.289
 3205SOL    HW210515   1.349   4.033   3.240
 3206SOL     OW10516   1.413   0.017   0.276
 3206SOL    HW110517   1.445   0.102   0.318
 3206SOL    HW210518   1.354   6.991   0.341
 3207SOL     OW10519   0.375   0.927   4.063
 3207SOL    HW110520   0.420   1.016   4.075
 3207SOL    HW210521   0.401   0.867   4.139
 3208SOL     OW10522   5.901   0.142   5.057
 3208SOL    HW110523   5.853   0.186   5.133
 3208SOL    HW210524   5.836   0.115   4.987
 3209SOL     OW10525   2.216   0.736   3.319
 3209SOL    HW110526   2.212   0.683   3.404
 3209SOL    HW210527   2.165   0.821   3.331
 3210SOL     OW10528   0.102   4.755   2.827
 3210SOL    HW110529   0.134   4.667   2.790
 3210SOL    HW210530   0.154   4.829   2.786
 3211SOL     OW10531   1.382   4.111   2.173
 3211SOL    HW110532   1.283   4.114   2.159
 3211SOL    HW210533   1.403   4.140   2.267
 3212SOL     OW10534   4.735   2.566   5.959
 3212SOL    HW110535   4.766   2.544   5.867
 3212SOL    HW210536   4.704   2.661   5.962
 3213SOL     OW10537   5.602   6.088   1.691
 3213SOL    HW110538   5.604   6.172   1.635
 3213SOL    HW210539   5.671   6.095   1.762
 3214SOL     OW10540   4.130   4.763   6.155
 3214SOL    HW110541   4.191   4.842   6.153
 3214SOL    HW210542   4.064   4.774   6.230
 3215SOL     OW10543   6.134   1.310   0.214
 3215SOL    HW110544   6.234   1.317   0.221
 3215SOL    HW210545   6.094   1.402   0.218
 3216SOL     OW10546   5.814   6.611   4.507
 3216SOL    HW110547   5.842   6.626   4.602
 3216SOL    HW210548   5.716   6.590   4.504
 3217SOL     OW10549   6.793   3.823   1.416
 3217SOL    HW110550   6.821   3.748   1.356
 3217SOL    HW210551   6.817   3.800   1.511
 3218SOL     OW10552   2.942   0.754   2.255
 3218SOL    HW110553   2.873   0.719   2.191
 3218SOL    HW210554   2.996   0.825   2.210
 3219SOL     OW10555   6.746   0.100   4.055
 3219SOL    HW110556   6.686   0.177   4.074
 3219SOL    HW210557   6.795   0.073   4.138
 3220SOL     OW10558   6.114   3.174   5.342
 3220SOL    HW110559   6.066   3.211   5.421
 3220SOL    HW210560   6.095   3.230   5.261
 3221SOL     OW10561   3.993   0.205   2.674
 3221SOL    HW110562   3.976   0.110   2.699
 3221SOL    HW210563   3.911   0.243   2.632
 3222SOL     OW10564   5.729   3.746   3.087
 3222SOL    HW110565   5.808   3.744   3.026
 3222SOL    HW210566   5.661   3.679   3.056
 3223SOL     OW10567   2.170   4.936   5.121
 3223SOL    HW110568   2.260   4.942   5.164
 3223SOL    HW210569   2.157   4.845   5.083
 3224SOL     OW10570   4.262   5.899   0.399
 3224SOL    HW110571   4.344   5.843   0.410
 3224SOL    HW210572   4.195   5.876   0.470
 3225SOL     OW10573   2.314   2.604   1.182
 3225SOL    HW110574   2.264   2.550   1.249
 3225SOL    HW210575   2.261   2.686   1.159
 3226SOL     OW10576   0.604   0.396   4.233
 3226SOL    HW110577   0.562   0.367   4.147
 3226SOL    HW210578   0.659   0.321   4.270
 3227SOL     OW10579   2.879   0.668   5.455
 3227SOL    HW110580   2.863   0.708   5.545
 3227SOL    HW210581   2.950   0.720   5.407
 3228SOL     OW10582   4.899   3.133   5.094
 3228SOL    HW110583   4.891   3.210   5.157
 3228SOL    HW210584   4.827   3.066   5.115
 3229SOL     OW10585   3.854   2.121   4.958
 3229SOL    HW110586   3.827   2.027   4.938
 3229SOL    HW210587   3.920   2.151   4.889
 3230SOL     OW10588   0.877   0.483   3.484
 3230SOL    HW110589   0.920   0.455   3.570
 3230SOL    HW210590   0.858   0.402   3.429
 3231SOL     OW10591   5.814   5.305   0.804
 3231SOL    HW110592   5.766   5.348   0.728
 3231SOL    HW210593   5.861   5.223   0.771
 3232SOL     OW10594   2.036   4.500   3.769
 3232SOL    HW110595   2.039   4.430   3.840
 3232SOL    HW210596   2.015   4.458   3.681
 3233SOL     OW10597   1.059   4.161   1.272
 3233SOL    HW110598   1.059   4.203   1.181
 3233SOL    HW210599   1.147   4.115   1.287
 3234SOL     OW10600   6.538   1.712   4.347
 3234SOL    HW110601   6.610   1.678   4.287
 3234SOL    HW210602   6.555   1.683   4.441
 3235SOL     OW10603   5.633   0.485   3.140
 3235SOL    HW110604   5.724   0.526   3.139
 3235SOL    HW210605   5.570   0.543   3.088
 3236SOL     OW10606   0.513   2.991   2.285
 3236SOL    HW110607   0.548   2.906   2.246
 3236SOL    HW210608   0.473   3.048   2.213
 3237SOL     OW10609   3.333   6.629   4.232
 3237SOL    HW110610   3.297   6.616   4.140
 3237SOL    HW210611   3.432   6.620   4.232
 3238SOL     OW10612   6.550   6.964   6.582
 3238SOL    HW110613   6.514   6.891   6.525
 3238SOL    HW210614   6.625   6.929   6.638
 3239SOL     OW10615   0.172   6.463   5.854
 3239SOL    HW110616   0.245   6.477   5.787
 3239SOL    HW210617   0.203   6.495   5.944
 3240SOL     OW10618   0.590   0.835   4.700
 3240SOL    HW110619   0.583   0.779   4.782
 3240SOL    HW210620   0.506   0.888   4.689
 3241SOL     OW10621   4.772   1.337   5.112
 3241SOL    HW110622   4.848   1.304   5.168
 3241SOL    HW210623   4.775   1.291   5.023
 3242SOL     OW10624   3.095   6.183   0.617
 3242SOL    HW110625   3.141   6.130   0.688
 3242SOL    HW210626   3.014   6.227   0.655
 3243SOL     OW10627   3.050   5.662   0.338
 3243SOL    HW110628   3.112   5.640   0.263
 3243SOL    HW210629   2.955   5.655   0.305
 3244SOL     OW10630   2.394   5.993   6.003
 3244SOL    HW110631   2.367   5.926   5.934
 3244SOL    HW210632   2.483   5.969   6.040
 3245SOL     OW10633   3.088   1.918   5.993
 3245SOL    HW110634   2.999   1.875   6.005
 3245SOL    HW210635   3.108   1.977   6.071
 3246SOL     OW10636   5.021   6.704   3.937
 3246SOL    HW110637   5.111   6.730   3.971
 3246SOL    HW210638   5.028   6.622   3.881
 3247SOL     OW10639   6.975   1.614   4.421
 3247SOL    HW110640   0.019   1.685   4.441
 3247SOL    HW210641   7.011   1.525   4.449
 3248SOL     OW10642   6.296   4.071   2.208
 3248SOL    HW110643   6.309   4.154   2.154
 3248SOL    HW210644   6.246   4.092   2.291
 3249SOL     OW10645   3.007   4.279   5.289
 3249SOL    HW110646   2.972   4.371   5.269
 3249SOL    HW210647   2.930   4.219   5.314
 3250SOL     OW10648   4.211   6.197   1.881
 3250SOL    HW110649   4.288   6.182   1.944
 3250SOL    HW210650   4.209   6.124   1.813
 3251SOL     OW10651   2.946   1.154   3.446
 3251SOL    HW110652   2.964   1.225   3.378
 3251SOL    HW210653   3.026   1.095   3.455
 3252SOL     OW10654   3.060   2.137   3.236
 3252SOL    HW110655   3.088   2.131   3.140
 3252SOL    HW210656   2.964   2.164   3.242
 3253SOL     OW10657   4.467   3.578   0.889
 3253SOL    HW110658   4.456   3.553   0.792
 3253SOL    HW210659   4.381   3.562   0.937
 3254SOL     OW10660   4.918   4.915   2.436
 3254SOL    HW110661   4.911   4.843   2.367
 3254SOL    HW210662   4.900   4.876   2.527
 3255SOL     OW10663   4.440   4.725   0.757
 3255SOL    HW110664   4.497   4.668   0.698
 3255SOL    HW210665   4.483   4.732   0.847
 3256SOL     OW10666   6.280   6.366   6.056
 3256SOL    HW110667   6.344   6.430   6.013
 3256SOL    HW210668   6.195   6.363   6.005
 3257SOL     OW10669   2.381   2.019   0.961
 3257SOL    HW110670   2.291   1.977   0.972
 3257SOL    HW210671   2.452   1.955   0.989
 3258SOL     OW10672   5.763   6.626   1.909
 3258SOL    HW110673   5.689   6.679   1.867
 3258SOL    HW210674   5.815   6.684   1.971
 3259SOL     OW10675   5.776   6.381   3.140
 3259SOL    HW110676   5.842   6.411   3.209
 3259SOL    HW210677   5.691   6.354   3.185
 3260SOL     OW10678   1.481   3.054   0.215
 3260SOL    HW110679   1.404   2.992   0.203
 3260SOL    HW210680   1.461   3.142   0.172
 3261SOL     OW10681   4.749   0.441   3.823
 3261SOL    HW110682   4.718   0.390   3.742
 3261SOL    HW210683   4.695   0.412   3.902
 3262SOL     OW10684   3.733   1.317   3.912
 3262SOL    HW110685   3.782   1.315   3.825
 3262SOL    HW210686   3.758   1.400   3.962
 3263SOL     OW10687   3.386   5.456   2.291
 3263SOL    HW110688   3.450   5.385   2.262
 3263SOL    HW210689   3.414   5.544   2.252
 3264SOL     OW10690   4.856   4.416   6.141
 3264SOL    HW110691   4.791   4.492   6.129
 3264SOL    HW210692   4.829   4.340   6.082
 3265SOL     OW10693   4.637   0.922   6.146
 3265SOL    HW110694   4.636   0.829   6.109
 3265SOL    HW210695   4.544   0.948   6.174
 3266SOL     OW10696   0.412   1.492   6.504
 3266SOL    HW110697   0.446   1.453   6.590
 3266SOL    HW210698   0.318   1.463   6.489
 3267SOL     OW10699   4.740   2.622   1.327
 3267SOL    HW110700   4.800   2.618   1.406
 3267SOL    HW210701   4.793   2.651   1.247
 3268SOL     OW10702   1.294   4.554   6.545
 3268SOL    HW110703   1.269   4.619   6.473
 3268SOL    HW210704   1.215   4.496   6.566
 3269SOL     OW10705   5.071   3.672   0.627
 3269SOL    HW110706   5.047   3.658   0.723
 3269SOL    HW210707   4.997   3.723   0.582
 3270SOL     OW10708   0.033   5.553   4.637
 3270SOL    HW110709   0.072   5.468   4.672
 3270SOL    HW210710   0.095   5.594   4.571
 3271SOL     OW10711   5.696   1.592   1.395
 3271SOL    HW110712   5.645   1.638   1.323
 3271SOL    HW210713   5.755   1.658   1.443
 3272SOL     OW10714   5.023   6.730   0.314
 3272SOL    HW110715   5.067   6.666   0.251
 3272SOL    HW210716   5.043   6.824   0.286
 3273SOL     OW10717   6.980   6.976   2.959
 3273SOL    HW110718   6.963   0.003   3.043
 3273SOL    HW210719   0.002   6.889   2.980
 3274SOL     OW10720   3.765   1.659   6.943
 3274SOL    HW110721   3.736   1.686   0.012
 3274SOL    HW210722   3.728   1.568   6.922
 3275SOL     OW10723   3.885   0.612   7.021
 3275SOL    HW110724   3.841   0.536   6.974
 3275SOL    HW210725   3.983   0.594   0.008
 3276SOL     OW10726   2.675   6.471   0.263
 3276SOL    HW110727   2.721   6.489   0.350
 3276SOL    HW210728   2.653   6.373   0.256
 3277SOL     OW10729   0.070   6.311   5.675
 3277SOL    HW110730   0.013   6.368   5.616
 3277SOL    HW210731   0.106   6.366   5.750
 3278SOL     OW10732   1.467   1.229   0.525
 3278SOL    HW110733   1.515   1.285   0.457
 3278SOL    HW210734   1.463   1.134   0.493
 3279SOL     OW10735   1.816   6.635   1.150
 3279SOL    HW110736   1.892   6.698   1.161
 3279SOL    HW210737   1.762   6.633   1.234
 3280SOL     OW10738   1.879   5.570   4.791
 3280SOL    HW110739   1.874   5.607   4.884
 3280SOL    HW210740   1.834   5.634   4.728
 3281SOL     OW10741   2.716   5.935   0.292
 3281SOL    HW110742   2.625   5.929   0.334
 3281SOL    HW210743   2.775   5.992   0.349
 3282SOL     OW10744   2.040   6.116   2.391
 3282SOL    HW110745   1.985   6.032   2.387
 3282SOL    HW210746   1.979   6.194   2.400
 3283SOL     OW10747   2.043   0.421   3.925
 3283SOL    HW110748   1.971   0.431   3.856
 3283SOL    HW210749   2.107   0.497   3.917
 3284SOL     OW10750   0.634   4.082   5.902
 3284SOL    HW110751   0.561   4.148   5.889
 3284SOL    HW210752   0.687   4.074   5.818
 3285SOL     OW10753   6.841   2.329   4.699
 3285SOL    HW110754   6.858   2.230   4.693
 3285SOL    HW210755   6.748   2.348   4.667
 3286SOL     OW10756   3.730   4.795   5.521
 3286SOL    HW110757   3.767   4.812   5.612
 3286SOL    HW210758   3.635   4.827   5.517
 3287SOL     OW10759   0.277   4.978   1.745
 3287SOL    HW110760   0.218   4.966   1.665
 3287SOL    HW210761   0.221   5.003   1.824
 3288SOL     OW10762   1.763   6.498   6.792
 3288SOL    HW110763   1.794   6.487   6.886
 3288SOL    HW210764   1.768   6.595   6.767
 3289SOL     OW10765   1.222   5.429   4.446
 3289SOL    HW110766   1.276   5.442   4.529
 3289SOL    HW210767   1.281   5.396   4.372
 3290SOL     OW10768   6.829   5.806   2.238
 3290SOL    HW110769   6.918   5.766   2.216
 3290SOL    HW210770   6.756   5.741   2.218
 3291SOL     OW10771   2.303   6.986   1.914
 3291SOL    HW110772   2.395   6.968   1.949
 3291SOL    HW210773   2.308   0.030   1.840
 3292SOL     OW10774   0.800   5.470   5.471
 3292SOL    HW110775   0.770   5.385   5.515
 3292SOL    HW210776   0.759   5.476   5.380
 3293SOL     OW10777   6.452   0.293   3.011
 3293SOL    HW110778   6.418   0.386   3.000
 3293SOL    HW210779   6.416   0.236   2.938
 3294SOL     OW10780   0.827   0.355   0.271
 3294SOL    HW110781   0.832   0.313   0.181
 3294SOL    HW210782   0.893   0.312   0.332
 3295SOL     OW10783   1.357   2.397   6.307
 3295SOL    HW110784   1.341   2.453   6.388
 3295SOL    HW210785   1.358   2.454   6.225
 3296SOL     OW10786   0.867   6.692   1.704
 3296SOL    HW110787   0.940   6.760   1.713
 3296SOL    HW210788   0.807   6.696   1.783
 3297SOL     OW10789   3.116   1.648   5.780
 3297SOL    HW110790   3.164   1.583   5.720
 3297SOL    HW210791   3.089   1.728   5.727
 3298SOL     OW10792   5.878   3.722   3.360
 3298SOL    HW110793   5.878   3.631   3.401
 3298SOL    HW210794   5.857   3.715   3.263
 3299SOL     OW10795   0.638   0.707   4.955
 3299SOL    HW110796   0.656   0.609   4.955
 3299SOL    HW210797   0.724   0.757   4.971
 3300SOL     OW10798   6.707   0.233   4.854
 3300SOL    HW110799   6.634   0.264   4.915
 3300SOL    HW210800   6.703   0.284   4.769
 3301SOL     OW10801   0.707   4.008   3.042
 3301SOL    HW110802   0.718   4.095   2.994
 3301SOL    HW210803   0.797   3.971   3.066
 3302SOL     OW10804   0.872   5.110   4.550
 3302SOL    HW110805   0.957   5.132   4.502
 3302SOL    HW210806   0.852   5.182   4.617
 3303SOL     OW10807   3.163   3.997   3.800
 3303SOL    HW110808   3.081   3.943   3.818
 3303SOL    HW210809   3.204   4.026   3.887
 3304SOL     OW10810   1.063   0.289   3.091
 3304SOL    HW110811   0.970   0.324   3.082
 3304SOL    HW210812   1.128   0.365   3.083
 3305SOL     OW10813   1.232   1.379   1.572
 3305SOL    HW110814   1.181   1.404   1.490
 3305SOL    HW210815   1.179   1.314   1.627
 3306SOL     OW10816   0.780   3.461   2.375
 3306SOL    HW110817   0.807   3.482   2.469
 3306SOL    HW210818   0.686   3.493   2.361
 3307SOL     OW10819   0.915   6.343   0.578
 3307SOL    HW110820   0.839   6.403   0.603
 3307SOL    HW210821   0.878   6.257   0.542
 3308SOL     OW10822   5.427   6.350   0.975
 3308SOL    HW110823   5.346   6.394   1.014
 3308SOL    HW210824   5.422   6.251   0.988
 3309SOL     OW10825   1.426   5.679   2.290
 3309SOL    HW110826   1.343   5.643   2.332
 3309SOL    HW210827   1.417   5.677   2.190
 3310SOL     OW10828   1.179   6.845   1.793
 3310SOL    HW110829   1.275   6.872   1.785
 3310SOL    HW210830   1.164   6.797   1.880
 3311SOL     OW10831   3.814   6.323   1.218
 3311SOL    HW110832   3.858   6.412   1.217
 3311SOL    HW210833   3.819   6.282   1.127
 3312SOL     OW10834   1.933   3.471   6.785
 3312SOL    HW110835   2.001   3.398   6.795
 3312SOL    HW210836   1.870   3.469   6.862
 3313SOL     OW10837   6.679   6.030   5.200
 3313SOL    HW110838   6.599   6.077   5.239
 3313SOL    HW210839   6.686   5.938   5.238
 3314SOL     OW10840   0.467   3.364   6.635
 3314SOL    HW110841   0.443   3.423   6.712
 3314SOL    HW210842   0.449   3.269   6.659
 3315SOL     OW10843   6.644   3.435   3.282
 3315SOL    HW110844   6.694   3.437   3.196
 3315SOL    HW210845   6.677   3.358   3.337
 3316SOL     OW10846   4.489   0.955   0.732
 3316SOL    HW110847   4.551   0.877   0.740
 3316SOL    HW210848   4.423   0.937   0.660
 3317SOL     OW10849   4.806   2.461   1.636
 3317SOL    HW110850   4.893   2.488   1.678
 3317SOL    HW210851   4.731   2.505   1.684
 3318SOL     OW10852   2.196   5.269   4.994
 3318SOL    HW110853   2.217   5.198   4.927
 3318SOL    HW210854   2.228   5.241   5.084
 3319SOL     OW10855   6.922   6.114   5.994
 3319SOL    HW110856   6.954   6.147   6.083
 3319SOL    HW210857   6.965   6.026   5.974
 3320SOL     OW10858   0.729   1.832   5.812
 3320SOL    HW110859   0.674   1.776   5.874
 3320SOL    HW210860   0.699   1.816   5.717
 3321SOL     OW10861   3.616   3.451   4.040
 3321SOL    HW110862   3.715   3.438   4.045
 3321SOL    HW210863   3.570   3.374   4.083
 3322SOL     OW10864   4.941   2.693   1.070
 3322SOL    HW110865   4.986   2.750   1.001
 3322SOL    HW210866   5.003   2.682   1.148
 3323SOL     OW10867   2.696   4.816   0.052
 3323SOL    HW110868   2.613   4.856   0.090
 3323SOL    HW210869   2.679   4.785   6.981
 3324SOL     OW10870   0.344   3.127   0.957
 3324SOL    HW110871   0.285   3.169   0.889
 3324SOL    HW210872   0.319   3.158   1.048
 3325SOL     OW10873   1.824   3.158   0.262
 3325SOL    HW110874   1.733   3.182   0.296
 3325SOL    HW210875   1.823   3.153   0.163
 3326SOL     OW10876   6.598   0.940   1.885
 3326SOL    HW110877   6.581   0.962   1.788
 3326SOL    HW210878   6.549   0.856   1.909
 3327SOL     OW10879   3.458   6.582   1.985
 3327SOL    HW110880   3.499   6.560   1.897
 3327SOL    HW210881   3.363   6.612   1.972
 3328SOL     OW10882   4.617   0.618   3.372
 3328SOL    HW110883   4.710   0.637   3.343
 3328SOL    HW210884   4.575   0.703   3.406
 3329SOL     OW10885   5.598   0.752   5.678
 3329SOL    HW110886   5.696   0.772   5.685
 3329SOL    HW210887   5.586   0.659   5.643
 3330SOL     OW10888   6.332   5.708   3.318
 3330SOL    HW110889   6.303   5.640   3.387
 3330SOL    HW210890   6.430   5.700   3.304
 3331SOL     OW10891   1.693   3.349   2.781
 3331SOL    HW110892   1.614   3.370   2.839
 3331SOL    HW210893   1.676   3.383   2.688
 3332SOL     OW10894   3.567   4.841   0.591
 3332SOL    HW110895   3.497   4.896   0.546
 3332SOL    HW210896   3.649   4.895   0.604
 3333SOL     OW10897   2.532   3.215   1.729
 3333SOL    HW110898   2.512   3.301   1.775
 3333SOL    HW210899   2.625   3.217   1.693
 3334SOL     OW10900   2.311   1.884   1.965
 3334SOL    HW110901   2.350   1.871   2.056
 3334SOL    HW210902   2.354   1.962   1.921
 3335SOL     OW10903   3.659   4.071   5.414
 3335SOL    HW110904   3.582   4.103   5.358
 3335SOL    HW210905   3.626   4.003   5.480
 3336SOL     OW10906   4.447   5.713   4.891
 3336SOL    HW110907   4.482   5.654   4.818
 3336SOL    HW210908   4.501   5.701   4.974
 3337SOL     OW10909   3.102   2.961   2.236
 3337SOL    HW110910   3.076   3.035   2.174
 3337SOL    HW210911   3.048   2.879   2.215
 3338SOL     OW10912   2.856   2.821   1.337
 3338SOL    HW110913   2.834   2.880   1.259
 3338SOL    HW210914   2.954   2.825   1.355
 3339SOL     OW10915   1.610   0.169   6.884
 3339SOL    HW110916   1.534   0.134   6.939
 3339SOL    HW210917   1.657   0.241   6.934
 3340SOL     OW10918   4.000   1.027   4.749
 3340SOL    HW110919   3.926   0.979   4.796
 3340SOL    HW210920   3.961   1.097   4.688
 3341SOL     OW10921   1.232   4.248   2.652
 3341SOL    HW110922   1.282   4.318   2.600
 3341SOL    HW210923   1.174   4.291   2.721
 3342SOL     OW10924   6.314   0.867   2.741
 3342SOL    HW110925   6.381   0.879   2.815
 3342SOL    HW210926   6.345   0.794   2.680
 3343SOL     OW10927   4.625   5.237   0.325
 3343SOL    HW110928   4.710   5.272   0.288
 3343SOL    HW210929   4.549   5.262   0.265
 3344SOL     OW10930   0.380   3.265   2.119
 3344SOL    HW110931   0.469   3.310   2.109
 3344SOL    HW210932   0.317   3.327   2.165
 3345SOL     OW10933   5.646   5.414   0.373
 3345SOL    HW110934   5.596   5.449   0.452
 3345SOL    HW210935   5.604   5.450   0.289
 3346SOL     OW10936   1.887   0.934   0.065
 3346SOL    HW110937   1.789   0.916   0.067
 3346SOL    HW210938   1.909   0.994   7.012
 3347SOL     OW10939   0.404   3.465   5.467
 3347SOL    HW110940   0.334   3.531   5.493
 3347SOL    HW210941   0.361   3.385   5.425
 3348SOL     OW10942   3.480   4.220   6.085
 3348SOL    HW110943   3.579   4.230   6.090
 3348SOL    HW210944   3.444   4.277   6.011
 3349SOL     OW10945   1.857   5.893   2.606
 3349SOL    HW110946   1.771   5.854   2.639
 3349SOL    HW210947   1.890   5.841   2.527
 3350SOL     OW10948   1.752   4.858   4.282
 3350SOL    HW110949   1.819   4.854   4.208
 3350SOL    HW210950   1.661   4.837   4.247
 3351SOL     OW10951   5.325   0.942   1.487
 3351SOL    HW110952   5.356   1.035   1.507
 3351SOL    HW210953   5.306   0.894   1.573
 3352SOL     OW10954   5.892   1.641   6.913
 3352SOL    HW110955   5.992   1.642   6.909
 3352SOL    HW210956   5.862   1.565   6.970
 3353SOL     OW10957   3.812   0.004   7.009
 3353SOL    HW110958   3.729   0.017   0.040
 3353SOL    HW210959   3.887   0.058   0.025
 3354SOL     OW10960   2.957   3.918   6.501
 3354SOL    HW110961   3.043   3.918   6.450
 3354SOL    HW210962   2.899   3.992   6.467
 3355SOL     OW10963   1.396   0.107   5.276
 3355SOL    HW110964   1.382   0.076   5.182
 3355SOL    HW210965   1.414   0.206   5.277
 3356SOL     OW10966   1.880   0.558   6.509
 3356SOL    HW110967   1.791   0.603   6.502
 3356SOL    HW210968   1.868   0.468   6.551
 3357SOL     OW10969   3.353   2.919   2.512
 3357SOL    HW110970   3.267   2.944   2.555
 3357SOL    HW210971   3.346   2.930   2.413
 3358SOL     OW10972   6.711   1.102   2.064
 3358SOL    HW110973   6.665   1.051   1.991
 3358SOL    HW210974   6.790   1.151   2.026
 3359SOL     OW10975   0.804   6.663   4.688
 3359SOL    HW110976   0.800   6.667   4.788
 3359SOL    HW210977   0.895   6.690   4.657
 3360SOL     OW10978   2.431   4.644   3.994
 3360SOL    HW110979   2.432   4.589   3.910
 3360SOL    HW210980   2.363   4.609   4.057
 3361SOL     OW10981   6.531   0.238   5.786
 3361SOL    HW110982   6.587   0.160   5.814
 3361SOL    HW210983   6.539   0.311   5.854
 3362SOL     OW10984   3.567   0.427   4.090
 3362SOL    HW110985   3.488   0.471   4.048
 3362SOL    HW210986   3.629   0.497   4.126
 3363SOL     OW10987   6.032   4.129   0.125
 3363SOL    HW110988   5.964   4.155   0.194
 3363SOL    HW210989   6.066   4.211   0.080
 3364SOL     OW10990   1.745   3.970   3.308
 3364SOL    HW110991   1.674   3.910   3.272
 3364SOL    HW210992   1.722   3.994   3.403
 3365SOL     OW10993   1.115   3.633   3.516
 3365SOL    HW110994   1.030   3.685   3.529
 3365SOL    HW210995   1.144   3.594   3.603
 3366SOL     OW10996   5.553   3.279   4.777
 3366SOL    HW110997   5.607   3.250   4.857
 3366SOL    HW210998   5.581   3.371   4.750
 3367SOL     OW10999   3.004   3.499   3.912
 3367SOL    HW111000   3.010   3.410   3.958
 3367SOL    HW211001   3.092   3.545   3.918
 3368SOL     OW11002   2.239   0.638   2.528
 3368SOL    HW111003   2.198   0.557   2.487
 3368SOL    HW211004   2.168   0.708   2.542
 3369SOL     OW11005   5.152   2.682   1.224
 3369SOL    HW111006   5.229   2.666   1.287
 3369SOL    HW211007   5.121   2.776   1.231
 3370SOL     OW11008   0.567   5.716   2.586
 3370SOL    HW111009   0.535   5.633   2.631
 3370SOL    HW211010   0.618   5.772   2.651
 3371SOL     OW11011   2.054   2.470   1.950
 3371SOL    HW111012   1.983   2.420   1.900
 3371SOL    HW211013   2.142   2.424   1.938
 3372SOL     OW11014   6.334   3.920   2.754
 3372SOL    HW111015   6.289   3.836   2.782
 3372SOL    HW211016   6.427   3.921   2.791
 3373SOL     OW11017   0.342   3.853   1.458
 3373SOL    HW111018   0.247   3.837   1.485
 3373SOL    HW211019   0.402   3.830   1.535
 3374SOL     OW11020   0.797   6.400   4.336
 3374SOL    HW111021   0.749   6.428   4.419
 3374SOL    HW211022   0.826   6.482   4.286
 3375SOL     OW11023   0.287   5.787   5.976
 3375SOL    HW111024   0.294   5.869   5.919
 3375SOL    HW211025   0.293   5.813   6.072
 3376SOL     OW11026   3.551   2.906   4.363
 3376SOL    HW111027   3.463   2.891   4.410
 3376SOL    HW211028   3.535   2.914   4.265
 3377SOL     OW11029   6.776   5.035   4.020
 3377SOL    HW111030   6.766   4.970   4.095
 3377SOL    HW211031   6.714   5.113   4.035
 3378SOL     OW11032   1.994   6.139   0.948
 3378SOL    HW111033   2.074   6.119   1.005
 3378SOL    HW211034   1.945   6.218   0.986
 3379SOL     OW11035   6.238   3.760   4.186
 3379SOL    HW111036   6.312   3.775   4.120
 3379SOL    HW211037   6.232   3.663   4.209
 3380SOL     OW11038   2.447   4.470   0.649
 3380SOL    HW111039   2.348   4.487   0.647
 3380SOL    HW211040   2.466   4.383   0.603
 3381SOL     OW11041   2.379   4.015   5.691
 3381SOL    HW111042   2.420   3.942   5.637
 3381SOL    HW211043   2.444   4.091   5.700
 3382SOL     OW11044   6.487   3.629   0.146
 3382SOL    HW111045   6.426   3.551   0.135
 3382SOL    HW211046   6.440   3.701   0.197
 3383SOL     OW11047   4.265   5.097   0.443
 3383SOL    HW111048   4.222   5.121   0.356
 3383SOL    HW211049   4.345   5.039   0.426
 3384SOL     OW11050   2.630   3.084   6.474
 3384SOL    HW111051   2.695   3.077   6.550
 3384SOL    HW211052   2.672   3.134   6.398
 3385SOL     OW11053   6.181   2.510   4.293
 3385SOL    HW111054   6.210   2.596   4.252
 3385SOL    HW211055   6.219   2.434   4.242
 3386SOL     OW11056   0.194   6.204   5.031
 3386SOL    HW111057   0.220   6.108   5.023
 3386SOL    HW211058   0.251   6.259   4.970
 3387SOL     OW11059   5.795   0.977   2.786
 3387SOL    HW111060   5.829   0.889   2.819
 3387SOL    HW211061   5.850   1.008   2.709
 3388SOL     OW11062   6.914   4.039   1.201
 3388SOL    HW111063   6.841   4.021   1.135
 3388SOL    HW211064   6.905   3.977   1.279
 3389SOL     OW11065   5.813   5.530   6.490
 3389SOL    HW111066   5.818   5.431   6.506
 3389SOL    HW211067   5.742   5.549   6.422
 3390SOL     OW11068   2.900   5.155   6.507
 3390SOL    HW111069   2.996   5.178   6.496
 3390SOL    HW211070   2.872   5.091   6.435
 3391SOL     OW11071   5.095   4.052   4.117
 3391SOL    HW111072   5.132   3.986   4.183
 3391SOL    HW211073   5.005   4.021   4.085
 3392SOL     OW11074   4.847   6.595   6.007
 3392SOL    HW111075   4.903   6.512   6.007
 3392SOL    HW211076   4.773   6.585   6.074
 3393SOL     OW11077   3.703   6.000   0.618
 3393SOL    HW111078   3.644   5.984   0.539
 3393SOL    HW211079   3.647   5.998   0.701
 3394SOL     OW11080   2.527   5.814   1.701
 3394SOL    HW111081   2.441   5.828   1.652
 3394SOL    HW211082   2.589   5.890   1.683
 3395SOL     OW11083   1.987   6.686   3.177
 3395SOL    HW111084   2.082   6.671   3.203
 3395SOL    HW211085   1.961   6.780   3.200
 3396SOL     OW11086   4.383   0.211   4.163
 3396SOL    HW111087   4.388   0.134   4.100
 3396SOL    HW211088   4.342   0.290   4.117
 3397SOL     OW11089   2.451   5.663   6.479
 3397SOL    HW111090   2.372   5.620   6.523
 3397SOL    HW211091   2.446   5.650   6.380
 3398SOL     OW11092   6.659   1.806   5.302
 3398SOL    HW111093   6.754   1.818   5.332
 3398SOL    HW211094   6.649   1.844   5.210
 3399SOL     OW11095   6.528   6.072   2.247
 3399SOL    HW111096   6.580   6.013   2.309
 3399SOL    HW211097   6.473   6.136   2.300
 3400SOL     OW11098   4.062   3.029   5.743
 3400SOL    HW111099   4.014   3.117   5.746
 3400SOL    HW211100   4.092   3.010   5.649
 3401SOL     OW11101   6.809   4.084   4.975
 3401SOL    HW111102   6.877   4.125   4.915
 3401SOL    HW211103   6.828   3.987   4.985
 3402SOL     OW11104   6.936   3.731   0.810
 3402SOL    HW111105   6.861   3.679   0.770
 3402SOL    HW211106   6.908   3.827   0.821
 3403SOL     OW11107   5.403   0.176   6.870
 3403SOL    HW111108   5.331   0.156   6.803
 3403SOL    HW211109   5.409   0.275   6.883
 3404SOL     OW11110   5.369   4.543   4.421
 3404SOL    HW111111   5.419   4.609   4.477
 3404SOL    HW211112   5.366   4.575   4.326
 3405SOL     OW11113   4.643   6.043   6.989
 3405SOL    HW111114   4.680   6.096   0.043
 3405SOL    HW211115   4.654   5.946   7.008
 3406SOL     OW11116   3.163   5.782   1.363
 3406SOL    HW111117   3.123   5.760   1.452
 3406SOL    HW211118   3.236   5.849   1.375
 3407SOL     OW11119   1.080   4.096   6.061
 3407SOL    HW111120   1.074   4.194   6.048
 3407SOL    HW211121   1.001   4.065   6.115
 3408SOL     OW11122   5.001   0.586   3.665
 3408SOL    HW111123   4.935   0.524   3.706
 3408SOL    HW211124   5.075   0.534   3.624
 3409SOL     OW11125   3.934   0.723   0.504
 3409SOL    HW111126   3.864   0.794   0.514
 3409SOL    HW211127   3.909   0.662   0.429
 3410SOL     OW11128   6.708   0.300   3.158
 3410SOL    HW111129   6.622   0.293   3.108
 3410SOL    HW211130   6.784   0.306   3.093
 3411SOL     OW11131   6.175   3.375   5.887
 3411SOL    HW111132   6.217   3.456   5.846
 3411SOL    HW211133   6.239   3.298   5.882
 3412SOL     OW11134   5.619   3.423   2.474
 3412SOL    HW111135   5.523   3.403   2.494
 3412SOL    HW211136   5.647   3.373   2.392
 3413SOL     OW11137   6.361   1.525   0.712
 3413SOL    HW111138   6.454   1.488   0.718
 3413SOL    HW211139   6.308   1.497   0.792
 3414SOL     OW11140   3.377   3.378   1.605
 3414SOL    HW111141   3.465   3.363   1.651
 3414SOL    HW211142   3.315   3.303   1.628
 3415SOL     OW11143   2.448   1.857   5.724
 3415SOL    HW111144   2.400   1.939   5.755
 3415SOL    HW211145   2.546   1.868   5.740
 3416SOL     OW11146   6.479   6.884   0.258
 3416SOL    HW111147   6.557   6.833   0.293
 3416SOL    HW211148   6.419   6.822   0.206
 3417SOL     OW11149   6.356   0.020   3.014
 3417SOL    HW111150   6.386   0.115   3.028
 3417SOL    HW211151   6.340   0.005   2.916
 3418SOL     OW11152   4.443   5.428   0.181
 3418SOL    HW111153   4.353   5.472   0.186
 3418SOL    HW211154   4.444   5.361   0.107
 3419SOL     OW11155   2.211   5.071   5.491
 3419SOL    HW111156   2.123   5.116   5.476
 3419SOL    HW211157   2.243   5.089   5.584
 3420SOL     OW11158   4.357   1.758   1.704
 3420SOL    HW111159   4.341   1.729   1.799
 3420SOL    HW211160   4.385   1.854   1.703
 3421SOL     OW11161   0.167   1.814   5.088
 3421SOL    HW111162   0.143   1.722   5.056
 3421SOL    HW211163   0.193   1.870   5.010
 3422SOL     OW11164   2.685   6.538   0.772
 3422SOL    HW111165   2.689   6.513   0.869
 3422SOL    HW211166   2.601   6.501   0.731
 3423SOL     OW11167   2.484   4.665   5.799
 3423SOL    HW111168   2.503   4.600   5.725
 3423SOL    HW211169   2.507   4.758   5.769
 3424SOL     OW11170   5.354   1.141   1.864
 3424SOL    HW111171   5.281   1.087   1.821
 3424SOL    HW211172   5.351   1.234   1.829
 3425SOL     OW11173   6.363   3.640   6.077
 3425SOL    HW111174   6.378   3.735   6.050
 3425SOL    HW211175   6.266   3.617   6.065
 3426SOL     OW11176   6.342   3.808   0.307
 3426SOL    HW111177   6.256   3.847   0.275
 3426SOL    HW211178   6.328   3.765   0.396
 3427SOL     OW11179   0.970   2.169   0.270
 3427SOL    HW111180   0.954   2.115   0.188
 3427SOL    HW211181   0.958   2.112   0.351
 3428SOL     OW11182   4.724   0.007   4.845
 3428SOL    HW111183   4.648   0.040   4.901
 3428SOL    HW211184   4.700   6.943   4.803
 3429SOL     OW11185   4.419   6.529   0.672
 3429SOL    HW111186   4.500   6.470   0.659
 3429SOL    HW211187   4.362   6.525   0.590
 3430SOL     OW11188   2.769   4.063   6.350
 3430SOL    HW111189   2.677   4.026   6.361
 3430SOL    HW211190   2.784   4.088   6.255
 3431SOL     OW11191   0.752   4.330   2.736
 3431SOL    HW111192   0.803   4.247   2.713
 3431SOL    HW211193   0.708   4.366   2.655
 3432SOL     OW11194   0.364   4.708   0.325
 3432SOL    HW111195   0.431   4.777   0.351
 3432SOL    HW211196   0.275   4.752   0.311
 3433SOL     OW11197   1.984   1.172   6.928
 3433SOL    HW111198   1.921   1.190   6.853
 3433SOL    HW211199   2.061   1.235   6.923
 3434SOL     OW11200   3.561   2.519   1.689
 3434SOL    HW111201   3.462   2.530   1.679
 3434SOL    HW211202   3.580   2.434   1.738
 3435SOL     OW11203   1.503   2.144   1.324
 3435SOL    HW111204   1.450   2.146   1.408
 3435SOL    HW211205   1.455   2.194   1.252
 3436SOL     OW11206   3.713   6.816   6.559
 3436SOL    HW111207   3.687   6.845   6.467
 3436SOL    HW211208   3.796   6.761   6.555
 3437SOL     OW11209   1.334   0.424   0.009
 3437SOL    HW111210   1.267   0.487   6.994
 3437SOL    HW211211   1.301   0.330   0.001
 3438SOL     OW11212   2.305   3.851   0.966
 3438SOL    HW111213   2.273   3.820   0.876
 3438SOL    HW211214   2.343   3.943   0.957
 3439SOL     OW11215   2.855   5.815   1.124
 3439SOL    HW111216   2.939   5.773   1.159
 3439SOL    HW211217   2.790   5.826   1.199
 3440SOL     OW11218   3.458   3.707   5.521
 3440SOL    HW111219   3.428   3.664   5.606
 3440SOL    HW211220   3.502   3.795   5.542
 3441SOL     OW11221   6.337   5.187   5.441
 3441SOL    HW111222   6.362   5.284   5.440
 3441SOL    HW211223   6.254   5.175   5.495
 3442SOL     OW11224   1.969   2.928   1.315
 3442SOL    HW111225   1.988   3.021   1.348
 3442SOL    HW211226   1.957   2.930   1.216
 3443SOL     OW11227   0.270   6.083   2.077
 3443SOL    HW111228   0.172   6.066   2.082
 3443SOL    HW211229   0.304   6.056   1.987
 3444SOL     OW11230   6.779   4.115   5.251
 3444SOL    HW111231   6.694   4.147   5.292
 3444SOL    HW211232   6.771   4.119   5.151
 3445SOL     OW11233   6.353   4.566   4.448
 3445SOL    HW111234   6.352   4.627   4.528
 3445SOL    HW211235   6.325   4.617   4.367
 3446SOL     OW11236   4.464   1.122   0.943
 3446SOL    HW111237   4.503   1.211   0.920
 3446SOL    HW211238   4.486   1.056   0.871
 3447SOL     OW11239   5.577   0.860   6.123
 3447SOL    HW111240   5.608   0.932   6.185
 3447SOL    HW211241   5.576   0.894   6.029
 3448SOL     OW11242   1.349   4.565   5.144
 3448SOL    HW111243   1.276   4.538   5.081
 3448SOL    HW211244   1.356   4.664   5.146
 3449SOL     OW11245   0.704   4.655   5.255
 3449SOL    HW111246   0.711   4.685   5.351
 3449SOL    HW211247   0.692   4.735   5.196
 3450SOL     OW11248   2.551   0.317   1.711
 3450SOL    HW111249   2.586   0.233   1.751
 3450SOL    HW211250   2.511   0.374   1.783
 3451SOL     OW11251   1.580   2.135   0.871
 3451SOL    HW111252   1.527   2.218   0.855
 3451SOL    HW211253   1.522   2.055   0.859
 3452SOL     OW11254   4.559   1.344   5.270
 3452SOL    HW111255   4.619   1.346   5.191
 3452SOL    HW211256   4.475   1.395   5.250
 3453SOL     OW11257   3.897   6.611   6.567
 3453SOL    HW111258   3.874   6.551   6.644
 3453SOL    HW211259   3.982   6.581   6.526
 3454SOL     OW11260   0.456   3.179   1.436
 3454SOL    HW111261   0.440   3.115   1.511
 3454SOL    HW211262   0.532   3.239   1.459
 3455SOL     OW11263   0.339   3.686   6.052
 3455SOL    HW111264   0.304   3.648   5.966
 3455SOL    HW211265   0.414   3.629   6.085
 3456SOL     OW11266   5.051   5.669   3.421
 3456SOL    HW111267   5.073   5.590   3.479
 3456SOL    HW211268   5.034   5.749   3.478
 3457SOL     OW11269   3.626   4.190   6.431
 3457SOL    HW111270   3.663   4.137   6.508
 3457SOL    HW211271   3.556   4.136   6.384
 3458SOL     OW11272   3.945   1.504   2.420
 3458SOL    HW111273   3.999   1.558   2.356
 3458SOL    HW211274   3.848   1.512   2.396
 3459SOL     OW11275   5.632   5.675   2.450
 3459SOL    HW111276   5.593   5.671   2.358
 3459SOL    HW211277   5.559   5.694   2.516
 3460SOL     OW11278   3.503   1.916   4.691
 3460SOL    HW111279   3.473   1.987   4.755
 3460SOL    HW211280   3.462   1.933   4.601
 3461SOL     OW11281   5.228   5.013   4.633
 3461SOL    HW111282   5.175   4.946   4.582
 3461SOL    HW211283   5.199   5.012   4.729
 3462SOL     OW11284   0.885   3.618   6.155
 3462SOL    HW111285   0.916   3.585   6.066
 3462SOL    HW211286   0.927   3.563   6.227
 3463SOL     OW11287   5.786   4.171   0.277
 3463SOL    HW111288   5.734   4.178   0.192
 3463SOL    HW211289   5.728   4.199   0.354
 3464SOL     OW11290   0.259   4.408   4.034
 3464SOL    HW111291   0.177   4.434   4.085
 3464SOL    HW211292   0.328   4.376   4.098
 3465SOL     OW11293   0.876   2.011   2.709
 3465SOL    HW111294   0.778   2.012   2.690
 3465SOL    HW211295   0.892   2.047   2.801
 3466SOL     OW11296   0.431   3.360   4.727
 3466SOL    HW111297   0.406   3.298   4.802
 3466SOL    HW211298   0.423   3.311   4.640
 3467SOL     OW11299   1.954   2.179   5.721
 3467SOL    HW111300   2.008   2.107   5.764
 3467SOL    HW211301   1.882   2.137   5.665
 3468SOL     OW11302   4.181   6.139   2.287
 3468SOL    HW111303   4.149   6.097   2.371
 3468SOL    HW211304   4.109   6.135   2.217
 3469SOL     OW11305   5.492   3.618   1.502
 3469SOL    HW111306   5.417   3.679   1.527
 3469SOL    HW211307   5.571   3.671   1.473
 3470SOL     OW11308   0.148   5.572   0.662
 3470SOL    HW111309   0.212   5.607   0.731
 3470SOL    HW211310   0.192   5.574   0.572
 3471SOL     OW11311   4.327   0.495   4.493
 3471SOL    HW111312   4.387   0.564   4.451
 3471SOL    HW211313   4.267   0.456   4.423
 3472SOL     OW11314   4.173   1.169   4.937
 3472SOL    HW111315   4.124   1.113   4.870
 3472SOL    HW211316   4.149   1.140   5.029
 3473SOL     OW11317   4.210   6.522   4.005
 3473SOL    HW111318   4.228   6.504   4.102
 3473SOL    HW211319   4.112   6.515   3.988
 3474SOL     OW11320   5.222   4.339   1.270
 3474SOL    HW111321   5.180   4.384   1.191
 3474SOL    HW211322   5.299   4.393   1.302
 3475SOL     OW11323   1.654   6.272   4.754
 3475SOL    HW111324   1.575   6.239   4.702
 3475SOL    HW211325   1.737   6.259   4.701
 3476SOL     OW11326   4.680   1.704   5.078
 3476SOL    HW111327   4.635   1.773   5.021
 3476SOL    HW211328   4.775   1.732   5.095
 3477SOL     OW11329   4.209   5.650   1.586
 3477SOL    HW111330   4.294   5.703   1.590
 3477SOL    HW211331   4.205   5.587   1.664
 3478SOL     OW11332   3.933   4.500   0.068
 3478SOL    HW111333   3.907   4.448   0.149
 3478SOL    HW211334   3.893   4.591   0.071
 3479SOL     OW11335   1.656   0.377   1.427
 3479SOL    HW111336   1.661   0.278   1.420
 3479SOL    HW211337   1.731   0.419   1.375
 3480SOL     OW11338   0.754   0.208   4.339
 3480SOL    HW111339   0.780   0.201   4.243
 3480SOL    HW211340   0.836   0.216   4.395
 3481SOL     OW11341   2.074   6.135   0.001
 3481SOL    HW111342   2.014   6.138   0.081
 3481SOL    HW211343   2.021   6.156   6.942
 3482SOL     OW11344   0.887   2.275   1.794
 3482SOL    HW111345   0.853   2.368   1.779
 3482SOL    HW211346   0.815   2.219   1.835
 3483SOL     OW11347   4.013   2.048   0.926
 3483SOL    HW111348   4.035   1.972   0.864
 3483SOL    HW211349   4.091   2.110   0.929
 3484SOL     OW11350   3.497   2.902   3.792
 3484SOL    HW111351   3.596   2.909   3.783
 3484SOL    HW211352   3.456   2.893   3.701
 3485SOL     OW11353   6.535   1.670   4.604
 3485SOL    HW111354   6.579   1.584   4.631
 3485SOL    HW211355   6.437   1.665   4.628
 3486SOL     OW11356   5.073   1.118   2.591
 3486SOL    HW111357   5.107   1.099   2.499
 3486SOL    HW211358   5.119   1.058   2.657
 3487SOL     OW11359   0.611   1.039   0.519
 3487SOL    HW111360   0.699   1.028   0.474
 3487SOL    HW211361   0.624   1.083   0.608
 3488SOL     OW11362   6.001   3.459   4.145
 3488SOL    HW111363   6.033   3.385   4.204
 3488SOL    HW211364   5.901   3.462   4.146
 3489SOL     OW11365   1.918   5.677   0.474
 3489SOL    HW111366   1.984   5.604   0.492
 3489SOL    HW211367   1.963   5.750   0.422
 3490SOL     OW11368   4.731   2.856   0.999
 3490SOL    HW111369   4.806   2.791   1.012
 3490SOL    HW211370   4.731   2.923   1.073
 3491SOL     OW11371   0.764   2.841   5.730
 3491SOL    HW111372   0.709   2.924   5.729
 3491SOL    HW211373   0.708   2.763   5.759
 3492SOL     OW11374   5.577   4.781   0.205
 3492SOL    HW111375   5.568   4.836   0.289
 3492SOL    HW211376   5.570   4.684   0.228
 3493SOL     OW11377   6.964   4.946   1.777
 3493SOL    HW111378   7.018   4.921   1.696
 3493SOL    HW211379   6.978   4.878   1.848
 3494SOL     OW11380   2.895   6.457   1.100
 3494SOL    HW111381   2.981   6.421   1.135
 3494SOL    HW211382   2.879   6.548   1.137
 3495SOL     OW11383   5.961   4.464   0.274
 3495SOL    HW111384   5.866   4.485   0.253
 3495SOL    HW211385   6.011   4.446   0.188
 3496SOL     OW11386   0.632   4.557   0.741
 3496SOL    HW111387   0.590   4.620   0.805
 3496SOL    HW211388   0.608   4.463   0.766
 3497SOL     OW11389   4.623   6.443   4.327
 3497SOL    HW111390   4.584   6.378   4.392
 3497SOL    HW211391   4.575   6.531   4.336
 3498SOL     OW11392   1.405   1.638   0.916
 3498SOL    HW111393   1.483   1.650   0.977
 3498SOL    HW211394   1.426   1.567   0.849
 3499SOL     OW11395   6.929   3.695   4.638
 3499SOL    HW111396   6.961   3.738   4.554
 3499SOL    HW211397   6.847   3.741   4.670
 3500SOL     OW11398   6.615   3.415   0.736
 3500SOL    HW111399   6.535   3.447   0.787
 3500SOL    HW211400   6.679   3.371   0.799
 3501SOL     OW11401   0.896   4.262   3.606
 3501SOL    HW111402   0.925   4.202   3.680
 3501SOL    HW211403   0.977   4.301   3.561
 3502SOL     OW11404   1.216   4.881   1.917
 3502SOL    HW111405   1.164   4.910   1.837
 3502SOL    HW211406   1.246   4.786   1.905
 3503SOL     OW11407   3.497   6.655   3.572
 3503SOL    HW111408   3.495   6.565   3.615
 3503SOL    HW211409   3.502   6.645   3.473
 3504SOL     OW11410   2.267   2.941   2.723
 3504SOL    HW111411   2.234   2.935   2.628
 3504SOL    HW211412   2.309   2.855   2.749
 3505SOL     OW11413   4.391   6.537   4.934
 3505SOL    HW111414   4.408   6.484   4.851
 3505SOL    HW211415   4.440   6.624   4.928
 3506SOL     OW11416   5.571   4.842   1.906
 3506SOL    HW111417   5.481   4.806   1.884
 3506SOL    HW211418   5.612   4.789   1.980
 3507SOL     OW11419   0.560   0.712   6.527
 3507SOL    HW111420   0.656   0.686   6.514
 3507SOL    HW211421   0.527   0.760   6.446
 3508SOL     OW11422   5.822   3.719   6.843
 3508SOL    HW111423   5.855   3.635   6.884
 3508SOL    HW211424   5.885   3.794   6.864
 3509SOL     OW11425   6.037   0.650   0.442
 3509SOL    HW111426   6.079   0.691   0.523
 3509SOL    HW211427   5.948   0.611   0.466
 3510SOL     OW11428   2.351   2.591   2.417
 3510SOL    HW111429   2.294   2.670   2.440
 3510SOL    HW211430   2.370   2.591   2.319
 3511SOL     OW11431   0.491   0.740   5.489
 3511SOL    HW111432   0.395   0.755   5.465
 3511SOL    HW211433   0.497   0.702   5.581
 3512SOL     OW11434   3.146   2.708   0.963
 3512SOL    HW111435   3.110   2.703   0.870
 3512SOL    HW211436   3.124   2.798   1.002
 3513SOL     OW11437   5.031   4.761   1.240
 3513SOL    HW111438   5.117   4.717   1.267
 3513SOL    HW211439   4.955   4.701   1.263
 3514SOL     OW11440   1.873   6.984   1.777
 3514SOL    HW111441   1.938   6.969   1.702
 3514SOL    HW211442   1.811   0.036   1.752
 3515SOL     OW11443   3.799   6.042   3.184
 3515SOL    HW111444   3.752   5.955   3.173
 3515SOL    HW211445   3.884   6.027   3.235
 3516SOL     OW11446   2.313   1.146   0.694
 3516SOL    HW111447   2.354   1.197   0.618
 3516SOL    HW211448   2.378   1.076   0.725
 3517SOL     OW11449   0.612   0.490   6.172
 3517SOL    HW111450   0.615   0.575   6.118
 3517SOL    HW211451   0.696   0.481   6.225
 3518SOL     OW11452   4.477   3.649   5.918
 3518SOL    HW111453   4.550   3.643   5.986
 3518SOL    HW211454   4.402   3.705   5.953
 3519SOL     OW11455   3.010   6.440   0.361
 3519SOL    HW111456   2.929   6.462   0.414
 3519SOL    HW211457   3.090   6.484   0.402
 3520SOL     OW11458   3.921   5.026   1.069
 3520SOL    HW111459   3.865   4.986   0.995
 3520SOL    HW211460   3.882   4.999   1.157
 3521SOL     OW11461   5.758   2.359   6.075
 3521SOL    HW111462   5.845   2.373   6.028
 3521SOL    HW211463   5.721   2.270   6.052
 3522SOL     OW11464   2.858   6.798   1.497
 3522SOL    HW111465   2.946   6.785   1.451
 3522SOL    HW211466   2.805   6.714   1.492
 3523SOL     OW11467   2.559   4.776   5.367
 3523SOL    HW111468   2.585   4.733   5.280
 3523SOL    HW211469   2.586   4.717   5.442
 3524SOL     OW11470   2.235   0.568   1.741
 3524SOL    HW111471   2.226   0.667   1.729
 3524SOL    HW211472   2.282   0.529   1.662
 3525SOL     OW11473   1.624   3.783   3.140
 3525SOL    HW111474   1.649   3.686   3.149
 3525SOL    HW211475   1.654   3.817   3.051
 3526SOL     OW11476   3.535   0.057   3.289
 3526SOL    HW111477   3.632   0.080   3.303
 3526SOL    HW211478   3.490   0.133   3.242
 3527SOL     OW11479   5.572   2.886   6.296
 3527SOL    HW111480   5.537   2.818   6.361
 3527SOL    HW211481   5.666   2.910   6.320
 3528SOL     OW11482   1.180   7.008   4.282
 3528SOL    HW111483   1.125   6.983   4.203
 3528SOL    HW211484   1.249   0.052   4.255
 3529SOL     OW11485   3.704   5.736   0.106
 3529SOL    HW111486   3.696   5.681   0.189
 3529SOL    HW211487   3.615   5.774   0.082
 3530SOL     OW11488   1.472   6.387   2.961
 3530SOL    HW111489   1.553   6.354   2.912
 3530SOL    HW211490   1.397   6.399   2.897
 3531SOL     OW11491   4.967   4.709   6.850
 3531SOL    HW111492   5.026   4.779   6.809
 3531SOL    HW211493   5.022   4.647   6.906
 3532SOL     OW11494   1.813   6.313   0.421
 3532SOL    HW111495   1.752   6.279   0.493
 3532SOL    HW211496   1.798   6.411   0.410
 3533SOL     OW11497   1.199   1.467   3.822
 3533SOL    HW111498   1.131   1.537   3.843
 3533SOL    HW211499   1.289   1.498   3.855
 3534SOL     OW11500   4.973   0.734   5.274
 3534SOL    HW111501   5.071   0.718   5.269
 3534SOL    HW211502   4.932   0.719   5.184
 3535SOL     OW11503   4.620   6.329   6.811
 3535SOL    HW111504   4.528   6.293   6.802
 3535SOL    HW211505   4.635   6.402   6.745
 3536SOL     OW11506   0.949   4.084   2.816
 3536SOL    HW111507   1.006   4.026   2.757
 3536SOL    HW211508   0.975   4.071   2.912
 3537SOL     OW11509   2.741   4.012   1.101
 3537SOL    HW111510   2.674   4.005   1.174
 3537SOL    HW211511   2.833   4.016   1.139
 3538SOL     OW11512   3.764   1.115   3.508
 3538SOL    HW111513   3.708   1.049   3.557
 3538SOL    HW211514   3.816   1.068   3.436
 3539SOL     OW11515   5.079   6.100   6.564
 3539SOL    HW111516   5.004   6.084   6.500
 3539SOL    HW211517   5.146   6.026   6.555
 3540SOL     OW11518   2.337   4.211   6.266
 3540SOL    HW111519   2.283   4.159   6.200
 3540SOL    HW211520   2.349   4.305   6.233
 3541SOL     OW11521   1.778   2.650   1.700
 3541SOL    HW111522   1.801   2.560   1.661
 3541SOL    HW211523   1.861   2.699   1.724
 3542SOL     OW11524   6.150   1.582   6.815
 3542SOL    HW111525   6.216   1.597   6.888
 3542SOL    HW211526   6.175   1.638   6.736
 3543SOL     OW11527   0.602   2.350   4.159
 3543SOL    HW111528   0.619   2.422   4.093
 3543SOL    HW211529   0.648   2.266   4.130
 3544SOL     OW11530   3.015   3.577   6.879
 3544SOL    HW111531   3.048   3.575   6.784
 3544SOL    HW211532   3.068   3.643   6.931
 3545SOL     OW11533   3.618   6.698   0.677
 3545SOL    HW111534   3.709   6.691   0.636
 3545SOL    HW211535   3.623   6.752   0.761
 3546SOL     OW11536   6.874   4.437   2.166
 3546SOL    HW111537   6.914   4.495   2.096
 3546SOL    HW211538   6.917   4.456   2.254
 3547SOL     OW11539   1.430   3.918   4.557
 3547SOL    HW111540   1.386   3.830   4.572
 3547SOL    HW211541   1.464   3.954   4.644
 3548SOL     OW11542   5.748   0.302   6.332
 3548SOL    HW111543   5.746   0.381   6.393
 3548SOL    HW211544   5.660   0.255   6.336
 3549SOL     OW11545   2.788   6.797   6.771
 3549SOL    HW111546   2.777   6.872   6.836
 3549SOL    HW211547   2.839   6.722   6.814
 3550SOL     OW11548   4.928   0.951   5.470
 3550SOL    HW111549   4.841   0.903   5.473
 3550SOL    HW211550   4.963   0.951   5.377
 3551SOL     OW11551   5.018   1.912   4.536
 3551SOL    HW111552   5.078   1.842   4.498
 3551SOL    HW211553   5.069   1.998   4.546
 3552SOL     OW11554   6.237   0.137   3.513
 3552SOL    HW111555   6.251   0.088   3.427
 3552SOL    HW211556   6.238   0.235   3.496
 3553SOL     OW11557   5.954   6.017   6.732
 3553SOL    HW111558   5.943   6.049   6.638
 3553SOL    HW211559   5.982   5.921   6.732
 3554SOL     OW11560   5.082   4.464   6.984
 3554SOL    HW111561   5.174   4.493   7.010
 3554SOL    HW211562   5.069   4.367   7.007
 3555SOL     OW11563   2.955   1.948   5.335
 3555SOL    HW111564   3.017   1.982   5.265
 3555SOL    HW211565   2.920   2.024   5.389
 3556SOL     OW11566   5.634   0.863   0.535
 3556SOL    HW111567   5.565   0.933   0.519
 3556SOL    HW211568   5.721   0.891   0.494
 3557SOL     OW11569   5.614   6.890   1.184
 3557SOL    HW111570   5.686   6.943   1.142
 3557SOL    HW211571   5.571   6.943   1.258
 3558SOL     OW11572   3.754   5.546   2.303
 3558SOL    HW111573   3.657   5.565   2.292
 3558SOL    HW211574   3.768   5.484   2.380
 3559SOL     OW11575   4.641   6.802   6.390
 3559SOL    HW111576   4.548   6.798   6.426
 3559SOL    HW211577   4.639   6.786   6.291
 3560SOL     OW11578   1.029   5.256   4.361
 3560SOL    HW111579   1.108   5.308   4.393
 3560SOL    HW211580   1.059   5.173   4.313
 3561SOL     OW11581   4.680   3.323   5.335
 3561SOL    HW111582   4.597   3.269   5.345
 3561SOL    HW211583   4.658   3.413   5.299
 3562SOL     OW11584   3.103   1.913   0.312
 3562SOL    HW111585   3.190   1.874   0.284
 3562SOL    HW211586   3.069   1.866   0.394
 3563SOL     OW11587   6.599   2.324   5.930
 3563SOL    HW111588   6.558   2.328   6.021
 3563SOL    HW211589   6.696   2.300   5.938
 3564SOL     OW11590   6.133   3.532   2.235
 3564SOL    HW111591   6.122   3.556   2.139
 3564SOL    HW211592   6.044   3.526   2.279
 3565SOL     OW11593   4.693   5.684   5.816
 3565SOL    HW111594   4.645   5.683   5.904
 3565SOL    HW211595   4.734   5.594   5.799
 3566SOL     OW11596   1.185   0.552   4.876
 3566SOL    HW111597   1.129   0.565   4.795
 3566SOL    HW211598   1.127   0.524   4.953
 3567SOL     OW11599   6.739   3.381   6.515
 3567SOL    HW111600   6.754   3.458   6.578
 3567SOL    HW211601   6.642   3.354   6.518
 3568SOL     OW11602   5.876   3.882   6.416
 3568SOL    HW111603   5.812   3.890   6.340
 3568SOL    HW211604   5.920   3.792   6.414
 3569SOL     OW11605   1.212   0.293   3.780
 3569SOL    HW111606   1.312   0.291   3.789
 3569SOL    HW211607   1.182   0.384   3.754
 3570SOL     OW11608   5.592   1.319   4.137
 3570SOL    HW111609   5.656   1.328   4.213
 3570SOL    HW211610   5.561   1.410   4.108
 3571SOL     OW11611   6.589   6.986   5.204
 3571SOL    HW111612   6.534   6.986   5.287
 3571SOL    HW211613   6.543   6.934   5.133
 3572SOL     OW11614   6.491   6.586   5.473
 3572SOL    HW111615   6.464   6.496   5.509
 3572SOL    HW211616   6.571   6.575   5.415
 3573SOL     OW11617   0.607   2.005   2.620
 3573SOL    HW111618   0.529   2.051   2.662
 3573SOL    HW211619   0.584   1.980   2.525
 3574SOL     OW11620   6.094   3.906   0.312
 3574SOL    HW111621   6.117   3.953   0.397
 3574SOL    HW211622   6.072   3.973   0.241
 3575SOL     OW11623   6.516   5.727   1.964
 3575SOL    HW111624   6.451   5.758   1.895
 3575SOL    HW211625   6.565   5.647   1.930
 3576SOL     OW11626   0.752   1.698   6.797
 3576SOL    HW111627   0.837   1.649   6.816
 3576SOL    HW211628   0.713   1.733   6.882
 3577SOL     OW11629   2.105   3.237   6.904
 3577SOL    HW111630   2.170   3.305   6.872
 3577SOL    HW211631   2.134   3.203   6.994
 3578SOL     OW11632   3.354   4.662   1.679
 3578SOL    HW111633   3.431   4.626   1.730
 3578SOL    HW211634   3.298   4.586   1.645
 3579SOL     OW11635   1.473   4.169   5.243
 3579SOL    HW111636   1.402   4.100   5.257
 3579SOL    HW211637   1.518   4.152   5.155
 3580SOL     OW11638   6.734   2.641   1.251
 3580SOL    HW111639   6.720   2.680   1.342
 3580SOL    HW211640   6.722   2.542   1.254
 3581SOL     OW11641   5.599   1.192   3.269
 3581SOL    HW111642   5.504   1.209   3.243
 3581SOL    HW211643   5.653   1.173   3.186
 3582SOL     OW11644   7.003   0.650   5.215
 3582SOL    HW111645   6.903   0.660   5.219
 3582SOL    HW211646   0.013   0.612   5.302
 3583SOL     OW11647   2.117   5.138   1.243
 3583SOL    HW111648   2.154   5.053   1.207
 3583SOL    HW211649   2.190   5.191   1.286
 3584SOL     OW11650   5.375   6.739   5.730
 3584SOL    HW111651   5.365   6.715   5.826
 3584SOL    HW211652   5.427   6.824   5.722
 3585SOL     OW11653   2.843   5.139   4.261
 3585SOL    HW111654   2.819   5.144   4.358
 3585SOL    HW211655   2.817   5.049   4.225
 3586SOL     OW11656   0.612   1.743   6.196
 3586SOL    HW111657   0.710   1.746   6.177
 3586SOL    HW211658   0.562   1.783   6.120
 3587SOL     OW11659   3.663   0.327   6.987
 3587SOL    HW111660   3.567   0.326   6.959
 3587SOL    HW211661   3.722   0.324   6.906
 3588SOL     OW11662   2.258   1.093   4.961
 3588SOL    HW111663   2.197   1.169   4.983
 3588SOL    HW211664   2.218   1.039   4.887
 3589SOL     OW11665   2.935   0.308   5.201
 3589SOL    HW111666   2.888   0.232   5.156
 3589SOL    HW211667   2.967   0.373   5.132
 3590SOL     OW11668   1.336   4.984   6.920
 3590SOL    HW111669   1.407   4.961   6.986
 3590SOL    HW211670   1.289   5.067   6.949
 3591SOL     OW11671   5.412   2.336   5.965
 3591SOL    HW111672   5.375   2.427   5.945
 3591SOL    HW211673   5.496   2.323   5.913
 3592SOL     OW11674   5.199   2.634   2.011
 3592SOL    HW111675   5.214   2.584   1.925
 3592SOL    HW211676   5.143   2.579   2.072
 3593SOL     OW11677   0.618   4.705   3.953
 3593SOL    HW111678   0.680   4.627   3.938
 3593SOL    HW211679   0.672   4.786   3.976
 3594SOL     OW11680   3.907   1.284   4.628
 3594SOL    HW111681   3.850   1.360   4.597
 3594SOL    HW211682   3.964   1.253   4.553
 3595SOL     OW11683   2.099   6.402   5.870
 3595SOL    HW111684   2.028   6.459   5.829
 3595SOL    HW211685   2.063   6.355   5.950
 3596SOL     OW11686   0.296   3.632   3.818
 3596SOL    HW111687   0.227   3.637   3.890
 3596SOL    HW211688   0.383   3.599   3.857
 3597SOL     OW11689   3.545   6.237   3.157
 3597SOL    HW111690   3.600   6.215   3.238
 3597SOL    HW211691   3.474   6.303   3.183
 3598SOL     OW11692   1.725   0.379   0.661
 3598SOL    HW111693   1.725   0.406   0.757
 3598SOL    HW211694   1.744   0.459   0.604
 3599SOL     OW11695   6.791   1.716   3.716
 3599SOL    HW111696   6.705   1.692   3.670
 3599SOL    HW211697   6.860   1.646   3.696
 3600SOL     OW11698   6.370   0.602   1.456
 3600SOL    HW111699   6.450   0.603   1.517
 3600SOL    HW211700   6.299   0.661   1.493
 3601SOL     OW11701   6.105   3.518   5.423
 3601SOL    HW111702   6.134   3.595   5.480
 3601SOL    HW211703   6.057   3.451   5.480
 3602SOL     OW11704   2.340   1.939   0.632
 3602SOL    HW111705   2.371   2.034   0.637
 3602SOL    HW211706   2.398   1.883   0.691
 3603SOL     OW11707   4.197   4.841   4.363
 3603SOL    HW111708   4.220   4.923   4.311
 3603SOL    HW211709   4.228   4.760   4.313
 3604SOL     OW11710   0.414   3.439   3.504
 3604SOL    HW111711   0.408   3.537   3.524
 3604SOL    HW211712   0.337   3.412   3.448
 3605SOL     OW11713   6.327   3.006   6.589
 3605SOL    HW111714   6.339   3.075   6.661
 3605SOL    HW211715   6.319   3.052   6.501
 3606SOL     OW11716   1.667   4.513   4.135
 3606SOL    HW111717   1.752   4.468   4.106
 3606SOL    HW211718   1.618   4.546   4.055
 3607SOL     OW11719   4.428   6.652   0.147
 3607SOL    HW111720   4.397   6.658   0.242
 3607SOL    HW211721   4.394   6.731   0.096
 3608SOL     OW11722   0.363   2.695   2.426
 3608SOL    HW111723   0.328   2.730   2.512
 3608SOL    HW211724   0.452   2.652   2.442
 3609SOL     OW11725   6.335   0.002   5.343
 3609SOL    HW111726   6.250   0.054   5.354
 3609SOL    HW211727   6.320   6.931   5.374
 3610SOL     OW11728   1.870   6.071   5.155
 3610SOL    HW111729   1.824   6.014   5.222
 3610SOL    HW211730   1.922   6.013   5.092
 3611SOL     OW11731   4.135   5.011   5.120
 3611SOL    HW111732   4.233   5.023   5.106
 3611SOL    HW211733   4.119   4.983   5.215
 3612SOL     OW11734   1.647   6.708   1.416
 3612SOL    HW111735   1.660   6.614   1.446
 3612SOL    HW211736   1.551   6.723   1.392
 3613SOL     OW11737   5.395   5.119   6.604
 3613SOL    HW111738   5.361   5.081   6.690
 3613SOL    HW211739   5.381   5.218   6.604
 3614SOL     OW11740   4.156   3.381   4.103
 3614SOL    HW111741   4.180   3.477   4.117
 3614SOL    HW211742   4.174   3.356   4.008
 3615SOL     OW11743   6.824   6.121   6.392
 3615SOL    HW111744   6.789   6.183   6.322
 3615SOL    HW211745   6.815   6.027   6.361
 3616SOL     OW11746   6.290   0.366   4.916
 3616SOL    HW111747   6.310   0.290   4.977
 3616SOL    HW211748   6.347   0.444   4.940
 3617SOL     OW11749   6.603   0.995   0.191
 3617SOL    HW111750   6.523   0.942   0.161
 3617SOL    HW211751   6.572   1.078   0.238
 3618SOL     OW11752   2.857   0.514   5.910
 3618SOL    HW111753   2.935   0.562   5.950
 3618SOL    HW211754   2.821   0.448   5.975
 3619SOL     OW11755   5.067   3.099   4.249
 3619SOL    HW111756   5.159   3.136   4.251
 3619SOL    HW211757   5.035   3.084   4.343
 3620SOL     OW11758   6.215   0.775   5.096
 3620SOL    HW111759   6.284   0.714   5.134
 3620SOL    HW211760   6.199   0.851   5.160
 3621SOL     OW11761   1.759   3.185   5.984
 3621SOL    HW111762   1.704   3.126   5.925
 3621SOL    HW211763   1.855   3.158   5.976
 3622SOL     OW11764   0.390   2.669   0.825
 3622SOL    HW111765   0.425   2.736   0.891
 3622SOL    HW211766   0.438   2.680   0.738
 3623SOL     OW11767   6.989   5.632   4.301
 3623SOL    HW111768   6.966   5.537   4.281
 3623SOL    HW211769   0.052   5.636   4.352
 3624SOL     OW11770   1.825   0.906   1.825
 3624SOL    HW111771   1.832   1.003   1.847
 3624SOL    HW211772   1.901   0.879   1.766
 3625SOL     OW11773   0.450   2.939   4.444
 3625SOL    HW111774   0.433   2.994   4.362
 3625SOL    HW211775   0.548   2.922   4.453
 3626SOL     OW11776   2.482   3.797   5.356
 3626SOL    HW111777   2.470   3.878   5.299
 3626SOL    HW211778   2.414   3.728   5.330
 3627SOL     OW11779   2.941   3.815   3.825
 3627SOL    HW111780   2.878   3.773   3.890
 3627SOL    HW211781   3.023   3.758   3.816
 3628SOL     OW11782   3.637   5.354   2.559
 3628SOL    HW111783   3.729   5.377   2.592
 3628SOL    HW211784   3.572   5.359   2.635
 3629SOL     OW11785   6.099   2.238   5.159
 3629SOL    HW111786   6.060   2.152   5.126
 3629SOL    HW211787   6.101   2.305   5.085
 3630SOL     OW11788   5.808   1.851   4.835
 3630SOL    HW111789   5.747   1.826   4.910
 3630SOL    HW211790   5.814   1.774   4.771
 3631SOL     OW11791   1.985   1.118   4.179
 3631SOL    HW111792   1.941   1.202   4.146
 3631SOL    HW211793   2.083   1.123   4.164
 3632SOL     OW11794   4.272   0.507   6.418
 3632SOL    HW111795   4.294   0.598   6.453
 3632SOL    HW211796   4.238   0.515   6.324
 3633SOL     OW11797   2.564   2.996   5.950
 3633SOL    HW111798   2.538   3.068   6.013
 3633SOL    HW211799   2.482   2.948   5.917
 3634SOL     OW11800   2.090   5.748   5.086
 3634SOL    HW111801   2.027   5.803   5.031
 3634SOL    HW211802   2.091   5.654   5.052
 3635SOL     OW11803   2.554   1.193   4.902
 3635SOL    HW111804   2.460   1.157   4.899
 3635SOL    HW211805   2.588   1.189   4.996
 3636SOL     OW11806   1.314   5.500   6.732
 3636SOL    HW111807   1.216   5.514   6.719
 3636SOL    HW211808   1.344   5.421   6.678
 3637SOL     OW11809   5.705   1.503   2.070
 3637SOL    HW111810   5.634   1.568   2.097
 3637SOL    HW211811   5.669   1.441   2.001
 3638SOL     OW11812   6.143   4.884   4.034
 3638SOL    HW111813   6.229   4.932   4.020
 3638SOL    HW211814   6.161   4.794   4.074
 3639SOL     OW11815   2.029   5.017   0.262
 3639SOL    HW111816   2.043   5.099   0.207
 3639SOL    HW211817   2.096   5.014   0.336
 3640SOL     OW11818   3.460   6.045   1.351
 3640SOL    HW111819   3.525   5.971   1.367
 3640SOL    HW211820   3.392   6.046   1.424
 3641SOL     OW11821   2.682   0.498   5.181
 3641SOL    HW111822   2.738   0.430   5.228
 3641SOL    HW211823   2.641   0.456   5.100
 3642SOL     OW11824   5.985   0.260   3.560
 3642SOL    HW111825   6.031   0.322   3.623
 3642SOL    HW211826   6.017   0.166   3.576
 3643SOL     OW11827   2.581   4.620   5.147
 3643SOL    HW111828   2.673   4.599   5.116
 3643SOL    HW211829   2.539   4.537   5.185
 3644SOL     OW11830   0.300   1.287   0.789
 3644SOL    HW111831   0.300   1.333   0.879
 3644SOL    HW211832   0.303   1.188   0.802
 3645SOL     OW11833   3.135   0.008   3.185
 3645SOL    HW111834   3.196   0.004   3.106
 3645SOL    HW211835   3.040   7.022   3.155
 3646SOL     OW11836   6.847   5.018   4.753
 3646SOL    HW111837   6.846   5.109   4.795
 3646SOL    HW211838   6.765   5.005   4.698
 3647SOL     OW11839   2.515   2.878   1.358
 3647SOL    HW111840   2.580   2.918   1.293
 3647SOL    HW211841   2.424   2.874   1.317
 3648SOL     OW11842   2.811   6.202   2.897
 3648SOL    HW111843   2.887   6.214   2.960
 3648SOL    HW211844   2.838   6.230   2.805
 3649SOL     OW11845   3.228   3.581   2.025
 3649SOL    HW111846   3.203   3.653   1.961
 3649SOL    HW211847   3.269   3.622   2.107
 3650SOL     OW11848   0.066   6.570   1.742
 3650SOL    HW111849   0.010   6.652   1.751
 3650SOL    HW211850   0.007   6.491   1.725
 3651SOL     OW11851   1.677   5.856   2.308
 3651SOL    HW111852   1.579   5.865   2.326
 3651SOL    HW211853   1.697   5.886   2.215
 3652SOL     OW11854   4.415   5.277   3.390
 3652SOL    HW111855   4.510   5.248   3.407
 3652SOL    HW211856   4.370   5.293   3.478
 3653SOL     OW11857   0.279   2.898   3.913
 3653SOL    HW111858   0.306   2.864   4.003
 3653SOL    HW211859   0.189   2.942   3.919
 3654SOL     OW11860   1.759   6.134   1.253
 3654SOL    HW111861   1.695   6.062   1.226
 3654SOL    HW211862   1.749   6.212   1.192
 3655SOL     OW11863   1.384   0.420   4.517
 3655SOL    HW111864   1.387   0.346   4.449
 3655SOL    HW211865   1.476   0.437   4.552
 3656SOL     OW11866   2.332   2.051   2.210
 3656SOL    HW111867   2.304   2.144   2.234
 3656SOL    HW211868   2.430   2.050   2.190
 3657SOL     OW11869   3.849   5.888   1.297
 3657SOL    HW111870   3.914   5.829   1.345
 3657SOL    HW211871   3.757   5.849   1.304
 3658SOL     OW11872   1.528   5.295   6.316
 3658SOL    HW111873   1.435   5.295   6.353
 3658SOL    HW211874   1.584   5.361   6.366
 3659SOL     OW11875   1.591   4.407   6.746
 3659SOL    HW111876   1.542   4.444   6.824
 3659SOL    HW211877   1.674   4.460   6.730
 3660SOL     OW11878   4.760   6.029   1.343
 3660SOL    HW111879   4.844   5.974   1.345
 3660SOL    HW211880   4.730   6.040   1.249
 3661SOL     OW11881   4.874   1.483   0.522
 3661SOL    HW111882   4.952   1.546   0.521
 3661SOL    HW211883   4.790   1.533   0.499
 3662SOL     OW11884   3.447   6.761   5.562
 3662SOL    HW111885   3.440   6.845   5.616
 3662SOL    HW211886   3.392   6.689   5.606
 3663SOL     OW11887   0.870   3.249   6.324
 3663SOL    HW111888   0.840   3.258   6.419
 3663SOL    HW211889   0.821   3.173   6.281
 3664SOL     OW11890   4.055   1.769   0.776
 3664SOL    HW111891   4.092   1.692   0.724
 3664SOL    HW211892   4.026   1.841   0.713
 3665SOL     OW11893   1.044   0.209   6.166
 3665SOL    HW111894   1.012   0.250   6.081
 3665SOL    HW211895   1.130   0.252   6.193
 3666SOL     OW11896   1.009   5.372   3.835
 3666SOL    HW111897   0.979   5.342   3.926
 3666SOL    HW211898   1.085   5.436   3.844
 3667SOL     OW11899   6.753   2.132   6.641
 3667SOL    HW111900   6.822   2.108   6.710
 3667SOL    HW211901   6.791   2.118   6.550
 3668SOL     OW11902   0.832   6.020   1.892
 3668SOL    HW111903   0.891   6.087   1.937
 3668SOL    HW211904   0.888   5.955   1.842
 3669SOL     OW11905   6.380   2.836   2.916
 3669SOL    HW111906   6.468   2.839   2.963
 3669SOL    HW211907   6.381   2.764   2.847
 3670SOL     OW11908   2.021   5.724   5.656
 3670SOL    HW111909   1.924   5.747   5.662
 3670SOL    HW211910   2.073   5.806   5.632
 3671SOL     OW11911   0.572   0.966   2.959
 3671SOL    HW111912   0.523   0.890   3.002
 3671SOL    HW211913   0.661   0.933   2.926
 3672SOL     OW11914   0.153   0.750   1.049
 3672SOL    HW111915   0.152   0.826   0.984
 3672SOL    HW211916   0.124   0.666   1.001
 3673SOL     OW11917   5.129   0.352   6.798
 3673SOL    HW111918   5.211   0.365   6.742
 3673SOL    HW211919   5.106   0.437   6.844
 3674SOL     OW11920   0.975   6.724   1.019
 3674SOL    HW111921   0.970   6.799   1.084
 3674SOL    HW211922   0.885   6.680   1.012
 3675SOL     OW11923   1.708   2.128   5.059
 3675SOL    HW111924   1.780   2.059   5.066
 3675SOL    HW211925   1.693   2.169   5.149
 3676SOL     OW11926   2.272   5.421   3.286
 3676SOL    HW111927   2.194   5.459   3.334
 3676SOL    HW211928   2.240   5.355   3.217
 3677SOL     OW11929   6.327   6.754   4.510
 3677SOL    HW111930   6.356   6.848   4.491
 3677SOL    HW211931   6.228   6.747   4.498
 3678SOL     OW11932   0.988   1.632   3.857
 3678SOL    HW111933   1.050   1.702   3.820
 3678SOL    HW211934   0.924   1.675   3.921
 3679SOL     OW11935   0.390   0.912   2.046
 3679SOL    HW111936   0.395   0.877   2.139
 3679SOL    HW211937   0.367   0.837   1.984
 3680SOL     OW11938   6.728   3.598   4.312
 3680SOL    HW111939   6.784   3.676   4.285
 3680SOL    HW211940   6.737   3.524   4.245
 3681SOL     OW11941   6.706   6.202   5.509
 3681SOL    HW111942   6.764   6.212   5.590
 3681SOL    HW211943   6.758   6.225   5.427
 3682SOL     OW11944   0.417   1.600   6.275
 3682SOL    HW111945   0.493   1.663   6.256
 3682SOL    HW211946   0.425   1.566   6.368
 3683SOL     OW11947   5.331   6.399   4.176
 3683SOL    HW111948   5.258   6.331   4.187
 3683SOL    HW211949   5.322   6.470   4.245
 3684SOL     OW11950   1.517   3.350   0.630
 3684SOL    HW111951   1.445   3.420   0.630
 3684SOL    HW211952   1.582   3.371   0.703
 3685SOL     OW11953   6.758   6.622   6.701
 3685SOL    HW111954   6.680   6.571   6.738
 3685SOL    HW211955   6.750   6.719   6.724
 3686SOL     OW11956   6.454   4.382   1.496
 3686SOL    HW111957   6.422   4.458   1.553
 3686SOL    HW211958   6.519   4.326   1.548
 3687SOL     OW11959   2.983   0.874   0.103
 3687SOL    HW111960   2.915   0.919   0.046
 3687SOL    HW211961   3.019   0.940   0.170
 3688SOL     OW11962   0.791   3.659   0.339
 3688SOL    HW111963   0.833   3.577   0.302
 3688SOL    HW211964   0.691   3.648   0.342
 3689SOL     OW11965   2.524   1.000   3.619
 3689SOL    HW111966   2.434   0.957   3.615
 3689SOL    HW211967   2.531   1.055   3.702
 3690SOL     OW11968   6.186   6.808   5.496
 3690SOL    HW111969   6.152   6.892   5.538
 3690SOL    HW211970   6.117   6.770   5.434
 3691SOL     OW11971   3.666   2.418   6.910
 3691SOL    HW111972   3.751   2.468   6.892
 3691SOL    HW211973   3.686   2.320   6.918
 3692SOL     OW11974   1.976   0.466   6.038
 3692SOL    HW111975   2.035   0.490   5.960
 3692SOL    HW211976   1.887   0.510   6.027
 3693SOL     OW11977   2.685   1.986   2.782
 3693SOL    HW111978   2.707   2.011   2.876
 3693SOL    HW211979   2.614   2.047   2.747
 3694SOL     OW11980   1.978   6.011   2.827
 3694SOL    HW111981   2.075   6.011   2.851
 3694SOL    HW211982   1.967   5.970   2.736
 3695SOL     OW11983   1.656   2.123   2.275
 3695SOL    HW111984   1.582   2.176   2.232
 3695SOL    HW211985   1.648   2.128   2.374
 3696SOL     OW11986   3.277   6.359   5.707
 3696SOL    HW111987   3.210   6.334   5.777
 3696SOL    HW211988   3.296   6.280   5.649
 3697SOL     OW11989   6.133   7.021   4.453
 3697SOL    HW111990   6.128   6.942   4.392
 3697SOL    HW211991   6.103   6.996   4.544
 3698SOL     OW11992   2.909   6.941   5.862
 3698SOL    HW111993   2.836   6.912   5.801
 3698SOL    HW211994   2.974   6.999   5.812
 3699SOL     OW11995   0.796   3.817   2.333
 3699SOL    HW111996   0.704   3.852   2.352
 3699SOL    HW211997   0.847   3.808   2.418
 3700SOL     OW11998   0.239   6.789   4.025
 3700SOL    HW111999   0.249   6.886   4.044
 3700SOL    HW212000   0.273   6.736   4.102
 3701SOL     OW12001   6.406   0.703   3.350
 3701SOL    HW112002   6.463   0.622   3.334
 3701SOL    HW212003   6.332   0.706   3.283
 3702SOL     OW12004   3.476   0.910   6.878
 3702SOL    HW112005   3.475   0.902   6.978
 3702SOL    HW212006   3.570   0.896   6.845
 3703SOL     OW12007   4.215   4.427   6.630
 3703SOL    HW112008   4.255   4.343   6.593
 3703SOL    HW212009   4.168   4.407   6.716
 3704SOL     OW12010   1.913   0.644   2.750
 3704SOL    HW112011   1.884   0.722   2.696
 3704SOL    HW212012   1.846   0.570   2.742
 3705SOL     OW12013   5.582   0.954   4.016
 3705SOL    HW112014   5.488   0.961   4.050
 3705SOL    HW212015   5.586   0.886   3.943
 3706SOL     OW12016   1.994   2.592   3.753
 3706SOL    HW112017   2.055   2.669   3.735
 3706SOL    HW212018   2.032   2.509   3.712
 3707SOL     OW12019   4.420   2.583   5.234
 3707SOL    HW112020   4.488   2.514   5.208
 3707SOL    HW212021   4.328   2.548   5.217
 3708SOL     OW12022   5.878   6.927   6.119
 3708SOL    HW112023   5.835   6.851   6.168
 3708SOL    HW212024   5.926   6.985   6.185
 3709SOL     OW12025   3.923   0.657   6.694
 3709SOL    HW112026   3.999   0.717   6.668
 3709SOL    HW212027   3.841   0.713   6.711
 3710SOL     OW12028   0.147   4.792   1.090
 3710SOL    HW112029   0.203   4.775   1.172
 3710SOL    HW212030   0.139   4.891   1.076
 3711SOL     OW12031   6.315   4.810   2.689
 3711SOL    HW112032   6.286   4.844   2.778
 3711SOL    HW212033   6.373   4.729   2.701
 3712SOL     OW12034   2.235   6.578   0.744
 3712SOL    HW112035   2.157   6.520   0.722
 3712SOL    HW212036   2.209   6.674   0.730
 3713SOL     OW12037   3.852   5.834   5.623
 3713SOL    HW112038   3.863   5.920   5.673
 3713SOL    HW212039   3.861   5.851   5.525
 3714SOL     OW12040   3.741   0.551   4.878
 3714SOL    HW112041   3.781   0.643   4.870
 3714SOL    HW212042   3.686   0.546   4.962
 3715SOL     OW12043   5.643   3.742   5.016
 3715SOL    HW112044   5.683   3.657   5.051
 3715SOL    HW212045   5.693   3.771   4.934
 3716SOL     OW12046   0.513   1.073   4.367
 3716SOL    HW112047   0.542   1.018   4.289
 3716SOL    HW212048   0.548   1.032   4.451
 3717SOL     OW12049   5.423   6.863   0.449
 3717SOL    HW112050   5.473   6.795   0.502
 3717SOL    HW212051   5.370   6.921   0.511
 3718SOL     OW12052   0.868   5.843   6.963
 3718SOL    HW112053   0.825   5.933   6.970
 3718SOL    HW212054   0.919   5.823   0.024
 3719SOL     OW12055   3.494   4.923   5.551
 3719SOL    HW112056   3.402   4.925   5.512
 3719SOL    HW212057   3.505   4.999   5.615
 3720SOL     OW12058   6.885   2.187   5.524
 3720SOL    HW112059   6.857   2.159   5.432
 3720SOL    HW212060   6.940   2.114   5.565
 3721SOL     OW12061   5.203   3.519   0.855
 3721SOL    HW112062   5.257   3.508   0.939
 3721SOL    HW212063   5.119   3.465   0.863
 3722SOL     OW12064   6.434   5.885   2.478
 3722SOL    HW112065   6.533   5.898   2.471
 3722SOL    HW212066   6.411   5.792   2.449
 3723SOL     OW12067   4.507   1.377   0.822
 3723SOL    HW112068   4.557   1.459   0.850
 3723SOL    HW212069   4.563   1.322   0.761
 3724SOL     OW12070   0.964   5.665   5.820
 3724SOL    HW112071   0.868   5.638   5.815
 3724SOL    HW212072   0.973   5.745   5.880
 3725SOL     OW12073   6.834   6.849   0.659
 3725SOL    HW112074   6.758   6.785   0.655
 3725SOL    HW212075   6.875   6.859   0.568
 3726SOL     OW12076   5.665   3.384   1.783
 3726SOL    HW112077   5.726   3.315   1.822
 3726SOL    HW212078   5.633   3.354   1.693
 3727SOL     OW12079   2.204   3.303   5.501
 3727SOL    HW112080   2.238   3.230   5.442
 3727SOL    HW212081   2.135   3.357   5.452
 3728SOL     OW12082   1.233   3.639   6.690
 3728SOL    HW112083   1.135   3.640   6.669
 3728SOL    HW212084   1.281   3.701   6.628
 3729SOL     OW12085   0.560   2.619   3.567
 3729SOL    HW112086   0.658   2.637   3.560
 3729SOL    HW212087   0.520   2.676   3.639
 3730SOL     OW12088   2.681   0.564   0.409
 3730SOL    HW112089   2.650   0.655   0.381
 3730SOL    HW212090   2.695   0.508   0.328
 3731SOL     OW12091   3.659   6.575   0.013
 3731SOL    HW112092   3.667   6.517   6.955
 3731SOL    HW212093   3.563   6.588   0.036
 3732SOL     OW12094   2.170   3.737   5.112
 3732SOL    HW112095   2.159   3.697   5.020
 3732SOL    HW212096   2.216   3.825   5.104
 3733SOL     OW12097   2.508   3.648   1.383
 3733SOL    HW112098   2.603   3.624   1.400
 3733SOL    HW212099   2.488   3.639   1.285
 3734SOL     OW12100   5.114   0.502   2.342
 3734SOL    HW112101   5.138   0.595   2.315
 3734SOL    HW212102   5.125   0.492   2.441
 3735SOL     OW12103   3.523   1.389   2.074
 3735SOL    HW112104   3.524   1.342   1.986
 3735SOL    HW212105   3.549   1.485   2.061
 3736SOL     OW12106   5.238   1.750   6.890
 3736SOL    HW112107   5.332   1.776   6.867
 3736SOL    HW212108   5.234   1.724   6.987
 3737SOL     OW12109   4.780   6.925   3.451
 3737SOL    HW112110   4.789   6.927   3.551
 3737SOL    HW212111   4.837   6.852   3.414
 3738SOL     OW12112   0.041   0.083   3.855
 3738SOL    HW112113   0.029   0.004   3.915
 3738SOL    HW212114   0.011   0.060   3.762
 3739SOL     OW12115   0.851   4.237   2.447
 3739SOL    HW112116   0.892   4.329   2.448
 3739SOL    HW212117   0.802   4.224   2.361
 3740SOL     OW12118   5.175   0.843   0.380
 3740SOL    HW112119   5.146   0.753   0.348
 3740SOL    HW212120   5.143   0.913   0.316
 3741SOL     OW12121   3.707   2.295   6.258
 3741SOL    HW112122   3.730   2.214   6.313
 3741SOL    HW212123   3.688   2.372   6.319
 3742SOL     OW12124   3.641   3.285   5.492
 3742SOL    HW112125   3.558   3.315   5.540
 3742SOL    HW212126   3.624   3.199   5.445
 3743SOL     OW12127   0.540   5.688   6.402
 3743SOL    HW112128   0.637   5.709   6.387
 3743SOL    HW212129   0.495   5.766   6.445
 3744SOL     OW12130   6.887   5.909   2.923
 3744SOL    HW112131   6.855   5.833   2.868
 3744SOL    HW212132   6.950   5.966   2.869
 3745SOL     OW12133   4.452   5.784   2.377
 3745SOL    HW112134   4.521   5.711   2.377
 3745SOL    HW212135   4.497   5.872   2.389
 3746SOL     OW12136   4.184   2.225   2.590
 3746SOL    HW112137   4.223   2.316   2.606
 3746SOL    HW212138   4.244   2.156   2.630
 3747SOL     OW12139   2.910   6.870   0.277
 3747SOL    HW112140   2.820   6.826   0.273
 3747SOL    HW212141   2.916   6.926   0.360
 3748SOL     OW12142   5.667   1.224   2.161
 3748SOL    HW112143   5.611   1.191   2.237
 3748SOL    HW212144   5.744   1.277   2.196
 3749SOL     OW12145   1.460   6.827   5.512
 3749SOL    HW112146   1.369   6.857   5.484
 3749SOL    HW212147   1.522   6.905   5.513
 3750SOL     OW12148   0.403   4.296   6.768
 3750SOL    HW112149   0.339   4.315   6.841
 3750SOL    HW212150   0.417   4.379   6.713
 3751SOL     OW12151   1.112   3.815   2.330
 3751SOL    HW112152   1.091   3.717   2.324
 3751SOL    HW212153   1.041   3.861   2.383
 3752SOL     OW12154   5.732   0.064   6.706
 3752SOL    HW112155   5.671   0.013   6.646
 3752SOL    HW212156   5.753   0.009   6.787
 3753SOL     OW12157   6.390   0.061   3.948
 3753SOL    HW112158   6.295   0.072   3.977
 3753SOL    HW212159   6.432   0.151   3.935
 3754SOL     OW12160   2.751   1.703   0.852
 3754SOL    HW112161   2.797   1.629   0.803
 3754SOL    HW212162   2.748   1.681   0.950
 3755SOL     OW12163   2.917   4.883   3.716
 3755SOL    HW112164   2.940   4.895   3.813
 3755SOL    HW212165   2.833   4.830   3.708
 3756SOL     OW12166   2.455   6.370   7.005
 3756SOL    HW112167   2.498   6.286   6.971
 3756SOL    HW212168   2.525   6.440   7.020
 3757SOL     OW12169   6.707   4.646   1.968
 3757SOL    HW112170   6.773   4.688   2.031
 3757SOL    HW212171   6.723   4.679   1.875
 3758SOL     OW12172   2.265   0.186   4.011
 3758SOL    HW112173   2.320   0.253   3.962
 3758SOL    HW212174   2.192   0.234   4.061
 3759SOL     OW12175   5.072   0.471   4.547
 3759SOL    HW112176   5.028   0.561   4.553
 3759SOL    HW212177   5.146   0.465   4.613
 3760SOL     OW12178   0.583   0.807   3.358
 3760SOL    HW112179   0.676   0.821   3.322
 3760SOL    HW212180   0.528   0.888   3.338
 3761SOL     OW12181   5.169   1.060   4.363
 3761SOL    HW112182   5.116   1.142   4.386
 3761SOL    HW212183   5.267   1.083   4.362
 3762SOL     OW12184   6.674   2.276   3.498
 3762SOL    HW112185   6.671   2.182   3.463
 3762SOL    HW212186   6.760   2.289   3.548
 3763SOL     OW12187   0.555   4.497   0.239
 3763SOL    HW112188   0.480   4.560   0.259
 3763SOL    HW212189   0.617   4.493   0.318
 3764SOL     OW12190   2.403   0.910   3.090
 3764SOL    HW112191   2.476   0.932   3.025
 3764SOL    HW212192   2.443   0.876   3.174
 3765SOL     OW12193   5.496   3.300   2.772
 3765SOL    HW112194   5.577   3.303   2.831
 3765SOL    HW212195   5.513   3.354   2.690
 3766SOL     OW12196   1.093   3.876   2.704
 3766SOL    HW112197   1.166   3.932   2.664
 3766SOL    HW212198   1.134   3.796   2.750
 3767SOL     OW12199   1.366   5.319   6.101
 3767SOL    HW112200   1.374   5.419   6.098
 3767SOL    HW212201   1.433   5.283   6.166
 3768SOL     OW12202   0.658   6.725   2.952
 3768SOL    HW112203   0.622   6.816   2.931
 3768SOL    HW212204   0.757   6.724   2.939
 3769SOL     OW12205   5.658   5.147   4.759
 3769SOL    HW112206   5.679   5.223   4.821
 3769SOL    HW212207   5.733   5.081   4.760
 3770SOL     OW12208   2.002   0.912   1.123
 3770SOL    HW112209   1.995   0.951   1.032
 3770SOL    HW212210   2.043   0.979   1.186
 3771SOL     OW12211   6.494   5.082   6.159
 3771SOL    HW112212   6.564   5.097   6.089
 3771SOL    HW212213   6.533   5.033   6.236
 3772SOL     OW12214   1.697   6.237   0.670
 3772SOL    HW112215   1.647   6.236   0.757
 3772SOL    HW212216   1.712   6.143   0.639
 3773SOL     OW12217   5.348   4.956   6.809
 3773SOL    HW112218   5.301   4.921   6.890
 3773SOL    HW212219   5.446   4.941   6.819
 3774SOL     OW12220   6.679   5.444   1.727
 3774SOL    HW112221   6.743   5.368   1.712
 3774SOL    HW212222   6.640   5.472   1.640
 3775SOL     OW12223   4.951   4.811   5.251
 3775SOL    HW112224   4.860   4.782   5.279
 3775SOL    HW212225   4.959   4.807   5.152
 3776SOL     OW12226   3.553   2.414   5.799
 3776SOL    HW112227   3.545   2.514   5.801
 3776SOL    HW212228   3.612   2.384   5.874
 3777SOL     OW12229   2.788   5.709   4.214
 3777SOL    HW112230   2.788   5.808   4.221
 3777SOL    HW212231   2.816   5.681   4.122
 3778SOL     OW12232   3.588   5.581   6.592
 3778SOL    HW112233   3.544   5.669   6.608
 3778SOL    HW212234   3.629   5.581   6.501
 3779SOL     OW12235   6.820   4.533   0.316
 3779SOL    HW112236   6.749   4.524   0.246
 3779SOL    HW212237   6.826   4.628   0.346
 3780SOL     OW12238   5.050   4.421   1.573
 3780SOL    HW112239   5.039   4.433   1.672
 3780SOL    HW212240   4.998   4.340   1.544
 3781SOL     OW12241   2.614   6.494   4.644
 3781SOL    HW112242   2.626   6.470   4.548
 3781SOL    HW212243   2.518   6.515   4.661
 3782SOL     OW12244   4.556   5.429   0.843
 3782SOL    HW112245   4.457   5.415   0.851
 3782SOL    HW212246   4.604   5.354   0.888
 3783SOL     OW12247   4.866   5.654   4.277
 3783SOL    HW112248   4.887   5.572   4.224
 3783SOL    HW212249   4.881   5.636   4.374
 3784SOL     OW12250   6.020   2.049   4.679
 3784SOL    HW112251   6.048   1.987   4.751
 3784SOL    HW212252   5.934   2.093   4.704
 3785SOL     OW12253   1.981   3.296   3.994
 3785SOL    HW112254   2.021   3.375   4.039
 3785SOL    HW212255   1.923   3.246   4.058
 3786SOL     OW12256   2.487   2.572   4.540
 3786SOL    HW112257   2.481   2.556   4.639
 3786SOL    HW212258   2.421   2.643   4.514
 3787SOL     OW12259   4.489   6.745   4.045
 3787SOL    HW112260   4.556   6.671   4.053
 3787SOL    HW212261   4.438   6.733   3.960
 3788SOL     OW12262   5.854   3.074   5.159
 3788SOL    HW112263   5.939   3.025   5.178
 3788SOL    HW212264   5.801   3.082   5.244
 3789SOL     OW12265   2.061   3.212   2.516
 3789SOL    HW112266   1.976   3.261   2.493
 3789SOL    HW212267   2.100   3.172   2.433
 3790SOL     OW12268   0.514   6.711   1.712
 3790SOL    HW112269   0.575   6.720   1.633
 3790SOL    HW212270   0.568   6.714   1.796
 3791SOL     OW12271   5.495   1.217   5.770
 3791SOL    HW112272   5.499   1.120   5.792
 3791SOL    HW212273   5.426   1.233   5.699
 3792SOL     OW12274   6.842   0.477   4.450
 3792SOL    HW112275   6.911   0.507   4.384
 3792SOL    HW212276   6.772   0.547   4.459
 3793SOL     OW12277   4.662   4.895   0.629
 3793SOL    HW112278   4.652   4.962   0.703
 3793SOL    HW212279   4.583   4.834   0.629
 3794SOL     OW12280   0.414   4.134   6.476
 3794SOL    HW112281   0.386   4.186   6.395
 3794SOL    HW212282   0.341   4.071   6.502
 3795SOL     OW12283   2.534   5.882   1.165
 3795SOL    HW112284   2.450   5.883   1.220
 3795SOL    HW212285   2.589   5.962   1.188
 3796SOL     OW12286   4.909   1.199   0.114
 3796SOL    HW112287   4.898   1.292   0.146
 3796SOL    HW212288   4.921   1.199   0.014
 3797SOL     OW12289   1.157   4.515   2.164
 3797SOL    HW112290   1.149   4.418   2.141
 3797SOL    HW212291   1.136   4.528   2.261
 3798SOL     OW12292   1.474   5.901   3.523
 3798SOL    HW112293   1.521   5.968   3.465
 3798SOL    HW212294   1.530   5.881   3.602
 3799SOL     OW12295   6.718   1.112   3.217
 3799SOL    HW112296   6.681   1.020   3.203
 3799SOL    HW212297   6.683   1.149   3.303
 3800SOL     OW12298   4.953   2.639   2.632
 3800SOL    HW112299   5.040   2.594   2.610
 3800SOL    HW212300   4.971   2.719   2.690
 3801SOL     OW12301   6.089   1.621   1.388
 3801SOL    HW112302   6.045   1.593   1.303
 3801SOL    HW212303   6.123   1.540   1.436
 3802SOL     OW12304   6.710   2.920   1.953
 3802SOL    HW112305   6.663   2.981   1.889
 3802SOL    HW212306   6.671   2.828   1.946
 3803SOL     OW12307   3.307   2.917   4.500
 3803SOL    HW112308   3.272   2.876   4.584
 3803SOL    HW212309   3.235   2.970   4.456
 3804SOL     OW12310   4.528   5.972   3.405
 3804SOL    HW112311   4.580   5.978   3.490
 3804SOL    HW212312   4.588   5.990   3.328
 3805SOL     OW12313   2.595   2.525   0.176
 3805SOL    HW112314   2.634   2.596   0.118
 3805SOL    HW212315   2.662   2.498   0.246
 3806SOL     OW12316   2.669   4.639   1.226
 3806SOL    HW112317   2.733   4.716   1.222
 3806SOL    HW212318   2.661   4.607   1.321
 3807SOL     OW12319   1.864   4.530   4.732
 3807SOL    HW112320   1.807   4.494   4.805
 3807SOL    HW212321   1.807   4.558   4.655
 3808SOL     OW12322   2.825   6.968   6.483
 3808SOL    HW112323   2.761   6.912   6.536
 3808SOL    HW212324   2.859   6.916   6.405
 3809SOL     OW12325   5.137   1.755   1.183
 3809SOL    HW112326   5.140   1.731   1.086
 3809SOL    HW212327   5.067   1.700   1.229
 3810SOL     OW12328   5.659   2.572   2.047
 3810SOL    HW112329   5.703   2.640   1.988
 3810SOL    HW212330   5.587   2.616   2.100
 3811SOL     OW12331   0.402   5.511   5.197
 3811SOL    HW112332   0.355   5.461   5.124
 3811SOL    HW212333   0.501   5.505   5.183
 3812SOL     OW12334   4.769   5.965   1.086
 3812SOL    HW112335   4.761   5.867   1.066
 3812SOL    HW212336   4.823   6.009   1.014
 3813SOL     OW12337   6.052   4.144   6.765
 3813SOL    HW112338   5.975   4.176   6.820
 3813SOL    HW212339   6.106   4.222   6.733
 3814SOL     OW12340   6.684   0.555   5.148
 3814SOL    HW112341   6.745   0.509   5.085
 3814SOL    HW212342   6.625   0.487   5.193
 3815SOL     OW12343   6.170   3.784   5.486
 3815SOL    HW112344   6.103   3.848   5.524
 3815SOL    HW212345   6.223   3.831   5.414
 3816SOL     OW12346   0.325   6.070   0.564
 3816SOL    HW112347   0.291   6.158   0.532
 3816SOL    HW212348   0.276   6.044   0.647
 3817SOL     OW12349   4.772   3.858   1.908
 3817SOL    HW112350   4.715   3.814   1.839
 3817SOL    HW212351   4.719   3.930   1.954
 3818SOL     OW12352   5.520   6.028   2.859
 3818SOL    HW112353   5.606   6.063   2.823
 3818SOL    HW212354   5.539   5.959   2.930
 3819SOL     OW12355   6.320   4.291   3.940
 3819SOL    HW112356   6.367   4.238   4.010
 3819SOL    HW212357   6.342   4.388   3.952
 3820SOL     OW12358   3.540   6.552   4.588
 3820SOL    HW112359   3.496   6.591   4.669
 3820SOL    HW212360   3.476   6.491   4.541
 3821SOL     OW12361   2.152   0.038   0.226
 3821SOL    HW112362   2.101   6.990   0.275
 3821SOL    HW212363   2.123   0.039   0.130
 3822SOL     OW12364   4.796   0.192   2.128
 3822SOL    HW112365   4.741   0.161   2.050
 3822SOL    HW212366   4.792   0.291   2.134
 3823SOL     OW12367   5.705   5.690   6.673
 3823SOL    HW112368   5.711   5.789   6.662
 3823SOL    HW212369   5.670   5.650   6.588
 3824SOL     OW12370   2.797   2.474   0.353
 3824SOL    HW112371   2.890   2.487   0.317
 3824SOL    HW212372   2.774   2.550   0.413
 3825SOL     OW12373   1.073   4.194   5.314
 3825SOL    HW112374   1.122   4.242   5.387
 3825SOL    HW212375   1.035   4.259   5.249
 3826SOL     OW12376   5.900   4.181   3.771
 3826SOL    HW112377   5.802   4.164   3.768
 3826SOL    HW212378   5.936   4.158   3.861
 3827SOL     OW12379   0.871   1.872   1.173
 3827SOL    HW112380   0.920   1.858   1.087
 3827SOL    HW212381   0.936   1.877   1.248
 3828SOL     OW12382   3.394   3.478   4.398
 3828SOL    HW112383   3.343   3.404   4.440
 3828SOL    HW212384   3.429   3.449   4.309
 3829SOL     OW12385   0.838   3.898   2.076
 3829SOL    HW112386   0.835   3.873   2.173
 3829SOL    HW212387   0.876   3.822   2.023
 3830SOL     OW12388   6.256   0.542   4.220
 3830SOL    HW112389   6.180   0.515   4.279
 3830SOL    HW212390   6.271   0.640   4.228
 3831SOL     OW12391   4.908   2.320   3.830
 3831SOL    HW112392   4.887   2.234   3.875
 3831SOL    HW212393   4.824   2.372   3.815
 3832SOL     OW12394   6.050   0.804   3.759
 3832SOL    HW112395   5.999   0.744   3.698
 3832SOL    HW212396   6.093   0.749   3.832
 3833SOL     OW12397   1.635   1.508   5.393
 3833SOL    HW112398   1.684   1.442   5.337
 3833SOL    HW212399   1.698   1.580   5.422
 3834SOL     OW12400   4.862   4.275   0.667
 3834SOL    HW112401   4.960   4.256   0.681
 3834SOL    HW212402   4.826   4.211   0.599
 3835SOL     OW12403   3.809   5.225   4.739
 3835SOL    HW112404   3.781   5.247   4.832
 3835SOL    HW212405   3.785   5.300   4.678
 3836SOL     OW12406   0.353   6.510   5.649
 3836SOL    HW112407   0.443   6.473   5.626
 3836SOL    HW212408   0.297   6.515   5.566
 3837SOL     OW12409   4.387   4.736   5.632
 3837SOL    HW112410   4.427   4.708   5.545
 3837SOL    HW212411   4.289   4.719   5.631
 3838SOL     OW12412   0.806   1.139   3.985
 3838SOL    HW112413   0.816   1.236   4.006
 3838SOL    HW212414   0.741   1.128   3.909
 3839SOL     OW12415   3.896   0.538   4.002
 3839SOL    HW112416   3.941   0.601   3.939
 3839SOL    HW212417   3.830   0.588   4.058
 3840SOL     OW12418   2.543   1.604   6.873
 3840SOL    HW112419   2.554   1.540   6.949
 3840SOL    HW212420   2.632   1.622   6.831
 3841SOL     OW12421   5.820   4.805   4.292
 3841SOL    HW112422   5.800   4.731   4.228
 3841SOL    HW212423   5.814   4.770   4.386
 3842SOL     OW12424   1.652   3.379   5.322
 3842SOL    HW112425   1.694   3.469   5.311
 3842SOL    HW212426   1.626   3.366   5.418
 3843SOL     OW12427   5.275   2.436   6.861
 3843SOL    HW112428   5.217   2.518   6.857
 3843SOL    HW212429   5.270   2.388   6.773
 3844SOL     OW12430   1.229   6.976   1.089
 3844SOL    HW112431   1.234   6.996   0.991
 3844SOL    HW212432   1.224   6.878   1.103
 3845SOL     OW12433   2.342   5.565   0.857
 3845SOL    HW112434   2.326   5.502   0.933
 3845SOL    HW212435   2.440   5.569   0.838
 3846SOL     OW12436   0.907   2.858   3.067
 3846SOL    HW112437   0.921   2.761   3.086
 3846SOL    HW212438   0.811   2.873   3.045
 3847SOL     OW12439   0.158   1.758   6.816
 3847SOL    HW112440   0.213   1.785   6.737
 3847SOL    HW212441   0.210   1.775   6.900
 3848SOL     OW12442   5.890   3.688   2.612
 3848SOL    HW112443   5.858   3.762   2.553
 3848SOL    HW212444   5.987   3.672   2.595
 3849SOL     OW12445   6.886   5.015   0.011
 3849SOL    HW112446   6.909   5.044   6.941
 3849SOL    HW212447   6.843   4.924   0.009
 3850SOL     OW12448   2.667   2.652   1.429
 3850SOL    HW112449   2.752   2.699   1.408
 3850SOL    HW212450   2.593   2.719   1.440
 3851SOL     OW12451   0.882   6.180   2.466
 3851SOL    HW112452   0.827   6.214   2.390
 3851SOL    HW212453   0.824   6.168   2.546
 3852SOL     OW12454   2.584   6.558   5.720
 3852SOL    HW112455   2.535   6.621   5.661
 3852SOL    HW212456   2.521   6.519   5.787
 3853SOL     OW12457   2.303   0.602   3.592
 3853SOL    HW112458   2.391   0.575   3.631
 3853SOL    HW212459   2.258   0.667   3.654
 3854SOL     OW12460   1.643   2.404   2.462
 3854SOL    HW112461   1.684   2.467   2.528
 3854SOL    HW212462   1.697   2.320   2.457
 3855SOL     OW12463   4.238   6.917   0.305
 3855SOL    HW112464   4.228   6.922   0.404
 3855SOL    HW212465   4.302   6.844   0.282
 3856SOL     OW12466   0.521   2.270   6.821
 3856SOL    HW112467   0.534   2.335   6.896
 3856SOL    HW212468   0.532   2.177   6.855
 3857SOL     OW12469   2.391   0.588   5.488
 3857SOL    HW112470   2.317   0.608   5.424
 3857SOL    HW212471   2.478   0.622   5.450
 3858SOL     OW12472   4.313   0.430   5.149
 3858SOL    HW112473   4.369   0.347   5.157
 3858SOL    HW212474   4.225   0.416   5.194
 3859SOL     OW12475   5.948   0.175   1.970
 3859SOL    HW112476   5.877   0.128   2.022
 3859SOL    HW212477   5.916   0.267   1.946
 3860SOL     OW12478   0.991   0.025   4.082
 3860SOL    HW112479   0.922   0.098   4.078
 3860SOL    HW212480   0.954   6.965   4.041
 3861SOL     OW12481   3.592   5.908   1.772
 3861SOL    HW112482   3.651   5.887   1.850
 3861SOL    HW212483   3.607   6.003   1.744
 3862SOL     OW12484   1.490   0.145   3.893
 3862SOL    HW112485   1.395   0.122   3.914
 3862SOL    HW212486   1.527   0.078   3.828
 3863SOL     OW12487   4.062   0.240   0.548
 3863SOL    HW112488   4.074   0.317   0.485
 3863SOL    HW212489   4.114   0.257   0.632
 3864SOL     OW12490   2.535   0.098   4.324
 3864SOL    HW112491   2.475   0.167   4.364
 3864SOL    HW212492   2.626   0.136   4.311
 3865SOL     OW12493   3.819   0.589   0.256
 3865SOL    HW112494   3.853   0.627   0.170
 3865SOL    HW212495   3.786   0.496   0.240
 3866SOL     OW12496   2.642   2.619   6.770
 3866SOL    HW112497   2.671   2.595   6.678
 3866SOL    HW212498   2.636   2.718   6.779
 3867SOL     OW12499   0.658   3.665   1.783
 3867SOL    HW112500   0.609   3.661   1.870
 3867SOL    HW212501   0.667   3.573   1.745
 3868SOL     OW12502   4.430   0.770   7.003
 3868SOL    HW112503   4.354   0.832   6.988
 3868SOL    HW212504   4.419   0.689   6.945
 3869SOL     OW12505   6.002   3.045   3.384
 3869SOL    HW112506   6.041   2.995   3.306
 3869SOL    HW212507   6.058   3.126   3.403
 3870SOL     OW12508   0.001   0.356   3.880
 3870SOL    HW112509   6.939   0.395   3.846
 3870SOL    HW212510   0.005   0.258   3.858
 3871SOL     OW12511   2.923   5.540   4.376
 3871SOL    HW112512   2.956   5.461   4.324
 3871SOL    HW212513   2.896   5.613   4.314
 3872SOL     OW12514   3.415   3.518   5.310
 3872SOL    HW112515   3.452   3.560   5.393
 3872SOL    HW212516   3.359   3.585   5.261
 3873SOL     OW12517   4.816   2.221   0.438
 3873SOL    HW112518   4.800   2.223   0.537
 3873SOL    HW212519   4.878   2.146   0.416
 3874SOL     OW12520   2.631   0.461   0.149
 3874SOL    HW112521   2.539   0.456   0.112
 3874SOL    HW212522   2.693   0.498   0.079
 3875SOL     OW12523   1.537   2.251   5.713
 3875SOL    HW112524   1.521   2.345   5.684
 3875SOL    HW212525   1.559   2.248   5.810
 3876SOL     OW12526   4.079   5.216   0.959
 3876SOL    HW112527   4.043   5.222   0.865
 3876SOL    HW212528   4.020   5.158   1.014
 3877SOL     OW12529   6.802   2.109   0.227
 3877SOL    HW112530   6.772   2.081   0.319
 3877SOL    HW212531   6.898   2.084   0.215
 3878SOL     OW12532   4.096   7.008   3.622
 3878SOL    HW112533   4.182   6.984   3.576
 3878SOL    HW212534   4.113   0.057   3.689
 3879SOL     OW12535   5.063   5.078   7.010
 3879SOL    HW112536   5.123   5.112   0.060
 3879SOL    HW212537   5.026   4.989   0.013
 3880SOL     OW12538   4.739   4.108   4.270
 3880SOL    HW112539   4.749   4.016   4.306
 3880SOL    HW212540   4.747   4.174   4.345
 3881SOL     OW12541   1.079   4.120   0.255
 3881SOL    HW112542   1.039   4.084   0.171
 3881SOL    HW212543   1.080   4.048   0.324
 3882SOL     OW12544   1.019   1.895   0.936
 3882SOL    HW112545   1.070   1.980   0.926
 3882SOL    HW212546   0.922   1.911   0.920
 3883SOL     OW12547   4.507   6.271   3.309
 3883SOL    HW112548   4.499   6.271   3.209
 3883SOL    HW212549   4.570   6.344   3.337
 3884SOL     OW12550   0.838   5.252   2.301
 3884SOL    HW112551   0.781   5.273   2.380
 3884SOL    HW212552   0.862   5.155   2.303
 3885SOL     OW12553   5.409   6.340   2.926
 3885SOL    HW112554   5.394   6.437   2.942
 3885SOL    HW212555   5.460   6.328   2.841
 3886SOL     OW12556   3.930   6.560   5.948
 3886SOL    HW112557   3.881   6.473   5.946
 3886SOL    HW212558   3.872   6.631   5.907
 3887SOL     OW12559   0.385   6.141   1.784
 3887SOL    HW112560   0.359   6.222   1.836
 3887SOL    HW212561   0.477   6.153   1.747
 3888SOL     OW12562   5.599   6.098   4.444
 3888SOL    HW112563   5.618   6.156   4.365
 3888SOL    HW212564   5.617   6.148   4.528
 3889SOL     OW12565   5.595   3.471   6.628
 3889SOL    HW112566   5.523   3.416   6.670
 3889SOL    HW212567   5.564   3.566   6.619
 3890SOL     OW12568   5.151   3.310   4.724
 3890SOL    HW112569   5.057   3.331   4.699
 3890SOL    HW212570   5.160   3.307   4.823
 3891SOL     OW12571   5.858   4.897   3.313
 3891SOL    HW112572   5.770   4.859   3.288
 3891SOL    HW212573   5.860   4.918   3.411
 3892SOL     OW12574   0.154   2.466   1.138
 3892SOL    HW112575   0.066   2.512   1.119
 3892SOL    HW212576   0.176   2.475   1.235
 3893SOL     OW12577   4.434   3.485   1.268
 3893SOL    HW112578   4.351   3.540   1.266
 3893SOL    HW212579   4.412   3.393   1.302
 3894SOL     OW12580   4.738   0.487   6.334
 3894SOL    HW112581   4.824   0.473   6.385
 3894SOL    HW212582   4.702   0.399   6.306
 3895SOL     OW12583   1.767   6.798   4.567
 3895SOL    HW112584   1.841   6.858   4.535
 3895SOL    HW212585   1.738   6.826   4.659
 3896SOL     OW12586   1.470   1.145   6.709
 3896SOL    HW112587   1.564   1.141   6.744
 3896SOL    HW212588   1.409   1.170   6.783
 3897SOL     OW12589   4.442   5.784   1.614
 3897SOL    HW112590   4.399   5.872   1.637
 3897SOL    HW212591   4.496   5.753   1.692
 3898SOL     OW12592   4.049   2.875   6.161
 3898SOL    HW112593   4.005   2.816   6.228
 3898SOL    HW212594   3.999   2.962   6.154
 3899SOL     OW12595   4.626   6.567   6.171
 3899SOL    HW112596   4.541   6.551   6.120
 3899SOL    HW212597   4.615   6.534   6.265
 3900SOL     OW12598   5.241   3.667   2.738
 3900SOL    HW112599   5.261   3.570   2.752
 3900SOL    HW212600   5.295   3.721   2.802
 3901SOL     OW12601   2.860   0.347   6.873
 3901SOL    HW112602   2.926   0.289   6.826
 3901SOL    HW212603   2.768   0.310   6.862
 3902SOL     OW12604   6.314   3.202   2.615
 3902SOL    HW112605   6.327   3.300   2.597
 3902SOL    HW212606   6.389   3.168   2.671
 3903SOL     OW12607   3.962   5.404   6.476
 3903SOL    HW112608   3.880   5.431   6.526
 3903SOL    HW212609   4.032   5.475   6.487
 3904SOL     OW12610   1.498   0.260   0.358
 3904SOL    HW112611   1.562   0.271   0.434
 3904SOL    HW212612   1.528   0.316   0.281
 3905SOL     OW12613   0.108   6.053   5.620
 3905SOL    HW112614   0.105   6.151   5.640
 3905SOL    HW212615   0.181   6.035   5.554
 3906SOL     OW12616   5.372   6.454   5.598
 3906SOL    HW112617   5.471   6.457   5.612
 3906SOL    HW212618   5.336   6.547   5.596
 3907SOL     OW12619   5.907   1.982   4.043
 3907SOL    HW112620   5.933   1.887   4.027
 3907SOL    HW212621   5.812   1.996   4.015
 3908SOL     OW12622   1.396   2.072   6.084
 3908SOL    HW112623   1.330   2.135   6.042
 3908SOL    HW212624   1.367   1.978   6.067
 3909SOL     OW12625   5.300   5.381   4.415
 3909SOL    HW112626   5.357   5.331   4.480
 3909SOL    HW212627   5.273   5.468   4.456
 3910SOL     OW12628   3.424   3.857   2.952
 3910SOL    HW112629   3.432   3.920   2.875
 3910SOL    HW212630   3.369   3.898   3.024
 3911SOL     OW12631   5.796   1.599   5.388
 3911SOL    HW112632   5.776   1.501   5.391
 3911SOL    HW212633   5.864   1.621   5.457
 3912SOL     OW12634   5.959   2.135   5.538
 3912SOL    HW112635   5.952   2.227   5.576
 3912SOL    HW212636   5.888   2.121   5.469
 3913SOL     OW12637   1.221   6.654   0.152
 3913SOL    HW112638   1.310   6.701   0.151
 3913SOL    HW212639   1.169   6.683   0.233
 3914SOL     OW12640   3.724   6.488   6.309
 3914SOL    HW112641   3.665   6.488   6.228
 3914SOL    HW212642   3.713   6.575   6.357
 3915SOL     OW12643   5.694   5.557   1.538
 3915SOL    HW112644   5.675   5.610   1.621
 3915SOL    HW212645   5.763   5.488   1.558
 3916SOL     OW12646   1.235   0.174   2.867
 3916SOL    HW112647   1.173   0.181   2.945
 3916SOL    HW212648   1.330   0.176   2.899
 3917SOL     OW12649   1.694   0.141   0.145
 3917SOL    HW112650   1.668   0.053   0.105
 3917SOL    HW212651   1.750   0.125   0.227
 3918SOL     OW12652   5.316   4.421   1.651
 3918SOL    HW112653   5.246   4.453   1.587
 3918SOL    HW212654   5.288   4.334   1.691
 3919SOL     OW12655   3.607   0.130   0.782
 3919SOL    HW112656   3.536   0.116   0.713
 3919SOL    HW212657   3.685   0.178   0.742
 3920SOL     OW12658   2.130   2.579   6.758
 3920SOL    HW112659   2.180   2.554   6.840
 3920SOL    HW212660   2.053   2.516   6.745
 3921SOL     OW12661   1.207   4.238   1.589
 3921SOL    HW112662   1.225   4.238   1.490
 3921SOL    HW212663   1.109   4.228   1.605
 3922SOL     OW12664   0.671   4.112   1.644
 3922SOL    HW112665   0.712   4.093   1.733
 3922SOL    HW212666   0.743   4.131   1.577
 3923SOL     OW12667   0.837   0.692   0.522
 3923SOL    HW112668   0.764   0.674   0.456
 3923SOL    HW212669   0.808   0.765   0.584
 3924SOL     OW12670   6.300   4.758   4.632
 3924SOL    HW112671   6.392   4.739   4.667
 3924SOL    HW212672   6.243   4.792   4.707
 3925SOL     OW12673   1.671   5.035   2.199
 3925SOL    HW112674   1.592   5.025   2.138
 3925SOL    HW212675   1.755   5.011   2.149
 3926SOL     OW12676   4.579   4.348   2.364
 3926SOL    HW112677   4.522   4.426   2.388
 3926SOL    HW212678   4.536   4.298   2.288
 3927SOL     OW12679   0.385   3.099   6.146
 3927SOL    HW112680   0.364   3.020   6.088
 3927SOL    HW212681   0.306   3.161   6.147
 3928SOL     OW12682   5.293   5.963   6.947
 3928SOL    HW112683   5.263   6.030   7.016
 3928SOL    HW212684   5.214   5.909   6.916
 3929SOL     OW12685   0.570   0.893   5.157
 3929SOL    HW112686   0.561   0.830   5.080
 3929SOL    HW212687   0.482   0.900   5.204
 3930SOL     OW12688   2.221   2.009   3.115
 3930SOL    HW112689   2.292   2.057   3.064
 3930SOL    HW212690   2.259   1.973   3.200
 3931SOL     OW12691   6.284   1.786   1.549
 3931SOL    HW112692   6.364   1.768   1.492
 3931SOL    HW212693   6.202   1.753   1.502
 3932SOL     OW12694   0.672   2.591   4.022
 3932SOL    HW112695   0.746   2.577   4.088
 3932SOL    HW212696   0.691   2.671   3.966
 3933SOL     OW12697   1.556   0.480   6.273
 3933SOL    HW112698   1.464   0.478   6.236
 3933SOL    HW212699   1.556   0.530   6.360
 3934SOL     OW12700   5.974   0.148   6.225
 3934SOL    HW112701   6.065   0.189   6.217
 3934SOL    HW212702   5.908   0.220   6.245
 3935SOL     OW12703   4.310   0.464   0.732
 3935SOL    HW112704   4.244   0.534   0.702
 3935SOL    HW212705   4.280   0.428   0.820
 3936SOL     OW12706   5.964   5.476   4.315
 3936SOL    HW112707   5.928   5.536   4.386
 3936SOL    HW212708   5.977   5.384   4.353
 3937SOL     OW12709   0.250   1.348   2.468
 3937SOL    HW112710   0.234   1.318   2.374
 3937SOL    HW212711   0.343   1.325   2.495
 3938SOL     OW12712   6.947   1.055   3.064
 3938SOL    HW112713   6.854   1.066   3.101
 3938SOL    HW212714   6.942   1.005   2.978
 3939SOL     OW12715   3.204   1.726   2.062
 3939SOL    HW112716   3.196   1.730   2.162
 3939SOL    HW212717   3.123   1.767   2.021
 3940SOL     OW12718   3.568   3.461   0.966
 3940SOL    HW112719   3.487   3.519   0.977
 3940SOL    HW212720   3.561   3.411   0.880
 3941SOL     OW12721   4.000   4.543   6.470
 3941SOL    HW112722   4.040   4.635   6.479
 3941SOL    HW212723   4.048   4.480   6.531
 3942SOL     OW12724   6.205   6.919   6.685
 3942SOL    HW112725   6.190   7.003   6.739
 3942SOL    HW212726   6.296   6.921   6.645
 3943SOL     OW12727   0.692   2.886   4.551
 3943SOL    HW112728   0.702   2.982   4.576
 3943SOL    HW212729   0.651   2.836   4.627
 3944SOL     OW12730   5.167   2.491   4.701
 3944SOL    HW112731   5.102   2.424   4.665
 3944SOL    HW212732   5.126   2.582   4.697
 3945SOL     OW12733   0.088   1.648   0.994
 3945SOL    HW112734   0.021   1.722   1.001
 3945SOL    HW212735   0.178   1.686   0.974
 3946SOL     OW12736   4.533   4.692   3.405
 3946SOL    HW112737   4.620   4.666   3.446
 3946SOL    HW212738   4.484   4.754   3.467
 3947SOL     OW12739   4.576   6.058   0.357
 3947SOL    HW112740   4.494   6.115   0.342
 3947SOL    HW212741   4.548   5.964   0.374
 3948SOL     OW12742   6.459   4.556   1.845
 3948SOL    HW112743   6.379   4.499   1.827
 3948SOL    HW212744   6.539   4.497   1.861
 3949SOL     OW12745   4.374   5.651   3.156
 3949SOL    HW112746   4.423   5.565   3.169
 3949SOL    HW212747   4.371   5.673   3.059
 3950SOL     OW12748   1.780   5.474   1.267
 3950SOL    HW112749   1.687   5.495   1.235
 3950SOL    HW212750   1.837   5.557   1.260
 3951SOL     OW12751   5.104   0.707   1.479
 3951SOL    HW112752   5.190   0.673   1.518
 3951SOL    HW212753   5.027   0.661   1.523
 3952SOL     OW12754   0.119   3.002   0.785
 3952SOL    HW112755   0.109   2.917   0.733
 3952SOL    HW212756   0.211   3.007   0.823
 3953SOL     OW12757   4.026   3.589   1.934
 3953SOL    HW112758   4.093   3.522   1.902
 3953SOL    HW212759   4.020   3.586   2.034
 3954SOL     OW12760   3.940   4.948   5.461
 3954SOL    HW112761   3.874   4.874   5.478
 3954SOL    HW212762   3.906   5.033   5.501
 3955SOL     OW12763   3.277   0.804   6.038
 3955SOL    HW112764   3.284   0.899   6.069
 3955SOL    HW212765   3.354   0.783   5.978
 3956SOL     OW12766   1.019   0.943   2.324
 3956SOL    HW112767   1.084   0.904   2.259
 3956SOL    HW212768   0.951   0.873   2.349
 3957SOL     OW12769   3.724   0.188   3.990
 3957SOL    HW112770   3.668   0.264   4.022
 3957SOL    HW212771   3.685   0.151   3.905
 3958SOL     OW12772   5.974   1.959   4.423
 3958SOL    HW112773   6.011   1.964   4.516
 3958SOL    HW212774   6.002   2.041   4.372
 3959SOL     OW12775   5.061   5.387   0.333
 3959SOL    HW112776   5.088   5.361   0.425
 3959SOL    HW212777   5.074   5.486   0.321
 3960SOL     OW12778   5.485   2.180   5.273
 3960SOL    HW112779   5.518   2.226   5.190
 3960SOL    HW212780   5.454   2.249   5.339
 3961SOL     OW12781   5.317   0.227   3.184
 3961SOL    HW112782   5.389   0.225   3.115
 3961SOL    HW212783   5.277   0.318   3.187
 3962SOL     OW12784   0.944   5.385   5.917
 3962SOL    HW112785   1.014   5.314   5.908
 3962SOL    HW212786   0.927   5.426   5.828
 3963SOL     OW12787   4.746   6.377   2.057
 3963SOL    HW112788   4.804   6.357   1.978
 3963SOL    HW212789   4.661   6.420   2.027
 3964SOL     OW12790   4.858   3.862   3.024
 3964SOL    HW112791   4.845   3.926   3.100
 3964SOL    HW212792   4.955   3.860   2.999
 3965SOL     OW12793   5.315   3.212   4.296
 3965SOL    HW112794   5.387   3.276   4.270
 3965SOL    HW212795   5.329   3.183   4.390
 3966SOL     OW12796   3.445   5.323   6.422
 3966SOL    HW112797   3.482   5.358   6.508
 3966SOL    HW212798   3.405   5.398   6.370
 3967SOL     OW12799   1.597   4.706   2.373
 3967SOL    HW112800   1.688   4.679   2.403
 3967SOL    HW212801   1.583   4.677   2.278
 3968SOL     OW12802   4.178   0.468   0.405
 3968SOL    HW112803   4.183   0.543   0.472
 3968SOL    HW212804   4.234   0.491   0.326
 3969SOL     OW12805   1.951   5.837   2.358
 3969SOL    HW112806   2.000   5.814   2.274
 3969SOL    HW212807   1.854   5.852   2.338
 3970SOL     OW12808   5.824   6.150   2.399
 3970SOL    HW112809   5.789   6.082   2.463
 3970SOL    HW212810   5.921   6.167   2.417
 3971SOL     OW12811   2.970   6.127   3.877
 3971SOL    HW112812   3.004   6.146   3.969
 3971SOL    HW212813   2.908   6.200   3.848
 3972SOL     OW12814   1.626   3.799   0.091
 3972SOL    HW112815   1.612   3.815   7.016
 3972SOL    HW212816   1.553   3.845   0.143
 3973SOL     OW12817   1.001   5.662   0.809
 3973SOL    HW112818   1.094   5.636   0.834
 3973SOL    HW212819   0.980   5.752   0.848
 3974SOL     OW12820   2.118   0.903   6.016
 3974SOL    HW112821   2.021   0.893   5.993
 3974SOL    HW212822   2.167   0.818   5.994
 3975SOL     OW12823   5.078   2.376   6.140
 3975SOL    HW112824   5.157   2.411   6.189
 3975SOL    HW212825   4.997   2.428   6.166
 3976SOL     OW12826   1.633   6.404   2.484
 3976SOL    HW112827   1.710   6.354   2.525
 3976SOL    HW212828   1.585   6.344   2.421
 3977SOL     OW12829   0.860   3.965   6.637
 3977SOL    HW112830   0.859   3.942   6.734
 3977SOL    HW212831   0.775   4.011   6.612
 3978SOL     OW12832   6.731   4.967   3.747
 3978SOL    HW112833   6.703   5.050   3.699
 3978SOL    HW212834   6.766   4.990   3.838
 3979SOL     OW12835   3.499   0.933   6.327
 3979SOL    HW112836   3.422   0.975   6.278
 3979SOL    HW212837   3.574   0.999   6.332
 3980SOL     OW12838   6.187   6.521   6.304
 3980SOL    HW112839   6.226   6.457   6.238
 3980SOL    HW212840   6.162   6.606   6.258
 3981SOL     OW12841   5.263   6.454   0.274
 3981SOL    HW112842   5.177   6.437   0.322
 3981SOL    HW212843   5.339   6.413   0.325
 3982SOL     OW12844   2.464   0.076   2.317
 3982SOL    HW112845   2.429   7.020   2.366
 3982SOL    HW212846   2.533   0.123   2.372
 3983SOL     OW12847   4.280   5.358   3.963
 3983SOL    HW112848   4.302   5.286   4.029
 3983SOL    HW212849   4.321   5.444   3.993
 3984SOL     OW12850   5.651   1.682   2.544
 3984SOL    HW112851   5.578   1.643   2.599
 3984SOL    HW212852   5.738   1.639   2.567
 3985SOL     OW12853   2.709   5.366   6.430
 3985SOL    HW112854   2.737   5.460   6.451
 3985SOL    HW212855   2.791   5.310   6.417
 3986SOL     OW12856   4.869   1.931   1.927
 3986SOL    HW112857   4.969   1.944   1.930
 3986SOL    HW212858   4.844   1.889   1.839
 3987SOL     OW12859   3.400   4.941   4.622
 3987SOL    HW112860   3.334   4.919   4.550
 3987SOL    HW212861   3.483   4.978   4.580
 3988SOL     OW12862   4.724   5.383   0.624
 3988SOL    HW112863   4.654   5.406   0.692
 3988SOL    HW212864   4.682   5.330   0.550
 3989SOL     OW12865   6.189   2.299   0.105
 3989SOL    HW112866   6.142   2.316   0.192
 3989SOL    HW212867   6.152   2.359   0.035
 3990SOL     OW12868   4.943   2.717   1.761
 3990SOL    HW112869   4.946   2.817   1.758
 3990SOL    HW212870   4.903   2.688   1.849
 3991SOL     OW12871   0.155   0.834   2.954
 3991SOL    HW112872   0.071   0.880   2.925
 3991SOL    HW212873   0.225   0.902   2.974
 3992SOL     OW12874   3.102   2.150   1.078
 3992SOL    HW112875   3.157   2.154   1.161
 3992SOL    HW212876   3.070   2.242   1.054
 3993SOL     OW12877   1.033   3.499   2.279
 3993SOL    HW112878   1.099   3.465   2.347
 3993SOL    HW212879   0.941   3.492   2.315
 3994SOL     OW12880   2.904   6.836   5.166
 3994SOL    HW112881   2.830   6.843   5.233
 3994SOL    HW212882   2.898   6.748   5.119
 3995SOL     OW12883   1.554   2.577   5.242
 3995SOL    HW112884   1.646   2.607   5.215
 3995SOL    HW212885   1.561   2.510   5.316
 3996SOL     OW12886   0.771   6.205   5.217
 3996SOL    HW112887   0.835   6.129   5.229
 3996SOL    HW212888   0.738   6.206   5.122
 3997SOL     OW12889   5.541   0.918   4.366
 3997SOL    HW112890   5.463   0.889   4.422
 3997SOL    HW212891   5.619   0.935   4.426
 3998SOL     OW12892   3.852   1.973   3.943
 3998SOL    HW112893   3.875   2.007   4.035
 3998SOL    HW212894   3.799   2.043   3.895
 3999SOL     OW12895   5.999   2.309   4.777
 3999SOL    HW112896   6.042   2.246   4.842
 3999SOL    HW212897   6.069   2.345   4.715
 4000SOL     OW12898   3.873   0.138   3.548
 4000SOL    HW112899   3.953   0.077   3.546
 4000SOL    HW212900   3.802   0.098   3.606
 4001SOL     OW12901   1.474   1.843   3.425
 4001SOL    HW112902   1.416   1.924   3.437
 4001SOL    HW212903   1.561   1.870   3.384
 4002SOL     OW12904   2.082   3.503   2.141
 4002SOL    HW112905   2.137   3.553   2.207
 4002SOL    HW212906   2.140   3.469   2.067
 4003SOL     OW12907   3.552   0.385   4.774
 4003SOL    HW112908   3.629   0.437   4.811
 4003SOL    HW212909   3.515   0.432   4.694
 4004SOL     OW12910   6.611   1.974   5.098
 4004SOL    HW112911   6.513   1.959   5.087
 4004SOL    HW212912   6.635   2.066   5.066
 4005SOL     OW12913   5.556   5.255   6.106
 4005SOL    HW112914   5.606   5.335   6.073
 4005SOL    HW212915   5.517   5.207   6.027
 4006SOL     OW12916   3.930   5.567   2.049
 4006SOL    HW112917   3.863   5.537   2.117
 4006SOL    HW212918   3.971   5.653   2.078
 4007SOL     OW12919   0.105   2.401   6.762
 4007SOL    HW112920   0.131   2.308   6.784
 4007SOL    HW212921   0.085   2.408   6.664
 4008SOL     OW12922   2.722   2.283   4.731
 4008SOL    HW112923   2.819   2.302   4.743
 4008SOL    HW212924   2.701   2.276   4.634
 4009SOL     OW12925   4.150   3.455   2.593
 4009SOL    HW112926   4.124   3.465   2.688
 4009SOL    HW212927   4.233   3.509   2.575
 4010SOL     OW12928   1.986   3.266   0.474
 4010SOL    HW112929   2.074   3.222   0.454
 4010SOL    HW212930   1.913   3.222   0.422
 4011SOL     OW12931   1.454   2.569   2.017
 4011SOL    HW112932   1.419   2.477   2.003
 4011SOL    HW212933   1.385   2.624   2.064
 4012SOL     OW12934   6.814   4.176   3.361
 4012SOL    HW112935   6.750   4.118   3.310
 4012SOL    HW212936   6.838   4.131   3.447
 4013SOL     OW12937   4.663   2.710   3.351
 4013SOL    HW112938   4.583   2.704   3.411
 4013SOL    HW212939   4.684   2.620   3.315
 4014SOL     OW12940   5.057   5.934   3.025
 4014SOL    HW112941   4.978   5.914   2.966
 4014SOL    HW212942   5.129   5.976   2.970
 4015SOL     OW12943   5.137   3.946   6.178
 4015SOL    HW112944   5.049   3.986   6.203
 4015SOL    HW212945   5.212   4.002   6.213
 4016SOL     OW12946   2.712   6.079   5.667
 4016SOL    HW112947   2.780   6.064   5.739
 4016SOL    HW212948   2.667   5.993   5.645
 4017SOL     OW12949   6.277   5.767   6.942
 4017SOL    HW112950   6.178   5.776   6.957
 4017SOL    HW212951   6.299   5.671   6.925
 4018SOL     OW12952   3.327   5.848   1.018
 4018SOL    HW112953   3.343   5.750   1.031
 4018SOL    HW212954   3.349   5.873   0.924
 4019SOL     OW12955   5.106   5.444   3.583
 4019SOL    HW112956   5.206   5.436   3.581
 4019SOL    HW212957   5.065   5.357   3.559
 4020SOL     OW12958   5.668   2.013   5.888
 4020SOL    HW112959   5.669   1.966   5.799
 4020SOL    HW212960   5.646   1.948   5.960
 4021SOL     OW12961   3.019   4.319   5.929
 4021SOL    HW112962   2.950   4.355   5.992
 4021SOL    HW212963   2.986   4.330   5.835
 4022SOL     OW12964   5.092   0.045   1.089
 4022SOL    HW112965   5.170   0.038   1.027
 4022SOL    HW212966   5.120   0.096   1.171
 4023SOL     OW12967   6.422   0.830   6.071
 4023SOL    HW112968   6.489   0.771   6.116
 4023SOL    HW212969   6.330   0.806   6.102
 4024SOL     OW12970   3.577   5.037   3.589
 4024SOL    HW112971   3.503   5.014   3.525
 4024SOL    HW212972   3.664   5.039   3.539
 4025SOL     OW12973   1.030   4.607   3.314
 4025SOL    HW112974   1.027   4.678   3.244
 4025SOL    HW212975   0.953   4.619   3.377
 4026SOL     OW12976   5.544   6.570   4.529
 4026SOL    HW112977   5.455   6.588   4.487
 4026SOL    HW212978   5.544   6.478   4.570
 4027SOL     OW12979   4.125   5.287   1.771
 4027SOL    HW112980   4.208   5.233   1.787
 4027SOL    HW212981   4.108   5.293   1.672
 4028SOL     OW12982   2.582   0.418   3.567
 4028SOL    HW112983   2.541   0.328   3.582
 4028SOL    HW212984   2.638   0.415   3.484
 4029SOL     OW12985   2.121   4.341   4.853
 4029SOL    HW112986   2.099   4.437   4.872
 4029SOL    HW212987   2.194   4.311   4.914
 4030SOL     OW12988   0.348   1.903   5.568
 4030SOL    HW112989   0.429   1.913   5.625
 4030SOL    HW212990   0.375   1.867   5.479
 4031SOL     OW12991   4.119   5.709   4.223
 4031SOL    HW112992   4.056   5.773   4.267
 4031SOL    HW212993   4.158   5.648   4.291
 4032SOL     OW12994   5.264   0.360   4.706
 4032SOL    HW112995   5.226   0.320   4.790
 4032SOL    HW212996   5.346   0.413   4.729
 4033SOL     OW12997   2.738   3.718   5.307
 4033SOL    HW112998   2.766   3.804   5.264
 4033SOL    HW212999   2.651   3.732   5.354
 4034SOL     OW13000   6.621   2.285   3.937
 4034SOL    HW113001   6.687   2.343   3.888
 4034SOL    HW213002   6.632   2.190   3.907
 4035SOL     OW13003   0.331   5.180   0.826
 4035SOL    HW113004   0.384   5.234   0.760
 4035SOL    HW213005   0.235   5.179   0.798
 4036SOL     OW13006   6.620   6.982   3.058
 4036SOL    HW113007   6.521   6.985   3.071
 4036SOL    HW213008   6.663   0.034   3.108
 4037SOL     OW13009   6.578   4.017   6.399
 4037SOL    HW113010   6.555   4.067   6.482
 4037SOL    HW213011   6.646   3.947   6.421
 4038SOL     OW13012   5.873   4.859   3.950
 4038SOL    HW113013   5.969   4.877   3.970
 4038SOL    HW213014   5.865   4.816   3.860
 4039SOL     OW13015   4.453   6.256   1.109
 4039SOL    HW113016   4.441   6.312   1.191
 4039SOL    HW213017   4.367   6.253   1.057
 4040SOL     OW13018   3.882   6.567   1.641
 4040SOL    HW113019   3.826   6.500   1.593
 4040SOL    HW213020   3.960   6.521   1.683
 4041SOL     OW13021   1.224   0.064   3.941
 4041SOL    HW113022   1.141   0.030   3.985
 4041SOL    HW213023   1.199   0.134   3.874
 4042SOL     OW13024   5.686   5.097   2.016
 4042SOL    HW113025   5.632   5.030   1.966
 4042SOL    HW213026   5.708   5.174   1.956
 4043SOL     OW13027   6.844   3.003   1.340
 4043SOL    HW113028   6.874   2.969   1.251
 4043SOL    HW213029   6.784   2.934   1.383
 4044SOL     OW13030   6.389   5.894   3.550
 4044SOL    HW113031   6.347   5.984   3.537
 4044SOL    HW213032   6.357   5.831   3.479
 4045SOL     OW13033   2.323   5.791   5.784
 4045SOL    HW113034   2.259   5.848   5.733
 4045SOL    HW213035   2.365   5.724   5.722
 4046SOL     OW13036   1.553   3.138   1.040
 4046SOL    HW113037   1.552   3.101   1.133
 4046SOL    HW213038   1.616   3.214   1.035
 4047SOL     OW13039   3.354   3.716   1.770
 4047SOL    HW113040   3.310   3.768   1.844
 4047SOL    HW213041   3.437   3.763   1.741
 4048SOL     OW13042   5.312   1.600   0.769
 4048SOL    HW113043   5.228   1.651   0.787
 4048SOL    HW213044   5.293   1.502   0.773
 4049SOL     OW13045   6.569   0.809   5.841
 4049SOL    HW113046   6.523   0.856   5.916
 4049SOL    HW213047   6.667   0.825   5.847
 4050SOL     OW13048   2.457   0.748   1.092
 4050SOL    HW113049   2.522   0.816   1.127
 4050SOL    HW213050   2.385   0.734   1.160
 4051SOL     OW13051   2.119   3.643   0.870
 4051SOL    HW113052   2.037   3.680   0.827
 4051SOL    HW213053   2.121   3.669   0.966
 4052SOL     OW13054   1.761   6.106   1.767
 4052SOL    HW113055   1.763   6.006   1.771
 4052SOL    HW213056   1.852   6.142   1.789
 4053SOL     OW13057   3.089   4.863   3.334
 4053SOL    HW113058   3.121   4.876   3.428
 4053SOL    HW213059   3.162   4.890   3.270
 4054SOL     OW13060   5.368   2.058   6.639
 4054SOL    HW113061   5.387   2.112   6.721
 4054SOL    HW213062   5.300   1.988   6.661
 4055SOL     OW13063   4.044   2.194   0.309
 4055SOL    HW113064   4.013   2.265   0.246
 4055SOL    HW213065   4.037   2.228   0.403
 4056SOL     OW13066   4.199   3.203   0.696
 4056SOL    HW113067   4.165   3.115   0.662
 4056SOL    HW213068   4.128   3.248   0.749
 4057SOL     OW13069   5.814   2.368   6.515
 4057SOL    HW113070   5.913   2.365   6.524
 4057SOL    HW213071   5.776   2.276   6.531
 4058SOL     OW13072   0.985   0.513   5.077
 4058SOL    HW113073   0.892   0.549   5.071
 4058SOL    HW213074   1.005   0.487   5.171
 4059SOL     OW13075   6.762   1.497   4.665
 4059SOL    HW113076   6.729   1.407   4.638
 4059SOL    HW213077   6.834   1.527   4.603
 4060SOL     OW13078   4.210   5.852   4.544
 4060SOL    HW113079   4.186   5.916   4.470
 4060SOL    HW213080   4.221   5.760   4.507
 4061SOL     OW13081   2.736   3.107   1.557
 4061SOL    HW113082   2.734   3.124   1.459
 4061SOL    HW213083   2.715   3.011   1.575
 4062SOL     OW13084   2.940   6.685   3.014
 4062SOL    HW113085   2.955   6.778   2.979
 4062SOL    HW213086   2.887   6.690   3.098
 4063SOL     OW13087   2.796   5.119   5.760
 4063SOL    HW113088   2.816   5.217   5.769
 4063SOL    HW213089   2.848   5.067   5.827
 4064SOL     OW13090   6.184   0.172   4.098
 4064SOL    HW113091   6.096   0.130   4.077
 4064SOL    HW213092   6.204   0.161   4.196
 4065SOL     OW13093   5.860   4.578   6.799
 4065SOL    HW113094   5.851   4.613   6.706
 4065SOL    HW213095   5.936   4.623   6.845
 4066SOL     OW13096   5.783   4.938   1.724
 4066SOL    HW113097   5.839   4.875   1.778
 4066SOL    HW213098   5.697   4.954   1.771
 4067SOL     OW13099   6.110   0.968   1.695
 4067SOL    HW113100   6.208   0.970   1.714
 4067SOL    HW213101   6.063   1.035   1.754
 4068SOL     OW13102   5.334   1.076   4.031
 4068SOL    HW113103   5.269   1.134   3.982
 4068SOL    HW213104   5.367   1.125   4.112
 4069SOL     OW13105   0.232   5.936   1.487
 4069SOL    HW113106   0.143   5.921   1.444
 4069SOL    HW213107   0.226   6.012   1.552
 4070SOL     OW13108   0.457   3.761   2.645
 4070SOL    HW113109   0.409   3.677   2.670
 4070SOL    HW213110   0.529   3.779   2.712
 4071SOL     OW13111   2.237   0.908   3.682
 4071SOL    HW113112   2.254   0.901   3.781
 4071SOL    HW213113   2.139   0.918   3.667
 4072SOL     OW13114   0.647   6.688   4.265
 4072SOL    HW113115   0.590   6.606   4.265
 4072SOL    HW213116   0.625   6.743   4.184
 4073SOL     OW13117   2.915   5.064   1.417
 4073SOL    HW113118   2.970   5.003   1.473
 4073SOL    HW213119   2.834   5.016   1.384
 4074SOL     OW13120   1.357   3.075   0.863
 4074SOL    HW113121   1.433   3.115   0.913
 4074SOL    HW213122   1.365   3.095   0.766
 4075SOL     OW13123   5.168   0.823   4.059
 4075SOL    HW113124   5.226   0.905   4.061
 4075SOL    HW213125   5.073   0.850   4.041
 4076SOL     OW13126   1.284   2.767   3.475
 4076SOL    HW113127   1.307   2.676   3.509
 4076SOL    HW213128   1.366   2.824   3.473
 4077SOL     OW13129   3.273   1.678   0.978
 4077SOL    HW113130   3.236   1.711   1.064
 4077SOL    HW213131   3.354   1.622   0.995
 4078SOL     OW13132   5.557   3.679   2.390
 4078SOL    HW113133   5.567   3.585   2.422
 4078SOL    HW213134   5.463   3.694   2.358
 4079SOL     OW13135   6.635   1.172   3.486
 4079SOL    HW113136   6.732   1.198   3.494
 4079SOL    HW213137   6.578   1.245   3.524
 4080SOL     OW13138   3.636   2.903   2.360
 4080SOL    HW113139   3.695   2.842   2.307
 4080SOL    HW213140   3.541   2.879   2.345
 4081SOL     OW13141   2.445   2.117   6.652
 4081SOL    HW113142   2.414   2.204   6.615
 4081SOL    HW213143   2.390   2.043   6.613
 4082SOL     OW13144   1.509   2.492   5.611
 4082SOL    HW113145   1.417   2.483   5.571
 4082SOL    HW213146   1.578   2.467   5.543
 4083SOL     OW13147   5.695   5.438   2.830
 4083SOL    HW113148   5.738   5.449   2.741
 4083SOL    HW213149   5.714   5.519   2.886
 4084SOL     OW13150   4.530   0.724   2.768
 4084SOL    HW113151   4.515   0.711   2.670
 4084SOL    HW213152   4.518   0.637   2.815
 4085SOL     OW13153   3.110   4.973   2.025
 4085SOL    HW113154   3.014   4.946   2.036
 4085SOL    HW213155   3.153   4.914   1.957
 4086SOL     OW13156   6.196   4.982   5.177
 4086SOL    HW113157   6.147   4.895   5.169
 4086SOL    HW213158   6.158   5.035   5.253
 4087SOL     OW13159   1.592   0.500   2.075
 4087SOL    HW113160   1.601   0.418   2.019
 4087SOL    HW213161   1.500   0.505   2.113
 4088SOL     OW13162   0.131   2.035   5.496
 4088SOL    HW113163   0.089   1.989   5.418
 4088SOL    HW213164   0.221   1.996   5.513
 4089SOL     OW13165   0.943   1.017   2.718
 4089SOL    HW113166   0.937   0.920   2.692
 4089SOL    HW213167   0.906   1.073   2.644
 4090SOL     OW13168   2.735   1.937   5.978
 4090SOL    HW113169   2.655   1.994   5.994
 4090SOL    HW213170   2.743   1.917   5.880
 4091SOL     OW13171   3.672   5.541   1.910
 4091SOL    HW113172   3.738   5.475   1.874
 4091SOL    HW213173   3.719   5.626   1.934
 4092SOL     OW13174   5.217   2.659   5.393
 4092SOL    HW113175   5.119   2.675   5.396
 4092SOL    HW213176   5.255   2.702   5.310
 4093SOL     OW13177   5.229   4.451   3.473
 4093SOL    HW113178   5.157   4.402   3.424
 4093SOL    HW213179   5.257   4.397   3.553
 4094SOL     OW13180   0.142   5.743   6.817
 4094SOL    HW113181   0.150   5.645   6.795
 4094SOL    HW213182   0.062   5.781   6.773
 4095SOL     OW13183   0.935   5.283   0.516
 4095SOL    HW113184   0.868   5.255   0.584
 4095SOL    HW213185   0.999   5.209   0.499
 4096SOL     OW13186   0.555   0.534   6.889
 4096SOL    HW113187   0.495   0.510   6.813
 4096SOL    HW213188   0.565   0.633   6.895
 4097SOL     OW13189   6.534   3.840   4.888
 4097SOL    HW113190   6.450   3.796   4.855
 4097SOL    HW213191   6.546   3.819   4.985
 4098SOL     OW13192   1.422   4.816   2.738
 4098SOL    HW113193   1.422   4.751   2.661
 4098SOL    HW213194   1.468   4.900   2.710
 4099SOL     OW13195   5.603   4.320   6.178
 4099SOL    HW113196   5.551   4.389   6.227
 4099SOL    HW213197   5.540   4.259   6.129
 4100SOL     OW13198   1.933   1.370   3.421
 4100SOL    HW113199   1.942   1.384   3.519
 4100SOL    HW213200   2.024   1.364   3.380
 4101SOL     OW13201   6.827   5.362   0.136
 4101SOL    HW113202   6.899   5.305   0.095
 4101SOL    HW213203   6.856   5.457   0.137
 4102SOL     OW13204   1.780   5.972   0.568
 4102SOL    HW113205   1.741   5.880   0.557
 4102SOL    HW213206   1.855   5.969   0.634
 4103SOL     OW13207   1.822   6.938   4.130
 4103SOL    HW113208   1.768   6.855   4.146
 4103SOL    HW213209   1.906   6.914   4.082
 4104SOL     OW13210   2.128   5.525   4.923
 4104SOL    HW113211   2.150   5.439   4.968
 4104SOL    HW213212   2.043   5.514   4.871
 4105SOL     OW13213   4.478   0.093   2.244
 4105SOL    HW113214   4.488   0.167   2.310
 4105SOL    HW213215   4.548   0.024   2.260
 4106SOL     OW13216   1.117   1.182   2.858
 4106SOL    HW113217   1.086   1.272   2.889
 4106SOL    HW213218   1.043   1.137   2.808
 4107SOL     OW13219   1.462   0.402   1.163
 4107SOL    HW113220   1.516   0.435   1.241
 4107SOL    HW213221   1.423   0.480   1.114
 4108SOL     OW13222   6.623   5.928   5.488
 4108SOL    HW113223   6.665   6.019   5.486
 4108SOL    HW213224   6.525   5.937   5.507
 4109SOL     OW13225   5.347   6.299   3.522
 4109SOL    HW113226   5.314   6.375   3.579
 4109SOL    HW213227   5.366   6.332   3.430
 4110SOL     OW13228   5.198   2.726   0.149
 4110SOL    HW113229   5.135   2.803   0.140
 4110SOL    HW213230   5.224   2.694   0.058
 4111SOL     OW13231   6.154   3.701   4.478
 4111SOL    HW113232   6.139   3.689   4.379
 4111SOL    HW213233   6.218   3.776   4.493
 4112SOL     OW13234   4.175   6.099   4.289
 4112SOL    HW113235   4.173   6.178   4.227
 4112SOL    HW213236   4.214   6.021   4.241
 4113SOL     OW13237   4.311   5.112   4.738
 4113SOL    HW113238   4.225   5.164   4.733
 4113SOL    HW213239   4.295   5.018   4.709
 4114SOL     OW13240   6.904   1.286   1.896
 4114SOL    HW113241   6.958   1.343   1.958
 4114SOL    HW213242   6.963   1.252   1.822
 4115SOL     OW13243   4.467   5.592   3.635
 4115SOL    HW113244   4.555   5.617   3.675
 4115SOL    HW213245   4.448   5.650   3.556
 4116SOL     OW13246   4.858   3.851   2.557
 4116SOL    HW113247   4.857   3.758   2.593
 4116SOL    HW213248   4.823   3.915   2.626
 4117SOL     OW13249   1.390   1.645   3.894
 4117SOL    HW113250   1.477   1.695   3.891
 4117SOL    HW213251   1.319   1.705   3.932
 4118SOL     OW13252   0.566   6.955   0.213
 4118SOL    HW113253   0.573   6.995   0.122
 4118SOL    HW213254   0.604   7.018   0.281
 4119SOL     OW13255   0.359   0.491   4.361
 4119SOL    HW113256   0.440   0.449   4.320
 4119SOL    HW213257   0.353   0.463   4.457
 4120SOL     OW13258   2.143   0.849   6.943
 4120SOL    HW113259   2.152   0.883   0.014
 4120SOL    HW213260   2.132   0.926   6.881
 4121SOL     OW13261   6.765   0.262   2.251
 4121SOL    HW113262   6.753   0.263   2.152
 4121SOL    HW213263   6.748   0.171   2.287
 4122SOL     OW13264   0.825   4.366   3.023
 4122SOL    HW113265   0.785   4.334   2.937
 4122SOL    HW213266   0.782   4.452   3.051
 4123SOL     OW13267   5.258   4.656   1.292
 4123SOL    HW113268   5.328   4.585   1.286
 4123SOL    HW213269   5.281   4.718   1.368
 4124SOL     OW13270   6.872   5.631   0.125
 4124SOL    HW113271   6.955   5.627   0.070
 4124SOL    HW213272   6.804   5.689   0.080
 4125SOL     OW13273   6.231   2.375   0.493
 4125SOL    HW113274   6.204   2.383   0.588
 4125SOL    HW213275   6.215   2.281   0.461
 4126SOL     OW13276   0.722   3.173   3.008
 4126SOL    HW113277   0.726   3.200   2.912
 4126SOL    HW213278   0.701   3.075   3.015
 4127SOL     OW13279   4.594   2.205   4.503
 4127SOL    HW113280   4.588   2.229   4.600
 4127SOL    HW213281   4.666   2.137   4.490
 4128SOL     OW13282   6.829   3.093   6.670
 4128SOL    HW113283   6.918   3.096   6.715
 4128SOL    HW213284   6.779   3.177   6.689
 4129SOL     OW13285   3.367   1.845   0.760
 4129SOL    HW113286   3.378   1.928   0.815
 4129SOL    HW213287   3.326   1.773   0.815
 4130SOL     OW13288   6.218   3.090   0.638
 4130SOL    HW113289   6.161   3.058   0.714
 4130SOL    HW213290   6.248   3.012   0.584
 4131SOL     OW13291   5.130   0.014   3.250
 4131SOL    HW113292   5.191   0.091   3.228
 4131SOL    HW213293   5.159   6.956   3.199
 4132SOL     OW13294   6.950   5.052   3.143
 4132SOL    HW113295   6.851   5.044   3.129
 4132SOL    HW213296   6.969   5.056   3.241
 4133SOL     OW13297   5.463   0.295   2.446
 4133SOL    HW113298   5.489   0.201   2.467
 4133SOL    HW213299   5.415   0.335   2.525
 4134SOL     OW13300   1.427   3.749   1.395
 4134SOL    HW113301   1.387   3.681   1.333
 4134SOL    HW213302   1.477   3.702   1.468
 4135SOL     OW13303   6.430   0.749   1.995
 4135SOL    HW113304   6.437   0.699   2.081
 4135SOL    HW213305   6.377   0.833   2.010
 4136SOL     OW13306   0.750   4.932   0.991
 4136SOL    HW113307   0.802   4.921   1.075
 4136SOL    HW213308   0.796   4.999   0.932
 4137SOL     OW13309   0.366   2.769   6.580
 4137SOL    HW113310   0.275   2.754   6.539
 4137SOL    HW213311   0.417   2.835   6.525
 4138SOL     OW13312   4.627   0.391   6.977
 4138SOL    HW113313   4.628   0.455   6.901
 4138SOL    HW213314   4.631   0.441   0.040
 4139SOL     OW13315   2.212   3.856   3.167
 4139SOL    HW113316   2.117   3.826   3.154
 4139SOL    HW213317   2.258   3.795   3.232
 4140SOL     OW13318   2.152   0.489   6.325
 4140SOL    HW113319   2.106   0.528   6.404
 4140SOL    HW213320   2.091   0.490   6.246
 4141SOL     OW13321   5.503   0.607   5.955
 4141SOL    HW113322   5.517   0.641   6.048
 4141SOL    HW213323   5.430   0.660   5.912
 4142SOL     OW13324   0.058   5.683   2.191
 4142SOL    HW113325   0.079   5.620   2.115
 4142SOL    HW213326   0.143   5.705   2.239
 4143SOL     OW13327   6.490   3.459   6.857
 4143SOL    HW113328   6.585   3.484   6.844
 4143SOL    HW213329   6.437   3.541   6.880
 4144SOL     OW13330   5.658   1.369   1.156
 4144SOL    HW113331   5.677   1.332   1.247
 4144SOL    HW213332   5.629   1.464   1.164
 4145SOL     OW13333   6.930   0.501   1.725
 4145SOL    HW113334   7.018   0.541   1.752
 4145SOL    HW213335   6.934   0.473   1.629
 4146SOL     OW13336   4.939   6.289   2.279
 4146SOL    HW113337   4.920   6.316   2.373
 4146SOL    HW213338   4.901   6.358   2.216
 4147SOL     OW13339   4.561   4.821   6.626
 4147SOL    HW113340   4.606   4.732   6.621
 4147SOL    HW213341   4.462   4.809   6.631
 4148SOL     OW13342   2.974   0.891   5.218
 4148SOL    HW113343   3.072   0.880   5.203
 4148SOL    HW213344   2.948   0.986   5.201
 4149SOL     OW13345   1.176   3.767   6.401
 4149SOL    HW113346   1.151   3.793   6.307
 4149SOL    HW213347   1.102   3.714   6.442
 4150SOL     OW13348   5.479   1.839   6.835
 4150SOL    HW113349   5.483   1.939   6.828
 4150SOL    HW213350   5.534   1.798   6.762
 4151SOL     OW13351   2.817   6.134   4.813
 4151SOL    HW113352   2.722   6.118   4.838
 4151SOL    HW213353   2.822   6.163   4.718
 4152SOL     OW13354   2.573   4.245   1.394
 4152SOL    HW113355   2.626   4.220   1.313
 4152SOL    HW213356   2.476   4.248   1.371
 4153SOL     OW13357   6.499   6.160   1.790
 4153SOL    HW113358   6.505   6.236   1.725
 4153SOL    HW213359   6.580   6.158   1.848
 4154SOL     OW13360   1.220   6.441   3.919
 4154SOL    HW113361   1.266   6.353   3.933
 4154SOL    HW213362   1.121   6.427   3.920
 4155SOL     OW13363   0.339   0.742   1.619
 4155SOL    HW113364   0.299   0.661   1.664
 4155SOL    HW213365   0.296   0.825   1.656
 4156SOL     OW13366   0.641   5.116   5.942
 4156SOL    HW113367   0.699   5.106   6.023
 4156SOL    HW213368   0.632   5.213   5.920
 4157SOL     OW13369   5.514   5.862   1.544
 4157SOL    HW113370   5.539   5.786   1.604
 4157SOL    HW213371   5.540   5.948   1.586
 4158SOL     OW13372   1.068   3.131   1.547
 4158SOL    HW113373   1.045   3.073   1.469
 4158SOL    HW213374   1.152   3.099   1.590
 4159SOL     OW13375   2.596   0.297   4.554
 4159SOL    HW113376   2.668   0.267   4.491
 4159SOL    HW213377   2.514   0.321   4.501
 4160SOL     OW13378   0.470   0.234   6.705
 4160SOL    HW113379   0.530   0.210   6.628
 4160SOL    HW213380   0.431   0.326   6.689
 4161SOL     OW13381   3.713   3.437   2.705
 4161SOL    HW113382   3.764   3.370   2.650
 4161SOL    HW213383   3.701   3.401   2.797
 4162SOL     OW13384   5.272   5.543   1.648
 4162SOL    HW113385   5.325   5.561   1.565
 4162SOL    HW213386   5.288   5.614   1.715
 4163SOL     OW13387   3.420   5.739   1.941
 4163SOL    HW113388   3.424   5.836   1.916
 4163SOL    HW213389   3.473   5.685   1.876
 4164SOL     OW13390   6.967   1.269   6.445
 4164SOL    HW113391   6.898   1.218   6.496
 4164SOL    HW213392   6.983   1.224   6.357
 4165SOL     OW13393   4.336   0.817   4.591
 4165SOL    HW113394   4.265   0.776   4.647
 4165SOL    HW213395   4.424   0.814   4.639
 4166SOL     OW13396   5.582   1.822   1.229
 4166SOL    HW113397   5.655   1.782   1.172
 4166SOL    HW213398   5.581   1.921   1.216
 4167SOL     OW13399   3.225   5.698   4.077
 4167SOL    HW113400   3.222   5.704   4.177
 4167SOL    HW213401   3.279   5.618   4.050
 4168SOL     OW13402   5.235   3.772   6.924
 4168SOL    HW113403   5.161   3.726   6.874
 4168SOL    HW213404   5.313   3.710   6.933
 4169SOL     OW13405   5.559   2.580   5.764
 4169SOL    HW113406   5.588   2.489   5.795
 4169SOL    HW213407   5.461   2.590   5.780
 4170SOL     OW13408   0.520   2.261   4.513
 4170SOL    HW113409   0.600   2.318   4.502
 4170SOL    HW213410   0.474   2.284   4.599
 4171SOL     OW13411   0.706   1.429   0.008
 4171SOL    HW113412   0.668   1.501   6.973
 4171SOL    HW213413   0.794   1.458   0.044
 4172SOL     OW13414   2.713   3.236   0.450
 4172SOL    HW113415   2.653   3.189   0.386
 4172SOL    HW213416   2.660   3.267   0.529
 4173SOL     OW13417   5.004   2.248   6.752
 4173SOL    HW113418   4.930   2.315   6.746
 4173SOL    HW213419   5.080   2.278   6.695
 4174SOL     OW13420   3.925   0.261   4.769
 4174SOL    HW113421   3.836   0.249   4.813
 4174SOL    HW213422   3.973   0.338   4.810
 4175SOL     OW13423   1.124   4.312   6.625
 4175SOL    HW113424   1.143   4.228   6.676
 4175SOL    HW213425   1.028   4.312   6.595
 4176SOL     OW13426   5.818   6.753   5.866
 4176SOL    HW113427   5.805   6.781   5.771
 4176SOL    HW213428   5.915   6.762   5.890
 4177SOL     OW13429   4.183   4.823   2.715
 4177SOL    HW113430   4.111   4.799   2.780
 4177SOL    HW213431   4.159   4.787   2.625
 4178SOL     OW13432   3.571   6.156   1.675
 4178SOL    HW113433   3.486   6.207   1.682
 4178SOL    HW213434   3.626   6.193   1.599
 4179SOL     OW13435   5.111   3.124   5.873
 4179SOL    HW113436   5.071   3.215   5.886
 4179SOL    HW213437   5.208   3.128   5.895
 4180SOL     OW13438   4.043   3.565   1.206
 4180SOL    HW113439   3.947   3.555   1.178
 4180SOL    HW213440   4.057   3.516   1.292
 4181SOL     OW13441   4.922   0.026   5.170
 4181SOL    HW113442   4.946   6.981   5.100
 4181SOL    HW213443   4.890   7.002   5.252
 4182SOL     OW13444   0.517   6.298   5.070
 4182SOL    HW113445   0.519   6.317   4.972
 4182SOL    HW213446   0.529   6.382   5.122
 4183SOL     OW13447   4.352   1.854   0.651
 4183SOL    HW113448   4.307   1.810   0.728
 4183SOL    HW213449   4.360   1.789   0.575
 4184SOL     OW13450   3.504   6.017   4.058
 4184SOL    HW113451   3.534   5.950   4.126
 4184SOL    HW213452   3.431   5.976   4.002
 4185SOL     OW13453   4.899   3.364   3.349
 4185SOL    HW113454   4.829   3.378   3.279
 4185SOL    HW213455   4.919   3.266   3.355
 4186SOL     OW13456   1.790   5.961   6.987
 4186SOL    HW113457   1.852   5.932   6.914
 4186SOL    HW213458   1.799   5.898   0.041
 4187SOL     OW13459   1.653   3.139   6.682
 4187SOL    HW113460   1.603   3.193   6.614
 4187SOL    HW213461   1.588   3.084   6.734
 4188SOL     OW13462   4.648   0.149   0.097
 4188SOL    HW113463   4.734   0.148   0.149
 4188SOL    HW213464   4.625   0.243   0.072
 4189SOL     OW13465   4.418   5.103   3.680
 4189SOL    HW113466   4.514   5.132   3.675
 4189SOL    HW213467   4.359   5.181   3.661
 4190SOL     OW13468   6.558   6.309   1.554
 4190SOL    HW113469   6.575   6.217   1.517
 4190SOL    HW213470   6.608   6.376   1.500
 4191SOL     OW13471   4.767   4.054   6.616
 4191SOL    HW113472   4.844   4.010   6.664
 4191SOL    HW213473   4.682   4.033   6.664
 4192SOL     OW13474   1.602   3.248   0.386
 4192SOL    HW113475   1.570   3.291   0.470
 4192SOL    HW213476   1.524   3.221   0.329
 4193SOL     OW13477   0.472   0.704   0.313
 4193SOL    HW113478   0.422   0.734   0.232
 4193SOL    HW213479   0.445   0.610   0.335
 4194SOL     OW13480   5.061   1.824   5.652
 4194SOL    HW113481   5.141   1.882   5.636
 4194SOL    HW213482   5.062   1.792   5.746
 4195SOL     OW13483   3.738   6.420   0.599
 4195SOL    HW113484   3.695   6.337   0.563
 4195SOL    HW213485   3.667   6.486   0.625
 4196SOL     OW13486   6.497   2.956   2.412
 4196SOL    HW113487   6.573   2.988   2.468
 4196SOL    HW213488   6.488   3.014   2.331
 4197SOL     OW13489   3.918   1.077   6.951
 4197SOL    HW113490   3.856   1.038   6.882
 4197SOL    HW213491   3.865   1.105   0.008
 4198SOL     OW13492   6.807   2.170   2.123
 4198SOL    HW113493   6.825   2.074   2.144
 4198SOL    HW213494   6.785   2.179   2.026
 4199SOL     OW13495   0.438   4.153   6.183
 4199SOL    HW113496   0.401   4.225   6.123
 4199SOL    HW213497   0.534   4.137   6.161
 4200SOL     OW13498   4.625   0.779   3.983
 4200SOL    HW113499   4.662   0.711   3.920
 4200SOL    HW213500   4.639   0.749   4.078
 4201SOL     OW13501   5.756   6.897   3.773
 4201SOL    HW113502   5.726   6.978   3.824
 4201SOL    HW213503   5.750   6.816   3.831
 4202SOL     OW13504   5.089   4.127   1.335
 4202SOL    HW113505   5.016   4.177   1.382
 4202SOL    HW213506   5.157   4.192   1.302
 4203SOL     OW13507   6.385   4.896   5.376
 4203SOL    HW113508   6.428   4.963   5.435
 4203SOL    HW213509   6.309   4.938   5.327
 4204SOL     OW13510   1.625   3.298   6.461
 4204SOL    HW113511   1.607   3.285   6.363
 4204SOL    HW213512   1.703   3.359   6.473
 4205SOL     OW13513   4.046   6.241   6.035
 4205SOL    HW113514   3.970   6.239   5.969
 4205SOL    HW213515   4.031   6.316   6.100
 4206SOL     OW13516   2.122   2.050   4.970
 4206SOL    HW113517   2.044   1.993   4.997
 4206SOL    HW213518   2.129   2.128   5.032
 4207SOL     OW13519   0.571   1.889   2.371
 4207SOL    HW113520   0.488   1.896   2.316
 4207SOL    HW213521   0.633   1.821   2.331
 4208SOL     OW13522   1.938   2.963   3.941
 4208SOL    HW113523   1.849   2.922   3.956
 4208SOL    HW213524   1.996   2.946   4.021
 4209SOL     OW13525   6.534   6.429   2.155
 4209SOL    HW113526   6.557   6.444   2.059
 4209SOL    HW213527   6.617   6.427   2.210
 4210SOL     OW13528   3.624   4.171   4.805
 4210SOL    HW113529   3.563   4.194   4.880
 4210SOL    HW213530   3.705   4.123   4.841
 4211SOL     OW13531   4.022   2.630   5.386
 4211SOL    HW113532   4.069   2.568   5.322
 4211SOL    HW213533   4.068   2.719   5.385
 4212SOL     OW13534   6.070   2.008   3.214
 4212SOL    HW113535   6.136   2.061   3.162
 4212SOL    HW213536   5.988   2.062   3.229
 4213SOL     OW13537   2.959   0.844   4.006
 4213SOL    HW113538   2.906   0.834   3.922
 4213SOL    HW213539   2.948   0.937   4.042
 4214SOL     OW13540   6.977   6.324   3.374
 4214SOL    HW113541   0.010   6.294   3.296
 4214SOL    HW213542   6.920   6.401   3.346
 4215SOL     OW13543   4.999   6.919   5.729
 4215SOL    HW113544   5.059   6.849   5.692
 4215SOL    HW213545   5.054   6.999   5.756
 4216SOL     OW13546   2.272   5.729   2.140
 4216SOL    HW113547   2.298   5.820   2.174
 4216SOL    HW213548   2.333   5.703   2.065
 4217SOL     OW13549   0.953   0.778   2.634
 4217SOL    HW113550   1.035   0.777   2.577
 4217SOL    HW213551   0.872   0.768   2.576
 4218SOL     OW13552   3.388   1.263   0.959
 4218SOL    HW113553   3.455   1.301   0.895
 4218SOL    HW213554   3.395   1.310   1.047
 4219SOL     OW13555   4.225   5.460   2.911
 4219SOL    HW113556   4.288   5.538   2.918
 4219SOL    HW213557   4.145   5.476   2.968
 4220SOL     OW13558   5.881   1.765   1.488
 4220SOL    HW113559   5.885   1.809   1.578
 4220SOL    HW213560   5.966   1.716   1.472
 4221SOL     OW13561   1.123   6.090   0.596
 4221SOL    HW113562   1.165   6.164   0.648
 4221SOL    HW213563   1.071   6.031   0.658
 4222SOL     OW13564   4.962   3.087   4.486
 4222SOL    HW113565   4.984   3.083   4.584
 4222SOL    HW213566   4.915   3.174   4.467
 4223SOL     OW13567   4.042   3.655   2.187
 4223SOL    HW113568   4.004   3.617   2.272
 4223SOL    HW213569   4.105   3.730   2.210
 4224SOL     OW13570   5.061   4.277   4.497
 4224SOL    HW113571   5.040   4.180   4.498
 4224SOL    HW213572   5.147   4.294   4.546
 4225SOL     OW13573   0.698   2.491   5.601
 4225SOL    HW113574   0.653   2.404   5.582
 4225SOL    HW213575   0.766   2.509   5.530
 4226SOL     OW13576   0.647   5.737   4.819
 4226SOL    HW113577   0.657   5.638   4.814
 4226SOL    HW213578   0.611   5.772   4.732
 4227SOL     OW13579   4.232   5.191   2.092
 4227SOL    HW113580   4.303   5.146   2.145
 4227SOL    HW213581   4.249   5.178   1.994
 4228SOL     OW13582   1.468   5.615   3.531
 4228SOL    HW113583   1.428   5.707   3.528
 4228SOL    HW213584   1.509   5.600   3.621
 4229SOL     OW13585   6.634   4.734   5.558
 4229SOL    HW113586   6.705   4.684   5.509
 4229SOL    HW213587   6.579   4.670   5.612
 4230SOL     OW13588   7.022   0.987   2.144
 4230SOL    HW113589   6.967   0.906   2.124
 4230SOL    HW213590   0.016   1.037   2.060
 4231SOL     OW13591   6.415   1.370   5.936
 4231SOL    HW113592   6.443   1.301   6.002
 4231SOL    HW213593   6.382   1.326   5.853
 4232SOL     OW13594   1.320   5.926   4.031
 4232SOL    HW113595   1.391   5.856   4.033
 4232SOL    HW213596   1.254   5.908   4.104
 4233SOL     OW13597   4.286   5.028   2.499
 4233SOL    HW113598   4.270   5.108   2.557
 4233SOL    HW213599   4.211   4.963   2.510
 4234SOL     OW13600   3.221   5.302   6.042
 4234SOL    HW113601   3.267   5.219   6.074
 4234SOL    HW213602   3.136   5.316   6.093
 4235SOL     OW13603   6.935   5.876   5.568
 4235SOL    HW113604   6.993   5.798   5.592
 4235SOL    HW213605   6.988   5.961   5.578
 4236SOL     OW13606   0.437   5.384   2.919
 4236SOL    HW113607   0.347   5.405   2.882
 4236SOL    HW213608   0.447   5.425   3.010
 4237SOL     OW13609   6.417   4.587   3.995
 4237SOL    HW113610   6.390   4.624   3.906
 4237SOL    HW213611   6.516   4.596   4.006
 4238SOL     OW13612   2.736   6.728   3.252
 4238SOL    HW113613   2.789   6.676   3.319
 4238SOL    HW213614   2.657   6.673   3.223
 4239SOL     OW13615   4.314   0.826   3.757
 4239SOL    HW113616   4.292   0.920   3.728
 4239SOL    HW213617   4.346   0.827   3.852
 4240SOL     OW13618   6.511   0.002   1.690
 4240SOL    HW113619   6.436   6.974   1.732
 4240SOL    HW213620   6.477   0.090   1.656
 4241SOL     OW13621   6.158   3.686   0.762
 4241SOL    HW113622   6.232   3.648   0.706
 4241SOL    HW213623   6.174   3.784   0.776
 4242SOL     OW13624   2.634   1.762   3.138
 4242SOL    HW113625   2.685   1.837   3.095
 4242SOL    HW213626   2.641   1.680   3.080
 4243SOL     OW13627   5.067   0.585   2.842
 4243SOL    HW113628   5.072   0.501   2.896
 4243SOL    HW213629   4.992   0.642   2.875
 4244SOL     OW13630   3.461   3.196   3.284
 4244SOL    HW113631   3.535   3.253   3.319
 4244SOL    HW213632   3.453   3.209   3.185
 4245SOL     OW13633   6.559   1.741   6.561
 4245SOL    HW113634   6.501   1.719   6.483
 4245SOL    HW213635   6.583   1.657   6.609
 4246SOL     OW13636   0.796   3.625   1.092
 4246SOL    HW113637   0.876   3.570   1.118
 4246SOL    HW213638   0.724   3.564   1.059
 4247SOL     OW13639   0.411   5.735   5.340
 4247SOL    HW113640   0.402   5.653   5.284
 4247SOL    HW213641   0.463   5.804   5.290
 4248SOL     OW13642   1.543   3.002   4.888
 4248SOL    HW113643   1.571   2.988   4.793
 4248SOL    HW213644   1.507   2.917   4.925
 4249SOL     OW13645   5.449   4.001   5.882
 4249SOL    HW113646   5.404   3.926   5.931
 4249SOL    HW213647   5.420   4.088   5.921
 4250SOL     OW13648   0.646   4.548   3.136
 4250SOL    HW113649   0.559   4.502   3.152
 4250SOL    HW213650   0.676   4.592   3.221
 4251SOL     OW13651   5.842   4.020   0.774
 4251SOL    HW113652   5.754   3.971   0.775
 4251SOL    HW213653   5.837   4.099   0.835
 4252SOL     OW13654   0.679   5.558   5.821
 4252SOL    HW113655   0.648   5.589   5.730
 4252SOL    HW213656   0.659   5.629   5.888
 4253SOL     OW13657   4.351   6.259   2.665
 4253SOL    HW113658   4.405   6.324   2.611
 4253SOL    HW213659   4.263   6.300   2.688
 4254SOL     OW13660   2.446   4.122   0.998
 4254SOL    HW113661   2.479   4.088   1.086
 4254SOL    HW213662   2.497   4.204   0.972
 4255SOL     OW13663   6.647   1.895   4.525
 4255SOL    HW113664   6.643   1.868   4.429
 4255SOL    HW213665   6.632   1.815   4.583
 4256SOL     OW13666   2.271   1.023   2.073
 4256SOL    HW113667   2.242   0.930   2.049
 4256SOL    HW213668   2.255   1.039   2.170
 4257SOL     OW13669   4.042   1.940   4.633
 4257SOL    HW113670   3.947   1.951   4.606
 4257SOL    HW213671   4.102   1.967   4.558
 4258SOL     OW13672   5.323   6.540   2.598
 4258SOL    HW113673   5.395   6.608   2.579
 4258SOL    HW213674   5.356   6.449   2.572
 4259SOL     OW13675   2.193   3.073   0.410
 4259SOL    HW113676   2.288   3.104   0.400
 4259SOL    HW213677   2.192   2.986   0.459
 4260SOL     OW13678   5.061   5.886   3.578
 4260SOL    HW113679   5.099   5.973   3.545
 4260SOL    HW213680   5.136   5.826   3.608
 4261SOL     OW13681   2.212   0.350   2.423
 4261SOL    HW113682   2.228   0.264   2.376
 4261SOL    HW213683   2.115   0.358   2.446
 4262SOL     OW13684   0.407   5.922   6.512
 4262SOL    HW113685   0.446   6.010   6.485
 4262SOL    HW213686   0.394   5.921   6.611
 4263SOL     OW13687   3.368   5.222   5.277
 4263SOL    HW113688   3.326   5.156   5.339
 4263SOL    HW213689   3.444   5.268   5.323
 4264SOL     OW13690   7.022   0.448   0.532
 4264SOL    HW113691   0.069   0.515   0.558
 4264SOL    HW213692   6.999   0.391   0.612
 4265SOL     OW13693   6.914   2.314   0.641
 4265SOL    HW113694   6.972   2.339   0.719
 4265SOL    HW213695   6.829   2.274   0.674
 4266SOL     OW13696   2.838   4.717   0.683
 4266SOL    HW113697   2.842   4.619   0.662
 4266SOL    HW213698   2.794   4.765   0.607
 4267SOL     OW13699   2.158   3.865   5.429
 4267SOL    HW113700   2.205   3.793   5.480
 4267SOL    HW213701   2.140   3.943   5.489
 4268SOL     OW13702   1.799   0.758   1.243
 4268SOL    HW113703   1.716   0.812   1.234
 4268SOL    HW213704   1.877   0.810   1.207
 4269SOL     OW13705   3.840   3.041   0.438
 4269SOL    HW113706   3.767   3.107   0.415
 4269SOL    HW213707   3.803   2.969   0.496
 4270SOL     OW13708   3.227   2.681   5.309
 4270SOL    HW113709   3.211   2.689   5.408
 4270SOL    HW213710   3.207   2.588   5.279
 4271SOL     OW13711   1.470   6.809   0.146
 4271SOL    HW113712   1.539   6.826   0.076
 4271SOL    HW213713   1.442   6.896   0.187
 4272SOL     OW13714   6.563   4.727   4.776
 4272SOL    HW113715   6.506   4.788   4.831
 4272SOL    HW213716   6.649   4.710   4.823
 4273SOL     OW13717   5.977   6.488   5.351
 4273SOL    HW113718   5.891   6.510   5.398
 4273SOL    HW213719   6.019   6.572   5.317
 4274SOL     OW13720   1.858   0.351   3.719
 4274SOL    HW113721   1.862   0.254   3.698
 4274SOL    HW213722   1.771   0.372   3.764
 4275SOL     OW13723   0.693   0.085   6.238
 4275SOL    HW113724   0.765   0.029   6.279
 4275SOL    HW213725   0.691   0.069   6.139
 4276SOL     OW13726   1.758   3.999   2.429
 4276SOL    HW113727   1.753   3.913   2.379
 4276SOL    HW213728   1.827   3.992   2.501
 4277SOL     OW13729   7.017   5.498   3.610
 4277SOL    HW113730   0.074   5.520   3.554
 4277SOL    HW213731   6.959   5.580   3.617
 4278SOL     OW13732   0.089   6.845   5.337
 4278SOL    HW113733   0.022   6.897   5.390
 4278SOL    HW213734   0.045   6.765   5.297
 4279SOL     OW13735   3.242   5.970   4.241
 4279SOL    HW113736   3.294   6.018   4.312
 4279SOL    HW213737   3.233   5.874   4.265
 4280SOL     OW13738   4.915   2.804   4.198
 4280SOL    HW113739   4.915   2.814   4.298
 4280SOL    HW213740   4.869   2.882   4.157
 4281SOL     OW13741   2.290   4.278   5.069
 4281SOL    HW113742   2.374   4.295   5.121
 4281SOL    HW213743   2.290   4.184   5.035
 4282SOL     OW13744   1.916   2.421   1.601
 4282SOL    HW113745   1.876   2.380   1.519
 4282SOL    HW213746   2.001   2.468   1.577
 4283SOL     OW13747   1.790   0.313   4.278
 4283SOL    HW113748   1.818   0.264   4.361
 4283SOL    HW213749   1.727   0.256   4.226
 4284SOL     OW13750   5.916   1.903   2.637
 4284SOL    HW113751   6.001   1.884   2.685
 4284SOL    HW213752   5.880   1.819   2.597
 4285SOL     OW13753   1.242   6.397   6.013
 4285SOL    HW113754   1.230   6.496   6.003
 4285SOL    HW213755   1.154   6.355   6.035
 4286SOL     OW13756   5.524   5.505   0.116
 4286SOL    HW113757   5.436   5.486   0.071
 4286SOL    HW213758   5.597   5.507   0.047
 4287SOL     OW13759   4.821   6.489   4.737
 4287SOL    HW113760   4.818   6.477   4.638
 4287SOL    HW213761   4.902   6.442   4.774
 4288SOL     OW13762   1.235   6.835   2.858
 4288SOL    HW113763   1.186   6.898   2.919
 4288SOL    HW213764   1.319   6.880   2.826
 4289SOL     OW13765   5.850   3.488   1.346
 4289SOL    HW113766   5.796   3.512   1.265
 4289SOL    HW213767   5.908   3.566   1.372
 4290SOL     OW13768   2.293   1.152   1.605
 4290SOL    HW113769   2.307   1.068   1.552
 4290SOL    HW213770   2.195   1.164   1.622
 4291SOL     OW13771   6.594   4.155   1.101
 4291SOL    HW113772   6.622   4.060   1.120
 4291SOL    HW213773   6.539   4.157   1.017
 4292SOL     OW13774   6.293   5.150   6.640
 4292SOL    HW113775   6.242   5.235   6.625
 4292SOL    HW213776   6.380   5.154   6.591
 4293SOL     OW13777   6.937   2.592   6.855
 4293SOL    HW113778   6.969   2.685   6.834
 4293SOL    HW213779   7.000   2.526   6.814
 4294SOL     OW13780   4.948   1.774   6.006
 4294SOL    HW113781   4.921   1.846   6.069
 4294SOL    HW213782   4.870   1.746   5.950
 4295SOL     OW13783   3.638   0.070   4.531
 4295SOL    HW113784   3.621   0.091   4.435
 4295SOL    HW213785   3.624   6.996   4.547
 4296SOL     OW13786   2.509   1.787   0.790
 4296SOL    HW113787   2.601   1.765   0.824
 4296SOL    HW213788   2.451   1.706   0.797
 4297SOL     OW13789   5.755   0.505   5.963
 4297SOL    HW113790   5.657   0.517   5.948
 4297SOL    HW213791   5.784   0.558   6.042
 4298SOL     OW13792   3.074   5.425   1.085
 4298SOL    HW113793   3.056   5.523   1.094
 4298SOL    HW213794   3.161   5.411   1.038
 4299SOL     OW13795   0.607   3.859   6.388
 4299SOL    HW113796   0.614   3.935   6.452
 4299SOL    HW213797   0.665   3.877   6.308
 4300SOL     OW13798   5.411   0.695   6.716
 4300SOL    HW113799   5.333   0.747   6.752
 4300SOL    HW213800   5.452   0.641   6.790
 4301SOL     OW13801   3.310   1.535   0.557
 4301SOL    HW113802   3.282   1.592   0.479
 4301SOL    HW213803   3.254   1.558   0.636
 4302SOL     OW13804   0.728   6.157   6.729
 4302SOL    HW113805   0.696   6.157   6.824
 4302SOL    HW213806   0.729   6.064   6.694
 4303SOL     OW13807   0.027   2.895   2.092
 4303SOL    HW113808   0.101   2.859   2.034
 4303SOL    HW213809   6.962   2.863   2.057
 4304SOL     OW13810   3.068   3.272   4.028
 4304SOL    HW113811   3.106   3.196   4.081
 4304SOL    HW213812   3.091   3.261   3.932
 4305SOL     OW13813   5.787   2.037   3.780
 4305SOL    HW113814   5.699   1.990   3.773
 4305SOL    HW213815   5.780   2.112   3.846
 4306SOL     OW13816   6.552   5.308   5.699
 4306SOL    HW113817   6.533   5.212   5.720
 4306SOL    HW213818   6.639   5.334   5.740
 4307SOL     OW13819   5.329   3.731   5.920
 4307SOL    HW113820   5.331   3.687   6.010
 4307SOL    HW213821   5.399   3.690   5.861
 4308SOL     OW13822   5.153   6.188   4.635
 4308SOL    HW113823   5.082   6.168   4.568
 4308SOL    HW213824   5.207   6.106   4.652
 4309SOL     OW13825   1.670   1.691   1.039
 4309SOL    HW113826   1.760   1.673   1.080
 4309SOL    HW213827   1.625   1.765   1.090
 4310SOL     OW13828   1.649   1.213   2.360
 4310SOL    HW113829   1.626   1.309   2.341
 4310SOL    HW213830   1.625   1.190   2.454
 4311SOL     OW13831   1.783   6.678   3.701
 4311SOL    HW113832   1.768   6.686   3.603
 4311SOL    HW213833   1.881   6.670   3.720
 4312SOL     OW13834   2.170   5.542   1.738
 4312SOL    HW113835   2.183   5.641   1.748
 4312SOL    HW213836   2.254   5.494   1.762
 4313SOL     OW13837   4.818   0.868   2.733
 4313SOL    HW113838   4.764   0.797   2.778
 4313SOL    HW213839   4.865   0.924   2.802
 4314SOL     OW13840   4.860   2.809   2.402
 4314SOL    HW113841   4.866   2.897   2.449
 4314SOL    HW213842   4.911   2.740   2.454
 4315SOL     OW13843   2.534   1.298   1.994
 4315SOL    HW113844   2.558   1.389   1.959
 4315SOL    HW213845   2.537   1.231   1.920
 4316SOL     OW13846   6.151   0.024   2.312
 4316SOL    HW113847   6.071   0.070   2.349
 4316SOL    HW213848   6.124   6.993   2.232
 4317SOL     OW13849   4.355   1.448   3.313
 4317SOL    HW113850   4.317   1.362   3.278
 4317SOL    HW213851   4.396   1.433   3.403
 4318SOL     OW13852   0.118   2.341   4.058
 4318SOL    HW113853   0.024   2.331   4.093
 4318SOL    HW213854   0.151   2.252   4.026
 4319SOL     OW13855   2.480   3.515   6.082
 4319SOL    HW113856   2.473   3.549   5.988
 4319SOL    HW213857   2.431   3.576   6.144
 4320SOL     OW13858   0.158   5.867   2.770
 4320SOL    HW113859   0.249   5.884   2.733
 4320SOL    HW213860   0.166   5.823   2.860
 4321SOL     OW13861   0.708   0.154   5.315
 4321SOL    HW113862   0.733   0.064   5.353
 4321SOL    HW213863   0.647   0.201   5.379
 4322SOL     OW13864   5.979   1.159   0.353
 4322SOL    HW113865   6.020   1.224   0.289
 4322SOL    HW213866   6.032   1.157   0.438
 4323SOL     OW13867   6.777   3.209   3.403
 4323SOL    HW113868   6.779   3.159   3.490
 4323SOL    HW213869   6.865   3.201   3.357
 4324SOL     OW13870   5.695   4.118   5.844
 4324SOL    HW113871   5.708   4.202   5.791
 4324SOL    HW213872   5.597   4.102   5.857
 4325SOL     OW13873   1.897   1.944   6.769
 4325SOL    HW113874   1.936   1.949   6.861
 4325SOL    HW213875   1.813   2.000   6.766
 4326SOL     OW13876   6.314   2.004   5.101
 4326SOL    HW113877   6.275   1.930   5.156
 4326SOL    HW213878   6.297   2.092   5.147
 4327SOL     OW13879   5.798   6.796   2.460
 4327SOL    HW113880   5.769   6.803   2.365
 4327SOL    HW213881   5.883   6.744   2.464
 4328SOL     OW13882   5.501   5.026   0.359
 4328SOL    HW113883   5.513   4.972   0.442
 4328SOL    HW213884   5.579   5.087   0.347
 4329SOL     OW13885   3.475   1.763   5.897
 4329SOL    HW113886   3.524   1.816   5.828
 4329SOL    HW213887   3.515   1.672   5.904
 4330SOL     OW13888   1.416   0.817   6.313
 4330SOL    HW113889   1.433   0.884   6.241
 4330SOL    HW213890   1.358   0.857   6.384
 4331SOL     OW13891   6.037   2.568   0.106
 4331SOL    HW113892   5.974   2.524   0.043
 4331SOL    HW213893   6.116   2.604   0.055
 4332SOL     OW13894   5.182   3.309   1.539
 4332SOL    HW113895   5.243   3.282   1.614
 4332SOL    HW213896   5.191   3.407   1.522
 4333SOL     OW13897   5.223   0.833   5.039
 4333SOL    HW113898   5.177   0.874   4.960
 4333SOL    HW213899   5.310   0.795   5.010
 4334SOL     OW13900   4.618   0.589   2.090
 4334SOL    HW113901   4.562   0.672   2.095
 4334SOL    HW213902   4.685   0.591   2.165
 4335SOL     OW13903   3.465   4.223   5.244
 4335SOL    HW113904   3.445   4.185   5.153
 4335SOL    HW213905   3.382   4.262   5.283
 4336SOL     OW13906   1.499   6.026   4.379
 4336SOL    HW113907   1.521   6.108   4.325
 4336SOL    HW213908   1.417   6.043   4.433
 4337SOL     OW13909   6.969   5.490   0.864
 4337SOL    HW113910   6.873   5.514   0.851
 4337SOL    HW213911   0.002   5.535   0.795
 4338SOL     OW13912   6.676   6.167   3.995
 4338SOL    HW113913   6.577   6.174   3.997
 4338SOL    HW213914   6.707   6.112   4.073
 4339SOL     OW13915   6.286   1.395   6.197
 4339SOL    HW113916   6.330   1.458   6.132
 4339SOL    HW213917   6.208   1.351   6.152
 4340SOL     OW13918   4.651   3.693   1.702
 4340SOL    HW113919   4.630   3.595   1.695
 4340SOL    HW213920   4.748   3.708   1.681
 4341SOL     OW13921   0.698   4.487   0.486
 4341SOL    HW113922   0.794   4.506   0.470
 4341SOL    HW213923   0.675   4.509   0.581
 4342SOL     OW13924   0.305   3.095   2.885
 4342SOL    HW113925   0.316   3.174   2.825
 4342SOL    HW213926   0.345   3.115   2.974
 4343SOL     OW13927   2.380   1.627   1.287
 4343SOL    HW113928   2.296   1.677   1.267
 4343SOL    HW213929   2.396   1.558   1.215
 4344SOL     OW13930   2.000   5.131   3.414
 4344SOL    HW113931   2.004   5.119   3.513
 4344SOL    HW213932   1.935   5.204   3.392
 4345SOL     OW13933   1.743   1.886   5.791
 4345SOL    HW113934   1.803   1.917   5.864
 4345SOL    HW213935   1.664   1.838   5.829
 4346SOL     OW13936   1.968   3.271   1.955
 4346SOL    HW113937   2.058   3.312   1.943
 4346SOL    HW213938   1.898   3.342   1.943
 4347SOL     OW13939   5.651   6.544   2.915
 4347SOL    HW113940   5.738   6.503   2.943
 4347SOL    HW213941   5.614   6.495   2.837
 4348SOL     OW13942   1.388   4.165   6.972
 4348SOL    HW113943   1.309   4.132   6.922
 4348SOL    HW213944   1.470   4.153   6.916
 4349SOL     OW13945   6.892   0.503   3.265
 4349SOL    HW113946   6.879   0.529   3.361
 4349SOL    HW213947   6.822   0.436   3.239
 4350SOL     OW13948   4.889   1.981   3.915
 4350SOL    HW113949   4.874   1.896   3.864
 4350SOL    HW213950   4.973   2.026   3.882
 4351SOL     OW13951   3.123   6.284   1.212
 4351SOL    HW113952   3.179   6.201   1.207
 4351SOL    HW213953   3.049   6.271   1.278
 4352SOL     OW13954   6.276   1.309   1.758
 4352SOL    HW113955   6.281   1.269   1.850
 4352SOL    HW213956   6.337   1.387   1.752
 4353SOL     OW13957   4.158   5.611   6.582
 4353SOL    HW113958   4.236   5.560   6.619
 4353SOL    HW213959   4.114   5.662   6.656
 4354SOL     OW13960   1.808   0.524   0.884
 4354SOL    HW113961   1.734   0.589   0.899
 4354SOL    HW213962   1.876   0.564   0.823
 4355SOL     OW13963   5.096   1.038   0.908
 4355SOL    HW113964   5.142   1.121   0.939
 4355SOL    HW213965   5.007   1.062   0.868
 4356SOL     OW13966   3.792   4.578   0.493
 4356SOL    HW113967   3.808   4.635   0.574
 4356SOL    HW213968   3.707   4.528   0.504
 4357SOL     OW13969   6.143   0.756   6.761
 4357SOL    HW113970   6.199   0.821   6.812
 4357SOL    HW213971   6.095   0.805   6.688
 4358SOL     OW13972   0.550   0.095   1.908
 4358SOL    HW113973   0.624   0.142   1.956
 4358SOL    HW213974   0.576   0.081   1.813
 4359SOL     OW13975   6.444   2.526   3.970
 4359SOL    HW113976   6.482   2.440   4.004
 4359SOL    HW213977   6.387   2.508   3.890
 4360SOL     OW13978   1.528   3.045   1.288
 4360SOL    HW113979   1.558   2.950   1.283
 4360SOL    HW213980   1.428   3.048   1.299
 4361SOL     OW13981   5.133   2.043   1.686
 4361SOL    HW113982   5.147   1.971   1.754
 4361SOL    HW213983   5.124   2.002   1.596
 4362SOL     OW13984   6.008   4.601   4.118
 4362SOL    HW113985   5.936   4.646   4.064
 4362SOL    HW213986   5.977   4.509   4.144
 4363SOL     OW13987   5.377   1.704   6.531
 4363SOL    HW113988   5.383   1.611   6.567
 4363SOL    HW213989   5.298   1.751   6.571
 4364SOL     OW13990   3.580   3.776   4.949
 4364SOL    HW113991   3.509   3.706   4.959
 4364SOL    HW213992   3.549   3.847   4.885
 4365SOL     OW13993   3.581   1.340   1.354
 4365SOL    HW113994   3.621   1.411   1.412
 4365SOL    HW213995   3.632   1.334   1.268
 4366SOL     OW13996   5.777   5.351   1.085
 4366SOL    HW113997   5.791   5.355   0.986
 4366SOL    HW213998   5.807   5.262   1.119
 4367SOL     OW13999   1.350   6.356   6.531
 4367SOL    HW114000   1.370   6.451   6.508
 4367SOL    HW214001   1.322   6.307   6.448
 4368SOL     OW14002   5.688   3.813   1.818
 4368SOL    HW114003   5.618   3.804   1.890
 4368SOL    HW214004   5.763   3.749   1.836
 4369SOL     OW14005   4.110   5.975   1.737
 4369SOL    HW114006   4.148   5.912   1.805
 4369SOL    HW214007   4.021   5.942   1.707
 4370SOL     OW14008   5.759   4.960   2.904
 4370SOL    HW114009   5.853   4.926   2.910
 4370SOL    HW214010   5.695   4.888   2.933
 4371SOL     OW14011   5.932   2.274   1.991
 4371SOL    HW114012   5.948   2.372   2.000
 4371SOL    HW214013   5.835   2.257   1.978
 4372SOL     OW14014   4.773   0.467   2.995
 4372SOL    HW114015   4.810   0.560   2.991
 4372SOL    HW214016   4.681   0.465   2.956
 4373SOL     OW14017   6.864   2.179   6.169
 4373SOL    HW114018   6.874   2.108   6.239
 4373SOL    HW214019   6.880   2.269   6.211
 4374SOL     OW14020   2.604   2.402   1.548
 4374SOL    HW114021   2.591   2.344   1.468
 4374SOL    HW214022   2.627   2.494   1.518
 4375SOL     OW14023   2.804   6.859   4.260
 4375SOL    HW114024   2.845   6.873   4.170
 4375SOL    HW214025   2.705   6.847   4.249
 4376SOL     OW14026   5.586   1.506   3.620
 4376SOL    HW114027   5.528   1.432   3.655
 4376SOL    HW214028   5.578   1.509   3.520
 4377SOL     OW14029   5.229   4.686   6.469
 4377SOL    HW114030   5.209   4.724   6.379
 4377SOL    HW214031   5.204   4.752   6.540
 4378SOL     OW14032   1.909   0.764   4.008
 4378SOL    HW114033   1.843   0.714   4.064
 4378SOL    HW214034   1.990   0.784   4.062
 4379SOL     OW14035   2.712   1.783   5.434
 4379SOL    HW114036   2.680   1.689   5.442
 4379SOL    HW214037   2.805   1.784   5.396
 4380SOL     OW14038   0.221   0.972   1.670
 4380SOL    HW114039   0.310   0.993   1.629
 4380SOL    HW214040   0.158   1.047   1.653
 4381SOL     OW14041   1.692   6.362   6.212
 4381SOL    HW114042   1.665   6.433   6.277
 4381SOL    HW214043   1.679   6.396   6.118
 4382SOL     OW14044   0.090   3.024   5.298
 4382SOL    HW114045   0.083   3.041   5.200
 4382SOL    HW214046   0.015   3.069   5.346
 4383SOL     OW14047   6.305   2.783   0.221
 4383SOL    HW114048   6.292   2.779   0.122
 4383SOL    HW214049   6.345   2.698   0.254
 4384SOL     OW14050   5.632   6.654   4.128
 4384SOL    HW114051   5.592   6.742   4.106
 4384SOL    HW214052   5.603   6.626   4.220
 4385SOL     OW14053   5.128   1.645   5.053
 4385SOL    HW114054   5.098   1.640   4.958
 4385SOL    HW214055   5.097   1.731   5.093
 4386SOL     OW14056   1.262   3.190   4.696
 4386SOL    HW114057   1.197   3.120   4.727
 4386SOL    HW214058   1.344   3.146   4.661
 4387SOL     OW14059   6.772   2.035   0.543
 4387SOL    HW114060   6.811   2.013   0.633
 4387SOL    HW214061   6.745   1.951   0.497
 4388SOL     OW14062   5.941   2.708   6.713
 4388SOL    HW114063   5.886   2.771   6.768
 4388SOL    HW214064   5.889   2.681   6.632
 4389SOL     OW14065   0.701   3.783   1.285
 4389SOL    HW114066   0.746   3.732   1.211
 4389SOL    HW214067   0.618   3.826   1.250
 4390SOL     OW14068   6.741   1.273   1.339
 4390SOL    HW114069   6.698   1.244   1.254
 4390SOL    HW214070   6.674   1.271   1.413
 4391SOL     OW14071   2.334   6.124   0.173
 4391SOL    HW114072   2.250   6.164   0.136
 4391SOL    HW214073   2.358   6.042   0.122
 4392SOL     OW14074   1.722   2.439   5.469
 4392SOL    HW114075   1.799   2.423   5.530
 4392SOL    HW214076   1.710   2.360   5.409
 4393SOL     OW14077   4.908   0.750   2.176
 4393SOL    HW114078   4.960   0.718   2.256
 4393SOL    HW214079   4.903   0.676   2.109
 4394SOL     OW14080   0.928   0.226   2.011
 4394SOL    HW114081   0.849   0.282   1.985
 4394SOL    HW214082   0.995   0.228   1.937
 4395SOL     OW14083   2.886   5.378   1.613
 4395SOL    HW114084   2.948   5.324   1.557
 4395SOL    HW214085   2.828   5.317   1.668
 4396SOL     OW14086   2.797   0.366   3.401
 4396SOL    HW114087   2.848   0.297   3.453
 4396SOL    HW214088   2.755   0.323   3.321
 4397SOL     OW14089   3.252   1.626   4.110
 4397SOL    HW114090   3.192   1.705   4.101
 4397SOL    HW214091   3.205   1.555   4.164
 4398SOL     OW14092   1.833   2.942   5.039
 4398SOL    HW114093   1.780   2.895   4.968
 4398SOL    HW214094   1.787   3.027   5.065
 4399SOL     OW14095   2.833   6.837   2.385
 4399SOL    HW114096   2.834   6.755   2.328
 4399SOL    HW214097   2.865   6.915   2.331
 4400SOL     OW14098   1.617   5.312   4.606
 4400SOL    HW114099   1.654   5.343   4.518
 4400SOL    HW214100   1.691   5.310   4.674
 4401SOL     OW14101   3.796   0.135   6.404
 4401SOL    HW114102   3.849   0.057   6.437
 4401SOL    HW214103   3.832   0.220   6.445
 4402SOL     OW14104   1.404   1.035   3.253
 4402SOL    HW114105   1.394   0.952   3.307
 4402SOL    HW214106   1.365   1.021   3.162
 4403SOL     OW14107   1.419   5.000   1.594
 4403SOL    HW114108   1.431   5.052   1.509
 4403SOL    HW214109   1.411   5.064   1.671
 4404SOL     OW14110   0.672   6.970   6.010
 4404SOL    HW114111   0.674   6.975   5.911
 4404SOL    HW214112   0.586   6.928   6.039
 4405SOL     OW14113   1.696   5.813   3.118
 4405SOL    HW114114   1.717   5.895   3.172
 4405SOL    HW214115   1.648   5.747   3.176
 4406SOL     OW14116   6.479   3.756   2.186
 4406SOL    HW114117   6.393   3.765   2.135
 4406SOL    HW214118   6.539   3.833   2.165
 4407SOL     OW14119   5.570   5.897   1.986
 4407SOL    HW114120   5.657   5.868   1.945
 4407SOL    HW214121   5.572   5.995   2.001
 4408SOL     OW14122   4.471   0.768   0.271
 4408SOL    HW114123   4.561   0.765   0.314
 4408SOL    HW214124   4.480   0.793   0.175
 4409SOL     OW14125   2.935   0.481   2.961
 4409SOL    HW114126   2.956   0.484   3.059
 4409SOL    HW214127   2.836   0.488   2.948
 4410SOL     OW14128   1.404   6.598   1.002
 4410SOL    HW114129   1.391   6.646   1.089
 4410SOL    HW214130   1.317   6.591   0.954
 4411SOL     OW14131   3.661   4.471   5.313
 4411SOL    HW114132   3.759   4.455   5.324
 4411SOL    HW214133   3.621   4.398   5.258
 4412SOL     OW14134   4.392   5.994   2.835
 4412SOL    HW114135   4.376   6.088   2.806
 4412SOL    HW214136   4.458   5.994   2.911
 4413SOL     OW14137   4.448   6.521   3.484
 4413SOL    HW114138   4.399   6.608   3.478
 4413SOL    HW214139   4.545   6.538   3.500
 4414SOL     OW14140   4.338   4.258   1.460
 4414SOL    HW114141   4.401   4.256   1.382
 4414SOL    HW214142   4.259   4.315   1.438
 4415SOL     OW14143   2.300   2.836   1.545
 4415SOL    HW114144   2.289   2.913   1.608
 4415SOL    HW214145   2.393   2.835   1.508
 4416SOL     OW14146   4.483   2.503   3.493
 4416SOL    HW114147   4.418   2.440   3.451
 4416SOL    HW214148   4.455   2.521   3.588
 4417SOL     OW14149   0.501   3.922   3.196
 4417SOL    HW114150   0.461   4.009   3.226
 4417SOL    HW214151   0.573   3.939   3.130
 4418SOL     OW14152   6.424   6.814   5.876
 4418SOL    HW114153   6.387   6.730   5.916
 4418SOL    HW214154   6.442   6.799   5.779
 4419SOL     OW14155   6.165   5.459   6.278
 4419SOL    HW114156   6.114   5.531   6.326
 4419SOL    HW214157   6.109   5.376   6.275
 4420SOL     OW14158   3.356   2.351   0.953
 4420SOL    HW114159   3.297   2.388   1.025
 4420SOL    HW214160   3.451   2.354   0.983
 4421SOL     OW14161   1.717   2.212   6.124
 4421SOL    HW114162   1.646   2.259   6.071
 4421SOL    HW214163   1.676   2.172   6.207
 4422SOL     OW14164   6.542   3.754   6.658
 4422SOL    HW114165   6.458   3.720   6.701
 4422SOL    HW214166   6.605   3.786   6.728
 4423SOL     OW14167   5.541   4.168   4.842
 4423SOL    HW114168   5.604   4.126   4.908
 4423SOL    HW214169   5.563   4.265   4.832
 4424SOL     OW14170   4.767   5.482   3.161
 4424SOL    HW114171   4.777   5.572   3.204
 4424SOL    HW214172   4.798   5.412   3.225
 4425SOL     OW14173   1.731   4.959   1.545
 4425SOL    HW114174   1.686   5.037   1.589
 4425SOL    HW214175   1.692   4.946   1.453
 4426SOL     OW14176   0.506   0.270   5.126
 4426SOL    HW114177   0.490   0.208   5.050
 4426SOL    HW214178   0.564   0.225   5.194
 4427SOL     OW14179   2.355   6.322   3.086
 4427SOL    HW114180   2.407   6.254   3.138
 4427SOL    HW214181   2.289   6.275   3.028
 4428SOL     OW14182   5.337   6.770   3.429
 4428SOL    HW114183   5.386   6.751   3.514
 4428SOL    HW214184   5.250   6.720   3.429
 4429SOL     OW14185   2.597   6.152   3.136
 4429SOL    HW114186   2.560   6.059   3.138
 4429SOL    HW214187   2.648   6.166   3.051
 4430SOL     OW14188   4.593   3.818   5.615
 4430SOL    HW114189   4.647   3.738   5.590
 4430SOL    HW214190   4.520   3.790   5.679
 4431SOL     OW14191   3.075   6.502   3.755
 4431SOL    HW114192   3.081   6.430   3.686
 4431SOL    HW214193   3.117   6.586   3.719
 4432SOL     OW14194   0.596   3.455   5.884
 4432SOL    HW114195   0.603   3.476   5.982
 4432SOL    HW214196   0.568   3.360   5.872
 4433SOL     OW14197   0.248   1.018   5.655
 4433SOL    HW114198   0.267   1.020   5.556
 4433SOL    HW214199   0.293   1.095   5.699
 4434SOL     OW14200   0.225   0.516   2.583
 4434SOL    HW114201   0.162   0.511   2.505
 4434SOL    HW214202   0.208   0.600   2.634
 4435SOL     OW14203   2.191   4.301   0.435
 4435SOL    HW114204   2.186   4.376   0.501
 4435SOL    HW214205   2.236   4.332   0.352
 4436SOL     OW14206   4.302   1.645   1.966
 4436SOL    HW114207   4.358   1.636   2.048
 4436SOL    HW214208   4.248   1.561   1.952
 4437SOL     OW14209   6.905   4.124   0.541
 4437SOL    HW114210   6.958   4.199   0.502
 4437SOL    HW214211   6.818   4.116   0.492
 4438SOL     OW14212   3.482   0.394   5.774
 4438SOL    HW114213   3.446   0.443   5.853
 4438SOL    HW214214   3.471   0.296   5.788
 4439SOL     OW14215   2.724   0.035   2.654
 4439SOL    HW114216   2.823   0.031   2.636
 4439SOL    HW214217   2.694   6.970   2.692
 4440SOL     OW14218   1.430   5.422   0.055
 4440SOL    HW114219   1.441   5.376   0.143
 4440SOL    HW214220   1.405   5.517   0.070
 4441SOL     OW14221   0.235   1.467   0.607
 4441SOL    HW114222   0.245   1.376   0.646
 4441SOL    HW214223   0.153   1.511   0.645
 4442SOL     OW14224   1.772   4.772   6.562
 4442SOL    HW114225   1.684   4.810   6.587
 4442SOL    HW214226   1.818   4.737   6.643
 4443SOL     OW14227   1.030   5.570   6.132
 4443SOL    HW114228   1.115   5.621   6.115
 4443SOL    HW214229   0.986   5.550   6.045
 4444SOL     OW14230   5.789   4.586   0.039
 4444SOL    HW114231   5.835   4.568   6.975
 4444SOL    HW214232   5.767   4.684   0.044
 4445SOL     OW14233   0.332   4.978   0.639
 4445SOL    HW114234   0.324   5.011   0.733
 4445SOL    HW214235   0.334   4.878   0.638
 4446SOL     OW14236   5.018   1.351   0.837
 4446SOL    HW114237   4.952   1.277   0.828
 4446SOL    HW214238   5.102   1.316   0.880
 4447SOL     OW14239   4.716   5.377   5.858
 4447SOL    HW114240   4.747   5.368   5.953
 4447SOL    HW214241   4.707   5.286   5.818
 4448SOL     OW14242   3.773   6.340   2.214
 4448SOL    HW114243   3.829   6.341   2.297
 4448SOL    HW214244   3.683   6.378   2.235
 4449SOL     OW14245   3.415   1.233   5.437
 4449SOL    HW114246   3.432   1.138   5.412
 4449SOL    HW214247   3.494   1.270   5.486
 4450SOL     OW14248   3.625   7.003   0.196
 4450SOL    HW114249   3.561   6.956   0.135
 4450SOL    HW214250   3.591   0.073   0.214
 4451SOL     OW14251   5.274   4.587   2.895
 4451SOL    HW114252   5.280   4.679   2.855
 4451SOL    HW214253   5.183   4.550   2.878
 4452SOL     OW14254   4.364   6.466   4.673
 4452SOL    HW114255   4.330   6.401   4.605
 4452SOL    HW214256   4.320   6.555   4.658
 4453SOL     OW14257   6.506   4.107   0.757
 4453SOL    HW114258   6.485   4.155   0.672
 4453SOL    HW214259   6.520   4.010   0.737
 4454SOL     OW14260   1.248   2.624   6.798
 4454SOL    HW114261   1.267   2.532   6.763
 4454SOL    HW214262   1.161   2.625   6.846
 4455SOL     OW14263   0.612   6.443   5.601
 4455SOL    HW114264   0.679   6.499   5.551
 4455SOL    HW214265   0.635   6.346   5.589
 4456SOL     OW14266   2.290   0.110   4.610
 4456SOL    HW114267   2.298   0.118   4.510
 4456SOL    HW214268   2.202   0.146   4.639
 4457SOL     OW14269   1.750   2.333   4.897
 4457SOL    HW114270   1.757   2.256   4.959
 4457SOL    HW214271   1.804   2.410   4.932
 4458SOL     OW14272   1.633   3.639   6.614
 4458SOL    HW114273   1.582   3.692   6.546
 4458SOL    HW214274   1.695   3.576   6.567
 4459SOL     OW14275   0.791   2.617   2.836
 4459SOL    HW114276   0.810   2.528   2.876
 4459SOL    HW214277   0.694   2.638   2.844
 4460SOL     OW14278   6.784   2.611   4.399
 4460SOL    HW114279   6.800   2.640   4.493
 4460SOL    HW214280   6.711   2.543   4.397
 4461SOL     OW14281   2.179   1.115   1.032
 4461SOL    HW114282   2.200   1.117   1.129
 4461SOL    HW214283   2.251   1.065   0.983
 4462SOL     OW14284   6.614   4.350   3.297
 4462SOL    HW114285   6.657   4.434   3.331
 4462SOL    HW214286   6.685   4.283   3.276
 4463SOL     OW14287   5.585   1.677   0.696
 4463SOL    HW114288   5.641   1.594   0.703
 4463SOL    HW214289   5.491   1.656   0.721
 4464SOL     OW14290   0.305   5.500   1.140
 4464SOL    HW114291   0.370   5.440   1.093
 4464SOL    HW214292   0.318   5.491   1.239
 4465SOL     OW14293   3.311   5.540   0.687
 4465SOL    HW114294   3.317   5.534   0.587
 4465SOL    HW214295   3.387   5.596   0.721
 4466SOL     OW14296   1.742   2.605   3.219
 4466SOL    HW114297   1.804   2.639   3.148
 4466SOL    HW214298   1.790   2.605   3.307
 4467SOL     OW14299   4.274   6.033   3.290
 4467SOL    HW114300   4.289   5.987   3.377
 4467SOL    HW214301   4.353   6.018   3.230
 4468SOL     OW14302   2.007   2.800   1.813
 4468SOL    HW114303   2.106   2.818   1.810
 4468SOL    HW214304   1.971   2.827   1.902
 4469SOL     OW14305   3.285   6.082   1.156
 4469SOL    HW114306   3.354   6.090   1.228
 4469SOL    HW214307   3.304   6.001   1.101
 4470SOL     OW14308   2.191   0.183   3.149
 4470SOL    HW114309   2.214   0.253   3.082
 4470SOL    HW214310   2.254   0.106   3.139
 4471SOL     OW14311   1.331   0.959   6.537
 4471SOL    HW114312   1.376   1.046   6.557
 4471SOL    HW214313   1.312   0.911   6.623
 4472SOL     OW14314   1.898   2.632   1.128
 4472SOL    HW114315   1.884   2.666   1.221
 4472SOL    HW214316   1.917   2.534   1.131
 4473SOL     OW14317   0.667   2.700   4.377
 4473SOL    HW114318   0.587   2.651   4.411
 4473SOL    HW214319   0.680   2.784   4.429
 4474SOL     OW14320   2.883   5.431   0.837
 4474SOL    HW114321   2.938   5.434   0.920
 4474SOL    HW214322   2.919   5.497   0.771
 4475SOL     OW14323   1.357   3.740   0.962
 4475SOL    HW114324   1.364   3.682   1.043
 4475SOL    HW214325   1.279   3.711   0.906
 4476SOL     OW14326   4.893   1.247   3.695
 4476SOL    HW114327   4.924   1.292   3.611
 4476SOL    HW214328   4.834   1.169   3.672
 4477SOL     OW14329   1.706   0.784   4.838
 4477SOL    HW114330   1.621   0.746   4.874
 4477SOL    HW214331   1.759   0.712   4.794
 4478SOL     OW14332   1.906   6.988   0.682
 4478SOL    HW114333   1.813   6.987   0.719
 4478SOL    HW214334   1.930   0.059   0.657
 4479SOL     OW14335   1.265   2.684   0.148
 4479SOL    HW114336   1.234   2.608   0.089
 4479SOL    HW214337   1.342   2.654   0.203
 4480SOL     OW14338   1.029   6.118   3.931
 4480SOL    HW114339   0.977   6.170   3.998
 4480SOL    HW214340   1.124   6.150   3.930
 4481SOL     OW14341   2.174   3.714   6.010
 4481SOL    HW114342   2.152   3.806   5.977
 4481SOL    HW214343   2.220   3.720   6.098
 4482SOL     OW14344   2.545   6.223   0.332
 4482SOL    HW114345   2.526   6.290   0.404
 4482SOL    HW214346   2.469   6.220   0.268
 4483SOL     OW14347   1.215   2.976   0.460
 4483SOL    HW114348   1.288   3.043   0.471
 4483SOL    HW214349   1.244   2.888   0.497
 4484SOL     OW14350   2.688   1.636   0.326
 4484SOL    HW114351   2.681   1.688   0.411
 4484SOL    HW214352   2.646   1.689   0.251
 4485SOL     OW14353   6.290   2.699   5.323
 4485SOL    HW114354   6.242   2.745   5.248
 4485SOL    HW214355   6.280   2.753   5.406
 4486SOL     OW14356   4.495   4.983   4.959
 4486SOL    HW114357   4.433   4.913   4.922
 4486SOL    HW214358   4.448   5.071   4.963
 4487SOL     OW14359   0.657   3.108   0.047
 4487SOL    HW114360   0.744   3.114   0.097
 4487SOL    HW214361   0.618   3.017   0.059
 4488SOL     OW14362   0.067   4.192   3.984
 4488SOL    HW114363   0.160   4.227   3.991
 4488SOL    HW214364   0.002   4.269   3.991
 4489SOL     OW14365   4.602   5.879   5.667
 4489SOL    HW114366   4.630   5.799   5.721
 4489SOL    HW214367   4.635   5.962   5.710
 4490SOL     OW14368   5.279   1.761   1.619
 4490SOL    HW114369   5.274   1.675   1.568
 4490SOL    HW214370   5.210   1.824   1.584
 4491SOL     OW14371   1.122   3.263   3.721
 4491SOL    HW114372   1.027   3.233   3.734
 4491SOL    HW214373   1.125   3.363   3.725
 4492SOL     OW14374   6.139   0.570   2.461
 4492SOL    HW114375   6.070   0.633   2.424
 4492SOL    HW214376   6.157   0.498   2.395
 4493SOL     OW14377   5.574   1.775   4.963
 4493SOL    HW114378   5.506   1.713   4.924
 4493SOL    HW214379   5.557   1.786   5.061
 4494SOL     OW14380   1.049   0.944   1.052
 4494SOL    HW114381   1.115   0.983   0.988
 4494SOL    HW214382   0.985   1.015   1.081
 4495SOL     OW14383   4.516   5.969   1.015
 4495SOL    HW114384   4.492   6.055   0.969
 4495SOL    HW214385   4.616   5.964   1.024
 4496SOL     OW14386   3.700   6.121   6.136
 4496SOL    HW114387   3.783   6.138   6.188
 4496SOL    HW214388   3.701   6.026   6.102
 4497SOL     OW14389   4.510   1.127   5.873
 4497SOL    HW114390   4.598   1.116   5.919
 4497SOL    HW214391   4.463   1.039   5.869
 4498SOL     OW14392   0.185   5.517   4.977
 4498SOL    HW114393   0.178   5.616   4.972
 4498SOL    HW214394   0.161   5.486   5.069
 4499SOL     OW14395   6.066   2.339   2.556
 4499SOL    HW114396   6.064   2.362   2.458
 4499SOL    HW214397   6.130   2.264   2.572
 4500SOL     OW14398   4.135   5.413   6.953
 4500SOL    HW114399   4.200   5.392   0.003
 4500SOL    HW214400   4.076   5.488   6.982
 4501SOL     OW14401   5.823   0.500   2.711
 4501SOL    HW114402   5.765   0.454   2.643
 4501SOL    HW214403   5.776   0.583   2.743
 4502SOL     OW14404   6.762   3.807   6.463
 4502SOL    HW114405   6.690   3.792   6.530
 4502SOL    HW214406   6.848   3.767   6.496
 4503SOL     OW14407   3.158   1.153   2.771
 4503SOL    HW114408   3.223   1.090   2.815
 4503SOL    HW214409   3.199   1.190   2.688
 4504SOL     OW14410   6.834   1.411   2.674
 4504SOL    HW114411   6.740   1.392   2.645
 4504SOL    HW214412   6.862   1.345   2.743
 4505SOL     OW14413   5.701   5.005   4.124
 4505SOL    HW114414   5.754   4.952   4.058
 4505SOL    HW214415   5.746   5.003   4.213
 4506SOL     OW14416   5.284   2.778   5.634
 4506SOL    HW114417   5.346   2.826   5.696
 4506SOL    HW214418   5.319   2.785   5.540
 4507SOL     OW14419   6.155   2.888   3.187
 4507SOL    HW114420   6.176   2.794   3.215
 4507SOL    HW214421   6.168   2.898   3.089
 4508SOL     OW14422   0.473   5.325   1.001
 4508SOL    HW114423   0.409   5.267   0.950
 4508SOL    HW214424   0.513   5.272   1.076
 4509SOL     OW14425   4.946   2.973   1.824
 4509SOL    HW114426   4.863   2.996   1.876
 4509SOL    HW214427   5.021   2.957   1.888
 4510SOL     OW14428   4.000   0.744   3.865
 4510SOL    HW114429   4.085   0.743   3.812
 4510SOL    HW214430   3.997   0.825   3.923
 4511SOL     OW14431   0.359   4.144   0.210
 4511SOL    HW114432   0.426   4.216   0.195
 4511SOL    HW214433   0.340   4.135   0.308
 4512SOL     OW14434   3.289   2.993   5.509
 4512SOL    HW114435   3.360   3.040   5.457
 4512SOL    HW214436   3.214   2.968   5.448
 4513SOL     OW14437   1.151   6.631   0.847
 4513SOL    HW114438   1.085   6.666   0.913
 4513SOL    HW214439   1.125   6.538   0.819
 4514SOL     OW14440   3.473   4.629   6.493
 4514SOL    HW114441   3.536   4.588   6.427
 4514SOL    HW214442   3.402   4.563   6.516
 4515SOL     OW14443   4.432   0.861   5.896
 4515SOL    HW114444   4.527   0.844   5.868
 4515SOL    HW214445   4.383   0.775   5.900
 4516SOL     OW14446   3.397   1.776   5.456
 4516SOL    HW114447   3.356   1.867   5.454
 4516SOL    HW214448   3.331   1.710   5.488
 4517SOL     OW14449   3.842   0.699   5.315
 4517SOL    HW114450   3.915   0.743   5.367
 4517SOL    HW214451   3.753   0.727   5.352
 4518SOL     OW14452   1.063   6.601   1.411
 4518SOL    HW114453   1.034   6.527   1.351
 4518SOL    HW214454   0.985   6.635   1.462
 4519SOL     OW14455   4.673   6.878   0.024
 4519SOL    HW114456   4.655   6.964   0.072
 4519SOL    HW214457   4.766   6.878   7.010
 4520SOL     OW14458   4.258   5.133   5.376
 4520SOL    HW114459   4.258   5.226   5.338
 4520SOL    HW214460   4.227   5.136   5.471
 4521SOL     OW14461   4.447   2.377   4.158
 4521SOL    HW114462   4.524   2.427   4.119
 4521SOL    HW214463   4.447   2.389   4.258
 4522SOL     OW14464   5.721   4.396   3.463
 4522SOL    HW114465   5.687   4.308   3.428
 4522SOL    HW214466   5.800   4.425   3.409
 4523SOL     OW14467   0.527   3.171   5.905
 4523SOL    HW114468   0.552   3.121   5.822
 4523SOL    HW214469   0.502   3.106   5.977
 4524SOL     OW14470   1.533   3.802   2.478
 4524SOL    HW114471   1.618   3.782   2.428
 4524SOL    HW214472   1.456   3.797   2.414
 4525SOL     OW14473   3.398   2.266   5.356
 4525SOL    HW114474   3.317   2.313   5.321
 4525SOL    HW214475   3.462   2.332   5.395
 4526SOL     OW14476   0.893   6.764   5.599
 4526SOL    HW114477   0.922   6.717   5.683
 4526SOL    HW214478   0.922   6.710   5.520
 4527SOL     OW14479   6.619   1.055   2.738
 4527SOL    HW114480   6.613   0.956   2.723
 4527SOL    HW214481   6.677   1.096   2.667
 4528SOL     OW14482   4.669   1.222   5.492
 4528SOL    HW114483   4.646   1.274   5.410
 4528SOL    HW214484   4.738   1.273   5.545
 4529SOL     OW14485   2.238   1.141   4.138
 4529SOL    HW114486   2.267   1.183   4.224
 4529SOL    HW214487   2.280   1.190   4.062
 4530SOL     OW14488   3.883   5.850   6.304
 4530SOL    HW114489   3.868   5.823   6.209
 4530SOL    HW214490   3.876   5.950   6.312
 4531SOL     OW14491   1.373   5.586   6.146
 4531SOL    HW114492   1.403   5.574   6.240
 4531SOL    HW214493   1.343   5.680   6.132
 4532SOL     OW14494   5.699   0.711   2.790
 4532SOL    HW114495   5.642   0.739   2.713
 4532SOL    HW214496   5.663   0.750   2.874
 4533SOL     OW14497   2.769   0.247   1.289
 4533SOL    HW114498   2.796   0.240   1.193
 4533SOL    HW214499   2.846   0.220   1.347
 4534SOL     OW14500   4.223   1.223   4.026
 4534SOL    HW114501   4.194   1.281   4.102
 4534SOL    HW214502   4.307   1.260   3.986
 4535SOL     OW14503   1.938   0.948   0.872
 4535SOL    HW114504   1.952   0.853   0.900
 4535SOL    HW214505   1.989   0.966   0.788
 4536SOL     OW14506   3.154   0.007   5.683
 4536SOL    HW114507   3.157   0.104   5.707
 4536SOL    HW214508   3.113   7.020   5.592
 4537SOL     OW14509   2.959   3.776   3.530
 4537SOL    HW114510   2.934   3.849   3.594
 4537SOL    HW214511   2.949   3.687   3.574
 4538SOL     OW14512   0.545   2.119   1.069
 4538SOL    HW114513   0.477   2.189   1.091
 4538SOL    HW214514   0.550   2.052   1.143
 4539SOL     OW14515   1.564   6.343   5.709
 4539SOL    HW114516   1.541   6.437   5.683
 4539SOL    HW214517   1.546   6.282   5.632
 4540SOL     OW14518   0.911   1.786   0.288
 4540SOL    HW114519   0.903   1.818   0.383
 4540SOL    HW214520   0.999   1.739   0.277
 4541SOL     OW14521   4.287   2.714   5.594
 4541SOL    HW114522   4.264   2.746   5.503
 4541SOL    HW214523   4.243   2.625   5.610
 4542SOL     OW14524   0.180   1.791   0.296
 4542SOL    HW114525   0.126   1.763   0.375
 4542SOL    HW214526   0.276   1.798   0.321
 4543SOL     OW14527   3.685   2.463   0.190
 4543SOL    HW114528   3.625   2.384   0.178
 4543SOL    HW214529   3.644   2.543   0.149
 4544SOL     OW14530   5.511   6.676   0.611
 4544SOL    HW114531   5.434   6.675   0.675
 4544SOL    HW214532   5.540   6.582   0.592
 4545SOL     OW14533   2.035   3.094   5.198
 4545SOL    HW114534   1.952   3.123   5.246
 4545SOL    HW214535   2.010   3.030   5.125
 4546SOL     OW14536   3.110   0.453   5.035
 4546SOL    HW114537   3.056   0.536   5.047
 4546SOL    HW214538   3.143   0.449   4.940
 4547SOL     OW14539   6.946   0.182   0.137
 4547SOL    HW114540   7.005   0.231   0.202
 4547SOL    HW214541   6.851   0.193   0.164
 4548SOL     OW14542   2.913   1.598   2.747
 4548SOL    HW114543   2.889   1.501   2.741
 4548SOL    HW214544   3.012   1.608   2.740
 4549SOL     OW14545   0.278   3.490   4.506
 4549SOL    HW114546   0.307   3.395   4.493
 4549SOL    HW214547   0.179   3.495   4.498
 4550SOL     OW14548   2.000   5.112   3.689
 4550SOL    HW114549   1.904   5.094   3.714
 4550SOL    HW214550   2.027   5.201   3.726
 4551SOL     OW14551   2.202   2.420   5.458
 4551SOL    HW114552   2.284   2.438   5.513
 4551SOL    HW214553   2.184   2.498   5.399
 4552SOL     OW14554   5.360   1.162   0.728
 4552SOL    HW114555   5.332   1.068   0.708
 4552SOL    HW214556   5.299   1.225   0.680
 4553SOL     OW14557   0.131   5.554   0.125
 4553SOL    HW114558   0.138   5.654   0.131
 4553SOL    HW214559   0.185   5.512   0.198
 4554SOL     OW14560   6.137   6.644   3.043
 4554SOL    HW114561   6.081   6.639   2.960
 4554SOL    HW214562   6.110   6.724   3.096
 4555SOL     OW14563   1.628   1.128   0.728
 4555SOL    HW114564   1.582   1.202   0.679
 4555SOL    HW214565   1.581   1.042   0.710
 4556SOL     OW14566   5.654   4.620   4.555
 4556SOL    HW114567   5.595   4.698   4.532
 4556SOL    HW214568   5.749   4.650   4.557
 4557SOL     OW14569   0.018   4.471   4.127
 4557SOL    HW114570   0.027   4.565   4.159
 4557SOL    HW214571   6.987   4.418   4.193
 4558SOL     OW14572   1.296   3.647   4.580
 4558SOL    HW114573   1.252   3.568   4.622
 4558SOL    HW214574   1.275   3.648   4.482
 4559SOL     OW14575   6.636   2.731   3.548
 4559SOL    HW114576   6.584   2.726   3.633
 4559SOL    HW214577   6.658   2.638   3.517
 4560SOL     OW14578   6.179   3.919   2.526
 4560SOL    HW114579   6.220   3.914   2.617
 4560SOL    HW214580   6.174   4.014   2.496
 4561SOL     OW14581   4.295   2.316   3.942
 4561SOL    HW114582   4.348   2.315   4.026
 4561SOL    HW214583   4.207   2.270   3.957
 4562SOL     OW14584   3.559   1.073   1.079
 4562SOL    HW114585   3.478   1.104   1.029
 4562SOL    HW214586   3.573   0.975   1.061
 4563SOL     OW14587   0.798   4.547   2.358
 4563SOL    HW114588   0.706   4.581   2.378
 4563SOL    HW214589   0.817   4.557   2.260
 4564SOL     OW14590   1.790   3.481   2.179
 4564SOL    HW114591   1.750   3.400   2.135
 4564SOL    HW214592   1.888   3.484   2.158
 4565SOL     OW14593   1.846   6.019   6.186
 4565SOL    HW114594   1.852   5.927   6.224
 4565SOL    HW214595   1.807   6.081   6.255
 4566SOL     OW14596   6.354   4.742   3.299
 4566SOL    HW114597   6.284   4.685   3.255
 4566SOL    HW214598   6.316   4.833   3.316
 4567SOL     OW14599   0.011   0.655   6.985
 4567SOL    HW114600   6.958   0.719   6.975
 4567SOL    HW214601   7.000   0.565   7.011
 4568SOL     OW14602   1.532   5.276   2.983
 4568SOL    HW114603   1.467   5.352   2.991
 4568SOL    HW214604   1.615   5.298   3.035
 4569SOL     OW14605   1.969   0.997   3.596
 4569SOL    HW114606   2.020   0.984   3.510
 4569SOL    HW214607   1.874   1.022   3.575
 4570SOL     OW14608   5.017   5.826   1.880
 4570SOL    HW114609   4.994   5.780   1.794
 4570SOL    HW214610   4.940   5.884   1.908
 4571SOL     OW14611   2.424   2.995   6.626
 4571SOL    HW114612   2.332   3.034   6.623
 4571SOL    HW214613   2.479   3.035   6.553
 4572SOL     OW14614   2.944   3.203   2.081
 4572SOL    HW114615   2.895   3.165   2.003
 4572SOL    HW214616   3.032   3.239   2.051
 4573SOL     OW14617   3.081   5.693   1.125
 4573SOL    HW114618   3.110   5.712   1.218
 4573SOL    HW214619   3.127   5.755   1.062
 4574SOL     OW14620   4.907   0.944   1.446
 4574SOL    HW114621   4.985   0.891   1.478
 4574SOL    HW214622   4.830   0.882   1.427
 4575SOL     OW14623   0.531   0.322   5.784
 4575SOL    HW114624   0.543   0.352   5.878
 4575SOL    HW214625   0.433   0.313   5.764
 4576SOL     OW14626   2.887   4.781   5.625
 4576SOL    HW114627   2.881   4.870   5.580
 4576SOL    HW214628   2.879   4.709   5.556
 4577SOL     OW14629   0.464   1.740   2.606
 4577SOL    HW114630   0.495   1.771   2.516
 4577SOL    HW214631   0.517   1.786   2.677
 4578SOL     OW14632   1.586   1.868   2.264
 4578SOL    HW114633   1.660   1.819   2.310
 4578SOL    HW214634   1.610   1.965   2.258
 4579SOL     OW14635   4.900   0.671   3.296
 4579SOL    HW114636   4.929   0.578   3.316
 4579SOL    HW214637   4.970   0.735   3.327
 4580SOL     OW14638   0.564   2.114   0.820
 4580SOL    HW114639   0.564   2.097   0.919
 4580SOL    HW214640   0.478   2.156   0.794
 4581SOL     OW14641   3.284   0.927   0.863
 4581SOL    HW114642   3.270   0.964   0.955
 4581SOL    HW214643   3.220   0.969   0.799
 4582SOL     OW14644   5.880   1.482   3.926
 4582SOL    HW114645   5.909   1.397   3.972
 4582SOL    HW214646   5.846   1.547   3.994
 4583SOL     OW14647   1.915   0.322   0.340
 4583SOL    HW114648   1.866   0.235   0.332
 4583SOL    HW214649   2.011   0.304   0.357
 4584SOL     OW14650   0.835   1.026   4.426
 4584SOL    HW114651   0.928   1.002   4.398
 4584SOL    HW214652   0.816   1.121   4.403
 4585SOL     OW14653   1.939   3.164   3.608
 4585SOL    HW114654   1.856   3.121   3.643
 4585SOL    HW214655   2.008   3.167   3.679
 4586SOL     OW14656   5.599   4.890   6.861
 4586SOL    HW114657   5.634   4.839   6.782
 4586SOL    HW214658   5.667   4.888   6.934
 4587SOL     OW14659   3.131   2.900   5.107
 4587SOL    HW114660   3.050   2.948   5.141
 4587SOL    HW214661   3.151   2.822   5.167
 4588SOL     OW14662   3.209   3.747   6.098
 4588SOL    HW114663   3.136   3.684   6.073
 4588SOL    HW214664   3.282   3.696   6.144
 4589SOL     OW14665   6.297   6.119   2.088
 4589SOL    HW114666   6.390   6.083   2.095
 4589SOL    HW214667   6.283   6.157   1.996
 4590SOL     OW14668   3.221   4.864   0.727
 4590SOL    HW114669   3.185   4.802   0.658
 4590SOL    HW214670   3.149   4.928   0.754
 4591SOL     OW14671   1.953   0.029   4.958
 4591SOL    HW114672   2.036   0.028   5.014
 4591SOL    HW214673   1.972   7.012   4.869
 4592SOL     OW14674   1.735   1.681   3.660
 4592SOL    HW114675   1.666   1.628   3.611
 4592SOL    HW214676   1.826   1.646   3.639
 4593SOL     OW14677   1.502   5.700   4.559
 4593SOL    HW114678   1.595   5.737   4.557
 4593SOL    HW214679   1.462   5.706   4.467
 4594SOL     OW14680   1.725   0.029   3.605
 4594SOL    HW114681   1.784   0.000   3.680
 4594SOL    HW214682   1.632   7.018   3.620
 4595SOL     OW14683   5.625   1.833   6.261
 4595SOL    HW114684   5.602   1.909   6.321
 4595SOL    HW214685   5.545   1.773   6.251
 4596SOL     OW14686   6.408   0.658   2.260
 4596SOL    HW114687   6.472   0.581   2.268
 4596SOL    HW214688   6.459   0.744   2.267
 4597SOL     OW14689   3.040   5.822   0.038
 4597SOL    HW114690   2.978   5.889   0.077
 4597SOL    HW214691   2.998   5.780   6.981
 4598SOL     OW14692   1.341   4.634   0.407
 4598SOL    HW114693   1.342   4.643   0.307
 4598SOL    HW214694   1.333   4.538   0.432
 4599SOL     OW14695   2.954   6.080   1.632
 4599SOL    HW114696   2.957   6.162   1.689
 4599SOL    HW214697   3.003   6.006   1.678
 4600SOL     OW14698   0.682   6.456   6.284
 4600SOL    HW114699   0.709   6.407   6.367
 4600SOL    HW214700   0.600   6.510   6.302
 4601SOL     OW14701   1.710   0.687   5.137
 4601SOL    HW114702   1.686   0.596   5.102
 4601SOL    HW214703   1.808   0.702   5.125
 4602SOL     OW14704   3.127   2.191   6.093
 4602SOL    HW114705   3.051   2.211   6.031
 4602SOL    HW214706   3.113   2.239   6.179
 4603SOL     OW14707   4.881   0.174   0.951
 4603SOL    HW114708   4.948   0.113   0.994
 4603SOL    HW214709   4.897   0.177   0.852
 4604SOL     OW14710   6.444   6.670   4.717
 4604SOL    HW114711   6.541   6.668   4.696
 4604SOL    HW214712   6.392   6.691   4.634
 4605SOL     OW14713   3.919   0.287   1.279
 4605SOL    HW114714   3.911   0.387   1.274
 4605SOL    HW214715   3.933   0.259   1.374
 4606SOL     OW14716   6.781   6.736   5.016
 4606SOL    HW114717   6.789   6.834   5.002
 4606SOL    HW214718   6.691   6.705   4.987
 4607SOL     OW14719   2.060   2.387   0.924
 4607SOL    HW114720   2.049   2.412   1.021
 4607SOL    HW214721   2.004   2.306   0.904
 4608SOL     OW14722   6.572   2.559   4.943
 4608SOL    HW114723   6.603   2.521   4.856
 4608SOL    HW214724   6.642   2.545   5.013
 4609SOL     OW14725   4.948   5.862   6.414
 4609SOL    HW114726   4.915   5.807   6.337
 4609SOL    HW214727   4.873   5.917   6.450
 4610SOL     OW14728   5.100   4.192   0.019
 4610SOL    HW114729   5.184   4.137   0.024
 4610SOL    HW214730   5.051   4.169   6.958
 4611SOL     OW14731   0.892   0.564   6.272
 4611SOL    HW114732   0.957   0.574   6.197
 4611SOL    HW214733   0.912   0.481   6.323
 4612SOL     OW14734   1.777   1.785   1.543
 4612SOL    HW114735   1.792   1.871   1.495
 4612SOL    HW214736   1.713   1.728   1.491
 4613SOL     OW14737   1.779   4.379   1.839
 4613SOL    HW114738   1.707   4.345   1.899
 4613SOL    HW214739   1.789   4.478   1.852
 4614SOL     OW14740   6.514   4.382   4.742
 4614SOL    HW114741   6.601   4.432   4.747
 4614SOL    HW214742   6.523   4.295   4.790
 4615SOL     OW14743   1.066   3.450   6.299
 4615SOL    HW114744   1.019   3.365   6.273
 4615SOL    HW214745   1.120   3.434   6.381
 4616SOL     OW14746   6.745   2.613   5.701
 4616SOL    HW114747   6.786   2.562   5.625
 4616SOL    HW214748   6.685   2.684   5.666
 4617SOL     OW14749   6.558   2.491   3.411
 4617SOL    HW114750   6.468   2.459   3.379
 4617SOL    HW214751   6.606   2.416   3.455
 4618SOL     OW14752   2.163   4.045   6.108
 4618SOL    HW114753   2.069   4.064   6.139
 4618SOL    HW214754   2.161   4.009   6.015
 4619SOL     OW14755   4.895   6.254   6.166
 4619SOL    HW114756   4.926   6.161   6.148
 4619SOL    HW214757   4.925   6.314   6.092
 4620SOL     OW14758   0.854   4.986   2.301
 4620SOL    HW114759   0.874   4.919   2.372
 4620SOL    HW214760   0.930   4.989   2.236
 4621SOL     OW14761   3.645   6.818   2.741
 4621SOL    HW114762   3.719   6.804   2.674
 4621SOL    HW214763   3.680   6.802   2.833
 4622SOL     OW14764   5.387   6.088   1.009
 4622SOL    HW114765   5.333   6.029   1.069
 4622SOL    HW214766   5.482   6.057   1.008
 4623SOL     OW14767   2.823   4.394   1.212
 4623SOL    HW114768   2.783   4.486   1.221
 4623SOL    HW214769   2.870   4.370   1.296
 4624SOL     OW14770   4.465   1.096   1.972
 4624SOL    HW114771   4.372   1.114   1.941
 4624SOL    HW214772   4.496   1.172   2.029
 4625SOL     OW14773   2.484   6.115   1.444
 4625SOL    HW114774   2.547   6.126   1.521
 4625SOL    HW214775   2.532   6.137   1.359
 4626SOL     OW14776   4.397   3.794   1.742
 4626SOL    HW114777   4.420   3.889   1.720
 4626SOL    HW214778   4.477   3.737   1.728
 4627SOL     OW14779   5.595   0.216   5.077
 4627SOL    HW114780   5.586   0.213   4.977
 4627SOL    HW214781   5.517   0.170   5.119
 4628SOL     OW14782   5.482   5.508   3.786
 4628SOL    HW114783   5.462   5.600   3.820
 4628SOL    HW214784   5.525   5.455   3.858
 4629SOL     OW14785   2.369   5.591   6.898
 4629SOL    HW114786   2.288   5.636   6.936
 4629SOL    HW214787   2.349   5.559   6.805
 4630SOL     OW14788   1.983   3.108   2.246
 4630SOL    HW114789   1.999   3.178   2.176
 4630SOL    HW214790   2.024   3.021   2.216
 4631SOL     OW14791   6.977   0.571   2.850
 4631SOL    HW114792   0.039   0.529   2.880
 4631SOL    HW214793   6.942   0.632   2.922
 4632SOL     OW14794   3.497   4.943   2.462
 4632SOL    HW114795   3.407   4.986   2.460
 4632SOL    HW214796   3.519   4.906   2.372
 4633SOL     OW14797   4.686   1.046   4.805
 4633SOL    HW114798   4.597   1.086   4.828
 4633SOL    HW214799   4.741   1.114   4.756
 4634SOL     OW14800   3.248   4.308   5.387
 4634SOL    HW114801   3.246   4.234   5.454
 4634SOL    HW214802   3.155   4.321   5.350
 4635SOL     OW14803   4.977   6.661   1.953
 4635SOL    HW114804   5.008   6.572   1.984
 4635SOL    HW214805   5.053   6.709   1.908
 4636SOL     OW14806   1.792   5.168   7.021
 4636SOL    HW114807   1.887   5.174   0.030
 4636SOL    HW214808   1.730   5.174   0.075
 4637SOL     OW14809   2.937   1.850   2.963
 4637SOL    HW114810   2.914   1.761   2.923
 4637SOL    HW214811   3.037   1.860   2.965
 4638SOL     OW14812   4.019   5.102   0.124
 4638SOL    HW114813   3.957   5.091   0.202
 4638SOL    HW214814   4.082   5.024   0.120
 4639SOL     OW14815   3.783   2.245   1.646
 4639SOL    HW114816   3.730   2.275   1.725
 4639SOL    HW214817   3.763   2.150   1.626
 4640SOL     OW14818   6.463   2.964   6.973
 4640SOL    HW114819   6.483   2.900   0.024
 4640SOL    HW214820   6.510   2.934   6.890
 4641SOL     OW14821   0.781   6.074   4.624
 4641SOL    HW114822   0.831   6.001   4.670
 4641SOL    HW214823   0.748   6.040   4.535
 4642SOL     OW14824   6.441   0.855   4.200
 4642SOL    HW114825   6.418   0.936   4.254
 4642SOL    HW214826   6.540   0.851   4.186
 4643SOL     OW14827   0.631   2.126   0.179
 4643SOL    HW114828   0.714   2.070   0.174
 4643SOL    HW214829   0.657   2.222   0.190
 4644SOL     OW14830   1.548   0.974   0.296
 4644SOL    HW114831   1.622   1.037   0.320
 4644SOL    HW214832   1.571   0.882   0.327
 4645SOL     OW14833   0.321   1.662   4.388
 4645SOL    HW114834   0.390   1.688   4.320
 4645SOL    HW214835   0.329   1.564   4.407
 4646SOL     OW14836   2.157   4.837   4.370
 4646SOL    HW114837   2.128   4.741   4.372
 4646SOL    HW214838   2.254   4.844   4.393
 4647SOL     OW14839   1.244   6.402   1.842
 4647SOL    HW114840   1.283   6.313   1.818
 4647SOL    HW214841   1.254   6.465   1.765
 4648SOL     OW14842   2.665   1.766   4.067
 4648SOL    HW114843   2.720   1.687   4.040
 4648SOL    HW214844   2.569   1.748   4.044
 4649SOL     OW14845   6.679   1.710   6.910
 4649SOL    HW114846   6.671   1.650   6.830
 4649SOL    HW214847   6.650   1.802   6.885
 4650SOL     OW14848   5.029   6.033   0.955
 4650SOL    HW114849   5.059   6.115   0.905
 4650SOL    HW214850   5.006   6.059   1.049
 4651SOL     OW14851   6.624   3.219   6.157
 4651SOL    HW114852   6.693   3.288   6.180
 4651SOL    HW214853   6.564   3.254   6.085
 4652SOL     OW14854   0.617   6.132   5.430
 4652SOL    HW114855   0.667   6.138   5.517
 4652SOL    HW214856   0.672   6.171   5.357
 4653SOL     OW14857   6.227   5.378   0.383
 4653SOL    HW114858   6.258   5.434   0.460
 4653SOL    HW214859   6.302   5.319   0.353
 4654SOL     OW14860   1.321   0.413   5.686
 4654SOL    HW114861   1.325   0.467   5.602
 4654SOL    HW214862   1.319   0.316   5.664
 4655SOL     OW14863   4.710   3.060   1.162
 4655SOL    HW114864   4.622   3.030   1.198
 4655SOL    HW214865   4.745   3.135   1.218
 4656SOL     OW14866   0.034   1.705   1.364
 4656SOL    HW114867   0.022   1.613   1.326
 4656SOL    HW214868   0.130   1.720   1.385
 4657SOL     OW14869   4.198   0.877   2.473
 4657SOL    HW114870   4.191   0.887   2.373
 4657SOL    HW214871   4.131   0.936   2.517
 4658SOL     OW14872   1.566   2.731   5.729
 4658SOL    HW114873   1.473   2.764   5.743
 4658SOL    HW214874   1.563   2.636   5.698
 4659SOL     OW14875   1.583   4.436   0.082
 4659SOL    HW114876   1.631   4.350   0.062
 4659SOL    HW214877   1.649   4.505   0.111
 4660SOL     OW14878   0.941   6.140   3.433
 4660SOL    HW114879   1.008   6.094   3.375
 4660SOL    HW214880   0.848   6.120   3.400
 4661SOL     OW14881   0.951   1.965   4.983
 4661SOL    HW114882   0.949   1.900   4.908
 4661SOL    HW214883   0.923   1.920   5.067
 4662SOL     OW14884   2.313   0.067   5.713
 4662SOL    HW114885   2.254   0.143   5.686
 4662SOL    HW214886   2.317   0.062   5.813
 4663SOL     OW14887   1.968   6.848   0.316
 4663SOL    HW114888   2.034   6.788   0.272
 4663SOL    HW214889   1.936   6.806   0.401
 4664SOL     OW14890   6.265   0.206   0.095
 4664SOL    HW114891   6.350   0.256   0.113
 4664SOL    HW214892   6.187   0.269   0.102
 4665SOL     OW14893   1.558   0.608   4.009
 4665SOL    HW114894   1.599   0.629   4.097
 4665SOL    HW214895   1.460   0.630   4.011
 4666SOL     OW14896   2.357   1.890   5.041
 4666SOL    HW114897   2.374   1.930   5.131
 4666SOL    HW214898   2.293   1.948   4.990
 4667SOL     OW14899   6.975   3.629   1.264
 4667SOL    HW114900   0.048   3.657   1.266
 4667SOL    HW214901   6.965   3.541   1.310
 4668SOL     OW14902   4.835   1.684   4.110
 4668SOL    HW114903   4.739   1.704   4.129
 4668SOL    HW214904   4.840   1.612   4.041
 4669SOL     OW14905   5.511   6.876   6.243
 4669SOL    HW114906   5.524   6.927   6.328
 4669SOL    HW214907   5.560   6.923   6.169
 4670SOL     OW14908   0.539   2.674   0.590
 4670SOL    HW114909   0.638   2.672   0.578
 4670SOL    HW214910   0.496   2.611   0.524
 4671SOL     OW14911   0.423   3.537   0.674
 4671SOL    HW114912   0.336   3.585   0.686
 4671SOL    HW214913   0.462   3.560   0.585
 4672SOL     OW14914   2.483   3.945   6.686
 4672SOL    HW114915   2.508   4.004   6.763
 4672SOL    HW214916   2.387   3.960   6.662
 4673SOL     OW14917   5.774   1.003   0.362
 4673SOL    HW114918   5.847   1.071   0.354
 4673SOL    HW214919   5.698   1.028   0.302
 4674SOL     OW14920   0.964   2.585   1.468
 4674SOL    HW114921   0.943   2.663   1.527
 4674SOL    HW214922   0.879   2.549   1.429
 4675SOL     OW14923   2.195   5.911   6.440
 4675SOL    HW114924   2.167   5.989   6.495
 4675SOL    HW214925   2.294   5.900   6.445
 4676SOL     OW14926   0.519   6.257   4.303
 4676SOL    HW114927   0.438   6.310   4.325
 4676SOL    HW214928   0.598   6.318   4.294
 4677SOL     OW14929   4.330   6.549   6.761
 4677SOL    HW114930   4.322   6.450   6.761
 4677SOL    HW214931   4.252   6.590   6.714
 4678SOL     OW14932   1.771   4.622   6.306
 4678SOL    HW114933   1.823   4.650   6.387
 4678SOL    HW214934   1.686   4.578   6.334
 4679SOL     OW14935   3.236   6.773   5.764
 4679SOL    HW114936   3.202   6.866   5.748
 4679SOL    HW214937   3.159   6.713   5.786
 4680SOL     OW14938   1.947   4.578   0.859
 4680SOL    HW114939   1.938   4.649   0.929
 4680SOL    HW214940   1.980   4.494   0.902
 4681SOL     OW14941   0.194   5.912   5.174
 4681SOL    HW114942   0.102   5.944   5.193
 4681SOL    HW214943   0.211   5.913   5.075
 4682SOL     OW14944   4.206   6.514   0.481
 4682SOL    HW114945   4.135   6.480   0.544
 4682SOL    HW214946   4.176   6.499   0.387
 4683SOL     OW14947   0.054   4.147   3.699
 4683SOL    HW114948   0.040   4.165   3.796
 4683SOL    HW214949   0.064   4.234   3.650
 4684SOL     OW14950   1.322   0.820   4.855
 4684SOL    HW114951   1.289   0.735   4.895
 4684SOL    HW214952   1.252   0.891   4.864
 4685SOL     OW14953   4.714   4.426   5.255
 4685SOL    HW114954   4.709   4.526   5.250
 4685SOL    HW214955   4.621   4.388   5.260
 4686SOL     OW14956   4.302   5.679   6.973
 4686SOL    HW114957   4.221   5.690   6.915
 4686SOL    HW214958   4.371   5.627   6.923
 4687SOL     OW14959   5.331   6.390   4.645
 4687SOL    HW114960   5.265   6.316   4.640
 4687SOL    HW214961   5.285   6.478   4.630
 4688SOL     OW14962   0.615   1.994   6.837
 4688SOL    HW114963   0.553   1.967   6.764
 4688SOL    HW214964   0.707   1.959   6.817
 4689SOL     OW14965   1.583   5.422   5.332
 4689SOL    HW114966   1.565   5.348   5.266
 4689SOL    HW214967   1.582   5.384   5.424
 4690SOL     OW14968   1.535   2.786   0.647
 4690SOL    HW114969   1.602   2.808   0.576
 4690SOL    HW214970   1.563   2.829   0.733
 4691SOL     OW14971   4.198   4.442   0.607
 4691SOL    HW114972   4.132   4.431   0.681
 4691SOL    HW214973   4.219   4.539   0.594
 4692SOL     OW14974   0.168   5.558   3.306
 4692SOL    HW114975   0.228   5.561   3.386
 4692SOL    HW214976   0.165   5.464   3.270
 4693SOL     OW14977   0.249   0.883   3.811
 4693SOL    HW114978   0.337   0.867   3.766
 4693SOL    HW214979   0.265   0.915   3.904
 4694SOL     OW14980   2.177   1.248   6.510
 4694SOL    HW114981   2.240   1.213   6.441
 4694SOL    HW214982   2.089   1.269   6.467
 4695SOL     OW14983   3.459   3.130   1.273
 4695SOL    HW114984   3.377   3.173   1.235
 4695SOL    HW214985   3.538   3.152   1.216
 4696SOL     OW14986   6.361   2.850   0.511
 4696SOL    HW114987   6.460   2.861   0.510
 4696SOL    HW214988   6.330   2.816   0.423
 4697SOL     OW14989   0.562   4.865   0.373
 4697SOL    HW114990   0.515   4.939   0.421
 4697SOL    HW214991   0.630   4.904   0.310
 4698SOL     OW14992   5.919   3.167   1.283
 4698SOL    HW114993   5.933   3.255   1.237
 4698SOL    HW214994   5.839   3.121   1.243
 4699SOL     OW14995   6.363   0.399   3.513
 4699SOL    HW114996   6.444   0.385   3.571
 4699SOL    HW214997   6.323   0.488   3.534
 4700SOL     OW14998   5.786   0.040   1.088
 4700SOL    HW114999   5.882   0.012   1.085
 4700SOL    HW215000   5.739   0.007   1.006
 4701SOL     OW15001   1.170   1.218   0.689
 4701SOL    HW115002   1.103   1.144   0.691
 4701SOL    HW215003   1.259   1.183   0.660
 4702SOL     OW15004   3.389   3.721   0.135
 4702SOL    HW115005   3.442   3.658   0.078
 4702SOL    HW215006   3.306   3.749   0.085
 4703SOL     OW15007   1.784   1.194   1.828
 4703SOL    HW115008   1.695   1.215   1.786
 4703SOL    HW215009   1.813   1.271   1.885
 4704SOL     OW15010   4.737   6.665   0.278
 4704SOL    HW115011   4.700   6.752   0.312
 4704SOL    HW215012   4.832   6.678   0.251
 4705SOL     OW15013   3.685   3.721   4.076
 4705SOL    HW115014   3.778   3.729   4.113
 4705SOL    HW215015   3.662   3.625   4.064
 4706SOL     OW15016   4.411   5.489   1.124
 4706SOL    HW115017   4.505   5.492   1.156
 4706SOL    HW215018   4.364   5.573   1.150
 4707SOL     OW15019   3.423   6.283   0.819
 4707SOL    HW115020   3.353   6.329   0.873
 4707SOL    HW215021   3.383   6.251   0.733
 4708SOL     OW15022   2.285   2.310   2.319
 4708SOL    HW115023   2.319   2.404   2.320
 4708SOL    HW215024   2.186   2.310   2.306
 4709SOL     OW15025   4.217   3.989   6.424
 4709SOL    HW115026   4.126   4.024   6.443
 4709SOL    HW215027   4.219   3.890   6.440
 4710SOL     OW15028   5.357   2.229   0.967
 4710SOL    HW115029   5.267   2.272   0.982
 4710SOL    HW215030   5.367   2.152   1.031
 4711SOL     OW15031   2.861   0.041   3.070
 4711SOL    HW115032   2.787   6.997   3.065
 4711SOL    HW215033   2.823   0.130   3.094
 4712SOL     OW15034   1.357   4.542   6.993
 4712SOL    HW115035   1.449   4.511   7.018
 4712SOL    HW215036   1.289   4.483   0.013
 4713SOL     OW15037   2.599   5.305   0.526
 4713SOL    HW115038   2.644   5.262   0.605
 4713SOL    HW215039   2.577   5.400   0.548
 4714SOL     OW15040   3.538   2.585   0.709
 4714SOL    HW115041   3.494   2.616   0.793
 4714SOL    HW215042   3.481   2.608   0.631
 4715SOL     OW15043   5.859   3.913   4.390
 4715SOL    HW115044   5.858   3.965   4.475
 4715SOL    HW215045   5.935   3.942   4.334
 4716SOL     OW15046   3.474   5.868   0.085
 4716SOL    HW115047   3.380   5.840   0.104
 4716SOL    HW215048   3.476   5.965   0.061
 4717SOL     OW15049   0.790   5.687   3.655
 4717SOL    HW115050   0.772   5.697   3.753
 4717SOL    HW215051   0.844   5.765   3.623
 4718SOL     OW15052   6.032   0.932   6.560
 4718SOL    HW115053   6.027   0.841   6.519
 4718SOL    HW215054   6.106   0.983   6.517
 4719SOL     OW15055   4.435   3.063   0.678
 4719SOL    HW115056   4.473   3.060   0.770
 4719SOL    HW215057   4.366   3.136   0.673
 4720SOL     OW15058   2.898   1.155   4.165
 4720SOL    HW115059   2.864   1.069   4.204
 4720SOL    HW215060   2.832   1.190   4.099
 4721SOL     OW15061   1.602   2.247   1.643
 4721SOL    HW115062   1.640   2.281   1.729
 4721SOL    HW215063   1.666   2.182   1.602
 4722SOL     OW15064   2.443   0.113   1.221
 4722SOL    HW115065   2.467   0.140   1.314
 4722SOL    HW215066   2.344   0.107   1.213
 4723SOL     OW15067   3.070   6.989   6.627
 4723SOL    HW115068   2.980   6.976   6.585
 4723SOL    HW215069   3.072   0.052   6.676
 4724SOL     OW15070   4.012   5.207   1.496
 4724SOL    HW115071   4.072   5.128   1.512
 4724SOL    HW215072   3.917   5.176   1.494
 4725SOL     OW15073   6.026   5.914   3.554
 4725SOL    HW115074   5.934   5.878   3.560
 4725SOL    HW215075   6.023   6.007   3.517
 4726SOL     OW15076   0.561   6.153   6.452
 4726SOL    HW115077   0.654   6.188   6.440
 4726SOL    HW215078   0.500   6.228   6.478
 4727SOL     OW15079   0.360   6.521   0.293
 4727SOL    HW115080   0.299   6.592   0.326
 4727SOL    HW215081   0.408   6.554   0.211
 4728SOL     OW15082   0.188   1.355   0.250
 4728SOL    HW115083   0.266   1.358   0.188
 4728SOL    HW215084   0.114   1.303   0.209
 4729SOL     OW15085   3.756   0.424   1.025
 4729SOL    HW115086   3.823   0.452   1.094
 4729SOL    HW215087   3.664   0.453   1.054
 4730SOL     OW15088   1.731   6.831   5.080
 4730SOL    HW115089   1.804   6.877   5.030
 4730SOL    HW215090   1.710   6.882   5.163
 4731SOL     OW15091   5.684   1.660   5.804
 4731SOL    HW115092   5.767   1.656   5.861
 4731SOL    HW215093   5.705   1.704   5.717
 4732SOL     OW15094   0.430   1.889   0.303
 4732SOL    HW115095   0.508   1.826   0.302
 4732SOL    HW215096   0.453   1.971   0.250
 4733SOL     OW15097   6.728   3.356   4.133
 4733SOL    HW115098   6.645   3.321   4.089
 4733SOL    HW215099   6.762   3.289   4.199
 4734SOL     OW15100   3.983   4.428   6.214
 4734SOL    HW115101   3.988   4.487   6.294
 4734SOL    HW215102   3.981   4.484   6.131
 4735SOL     OW15103   0.431   5.305   3.622
 4735SOL    HW115104   0.393   5.335   3.709
 4735SOL    HW215105   0.476   5.217   3.634
 4736SOL     OW15106   1.596   1.228   1.163
 4736SOL    HW115107   1.653   1.208   1.084
 4736SOL    HW215108   1.649   1.217   1.247
 4737SOL     OW15109   2.963   5.638   1.536
 4737SOL    HW115110   2.956   5.696   1.617
 4737SOL    HW215111   2.953   5.542   1.562
 4738SOL     OW15112   6.965   6.360   2.596
 4738SOL    HW115113   6.945   6.457   2.609
 4738SOL    HW215114   6.880   6.307   2.600
 4739SOL     OW15115   4.939   0.410   1.293
 4739SOL    HW115116   4.989   0.489   1.328
 4739SOL    HW215117   4.941   0.336   1.361
 4740SOL     OW15118   0.496   2.490   3.841
 4740SOL    HW115119   0.558   2.447   3.776
 4740SOL    HW215120   0.549   2.537   3.912
 4741SOL     OW15121   3.528   4.251   1.360
 4741SOL    HW115122   3.584   4.170   1.339
 4741SOL    HW215123   3.586   4.321   1.401
 4742SOL     OW15124   3.322   0.691   0.413
 4742SOL    HW115125   3.317   0.615   0.477
 4742SOL    HW215126   3.410   0.689   0.366
 4743SOL     OW15127   1.622   4.704   1.028
 4743SOL    HW115128   1.691   4.755   1.080
 4743SOL    HW215129   1.557   4.768   0.988
 4744SOL     OW15130   2.529   5.590   1.431
 4744SOL    HW115131   2.543   5.492   1.450
 4744SOL    HW215132   2.618   5.636   1.428
 4745SOL     OW15133   1.173   4.074   6.840
 4745SOL    HW115134   1.089   4.051   6.890
 4745SOL    HW215135   1.167   4.038   6.747
 4746SOL     OW15136   4.290   5.902   4.152
 4746SOL    HW115137   4.373   5.869   4.109
 4746SOL    HW215138   4.226   5.827   4.164
 4747SOL     OW15139   1.600   2.012   0.328
 4747SOL    HW115140   1.624   1.971   0.415
 4747SOL    HW215141   1.518   2.069   0.339
 4748SOL     OW15142   1.911   6.763   2.166
 4748SOL    HW115143   2.003   6.726   2.150
 4748SOL    HW215144   1.862   6.765   2.079
 4749SOL     OW15145   3.094   1.618   6.742
 4749SOL    HW115146   3.152   1.539   6.761
 4749SOL    HW215147   3.137   1.701   6.779
 4750SOL     OW15148   5.120   2.532   5.647
 4750SOL    HW115149   5.169   2.613   5.614
 4750SOL    HW215150   5.182   2.474   5.699
 4751SOL     OW15151   4.390   0.896   3.232
 4751SOL    HW115152   4.377   0.824   3.164
 4751SOL    HW215153   4.459   0.961   3.199
 4752SOL     OW15154   4.611   2.103   6.616
 4752SOL    HW115155   4.527   2.136   6.573
 4752SOL    HW215156   4.600   2.008   6.644
 4753SOL     OW15157   3.337   6.133   5.557
 4753SOL    HW115158   3.391   6.085   5.626
 4753SOL    HW215159   3.399   6.179   5.492
 4754SOL     OW15160   4.742   4.541   6.804
 4754SOL    HW115161   4.734   4.474   6.730
 4754SOL    HW215162   4.836   4.574   6.809
 4755SOL     OW15163   0.739   1.123   1.793
 4755SOL    HW115164   0.696   1.044   1.835
 4755SOL    HW215165   0.803   1.093   1.722
 4756SOL     OW15166   6.306   4.073   5.728
 4756SOL    HW115167   6.321   4.168   5.698
 4756SOL    HW215168   6.379   4.046   5.790
 4757SOL     OW15169   1.785   3.668   0.788
 4757SOL    HW115170   1.819   3.639   0.698
 4757SOL    HW215171   1.783   3.768   0.793
 4758SOL     OW15172   2.545   6.565   3.118
 4758SOL    HW115173   2.471   6.509   3.153
 4758SOL    HW215174   2.569   6.534   3.025
 4759SOL     OW15175   0.478   6.294   1.353
 4759SOL    HW115176   0.395   6.304   1.299
 4759SOL    HW215177   0.498   6.380   1.400
 4760SOL     OW15178   1.483   5.902   0.838
 4760SOL    HW115179   1.426   5.868   0.763
 4760SOL    HW215180   1.469   6.000   0.849
 4761SOL     OW15181   5.972   6.073   1.735
 4761SOL    HW115182   5.890   6.088   1.789
 4761SOL    HW215183   5.946   6.051   1.640
 4762SOL     OW15184   1.350   0.749   2.705
 4762SOL    HW115185   1.279   0.740   2.635
 4762SOL    HW215186   1.440   0.737   2.664
 4763SOL     OW15187   5.335   4.674   1.923
 4763SOL    HW115188   5.264   4.689   1.854
 4763SOL    HW215189   5.292   4.662   2.012
 4764SOL     OW15190   5.106   2.743   0.578
 4764SOL    HW115191   5.109   2.655   0.626
 4764SOL    HW215192   5.012   2.777   0.579
 4765SOL     OW15193   3.709   1.569   4.972
 4765SOL    HW115194   3.658   1.597   4.891
 4765SOL    HW215195   3.694   1.472   4.989
 4766SOL     OW15196   0.569   0.033   4.246
 4766SOL    HW115197   0.599   7.008   4.164
 4766SOL    HW215198   0.636   0.104   4.269
 4767SOL     OW15199   2.308   4.163   3.410
 4767SOL    HW115200   2.238   4.091   3.407
 4767SOL    HW215201   2.316   4.205   3.319
 4768SOL     OW15202   4.565   2.743   6.281
 4768SOL    HW115203   4.506   2.669   6.251
 4768SOL    HW215204   4.510   2.813   6.327
 4769SOL     OW15205   2.252   3.573   0.551
 4769SOL    HW115206   2.229   3.583   0.454
 4769SOL    HW215207   2.343   3.531   0.559
 4770SOL     OW15208   0.865   1.435   4.484
 4770SOL    HW115209   0.943   1.377   4.463
 4770SOL    HW215210   0.796   1.427   4.412
 4771SOL     OW15211   1.504   6.739   4.475
 4771SOL    HW115212   1.501   6.706   4.380
 4771SOL    HW215213   1.598   6.736   4.508
 4772SOL     OW15214   3.264   5.217   2.068
 4772SOL    HW115215   3.330   5.247   1.999
 4772SOL    HW215216   3.230   5.126   2.044
 4773SOL     OW15217   2.204   5.171   4.621
 4773SOL    HW115218   2.214   5.267   4.644
 4773SOL    HW215219   2.232   5.114   4.699
 4774SOL     OW15220   1.250   4.321   0.103
 4774SOL    HW115221   1.211   4.253   0.165
 4774SOL    HW215222   1.315   4.277   0.042
 4775SOL     OW15223   6.443   6.537   5.881
 4775SOL    HW115224   6.379   6.559   5.808
 4775SOL    HW215225   6.531   6.509   5.842
 4776SOL     OW15226   0.334   1.200   6.068
 4776SOL    HW115227   0.326   1.212   6.167
 4776SOL    HW215228   0.248   1.164   6.032
 4777SOL     OW15229   1.469   0.431   2.535
 4777SOL    HW115230   1.382   0.460   2.574
 4777SOL    HW215231   1.467   0.446   2.436
 4778SOL     OW15232   2.344   1.243   6.973
 4778SOL    HW115233   2.340   1.325   0.006
 4778SOL    HW215234   2.278   1.249   6.899
 4779SOL     OW15235   5.492   0.492   4.873
 4779SOL    HW115236   5.536   0.575   4.841
 4779SOL    HW215237   5.537   0.412   4.833
 4780SOL     OW15238   5.021   2.365   5.430
 4780SOL    HW115239   4.941   2.409   5.390
 4780SOL    HW215240   5.053   2.419   5.508
 4781SOL     OW15241   2.132   6.113   1.987
 4781SOL    HW115242   2.219   6.123   1.939
 4781SOL    HW215243   2.143   6.047   2.061
 4782SOL     OW15244   6.456   6.985   4.417
 4782SOL    HW115245   6.529   6.916   4.416
 4782SOL    HW215246   6.480   0.038   4.357
 4783SOL     OW15247   6.767   3.369   5.917
 4783SOL    HW115248   6.761   3.399   6.013
 4783SOL    HW215249   6.816   3.282   5.913
 4784SOL     OW15250   5.400   3.290   6.738
 4784SOL    HW115251   5.424   3.196   6.714
 4784SOL    HW215252   5.311   3.313   6.697
 4785SOL     OW15253   0.070   6.827   4.342
 4785SOL    HW115254   0.005   6.805   4.415
 4785SOL    HW215255   0.155   6.858   4.383
 4786SOL     OW15256   0.665   6.153   0.111
 4786SOL    HW115257   0.629   6.092   0.040
 4786SOL    HW215258   0.737   6.105   0.161
 4787SOL     OW15259   3.791   1.572   4.008
 4787SOL    HW115260   3.719   1.642   4.004
 4787SOL    HW215261   3.821   1.560   4.102
 4788SOL     OW15262   6.459   5.989   0.230
 4788SOL    HW115263   6.450   6.061   0.162
 4788SOL    HW215264   6.468   5.900   0.184
 4789SOL     OW15265   5.599   1.312   2.811
 4789SOL    HW115266   5.642   1.302   2.721
 4789SOL    HW215267   5.514   1.259   2.813
 4790SOL     OW15268   6.891   2.020   4.676
 4790SOL    HW115269   6.799   2.020   4.636
 4790SOL    HW215270   6.892   1.959   4.755
 4791SOL     OW15271   0.468   0.648   0.618
 4791SOL    HW115272   0.544   0.619   0.676
 4791SOL    HW215273   0.496   0.727   0.564
 4792SOL     OW15274   2.155   3.427   2.806
 4792SOL    HW115275   2.136   3.330   2.821
 4792SOL    HW215276   2.214   3.437   2.726
 4793SOL     OW15277   1.102   3.331   5.525
 4793SOL    HW115278   1.164   3.386   5.581
 4793SOL    HW215279   1.127   3.340   5.428
 4794SOL     OW15280   4.624   1.925   4.653
 4794SOL    HW115281   4.619   2.014   4.699
 4794SOL    HW215282   4.690   1.866   4.700
 4795SOL     OW15283   0.228   0.912   6.505
 4795SOL    HW115284   0.241   0.855   6.586
 4795SOL    HW215285   0.314   0.957   6.483
 4796SOL     OW15286   4.385   1.385   5.581
 4796SOL    HW115287   4.425   1.435   5.658
 4796SOL    HW215288   4.402   1.436   5.496
 4797SOL     OW15289   1.611   5.200   5.164
 4797SOL    HW115290   1.700   5.243   5.148
 4797SOL    HW215291   1.616   5.146   5.249
 4798SOL     OW15292   4.174   5.326   0.235
 4798SOL    HW115293   4.129   5.353   0.321
 4798SOL    HW215294   4.110   5.274   0.179
 4799SOL     OW15295   4.608   2.726   6.809
 4799SOL    HW115296   4.685   2.779   6.774
 4799SOL    HW215297   4.591   2.751   6.905
 4800SOL     OW15298   0.276   3.798   0.281
 4800SOL    HW115299   0.309   3.811   0.375
 4800SOL    HW215300   0.352   3.810   0.217
 4801SOL     OW15301   5.310   2.512   1.793
 4801SOL    HW115302   5.248   2.539   1.719
 4801SOL    HW215303   5.400   2.490   1.756
 4802SOL     OW15304   6.669   0.362   4.155
 4802SOL    HW115305   6.767   0.376   4.168
 4802SOL    HW215306   6.634   0.427   4.087
 4803SOL     OW15307   5.060   3.696   6.005
 4803SOL    HW115308   5.069   3.763   6.079
 4803SOL    HW215309   5.136   3.707   5.940
 4804SOL     OW15310   4.944   1.977   0.459
 4804SOL    HW115311   4.887   1.911   0.411
 4804SOL    HW215312   4.922   1.976   0.557
 4805SOL     OW15313   6.328   1.619   7.018
 4805SOL    HW115314   6.419   1.581   0.011
 4805SOL    HW215315   6.335   1.719   7.011
 4806SOL     OW15316   0.897   1.032   3.471
 4806SOL    HW115317   0.861   0.949   3.514
 4806SOL    HW215318   0.946   1.086   3.539
 4807SOL     OW15319   0.397   4.218   5.243
 4807SOL    HW115320   0.422   4.305   5.201
 4807SOL    HW215321   0.328   4.234   5.314
 4808SOL     OW15322   3.831   5.886   1.640
 4808SOL    HW115323   3.803   5.941   1.561
 4808SOL    HW215324   3.752   5.867   1.698
 4809SOL     OW15325   3.120   3.651   1.614
 4809SOL    HW115326   3.098   3.586   1.541
 4809SOL    HW215327   3.216   3.641   1.640
 4810SOL     OW15328   0.937   4.838   4.335
 4810SOL    HW115329   0.931   4.824   4.434
 4810SOL    HW215330   1.026   4.806   4.302
 4811SOL     OW15331   3.210   3.567   4.173
 4811SOL    HW115332   3.238   3.613   4.258
 4811SOL    HW215333   3.198   3.634   4.101
 4812SOL     OW15334   1.123   0.425   2.759
 4812SOL    HW115335   1.189   0.471   2.818
 4812SOL    HW215336   1.146   0.327   2.754
 4813SOL     OW15337   6.937   1.558   5.628
 4813SOL    HW115338   0.006   1.548   5.666
 4813SOL    HW215339   6.880   1.611   5.692
 4814SOL     OW15340   6.357   3.733   1.618
 4814SOL    HW115341   6.385   3.693   1.530
 4814SOL    HW215342   6.261   3.713   1.634
 4815SOL     OW15343   5.851   4.311   1.703
 4815SOL    HW115344   5.785   4.270   1.765
 4815SOL    HW215345   5.943   4.307   1.743
 4816SOL     OW15346   2.921   1.306   2.744
 4816SOL    HW115347   3.008   1.260   2.758
 4816SOL    HW215348   2.910   1.327   2.647
 4817SOL     OW15349   4.263   2.114   0.526
 4817SOL    HW115350   4.318   2.108   0.442
 4817SOL    HW215351   4.235   2.023   0.554
 4818SOL     OW15352   4.397   0.254   4.908
 4818SOL    HW115353   4.333   0.205   4.848
 4818SOL    HW215354   4.431   0.335   4.860
 4819SOL     OW15355   3.443   0.502   0.585
 4819SOL    HW115356   3.509   0.448   0.533
 4819SOL    HW215357   3.431   0.461   0.676
 4820SOL     OW15358   6.016   3.929   1.766
 4820SOL    HW115359   6.034   3.831   1.759
 4820SOL    HW215360   5.978   3.950   1.856
 4821SOL     OW15361   0.088   5.337   1.734
 4821SOL    HW115362   0.120   5.348   1.640
 4821SOL    HW215363   7.016   5.307   1.733
 4822SOL     OW15364   1.141   4.275   2.019
 4822SOL    HW115365   1.215   4.296   1.956
 4822SOL    HW215366   1.122   4.177   2.017
 4823SOL     OW15367   1.734   1.333   4.113
 4823SOL    HW115368   1.654   1.280   4.139
 4823SOL    HW215369   1.774   1.377   4.194
 4824SOL     OW15370   5.660   2.810   1.673
 4824SOL    HW115371   5.564   2.837   1.685
 4824SOL    HW215372   5.715   2.891   1.654
 4825SOL     OW15373   0.598   3.117   3.382
 4825SOL    HW115374   0.670   3.054   3.351
 4825SOL    HW215375   0.633   3.211   3.378
 4826SOL     OW15376   6.792   6.304   6.930
 4826SOL    HW115377   6.782   6.304   0.007
 4826SOL    HW215378   6.857   6.233   6.903
 4827SOL     OW15379   5.747   0.562   1.086
 4827SOL    HW115380   5.677   0.605   1.027
 4827SOL    HW215381   5.738   0.463   1.081
 4828SOL     OW15382   4.775   3.420   6.574
 4828SOL    HW115383   4.751   3.410   6.478
 4828SOL    HW215384   4.777   3.517   6.598
 4829SOL     OW15385   3.511   0.229   5.355
 4829SOL    HW115386   3.574   0.289   5.306
 4829SOL    HW215387   3.530   0.235   5.453
 4830SOL     OW15388   4.126   6.579   5.094
 4830SOL    HW115389   4.185   6.499   5.106
 4830SOL    HW215390   4.179   6.655   5.058
 4831SOL     OW15391   6.633   3.977   5.666
 4831SOL    HW115392   6.733   3.987   5.660
 4831SOL    HW215393   6.608   3.886   5.633
 4832SOL     OW15394   2.233   2.498   6.185
 4832SOL    HW115395   2.173   2.446   6.126
 4832SOL    HW215396   2.179   2.546   6.254
 4833SOL     OW15397   5.029   1.609   2.857
 4833SOL    HW115398   5.053   1.675   2.928
 4833SOL    HW215399   5.111   1.562   2.826
 4834SOL     OW15400   5.544   0.728   3.035
 4834SOL    HW115401   5.568   0.796   3.103
 4834SOL    HW215402   5.445   0.717   3.032
 4835SOL     OW15403   2.454   0.716   5.999
 4835SOL    HW115404   2.416   0.658   5.927
 4835SOL    HW215405   2.462   0.662   6.083
 4836SOL     OW15406   5.814   2.710   2.408
 4836SOL    HW115407   5.840   2.652   2.485
 4836SOL    HW215408   5.761   2.788   2.442
 4837SOL     OW15409   0.777   4.137   0.539
 4837SOL    HW115410   0.704   4.096   0.485
 4837SOL    HW215411   0.776   4.236   0.528
 4838SOL     OW15412   2.551   5.820   2.708
 4838SOL    HW115413   2.513   5.870   2.630
 4838SOL    HW215414   2.479   5.766   2.752
 4839SOL     OW15415   0.550   6.795   6.730
 4839SOL    HW115416   0.518   6.867   6.791
 4839SOL    HW215417   0.473   6.740   6.698
 4840SOL     OW15418   6.515   6.484   6.488
 4840SOL    HW115419   6.541   6.423   6.563
 4840SOL    HW215420   6.571   6.463   6.408
 4841SOL     OW15421   2.214   5.928   2.577
 4841SOL    HW115422   2.220   5.830   2.560
 4841SOL    HW215423   2.137   5.967   2.527
 4842SOL     OW15424   3.598   6.681   1.055
 4842SOL    HW115425   3.644   6.646   0.974
 4842SOL    HW215426   3.516   6.732   1.028
 4843SOL     OW15427   0.297   3.207   0.045
 4843SOL    HW115428   0.217   3.154   0.072
 4843SOL    HW215429   0.367   3.201   0.117
 4844SOL     OW15430   0.088   1.817   5.943
 4844SOL    HW115431   0.085   1.914   5.921
 4844SOL    HW215432   0.151   1.803   6.020
 4845SOL     OW15433   5.760   5.787   3.601
 4845SOL    HW115434   5.742   5.738   3.686
 4845SOL    HW215435   5.675   5.828   3.568
 4846SOL     OW15436   1.025   5.135   0.956
 4846SOL    HW115437   0.941   5.190   0.951
 4846SOL    HW215438   1.020   5.062   0.888
 4847SOL     OW15439   4.783   2.441   4.624
 4847SOL    HW115440   4.779   2.444   4.524
 4847SOL    HW215441   4.710   2.498   4.662
 4848SOL     OW15442   3.013   2.144   2.255
 4848SOL    HW115443   2.967   2.057   2.235
 4848SOL    HW215444   2.970   2.217   2.203
 4849SOL     OW15445   1.203   6.259   6.934
 4849SOL    HW115446   1.256   6.342   6.952
 4849SOL    HW215447   1.238   6.214   6.852
 4850SOL     OW15448   3.939   0.280   2.213
 4850SOL    HW115449   3.976   0.314   2.126
 4850SOL    HW215450   3.931   0.356   2.278
 4851SOL     OW15451   5.448   0.499   5.252
 4851SOL    HW115452   5.540   0.536   5.238
 4851SOL    HW215453   5.450   0.400   5.242
 4852SOL     OW15454   1.807   2.284   1.398
 4852SOL    HW115455   1.833   2.188   1.387
 4852SOL    HW215456   1.713   2.297   1.366
 4853SOL     OW15457   3.105   1.289   1.750
 4853SOL    HW115458   3.161   1.269   1.669
 4853SOL    HW215459   3.121   1.383   1.779
 4854SOL     OW15460   4.655   6.903   0.391
 4854SOL    HW115461   4.697   6.990   0.417
 4854SOL    HW215462   4.558   6.904   0.414
 4855SOL     OW15463   0.424   2.560   2.841
 4855SOL    HW115464   0.409   2.505   2.923
 4855SOL    HW215465   0.426   2.657   2.866
 4856SOL     OW15466   2.391   4.520   3.753
 4856SOL    HW115467   2.342   4.588   3.699
 4856SOL    HW215468   2.373   4.429   3.717
 4857SOL     OW15469   0.322   1.798   6.108
 4857SOL    HW115470   0.345   1.750   6.192
 4857SOL    HW215471   0.347   1.742   6.029
 4858SOL     OW15472   1.148   1.105   3.675
 4858SOL    HW115473   1.131   1.195   3.716
 4858SOL    HW215474   1.198   1.117   3.589
 4859SOL     OW15475   2.689   5.393   4.973
 4859SOL    HW115476   2.655   5.302   4.996
 4859SOL    HW215477   2.770   5.413   5.028
 4860SOL     OW15478   4.577   4.737   1.015
 4860SOL    HW115479   4.663   4.768   0.975
 4860SOL    HW215480   4.525   4.815   1.048
 4861SOL     OW15481   4.817   3.590   5.896
 4861SOL    HW115482   4.907   3.624   5.922
 4861SOL    HW215483   4.773   3.549   5.976
 4862SOL     OW15484   1.424   6.512   2.060
 4862SOL    HW115485   1.365   6.479   1.987
 4862SOL    HW215486   1.513   6.466   2.054
 4863SOL     OW15487   6.110   4.361   6.432
 4863SOL    HW115488   6.016   4.335   6.453
 4863SOL    HW215489   6.147   4.415   6.508
 4864SOL     OW15490   2.816   1.121   3.686
 4864SOL    HW115491   2.875   1.138   3.607
 4864SOL    HW215492   2.849   1.173   3.765
 4865SOL     OW15493   2.016   6.376   4.742
 4865SOL    HW115494   2.093   6.342   4.687
 4865SOL    HW215495   2.010   6.323   4.827
 4866SOL     OW15496   6.237   4.342   6.718
 4866SOL    HW115497   6.285   4.280   6.656
 4866SOL    HW215498   6.302   4.402   6.763
 4867SOL     OW15499   5.258   0.024   2.690
 4867SOL    HW115500   5.179   0.027   2.752
 4867SOL    HW215501   5.331   6.992   2.731
 4868SOL     OW15502   0.078   4.575   1.505
 4868SOL    HW115503   0.132   4.547   1.585
 4868SOL    HW215504   0.075   4.500   1.440
 4869SOL     OW15505   0.623   1.257   0.354
 4869SOL    HW115506   0.635   1.188   0.425
 4869SOL    HW215507   0.525   1.276   0.342
 4870SOL     OW15508   0.663   6.207   1.750
 4870SOL    HW115509   0.709   6.158   1.824
 4870SOL    HW215510   0.689   6.303   1.753
 4871SOL     OW15511   1.902   1.882   4.531
 4871SOL    HW115512   1.851   1.968   4.540
 4871SOL    HW215513   1.983   1.884   4.589
 4872SOL     OW15514   5.543   6.837   3.174
 4872SOL    HW115515   5.593   6.921   3.154
 4872SOL    HW215516   5.543   6.820   3.273
 4873SOL     OW15517   6.710   5.572   5.446
 4873SOL    HW115518   6.796   5.521   5.442
 4873SOL    HW215519   6.635   5.509   5.461
 4874SOL     OW15520   5.292   2.660   2.730
 4874SOL    HW115521   5.379   2.644   2.777
 4874SOL    HW215522   5.281   2.593   2.656
 4875SOL     OW15523   5.752   6.118   5.280
 4875SOL    HW115524   5.827   6.158   5.227
 4875SOL    HW215525   5.687   6.073   5.219
 4876SOL     OW15526   1.483   1.041   2.902
 4876SOL    HW115527   1.469   0.980   2.980
 4876SOL    HW215528   1.419   1.017   2.829
 4877SOL     OW15529   6.957   1.493   4.886
 4877SOL    HW115530   6.862   1.506   4.856
 4877SOL    HW215531   6.970   1.535   4.975
 4878SOL     OW15532   6.922   2.625   2.734
 4878SOL    HW115533   6.839   2.674   2.759
 4878SOL    HW215534   6.968   2.593   2.816
 4879SOL     OW15535   5.245   1.469   2.803
 4879SOL    HW115536   5.314   1.406   2.768
 4879SOL    HW215537   5.202   1.429   2.884
 4880SOL     OW15538   6.518   3.004   6.374
 4880SOL    HW115539   6.520   3.104   6.373
 4880SOL    HW215540   6.478   2.971   6.288
 4881SOL     OW15541   1.968   2.161   1.997
 4881SOL    HW115542   1.932   2.088   2.054
 4881SOL    HW215543   1.973   2.131   1.902
 4882SOL     OW15544   4.365   1.813   4.565
 4882SOL    HW115545   4.313   1.813   4.479
 4882SOL    HW215546   4.440   1.878   4.558
 4883SOL     OW15547   6.639   4.350   1.288
 4883SOL    HW115548   6.571   4.354   1.361
 4883SOL    HW215549   6.610   4.284   1.219
 4884SOL     OW15550   2.193   6.386   1.219
 4884SOL    HW115551   2.224   6.305   1.169
 4884SOL    HW215552   2.223   6.469   1.172
 4885SOL     OW15553   1.148   4.593   0.159
 4885SOL    HW115554   1.064   4.554   0.122
 4885SOL    HW215555   1.217   4.599   0.087
 4886SOL     OW15556   2.467   1.087   1.828
 4886SOL    HW115557   2.408   1.083   1.908
 4886SOL    HW215558   2.411   1.105   1.747
 4887SOL     OW15559   6.401   6.741   1.274
 4887SOL    HW115560   6.365   6.826   1.235
 4887SOL    HW215561   6.332   6.701   1.334
 4888SOL     OW15562   4.191   6.827   2.919
 4888SOL    HW115563   4.122   6.755   2.913
 4888SOL    HW215564   4.198   6.874   2.831
 4889SOL     OW15565   6.884   3.115   4.277
 4889SOL    HW115566   6.945   3.053   4.227
 4889SOL    HW215567   6.939   3.179   4.330
 4890SOL     OW15568   0.408   1.410   4.503
 4890SOL    HW115569   0.370   1.345   4.437
 4890SOL    HW215570   0.343   1.423   4.577
 4891SOL     OW15571   2.627   5.561   5.985
 4891SOL    HW115572   2.593   5.521   5.900
 4891SOL    HW215573   2.617   5.494   6.059
 4892SOL     OW15574   4.666   5.491   2.897
 4892SOL    HW115575   4.659   5.403   2.849
 4892SOL    HW215576   4.722   5.479   2.980
 4893SOL     OW15577   1.083   3.444   1.448
 4893SOL    HW115578   1.040   3.474   1.363
 4893SOL    HW215579   1.154   3.377   1.428
 4894SOL     OW15580   5.108   0.451   1.820
 4894SOL    HW115581   5.028   0.394   1.800
 4894SOL    HW215582   5.178   0.395   1.865
 4895SOL     OW15583   6.856   4.576   4.580
 4895SOL    HW115584   6.820   4.521   4.655
 4895SOL    HW215585   6.956   4.572   4.581
 4896SOL     OW15586   1.819   4.703   4.523
 4896SOL    HW115587   1.788   4.757   4.445
 4896SOL    HW215588   1.847   4.765   4.597
 4897SOL     OW15589   2.148   6.734   5.207
 4897SOL    HW115590   2.060   6.686   5.216
 4897SOL    HW215591   2.201   6.720   5.291
 4898SOL     OW15592   4.836   1.760   3.757
 4898SOL    HW115593   4.873   1.680   3.806
 4898SOL    HW215594   4.739   1.769   3.778
 4899SOL     OW15595   6.765   6.267   1.988
 4899SOL    HW115596   6.740   6.197   2.054
 4899SOL    HW215597   6.864   6.280   1.988
 4900SOL     OW15598   3.818   5.919   5.368
 4900SOL    HW115599   3.820   6.019   5.371
 4900SOL    HW215600   3.729   5.889   5.332
 4901SOL     OW15601   0.928   1.615   5.698
 4901SOL    HW115602   0.863   1.542   5.676
 4901SOL    HW215603   0.887   1.704   5.677
 4902SOL     OW15604   1.633   6.863   5.865
 4902SOL    HW115605   1.708   6.850   5.800
 4902SOL    HW215606   1.669   6.896   5.952
 4903SOL     OW15607   4.895   4.196   2.680
 4903SOL    HW115608   4.861   4.126   2.742
 4903SOL    HW215609   4.992   4.212   2.698
 4904SOL     OW15610   1.886   6.550   0.279
 4904SOL    HW115611   1.971   6.599   0.299
 4904SOL    HW215612   1.882   6.526   0.182
 4905SOL     OW15613   3.013   6.193   3.105
 4905SOL    HW115614   3.111   6.182   3.122
 4905SOL    HW215615   2.975   6.261   3.168
 4906SOL     OW15616   5.035   3.495   5.168
 4906SOL    HW115617   5.001   3.414   5.216
 4906SOL    HW215618   4.957   3.549   5.136
 4907SOL     OW15619   4.796   1.447   0.073
 4907SOL    HW115620   4.752   1.535   0.086
 4907SOL    HW215621   4.827   1.439   7.001
 4908SOL     OW15622   4.274   6.854   0.001
 4908SOL    HW115623   4.255   6.906   6.941
 4908SOL    HW215624   4.235   6.762   7.016
 4909SOL     OW15625   5.099   4.572   4.689
 4909SOL    HW115626   5.153   4.488   4.680
 4909SOL    HW215627   5.013   4.552   4.736
 4910SOL     OW15628   4.865   2.079   5.531
 4910SOL    HW115629   4.907   2.124   5.610
 4910SOL    HW215630   4.935   2.062   5.461
 4911SOL     OW15631   6.840   2.505   2.503
 4911SOL    HW115632   6.854   2.581   2.439
 4911SOL    HW215633   6.857   2.536   2.596
 4912SOL     OW15634   5.745   2.647   3.725
 4912SOL    HW115635   5.669   2.637   3.788
 4912SOL    HW215636   5.820   2.586   3.752
 4913SOL     OW15637   0.083   3.399   5.906
 4913SOL    HW115638   0.143   3.369   5.832
 4913SOL    HW215639   0.002   3.443   5.867
 4914SOL     OW15640   4.193   0.682   3.556
 4914SOL    HW115641   4.239   0.728   3.632
 4914SOL    HW215642   4.210   0.584   3.561
 4915SOL     OW15643   3.515   5.136   5.706
 4915SOL    HW115644   3.477   5.207   5.645
 4915SOL    HW215645   3.600   5.169   5.746
 4916SOL     OW15646   5.868   2.798   4.323
 4916SOL    HW115647   5.805   2.723   4.307
 4916SOL    HW215648   5.855   2.835   4.415
 4917SOL     OW15649   4.324   6.346   0.084
 4917SOL    HW115650   4.298   6.285   0.009
 4917SOL    HW215651   4.313   6.441   0.054
 4918SOL     OW15652   6.228   4.931   2.993
 4918SOL    HW115653   6.193   4.995   3.061
 4918SOL    HW215654   6.319   4.899   3.021
 4919SOL     OW15655   3.429   3.858   2.495
 4919SOL    HW115656   3.453   3.767   2.461
 4919SOL    HW215657   3.457   3.927   2.429
 4920SOL     OW15658   6.794   1.180   5.845
 4920SOL    HW115659   6.731   1.126   5.790
 4920SOL    HW215660   6.767   1.277   5.842
 4921SOL     OW15661   7.010   6.914   2.291
 4921SOL    HW115662   6.956   6.935   2.372
 4921SOL    HW215663   0.083   6.902   2.317
 4922SOL     OW15664   3.594   1.976   6.827
 4922SOL    HW115665   3.518   1.951   6.886
 4922SOL    HW215666   3.583   1.932   6.738
 4923SOL     OW15667   3.842   1.382   1.646
 4923SOL    HW115668   3.915   1.327   1.606
 4923SOL    HW215669   3.841   1.369   1.745
 4924SOL     OW15670   2.523   0.767   5.111
 4924SOL    HW115671   2.584   0.816   5.049
 4924SOL    HW215672   2.577   0.715   5.177
 4925SOL     OW15673   5.907   6.370   3.839
 4925SOL    HW115674   5.823   6.318   3.855
 4925SOL    HW215675   5.888   6.467   3.852
 4926SOL     OW15676   5.395   2.565   1.029
 4926SOL    HW115677   5.323   2.496   1.026
 4926SOL    HW215678   5.354   2.656   1.037
 4927SOL     OW15679   3.432   1.382   0.072
 4927SOL    HW115680   3.385   1.296   0.055
 4927SOL    HW215681   3.431   1.401   0.171
 4928SOL     OW15682   0.040   2.373   0.862
 4928SOL    HW115683   7.013   2.448   0.906
 4928SOL    HW215684   0.109   2.338   0.925
 4929SOL     OW15685   0.946   6.009   5.257
 4929SOL    HW115686   0.929   5.911   5.247
 4929SOL    HW215687   1.001   6.041   5.179
 4930SOL     OW15688   5.321   6.190   2.007
 4930SOL    HW115689   5.343   6.125   1.934
 4930SOL    HW215690   5.255   6.257   1.973
 4931SOL     OW15691   6.700   5.793   0.034
 4931SOL    HW115692   6.609   5.765   0.064
 4931SOL    HW215693   6.699   5.809   6.958
 4932SOL     OW15694   3.400   3.221   2.160
 4932SOL    HW115695   3.366   3.268   2.242
 4932SOL    HW215696   3.401   3.122   2.177
 4933SOL     OW15697   2.255   6.177   5.684
 4933SOL    HW115698   2.345   6.183   5.727
 4933SOL    HW215699   2.185   6.210   5.748
 4934SOL     OW15700   4.381   5.416   2.417
 4934SOL    HW115701   4.334   5.419   2.329
 4934SOL    HW215702   4.318   5.443   2.490
 4935SOL     OW15703   0.472   1.428   6.074
 4935SOL    HW115704   0.445   1.491   6.147
 4935SOL    HW215705   0.420   1.343   6.082
 4936SOL     OW15706   3.877   2.817   0.595
 4936SOL    HW115707   3.936   2.738   0.579
 4936SOL    HW215708   3.837   2.811   0.687
 4937SOL     OW15709   4.590   2.689   5.005
 4937SOL    HW115710   4.625   2.744   4.929
 4937SOL    HW215711   4.492   2.703   5.015
 4938SOL     OW15712   3.964   5.145   6.550
 4938SOL    HW115713   3.867   5.122   6.539
 4938SOL    HW215714   3.983   5.232   6.505
 4939SOL     OW15715   4.738   3.236   6.126
 4939SOL    HW115716   4.825   3.186   6.125
 4939SOL    HW215717   4.676   3.196   6.059
 4940SOL     OW15718   1.771   5.963   4.422
 4940SOL    HW115719   1.807   6.054   4.407
 4940SOL    HW215720   1.671   5.967   4.425
 4941SOL     OW15721   5.316   0.028   0.925
 4941SOL    HW115722   5.291   0.095   0.855
 4941SOL    HW215723   5.378   0.071   0.991
 4942SOL     OW15724   4.965   3.285   5.610
 4942SOL    HW115725   5.037   3.331   5.661
 4942SOL    HW215726   4.904   3.238   5.673
 4943SOL     OW15727   5.385   2.709   1.388
 4943SOL    HW115728   5.420   2.802   1.382
 4943SOL    HW215729   5.462   2.645   1.392
 4944SOL     OW15730   2.467   4.448   2.334
 4944SOL    HW115731   2.562   4.451   2.304
 4944SOL    HW215732   2.442   4.536   2.375
 4945SOL     OW15733   0.448   6.124   4.734
 4945SOL    HW115734   0.453   6.032   4.695
 4945SOL    HW215735   0.538   6.168   4.729
 4946SOL     OW15736   0.657   4.522   2.072
 4946SOL    HW115737   0.585   4.483   2.014
 4946SOL    HW215738   0.674   4.617   2.045
 4947SOL     OW15739   0.066   0.159   0.999
 4947SOL    HW115740   0.130   0.096   1.043
 4947SOL    HW215741   0.044   0.234   1.062
 4948SOL     OW15742   1.294   1.308   1.949
 4948SOL    HW115743   1.329   1.312   2.043
 4948SOL    HW215744   1.366   1.273   1.889
 4949SOL     OW15745   5.105   1.573   4.499
 4949SOL    HW115746   5.027   1.538   4.447
 4949SOL    HW215747   5.091   1.553   4.596
 4950SOL     OW15748   2.959   5.301   5.346
 4950SOL    HW115749   2.956   5.340   5.254
 4950SOL    HW215750   2.929   5.206   5.342
 4951SOL     OW15751   4.580   2.046   3.663
 4951SOL    HW115752   4.483   2.035   3.645
 4951SOL    HW215753   4.629   2.063   3.577
 4952SOL     OW15754   0.425   5.346   4.387
 4952SOL    HW115755   0.520   5.375   4.389
 4952SOL    HW215756   0.418   5.252   4.421
 4953SOL     OW15757   1.878   5.786   1.661
 4953SOL    HW115758   1.893   5.722   1.736
 4953SOL    HW215759   1.966   5.825   1.632
 4954SOL     OW15760   5.972   5.748   6.713
 4954SOL    HW115761   5.887   5.716   6.672
 4954SOL    HW215762   6.049   5.720   6.656
 4955SOL     OW15763   1.074   6.962   1.548
 4955SOL    HW115764   1.146   6.969   1.479
 4955SOL    HW215765   1.116   6.943   1.637
 4956SOL     OW15766   5.182   6.100   4.315
 4956SOL    HW115767   5.246   6.098   4.392
 4956SOL    HW215768   5.097   6.145   4.343
 4957SOL     OW15769   1.175   6.620   3.589
 4957SOL    HW115770   1.200   6.653   3.498
 4957SOL    HW215771   1.076   6.627   3.601
 4958SOL     OW15772   0.408   6.374   6.776
 4958SOL    HW115773   0.490   6.382   6.832
 4958SOL    HW215774   0.336   6.326   6.827
 4959SOL     OW15775   0.763   1.059   1.162
 4959SOL    HW115776   0.794   0.990   1.227
 4959SOL    HW215777   0.837   1.125   1.145
 4960SOL     OW15778   3.756   6.544   4.861
 4960SOL    HW115779   3.856   6.545   4.863
 4960SOL    HW215780   3.722   6.638   4.856
 4961SOL     OW15781   4.309   0.621   5.826
 4961SOL    HW115782   4.216   0.647   5.852
 4961SOL    HW215783   4.306   0.548   5.759
 4962SOL     OW15784   6.407   2.478   1.958
 4962SOL    HW115785   6.312   2.474   1.926
 4962SOL    HW215786   6.408   2.491   2.057
 4963SOL     OW15787   0.066   4.236   2.046
 4963SOL    HW115788   0.160   4.237   2.078
 4963SOL    HW215789   0.004   4.250   2.124
 4964SOL     OW15790   3.481   6.332   2.737
 4964SOL    HW115791   3.492   6.424   2.698
 4964SOL    HW215792   3.542   6.322   2.816
 4965SOL     OW15793   0.317   6.364   4.860
 4965SOL    HW115794   0.337   6.314   4.775
 4965SOL    HW215795   0.297   6.459   4.839
 4966SOL     OW15796   3.777   4.977   3.370
 4966SOL    HW115797   3.791   4.881   3.346
 4966SOL    HW215798   3.865   5.024   3.373
 4967SOL     OW15799   4.692   2.111   6.076
 4967SOL    HW115800   4.743   2.031   6.109
 4967SOL    HW215801   4.753   2.190   6.070
 4968SOL     OW15802   5.639   3.815   5.785
 4968SOL    HW115803   5.607   3.908   5.802
 4968SOL    HW215804   5.564   3.759   5.751
 4969SOL     OW15805   0.646   2.098   2.017
 4969SOL    HW115806   0.613   2.005   2.033
 4969SOL    HW215807   0.745   2.101   2.033
 4970SOL     OW15808   1.117   2.871   6.143
 4970SOL    HW115809   1.163   2.892   6.057
 4970SOL    HW215810   1.078   2.954   6.181
 4971SOL     OW15811   6.418   6.004   4.210
 4971SOL    HW115812   6.347   6.034   4.147
 4971SOL    HW215813   6.451   6.083   4.263
 4972SOL     OW15814   1.813   2.510   5.826
 4972SOL    HW115815   1.839   2.599   5.861
 4972SOL    HW215816   1.871   2.487   5.748
 4973SOL     OW15817   5.808   6.104   3.126
 4973SOL    HW115818   5.816   6.204   3.131
 4973SOL    HW215819   5.898   6.063   3.119
 4974SOL     OW15820   4.647   6.538   1.410
 4974SOL    HW115821   4.690   6.593   1.338
 4974SOL    HW215822   4.565   6.494   1.373
 4975SOL     OW15823   5.177   6.111   0.107
 4975SOL    HW115824   5.205   6.110   0.203
 4975SOL    HW215825   5.144   6.203   0.084
 4976SOL     OW15826   3.642   0.605   4.466
 4976SOL    HW115827   3.689   0.521   4.441
 4976SOL    HW215828   3.699   0.656   4.531
 4977SOL     OW15829   3.301   3.840   0.695
 4977SOL    HW115830   3.302   3.806   0.600
 4977SOL    HW215831   3.211   3.878   0.716
 4978SOL     OW15832   6.183   3.089   6.135
 4978SOL    HW115833   6.212   3.145   6.213
 4978SOL    HW215834   6.249   3.099   6.060
 4979SOL     OW15835   1.374   1.991   4.754
 4979SOL    HW115836   1.289   2.019   4.800
 4979SOL    HW215837   1.410   2.068   4.702
 4980SOL     OW15838   2.735   5.408   2.501
 4980SOL    HW115839   2.831   5.430   2.485
 4980SOL    HW215840   2.714   5.319   2.460
 4981SOL     OW15841   4.894   6.261   5.696
 4981SOL    HW115842   4.889   6.331   5.624
 4981SOL    HW215843   4.803   6.222   5.711
 4982SOL     OW15844   2.581   2.004   0.383
 4982SOL    HW115845   2.616   2.031   0.473
 4982SOL    HW215846   2.652   2.021   0.314
 4983SOL     OW15847   5.531   2.782   4.559
 4983SOL    HW115848   5.511   2.864   4.612
 4983SOL    HW215849   5.617   2.742   4.589
 4984SOL     OW15850   4.804   3.976   2.796
 4984SOL    HW115851   4.733   4.034   2.836
 4984SOL    HW215852   4.851   3.926   2.868
 4985SOL     OW15853   5.751   3.923   2.705
 4985SOL    HW115854   5.770   3.930   2.607
 4985SOL    HW215855   5.802   3.845   2.744
 4986SOL     OW15856   4.997   4.547   2.829
 4986SOL    HW115857   4.931   4.486   2.873
 4986SOL    HW215858   4.995   4.531   2.730
 4987SOL     OW15859   0.387   3.784   0.978
 4987SOL    HW115860   0.449   3.766   0.902
 4987SOL    HW215861   0.368   3.698   1.027
 4988SOL     OW15862   0.487   2.323   5.316
 4988SOL    HW115863   0.556   2.271   5.367
 4988SOL    HW215864   0.529   2.405   5.278
 4989SOL     OW15865   0.358   0.946   0.457
 4989SOL    HW115866   0.375   0.871   0.394
 4989SOL    HW215867   0.444   0.993   0.477
 4990SOL     OW15868   0.690   2.217   5.428
 4990SOL    HW115869   0.734   2.137   5.469
 4990SOL    HW215870   0.756   2.291   5.417
 4991SOL     OW15871   1.488   2.673   4.710
 4991SOL    HW115872   1.476   2.583   4.751
 4991SOL    HW215873   1.512   2.663   4.614
 4992SOL     OW15874   3.665   0.361   5.175
 4992SOL    HW115875   3.765   0.352   5.172
 4992SOL    HW215876   3.639   0.456   5.159
 4993SOL     OW15877   2.483   5.509   4.072
 4993SOL    HW115878   2.401   5.459   4.045
 4993SOL    HW215879   2.553   5.444   4.103
 4994SOL     OW15880   6.906   6.679   2.189
 4994SOL    HW115881   6.947   6.769   2.206
 4994SOL    HW215882   6.974   6.619   2.146
 4995SOL     OW15883   6.268   2.869   5.542
 4995SOL    HW115884   6.282   2.966   5.563
 4995SOL    HW215885   6.170   2.848   5.546
 4996SOL     OW15886   0.115   1.304   3.891
 4996SOL    HW115887   0.127   1.246   3.810
 4996SOL    HW215888   0.039   1.368   3.875
 4997SOL     OW15889   0.179   2.571   3.561
 4997SOL    HW115890   0.235   2.511   3.504
 4997SOL    HW215891   0.214   2.569   3.655
 4998SOL     OW15892   1.396   5.467   4.632
 4998SOL    HW115893   1.484   5.427   4.659
 4998SOL    HW215894   1.412   5.560   4.596
 4999SOL     OW15895   6.361   4.178   1.335
 4999SOL    HW115896   6.458   4.181   1.313
 4999SOL    HW215897   6.338   4.255   1.395
 5000SOL     OW15898   6.881   5.612   4.000
 5000SOL    HW115899   6.979   5.631   3.995
 5000SOL    HW215900   6.830   5.697   3.990
 5001SOL     OW15901   4.735   4.047   5.464
 5001SOL    HW115902   4.833   4.031   5.468
 5001SOL    HW215903   4.686   3.965   5.490
 5002SOL     OW15904   2.135   1.775   1.334
 5002SOL    HW115905   2.111   1.712   1.407
 5002SOL    HW215906   2.172   1.860   1.373
 5003SOL     OW15907   6.535   5.389   3.382
 5003SOL    HW115908   6.555   5.486   3.393
 5003SOL    HW215909   6.484   5.375   3.296
 5004SOL     OW15910   3.163   5.096   6.932
 5004SOL    HW115911   3.147   5.184   6.887
 5004SOL    HW215912   3.082   5.070   6.985
 5005SOL     OW15913   4.490   2.507   0.057
 5005SOL    HW115914   4.573   2.562   0.044
 5005SOL    HW215915   4.411   2.558   0.021
 5006SOL     OW15916   5.140   4.747   3.744
 5006SOL    HW115917   5.214   4.701   3.696
 5006SOL    HW215918   5.126   4.703   3.833
 5007SOL     OW15919   4.210   1.739   4.780
 5007SOL    HW115920   4.286   1.763   4.719
 5007SOL    HW215921   4.136   1.806   4.768
 5008SOL     OW15922   6.644   1.514   3.947
 5008SOL    HW115923   6.608   1.592   3.896
 5008SOL    HW215924   6.715   1.546   4.010
 5009SOL     OW15925   1.914   6.331   3.631
 5009SOL    HW115926   1.823   6.373   3.620
 5009SOL    HW215927   1.907   6.233   3.616
 5010SOL     OW15928   3.276   3.304   4.591
 5010SOL    HW115929   3.254   3.271   4.683
 5010SOL    HW215930   3.194   3.302   4.534
 5011SOL     OW15931   0.909   2.971   3.328
 5011SOL    HW115932   1.000   2.991   3.363
 5011SOL    HW215933   0.916   2.942   3.232
 5012SOL     OW15934   5.503   3.242   0.434
 5012SOL    HW115935   5.550   3.328   0.415
 5012SOL    HW215936   5.570   3.175   0.467
 5013SOL     OW15937   5.074   1.531   5.960
 5013SOL    HW115938   5.064   1.518   5.862
 5013SOL    HW215939   5.024   1.612   5.989
 5014SOL     OW15940   5.956   6.950   7.012
 5014SOL    HW115941   6.029   6.963   0.056
 5014SOL    HW215942   5.986   6.885   6.942
 5015SOL     OW15943   5.353   2.212   3.167
 5015SOL    HW115944   5.361   2.220   3.068
 5015SOL    HW215945   5.259   2.232   3.195
 5016SOL     OW15946   2.521   6.959   2.070
 5016SOL    HW115947   2.514   6.859   2.074
 5016SOL    HW215948   2.495   6.997   2.158
 5017SOL     OW15949   2.469   2.593   1.836
 5017SOL    HW115950   2.551   2.565   1.785
 5017SOL    HW215951   2.436   2.517   1.891
 5018SOL     OW15952   6.688   5.068   4.516
 5018SOL    HW115953   6.707   5.114   4.429
 5018SOL    HW215954   6.660   4.974   4.499
 5019SOL     OW15955   2.856   5.186   6.086
 5019SOL    HW115956   2.760   5.202   6.110
 5019SOL    HW215957   2.912   5.262   6.119
 5020SOL     OW15958   5.061   4.836   6.018
 5020SOL    HW115959   5.059   4.740   5.990
 5020SOL    HW215960   5.100   4.891   5.944
 5021SOL     OW15961   2.278   4.841   5.825
 5021SOL    HW115962   2.198   4.810   5.876
 5021SOL    HW215963   2.350   4.772   5.830
 5022SOL     OW15964   1.498   4.927   0.629
 5022SOL    HW115965   1.508   4.829   0.649
 5022SOL    HW215966   1.570   4.978   0.674
 5023SOL     OW15967   6.496   3.088   3.316
 5023SOL    HW115968   6.497   2.988   3.321
 5023SOL    HW215969   6.590   3.122   3.325
 5024SOL     OW15970   5.565   3.334   5.838
 5024SOL    HW115971   5.644   3.334   5.900
 5024SOL    HW215972   5.519   3.246   5.845
 5025SOL     OW15973   6.552   1.702   2.830
 5025SOL    HW115974   6.529   1.795   2.858
 5025SOL    HW215975   6.469   1.656   2.799
 5026SOL     OW15976   0.543   6.338   2.820
 5026SOL    HW115977   0.515   6.386   2.737
 5026SOL    HW215978   0.550   6.404   2.896
 5027SOL     OW15979   0.823   6.483   3.348
 5027SOL    HW115980   0.916   6.470   3.314
 5027SOL    HW215981   0.794   6.402   3.399
 5028SOL     OW15982   1.243   0.586   2.946
 5028SOL    HW115983   1.264   0.642   2.866
 5028SOL    HW215984   1.312   0.602   3.017
 5029SOL     OW15985   0.079   1.003   2.640
 5029SOL    HW115986   0.052   1.005   2.544
 5029SOL    HW215987   0.128   1.087   2.663
 5030SOL     OW15988   1.712   5.512   6.938
 5030SOL    HW115989   1.666   5.435   6.893
 5030SOL    HW215990   1.651   5.591   6.938
 5031SOL     OW15991   5.704   0.593   5.246
 5031SOL    HW115992   5.739   0.516   5.192
 5031SOL    HW215993   5.774   0.665   5.249
 5032SOL     OW15994   0.824   6.361   0.902
 5032SOL    HW115995   0.744   6.360   0.962
 5032SOL    HW215996   0.854   6.267   0.886
 5033SOL     OW15997   1.177   4.335   5.525
 5033SOL    HW115998   1.175   4.435   5.518
 5033SOL    HW215999   1.268   4.306   5.555
 5034SOL     OW16000   6.774   3.947   0.203
 5034SOL    HW116001   6.848   4.013   0.189
 5034SOL    HW216002   6.811   3.854   0.195
 5035SOL     OW16003   6.373   4.156   1.923
 5035SOL    HW116004   6.351   4.176   1.828
 5035SOL    HW216005   6.355   4.237   1.979
 5036SOL     OW16006   1.587   0.818   2.551
 5036SOL    HW116007   1.533   0.888   2.504
 5036SOL    HW216008   1.677   0.855   2.575
 5037SOL     OW16009   4.503   2.433   2.471
 5037SOL    HW116010   4.471   2.383   2.552
 5037SOL    HW216011   4.571   2.501   2.499
 5038SOL     OW16012   2.500   6.191   5.826
 5038SOL    HW116013   2.582   6.171   5.773
 5038SOL    HW216014   2.503   6.142   5.913
 5039SOL     OW16015   1.608   1.809   3.863
 5039SOL    HW116016   1.650   1.749   3.795
 5039SOL    HW216017   1.676   1.874   3.898
 5040SOL     OW16018   2.949   3.657   6.193
 5040SOL    HW116019   2.922   3.743   6.149
 5040SOL    HW216020   2.867   3.606   6.218
 5041SOL     OW16021   1.227   5.345   0.964
 5041SOL    HW116022   1.194   5.251   0.952
 5041SOL    HW216023   1.229   5.392   0.876
 5042SOL     OW16024   6.086   2.057   6.392
 5042SOL    HW116025   5.987   2.044   6.378
 5042SOL    HW216026   6.130   1.968   6.399
 5043SOL     OW16027   4.812   0.364   3.246
 5043SOL    HW116028   4.784   0.389   3.153
 5043SOL    HW216029   4.741   0.310   3.290
 5044SOL     OW16030   5.976   4.437   2.633
 5044SOL    HW116031   5.920   4.362   2.600
 5044SOL    HW216032   5.974   4.441   2.733
 5045SOL     OW16033   6.076   3.695   6.142
 5045SOL    HW116034   6.130   3.778   6.139
 5045SOL    HW216035   6.041   3.681   6.235
 5046SOL     OW16036   3.110   2.737   5.546
 5046SOL    HW116037   3.135   2.681   5.625
 5046SOL    HW216038   3.024   2.784   5.564
 5047SOL     OW16039   1.085   1.413   2.565
 5047SOL    HW116040   1.167   1.468   2.547
 5047SOL    HW216041   1.086   1.332   2.506
 5048SOL     OW16042   6.159   3.377   1.656
 5048SOL    HW116043   6.211   3.324   1.589
 5048SOL    HW216044   6.213   3.387   1.739
 5049SOL     OW16045   1.202   2.129   2.391
 5049SOL    HW116046   1.114   2.092   2.421
 5049SOL    HW216047   1.203   2.138   2.291
 5050SOL     OW16048   0.948   3.486   0.740
 5050SOL    HW116049   0.892   3.404   0.754
 5050SOL    HW216050   0.893   3.556   0.693
 5051SOL     OW16051   2.546   3.754   0.696
 5051SOL    HW116052   2.453   3.789   0.696
 5051SOL    HW216053   2.555   3.682   0.764
 5052SOL     OW16054   5.532   3.752   0.646
 5052SOL    HW116055   5.521   3.838   0.597
 5052SOL    HW216056   5.592   3.691   0.594
 5053SOL     OW16057   1.865   4.773   0.361
 5053SOL    HW116058   1.908   4.864   0.360
 5053SOL    HW216059   1.912   4.715   0.428
 5054SOL     OW16060   3.771   5.947   5.057
 5054SOL    HW116061   3.808   5.881   4.992
 5054SOL    HW216062   3.847   5.991   5.106
 5055SOL     OW16063   1.878   1.873   3.970
 5055SOL    HW116064   1.855   1.925   4.053
 5055SOL    HW216065   1.870   1.775   3.990
 5056SOL     OW16066   2.519   2.403   5.276
 5056SOL    HW116067   2.442   2.431   5.334
 5056SOL    HW216068   2.602   2.450   5.306
 5057SOL     OW16069   0.485   4.404   2.828
 5057SOL    HW116070   0.573   4.405   2.781
 5057SOL    HW216071   0.475   4.317   2.878
 5058SOL     OW16072   3.237   2.985   0.092
 5058SOL    HW116073   3.210   3.080   0.107
 5058SOL    HW216074   3.207   2.929   0.170
 5059SOL     OW16075   4.401   1.691   3.173
 5059SOL    HW116076   4.388   1.599   3.209
 5059SOL    HW216077   4.397   1.689   3.073
 5060SOL     OW16078   0.288   3.536   5.168
 5060SOL    HW116079   0.312   3.454   5.220
 5060SOL    HW216080   0.371   3.586   5.146
 5061SOL     OW16081   3.786   2.058   5.494
 5061SOL    HW116082   3.736   2.003   5.426
 5061SOL    HW216083   3.721   2.093   5.562
 5062SOL     OW16084   5.373   0.925   3.698
 5062SOL    HW116085   5.451   0.875   3.736
 5062SOL    HW216086   5.288   0.876   3.718
 5063SOL     OW16087   1.001   1.617   1.641
 5063SOL    HW116088   1.033   1.600   1.548
 5063SOL    HW216089   0.977   1.531   1.685
 5064SOL     OW16090   5.075   5.623   0.830
 5064SOL    HW116091   5.118   5.705   0.791
 5064SOL    HW216092   5.070   5.632   0.929
 5065SOL     OW16093   2.229   1.322   2.074
 5065SOL    HW116094   2.280   1.243   2.108
 5065SOL    HW216095   2.131   1.308   2.091
 5066SOL     OW16096   2.143   4.719   2.793
 5066SOL    HW116097   2.102   4.780   2.862
 5066SOL    HW216098   2.071   4.666   2.748
 5067SOL     OW16099   5.427   2.992   0.836
 5067SOL    HW116100   5.463   2.967   0.746
 5067SOL    HW216101   5.471   3.076   0.867
 5068SOL     OW16102   2.635   5.567   0.778
 5068SOL    HW116103   2.728   5.552   0.811
 5068SOL    HW216104   2.638   5.586   0.679
 5069SOL     OW16105   3.771   4.946   5.059
 5069SOL    HW116106   3.751   4.885   5.135
 5069SOL    HW216107   3.688   4.959   5.005
 5070SOL     OW16108   5.977   3.569   5.184
 5070SOL    HW116109   6.015   3.553   5.275
 5070SOL    HW216110   5.960   3.667   5.172
 5071SOL     OW16111   2.599   6.835   3.890
 5071SOL    HW116112   2.553   6.904   3.946
 5071SOL    HW216113   2.607   6.868   3.796
 5072SOL     OW16114   0.974   1.223   1.134
 5072SOL    HW116115   0.970   1.309   1.083
 5072SOL    HW216116   1.069   1.200   1.153
 5073SOL     OW16117   2.471   0.761   2.454
 5073SOL    HW116118   2.393   0.700   2.470
 5073SOL    HW216119   2.540   0.713   2.400
 5074SOL     OW16120   3.430   2.193   1.760
 5074SOL    HW116121   3.503   2.242   1.808
 5074SOL    HW216122   3.408   2.109   1.809
 5075SOL     OW16123   0.084   3.586   6.881
 5075SOL    HW116124   0.038   3.512   6.832
 5075SOL    HW216125   0.093   3.562   6.978
 5076SOL     OW16126   6.696   0.176   6.411
 5076SOL    HW116127   6.710   0.194   6.508
 5076SOL    HW216128   6.765   0.111   6.378
 5077SOL     OW16129   0.987   4.507   4.322
 5077SOL    HW116130   0.916   4.564   4.362
 5077SOL    HW216131   1.077   4.543   4.348
 5078SOL     OW16132   0.176   2.096   3.991
 5078SOL    HW116133   0.116   2.017   3.983
 5078SOL    HW216134   0.263   2.077   3.946
 5079SOL     OW16135   1.734   2.823   5.482
 5079SOL    HW116136   1.714   2.802   5.577
 5079SOL    HW216137   1.649   2.841   5.433
 5080SOL     OW16138   5.950   5.798   0.487
 5080SOL    HW116139   5.990   5.734   0.422
 5080SOL    HW216140   5.859   5.767   0.513
 5081SOL     OW16141   2.551   5.213   5.519
 5081SOL    HW116142   2.527   5.212   5.616
 5081SOL    HW216143   2.527   5.125   5.477
 5082SOL     OW16144   5.280   5.770   1.797
 5082SOL    HW116145   5.191   5.770   1.844
 5082SOL    HW216146   5.313   5.864   1.788
 5083SOL     OW16147   1.521   0.384   3.395
 5083SOL    HW116148   1.433   0.356   3.357
 5083SOL    HW216149   1.581   0.305   3.403
 5084SOL     OW16150   2.598   4.551   5.534
 5084SOL    HW116151   2.683   4.529   5.582
 5084SOL    HW216152   2.522   4.500   5.574
 5085SOL     OW16153   0.448   4.294   4.836
 5085SOL    HW116154   0.501   4.229   4.891
 5085SOL    HW216155   0.470   4.280   4.739
 5086SOL     OW16156   1.941   5.273   1.975
 5086SOL    HW116157   1.990   5.223   1.904
 5086SOL    HW216158   1.843   5.249   1.971
 5087SOL     OW16159   6.384   4.663   2.401
 5087SOL    HW116160   6.451   4.661   2.475
 5087SOL    HW216161   6.427   4.634   2.316
 5088SOL     OW16162   5.312   5.794   2.115
 5088SOL    HW116163   5.395   5.775   2.062
 5088SOL    HW216164   5.296   5.893   2.118
 5089SOL     OW16165   5.199   5.339   5.686
 5089SOL    HW116166   5.281   5.281   5.684
 5089SOL    HW216167   5.160   5.346   5.595
 5090SOL     OW16168   2.879   6.580   5.067
 5090SOL    HW116169   2.830   6.577   4.981
 5090SOL    HW216170   2.959   6.521   5.062
 5091SOL     OW16171   6.847   6.776   6.197
 5091SOL    HW116172   6.938   6.740   6.216
 5091SOL    HW216173   6.849   6.832   6.115
 5092SOL     OW16174   3.239   3.073   4.172
 5092SOL    HW116175   3.328   3.036   4.146
 5092SOL    HW216176   3.213   3.036   4.261
 5093SOL     OW16177   2.950   2.044   2.682
 5093SOL    HW116178   2.906   2.124   2.639
 5093SOL    HW216179   2.879   1.980   2.711
 5094SOL     OW16180   1.471   5.990   4.969
 5094SOL    HW116181   1.470   5.970   5.067
 5094SOL    HW216182   1.438   5.910   4.918
 5095SOL     OW16183   6.561   1.306   2.993
 5095SOL    HW116184   6.587   1.283   3.087
 5095SOL    HW216185   6.590   1.232   2.932
 5096SOL     OW16186   6.118   2.955   5.184
 5096SOL    HW116187   6.211   2.955   5.149
 5096SOL    HW216188   6.105   3.035   5.244
 5097SOL     OW16189   1.191   0.742   5.676
 5097SOL    HW116190   1.207   0.839   5.695
 5097SOL    HW216191   1.278   0.695   5.665
 5098SOL     OW16192   3.597   3.167   0.538
 5098SOL    HW116193   3.522   3.123   0.587
 5098SOL    HW216194   3.575   3.173   0.441
 5099SOL     OW16195   1.766   0.048   2.145
 5099SOL    HW116196   1.860   0.021   2.122
 5099SOL    HW216197   1.766   0.096   2.233
 5100SOL     OW16198   5.223   3.995   2.612
 5100SOL    HW116199   5.297   3.960   2.554
 5100SOL    HW216200   5.147   4.027   2.555
 5101SOL     OW16201   3.851   0.401   6.784
 5101SOL    HW116202   3.896   0.489   6.769
 5101SOL    HW216203   3.765   0.399   6.734
 5102SOL     OW16204   4.878   4.679   4.270
 5102SOL    HW116205   4.914   4.750   4.209
 5102SOL    HW216206   4.943   4.604   4.276
 5103SOL     OW16207   1.302   1.458   6.606
 5103SOL    HW116208   1.342   1.425   6.691
 5103SOL    HW216209   1.341   1.547   6.583
 5104SOL     OW16210   4.093   3.305   2.175
 5104SOL    HW116211   4.092   3.228   2.111
 5104SOL    HW216212   4.123   3.388   2.128
 5105SOL     OW16213   4.294   3.104   6.212
 5105SOL    HW116214   4.341   3.076   6.128
 5105SOL    HW216215   4.203   3.064   6.215
 5106SOL     OW16216   4.026   2.595   0.578
 5106SOL    HW116217   4.073   2.661   0.638
 5106SOL    HW216218   3.956   2.547   0.631
 5107SOL     OW16219   5.022   3.856   0.093
 5107SOL    HW116220   4.982   3.765   0.094
 5107SOL    HW216221   5.057   3.877   0.002
 5108SOL     OW16222   4.512   4.969   0.387
 5108SOL    HW116223   4.560   4.948   0.472
 5108SOL    HW216224   4.568   5.030   0.330
 5109SOL     OW16225   1.467   2.780   1.294
 5109SOL    HW116226   1.522   2.707   1.334
 5109SOL    HW216227   1.400   2.741   1.231
 5110SOL     OW16228   4.899   0.400   5.600
 5110SOL    HW116229   4.903   0.480   5.660
 5110SOL    HW216230   4.979   0.342   5.615
 5111SOL     OW16231   0.191   5.951   4.907
 5111SOL    HW116232   0.266   5.944   4.841
 5111SOL    HW216233   0.121   5.883   4.887
 5112SOL     OW16234   6.702   6.669   2.855
 5112SOL    HW116235   6.612   6.627   2.845
 5112SOL    HW216236   6.720   6.686   2.952
 5113SOL     OW16237   1.612   3.956   0.429
 5113SOL    HW116238   1.557   3.949   0.346
 5113SOL    HW216239   1.699   3.999   0.408
 5114SOL     OW16240   4.931   5.026   1.187
 5114SOL    HW116241   4.972   4.936   1.206
 5114SOL    HW216242   4.832   5.021   1.203
 5115SOL     OW16243   1.812   4.171   0.924
 5115SOL    HW116244   1.767   4.084   0.905
 5115SOL    HW216245   1.745   4.239   0.954
 5116SOL     OW16246   1.293   0.304   6.217
 5116SOL    HW116247   1.361   0.267   6.155
 5116SOL    HW216248   1.257   0.390   6.180
 5117SOL     OW16249   0.872   2.297   3.799
 5117SOL    HW116250   0.964   2.263   3.781
 5117SOL    HW216251   0.876   2.396   3.817
 5118SOL     OW16252   4.692   5.026   6.481
 5118SOL    HW116253   4.632   5.077   6.420
 5118SOL    HW216254   4.642   4.949   6.521
 5119SOL     OW16255   5.602   0.544   0.412
 5119SOL    HW116256   5.693   0.527   0.448
 5119SOL    HW216257   5.534   0.524   0.483
 5120SOL     OW16258   5.402   6.188   6.480
 5120SOL    HW116259   5.365   6.121   6.545
 5120SOL    HW216260   5.327   6.243   6.442
 5121SOL     OW16261   1.438   3.067   6.226
 5121SOL    HW116262   1.466   3.163   6.222
 5121SOL    HW216263   1.360   3.052   6.166
 5122SOL     OW16264   5.093   4.587   4.020
 5122SOL    HW116265   5.108   4.679   4.055
 5122SOL    HW216266   4.994   4.569   4.013
 5123SOL     OW16267   4.729   3.311   1.410
 5123SOL    HW116268   4.804   3.252   1.440
 5123SOL    HW216269   4.670   3.333   1.488
 5124SOL     OW16270   2.298   6.224   5.083
 5124SOL    HW116271   2.275   6.128   5.066
 5124SOL    HW216272   2.220   6.270   5.127
 5125SOL     OW16273   6.363   1.792   3.521
 5125SOL    HW116274   6.343   1.871   3.580
 5125SOL    HW216275   6.344   1.817   3.426
 5126SOL     OW16276   1.656   0.648   1.510
 5126SOL    HW116277   1.754   0.670   1.516
 5126SOL    HW216278   1.645   0.550   1.495
 5127SOL     OW16279   2.219   5.674   0.360
 5127SOL    HW116280   2.201   5.615   0.439
 5127SOL    HW216281   2.170   5.761   0.372
 5128SOL     OW16282   6.269   7.002   1.954
 5128SOL    HW116283   6.323   7.002   2.038
 5128SOL    HW216284   6.273   0.070   1.912
 5129SOL     OW16285   6.316   6.855   0.675
 5129SOL    HW116286   6.273   6.896   0.756
 5129SOL    HW216287   6.245   6.818   0.615
 5130SOL     OW16288   6.629   4.424   2.930
 5130SOL    HW116289   6.670   4.481   3.001
 5130SOL    HW216290   6.674   4.335   2.929
 5131SOL     OW16291   2.486   2.590   2.667
 5131SOL    HW116292   2.433   2.606   2.584
 5131SOL    HW216293   2.465   2.660   2.735
 5132SOL     OW16294   3.017   5.832   5.454
 5132SOL    HW116295   3.032   5.801   5.360
 5132SOL    HW216296   3.012   5.932   5.456
 5133SOL     OW16297   3.908   6.176   5.380
 5133SOL    HW116298   3.999   6.146   5.407
 5133SOL    HW216299   3.899   6.275   5.397
 5134SOL     OW16300   6.570   4.252   0.038
 5134SOL    HW116301   6.474   4.274   0.023
 5134SOL    HW216302   6.577   4.168   0.092
 5135SOL     OW16303   5.466   1.815   4.376
 5135SOL    HW116304   5.411   1.784   4.454
 5135SOL    HW216305   5.562   1.822   4.403
 5136SOL     OW16306   4.095   0.749   4.722
 5136SOL    HW116307   4.154   0.771   4.800
 5136SOL    HW216308   4.033   0.825   4.705
 5137SOL     OW16309   3.570   4.154   0.157
 5137SOL    HW116310   3.561   4.054   0.157
 5137SOL    HW216311   3.611   4.184   0.071
 5138SOL     OW16312   2.328   3.276   5.969
 5138SOL    HW116313   2.419   3.301   6.003
 5138SOL    HW216314   2.306   3.183   5.998
 5139SOL     OW16315   0.866   0.144   3.340
 5139SOL    HW116316   0.780   0.151   3.289
 5139SOL    HW216317   0.870   0.056   3.387
 5140SOL     OW16318   3.776   2.975   1.550
 5140SOL    HW116319   3.756   2.879   1.571
 5140SOL    HW216320   3.742   2.996   1.459
 5141SOL     OW16321   6.781   3.774   5.901
 5141SOL    HW116322   6.775   3.869   5.870
 5141SOL    HW216323   6.778   3.772   6.001
 5142SOL     OW16324   5.085   3.379   3.640
 5142SOL    HW116325   5.094   3.280   3.630
 5142SOL    HW216326   5.024   3.400   3.716
 5143SOL     OW16327   6.961   4.756   4.377
 5143SOL    HW116328   6.909   4.679   4.341
 5143SOL    HW216329   0.035   4.732   4.382
 5144SOL     OW16330   1.916   1.185   4.676
 5144SOL    HW116331   1.909   1.108   4.739
 5144SOL    HW216332   1.980   1.253   4.713
 5145SOL     OW16333   3.410   5.780   5.950
 5145SOL    HW116334   3.422   5.876   5.923
 5145SOL    HW216335   3.472   5.723   5.897
 5146SOL     OW16336   2.319   4.162   0.184
 5146SOL    HW116337   2.409   4.164   0.142
 5146SOL    HW216338   2.250   4.187   0.115
 5147SOL     OW16339   6.615   5.359   6.922
 5147SOL    HW116340   6.645   5.301   6.846
 5147SOL    HW216341   6.682   5.355   6.996
 5148SOL     OW16342   0.314   0.007   1.777
 5148SOL    HW116343   0.360   6.972   1.710
 5148SOL    HW216344   0.379   0.072   1.815
 5149SOL     OW16345   6.620   1.071   5.676
 5149SOL    HW116346   6.593   0.991   5.622
 5149SOL    HW216347   6.539   1.125   5.699
 5150SOL     OW16348   1.357   5.159   4.033
 5150SOL    HW116349   1.446   5.115   4.043
 5150SOL    HW216350   1.332   5.164   3.937
 5151SOL     OW16351   4.230   1.229   6.296
 5151SOL    HW116352   4.271   1.203   6.209
 5151SOL    HW216353   4.294   1.211   6.370
 5152SOL     OW16354   0.905   5.165   0.034
 5152SOL    HW116355   0.925   5.143   6.961
 5152SOL    HW216356   0.813   5.202   0.041
 5153SOL     OW16357   1.891   2.019   1.091
 5153SOL    HW116358   1.909   1.995   0.996
 5153SOL    HW216359   1.977   2.018   1.142
 5154SOL     OW16360   2.061   3.283   4.682
 5154SOL    HW116361   2.012   3.366   4.708
 5154SOL    HW216362   2.074   3.225   4.763
 5155SOL     OW16363   3.348   0.741   2.094
 5155SOL    HW116364   3.358   0.840   2.103
 5155SOL    HW216365   3.276   0.721   2.027
 5156SOL     OW16366   5.983   3.180   5.828
 5156SOL    HW116367   6.028   3.092   5.841
 5156SOL    HW216368   6.027   3.249   5.885
 5157SOL     OW16369   5.670   3.081   3.946
 5157SOL    HW116370   5.613   3.129   3.879
 5157SOL    HW216371   5.692   3.142   4.022
 5158SOL     OW16372   4.020   1.125   0.669
 5158SOL    HW116373   3.957   1.055   0.704
 5158SOL    HW216374   4.107   1.082   0.644
 5159SOL     OW16375   1.472   2.816   4.438
 5159SOL    HW116376   1.404   2.743   4.438
 5159SOL    HW216377   1.553   2.786   4.387
 5160SOL     OW16378   2.324   2.704   4.265
 5160SOL    HW116379   2.396   2.635   4.258
 5160SOL    HW216380   2.327   2.746   4.355
 5161SOL     OW16381   1.368   3.194   6.507
 5161SOL    HW116382   1.462   3.223   6.524
 5161SOL    HW216383   1.365   3.136   6.426
 5162SOL     OW16384   6.149   6.179   5.129
 5162SOL    HW116385   6.215   6.221   5.191
 5162SOL    HW216386   6.195   6.145   5.048
 5163SOL     OW16387   5.360   3.469   1.089
 5163SOL    HW116388   5.442   3.486   1.143
 5163SOL    HW216389   5.364   3.377   1.050
 5164SOL     OW16390   6.174   5.287   6.002
 5164SOL    HW116391   6.164   5.187   6.006
 5164SOL    HW216392   6.110   5.329   6.065
 5165SOL     OW16393   6.414   4.051   4.089
 5165SOL    HW116394   6.407   3.983   4.015
 5165SOL    HW216395   6.505   4.046   4.129
 5166SOL     OW16396   1.256   0.458   1.995
 5166SOL    HW116397   1.206   0.373   1.979
 5166SOL    HW216398   1.298   0.456   2.086
 5167SOL     OW16399   0.989   6.634   5.849
 5167SOL    HW116400   0.936   6.613   5.931
 5167SOL    HW216401   1.086   6.635   5.871
 5168SOL     OW16402   3.803   1.799   3.017
 5168SOL    HW116403   3.802   1.723   3.082
 5168SOL    HW216404   3.727   1.861   3.037
 5169SOL     OW16405   3.662   4.416   6.295
 5169SOL    HW116406   3.761   4.412   6.287
 5169SOL    HW216407   3.630   4.346   6.359
 5170SOL     OW16408   4.926   4.315   4.127
 5170SOL    HW116409   4.975   4.228   4.123
 5170SOL    HW216410   4.981   4.383   4.176
 5171SOL     OW16411   2.616   4.640   4.841
 5171SOL    HW116412   2.560   4.557   4.838
 5171SOL    HW216413   2.687   4.631   4.911
 5172SOL     OW16414   1.966   4.938   0.694
 5172SOL    HW116415   1.924   4.865   0.641
 5172SOL    HW216416   1.961   5.024   0.643
 5173SOL     OW16417   5.913   4.288   6.159
 5173SOL    HW116418   5.893   4.305   6.256
 5173SOL    HW216419   5.845   4.225   6.122
 5174SOL     OW16420   1.406   4.322   5.648
 5174SOL    HW116421   1.423   4.292   5.743
 5174SOL    HW216422   1.490   4.312   5.595
 5175SOL     OW16423   0.376   4.980   6.418
 5175SOL    HW116424   0.291   5.016   6.379
 5175SOL    HW216425   0.451   5.044   6.401
 5176SOL     OW16426   5.494   3.652   6.924
 5176SOL    HW116427   5.500   3.655   0.001
 5176SOL    HW216428   5.563   3.590   6.888
 5177SOL     OW16429   5.616   6.678   6.518
 5177SOL    HW116430   5.597   6.585   6.549
 5177SOL    HW216431   5.583   6.689   6.424
 5178SOL     OW16432   2.899   2.231   1.558
 5178SOL    HW116433   2.930   2.214   1.464
 5178SOL    HW216434   2.850   2.150   1.592
 5179SOL     OW16435   2.660   5.831   5.510
 5179SOL    HW116436   2.673   5.866   5.417
 5179SOL    HW216437   2.738   5.774   5.535
 5180SOL     OW16438   3.236   2.399   0.712
 5180SOL    HW116439   3.263   2.373   0.805
 5180SOL    HW216440   3.216   2.317   0.659
 5181SOL     OW16441   3.301   5.406   2.567
 5181SOL    HW116442   3.337   5.408   2.474
 5181SOL    HW216443   3.321   5.493   2.612
 5182SOL     OW16444   4.839   4.259   1.486
 5182SOL    HW116445   4.762   4.288   1.543
 5182SOL    HW216446   4.808   4.247   1.392
 5183SOL     OW16447   3.892   0.600   2.936
 5183SOL    HW116448   3.979   0.552   2.926
 5183SOL    HW216449   3.821   0.549   2.887
 5184SOL     OW16450   1.024   2.137   3.469
 5184SOL    HW116451   0.976   2.053   3.445
 5184SOL    HW216452   0.996   2.211   3.407
 5185SOL     OW16453   3.688   0.206   2.274
 5185SOL    HW116454   3.783   0.229   2.255
 5185SOL    HW216455   3.677   0.106   2.273
 5186SOL     OW16456   6.200   4.093   0.483
 5186SOL    HW116457   6.300   4.091   0.481
 5186SOL    HW216458   6.168   4.187   0.471
 5187SOL     OW16459   5.081   1.797   4.104
 5187SOL    HW116460   4.982   1.784   4.102
 5187SOL    HW216461   5.126   1.708   4.096
 5188SOL     OW16462   0.608   3.066   4.824
 5188SOL    HW116463   0.624   3.118   4.740
 5188SOL    HW216464   0.610   3.128   4.902
 5189SOL     OW16465   4.615   5.411   6.549
 5189SOL    HW116466   4.624   5.333   6.611
 5189SOL    HW216467   4.544   5.392   6.481
 5190SOL     OW16468   1.463   2.591   3.667
 5190SOL    HW116469   1.443   2.535   3.586
 5190SOL    HW216470   1.546   2.558   3.711
 5191SOL     OW16471   4.201   0.551   1.540
 5191SOL    HW116472   4.168   0.625   1.482
 5191SOL    HW216473   4.153   0.553   1.628
 5192SOL     OW16474   5.910   4.045   2.033
 5192SOL    HW116475   5.838   4.099   2.077
 5192SOL    HW216476   5.902   3.949   2.062
 5193SOL     OW16477   4.903   3.641   2.726
 5193SOL    HW116478   4.958   3.712   2.768
 5193SOL    HW216479   4.886   3.568   2.793
 5194SOL     OW16480   5.886   1.428   6.152
 5194SOL    HW116481   5.796   1.391   6.128
 5194SOL    HW216482   5.875   1.511   6.207
 5195SOL     OW16483   6.394   6.741   5.252
 5195SOL    HW116484   6.484   6.701   5.238
 5195SOL    HW216485   6.359   6.715   5.342
 5196SOL     OW16486   0.926   3.244   2.074
 5196SOL    HW116487   0.879   3.312   2.017
 5196SOL    HW216488   1.004   3.206   2.024
 5197SOL     OW16489   3.277   6.235   4.896
 5197SOL    HW116490   3.375   6.243   4.880
 5197SOL    HW216491   3.259   6.153   4.950
 5198SOL     OW16492   4.172   0.128   5.590
 5198SOL    HW116493   4.186   0.151   5.686
 5198SOL    HW216494   4.248   0.164   5.536
 5199SOL     OW16495   0.808   5.176   1.786
 5199SOL    HW116496   0.718   5.165   1.744
 5199SOL    HW216497   0.809   5.132   1.876
 5200SOL     OW16498   0.164   0.122   5.280
 5200SOL    HW116499   0.087   0.162   5.230
 5200SOL    HW216500   0.153   0.022   5.284
 5201SOL     OW16501   6.060   4.749   5.256
 5201SOL    HW116502   6.121   4.688   5.205
 5201SOL    HW216503   5.969   4.709   5.260
 5202SOL     OW16504   3.730   2.987   5.645
 5202SOL    HW116505   3.697   2.907   5.596
 5202SOL    HW216506   3.652   3.044   5.672
 5203SOL     OW16507   1.521   0.321   6.629
 5203SOL    HW116508   1.534   0.262   6.709
 5203SOL    HW216509   1.593   0.303   6.562
 5204SOL     OW16510   2.596   0.520   1.111
 5204SOL    HW116511   2.608   0.458   1.033
 5204SOL    HW216512   2.543   0.600   1.082
 5205SOL     OW16513   6.913   6.488   0.580
 5205SOL    HW116514   6.818   6.458   0.584
 5205SOL    HW216515   6.933   6.523   0.489
 5206SOL     OW16516   1.096   4.976   3.567
 5206SOL    HW116517   1.103   4.940   3.474
 5206SOL    HW216518   1.087   5.075   3.564
 5207SOL     OW16519   6.462   6.825   4.026
 5207SOL    HW116520   6.434   6.912   3.985
 5207SOL    HW216521   6.515   6.843   4.109
 5208SOL     OW16522   5.832   1.778   0.683
 5208SOL    HW116523   5.884   1.785   0.768
 5208SOL    HW216524   5.741   1.743   0.703
 5209SOL     OW16525   5.948   6.394   3.371
 5209SOL    HW116526   5.908   6.457   3.438
 5209SOL    HW216527   5.948   6.301   3.408
 5210SOL     OW16528   5.440   4.295   0.708
 5210SOL    HW116529   5.344   4.291   0.737
 5210SOL    HW216530   5.482   4.378   0.745
 5211SOL     OW16531   5.644   2.657   5.217
 5211SOL    HW116532   5.693   2.590   5.163
 5211SOL    HW216533   5.600   2.612   5.295
 5212SOL     OW16534   0.632   3.440   6.968
 5212SOL    HW116535   0.718   3.435   7.018
 5212SOL    HW216536   0.614   3.353   6.923
 5213SOL     OW16537   3.655   3.344   3.403
 5213SOL    HW116538   3.646   3.427   3.458
 5213SOL    HW216539   3.748   3.308   3.411
 5214SOL     OW16540   5.621   3.563   5.431
 5214SOL    HW116541   5.556   3.639   5.432
 5214SOL    HW216542   5.695   3.581   5.496
 5215SOL     OW16543   0.824   3.965   5.054
 5215SOL    HW116544   0.809   4.001   5.146
 5215SOL    HW216545   0.788   3.872   5.049
 5216SOL     OW16546   5.575   5.552   1.118
 5216SOL    HW116547   5.633   5.472   1.128
 5216SOL    HW216548   5.479   5.526   1.125
 5217SOL     OW16549   4.861   6.273   3.177
 5217SOL    HW116550   4.956   6.288   3.204
 5217SOL    HW216551   4.858   6.248   3.080
 5218SOL     OW16552   6.159   0.423   0.340
 5218SOL    HW116553   6.122   0.514   0.360
 5218SOL    HW216554   6.257   0.430   0.323
 5219SOL     OW16555   3.491   0.975   5.387
 5219SOL    HW116556   3.452   1.004   5.300
 5219SOL    HW216557   3.450   0.888   5.416
 5220SOL     OW16558   2.216   5.458   4.231
 5220SOL    HW116559   2.302   5.446   4.280
 5220SOL    HW216560   2.155   5.515   4.284
 5221SOL     OW16561   6.000   5.503   1.246
 5221SOL    HW116562   5.928   5.516   1.178
 5221SOL    HW216563   6.053   5.421   1.223
 5222SOL     OW16564   6.450   3.669   1.350
 5222SOL    HW116565   6.492   3.612   1.279
 5222SOL    HW216566   6.478   3.764   1.338
 5223SOL     OW16567   0.355   3.104   0.528
 5223SOL    HW116568   0.294   3.135   0.601
 5223SOL    HW216569   0.380   3.183   0.471
 5224SOL     OW16570   0.334   2.135   4.949
 5224SOL    HW116571   0.406   2.193   4.911
 5224SOL    HW216572   0.287   2.086   4.875
 5225SOL     OW16573   6.774   1.606   4.188
 5225SOL    HW116574   6.815   1.685   4.142
 5225SOL    HW216575   6.826   1.586   4.271
 5226SOL     OW16576   0.379   6.268   3.903
 5226SOL    HW116577   0.423   6.198   3.960
 5226SOL    HW216578   0.312   6.224   3.844
 5227SOL     OW16579   0.431   3.860   5.780
 5227SOL    HW116580   0.402   3.765   5.774
 5227SOL    HW216581   0.422   3.892   5.875
 5228SOL     OW16582   1.170   1.421   5.234
 5228SOL    HW116583   1.223   1.505   5.246
 5228SOL    HW216584   1.154   1.406   5.136
 5229SOL     OW16585   3.204   1.940   6.488
 5229SOL    HW116586   3.146   2.020   6.500
 5229SOL    HW216587   3.164   1.879   6.419
 5230SOL     OW16588   0.197   6.862   1.983
 5230SOL    HW116589   0.262   6.914   1.928
 5230SOL    HW216590   0.110   6.911   1.986
 5231SOL     OW16591   6.514   3.097   1.796
 5231SOL    HW116592   6.550   3.185   1.765
 5231SOL    HW216593   6.443   3.112   1.864
 5232SOL     OW16594   2.157   2.394   5.823
 5232SOL    HW116595   2.085   2.393   5.893
 5232SOL    HW216596   2.126   2.447   5.744
 5233SOL     OW16597   2.901   6.222   2.612
 5233SOL    HW116598   2.921   6.143   2.554
 5233SOL    HW216599   2.911   6.306   2.559
 5234SOL     OW16600   3.492   2.012   6.449
 5234SOL    HW116601   3.459   2.032   6.357
 5234SOL    HW216602   3.429   1.948   6.494
 5235SOL     OW16603   2.387   1.897   1.387
 5235SOL    HW116604   2.399   1.797   1.386
 5235SOL    HW216605   2.464   1.941   1.342
 5236SOL     OW16606   3.306   5.291   1.307
 5236SOL    HW116607   3.356   5.243   1.379
 5236SOL    HW216608   3.258   5.369   1.346
 5237SOL     OW16609   1.685   2.127   2.543
 5237SOL    HW116610   1.623   2.064   2.590
 5237SOL    HW216611   1.779   2.107   2.568
 5238SOL     OW16612   0.496   6.779   2.579
 5238SOL    HW116613   0.484   6.683   2.601
 5238SOL    HW216614   0.519   6.830   2.662
 5239SOL     OW16615   2.454   3.642   1.118
 5239SOL    HW116616   2.523   3.662   1.049
 5239SOL    HW216617   2.389   3.718   1.124
 5240SOL     OW16618   2.424   4.339   5.595
 5240SOL    HW116619   2.362   4.338   5.674
 5240SOL    HW216620   2.381   4.293   5.518
 5241SOL     OW16621   0.779   6.511   2.566
 5241SOL    HW116622   0.795   6.470   2.476
 5241SOL    HW216623   0.820   6.453   2.637
 5242SOL     OW16624   4.359   0.960   6.260
 5242SOL    HW116625   4.378   0.996   6.352
 5242SOL    HW216626   4.295   1.021   6.213
 5243SOL     OW16627   2.629   6.167   2.089
 5243SOL    HW116628   2.659   6.113   2.168
 5243SOL    HW216629   2.534   6.194   2.102
 5244SOL     OW16630   4.743   1.271   0.434
 5244SOL    HW116631   4.707   1.270   0.340
 5244SOL    HW216632   4.770   1.364   0.458
 5245SOL     OW16633   3.323   4.079   1.503
 5245SOL    HW116634   3.262   4.010   1.542
 5245SOL    HW216635   3.349   4.052   1.410
 5246SOL     OW16636   6.542   3.931   6.140
 5246SOL    HW116637   6.567   3.986   6.220
 5246SOL    HW216638   6.568   3.979   6.056
 5247SOL     OW16639   4.346   1.838   6.210
 5247SOL    HW116640   4.361   1.926   6.256
 5247SOL    HW216641   4.253   1.807   6.229
 5248SOL     OW16642   5.790   1.133   3.686
 5248SOL    HW116643   5.805   1.222   3.642
 5248SOL    HW216644   5.731   1.145   3.766
 5249SOL     OW16645   0.293   4.721   0.596
 5249SOL    HW116646   0.229   4.648   0.620
 5249SOL    HW216647   0.333   4.702   0.506
 5250SOL     OW16648   2.122   5.505   1.326
 5250SOL    HW116649   2.074   5.494   1.239
 5250SOL    HW216650   2.207   5.451   1.324
 5251SOL     OW16651   0.485   5.141   0.488
 5251SOL    HW116652   0.544   5.197   0.546
 5251SOL    HW216653   0.420   5.091   0.544
 5252SOL     OW16654   4.062   6.075   2.667
 5252SOL    HW116655   4.031   6.066   2.762
 5252SOL    HW216656   4.113   6.160   2.656
 5253SOL     OW16657   6.580   5.994   4.818
 5253SOL    HW116658   6.602   5.991   4.720
 5253SOL    HW216659   6.577   5.900   4.853
 5254SOL     OW16660   5.150   6.498   3.516
 5254SOL    HW116661   5.164   6.471   3.421
 5254SOL    HW216662   5.075   6.564   3.521
 5255SOL     OW16663   6.378   1.402   4.994
 5255SOL    HW116664   6.427   1.481   4.960
 5255SOL    HW216665   6.442   1.338   5.036
 5256SOL     OW16666   6.406   1.578   2.051
 5256SOL    HW116667   6.390   1.638   1.973
 5256SOL    HW216668   6.442   1.491   2.020
 5257SOL     OW16669   4.425   1.666   5.997
 5257SOL    HW116670   4.348   1.602   6.000
 5257SOL    HW216671   4.417   1.731   6.073
 5258SOL     OW16672   4.451   1.340   3.928
 5258SOL    HW116673   4.502   1.417   3.890
 5258SOL    HW216674   4.493   1.254   3.897
 5259SOL     OW16675   6.119   4.695   3.625
 5259SOL    HW116676   6.112   4.623   3.694
 5259SOL    HW216677   6.215   4.709   3.601
 5260SOL     OW16678   1.861   0.244   1.041
 5260SOL    HW116679   1.863   0.319   0.975
 5260SOL    HW216680   1.786   0.258   1.106
 5261SOL     OW16681   5.478   4.533   6.581
 5261SOL    HW116682   5.397   4.562   6.631
 5261SOL    HW216683   5.523   4.459   6.631
 5262SOL     OW16684   1.293   1.558   2.525
 5262SOL    HW116685   1.367   1.537   2.461
 5262SOL    HW216686   1.256   1.648   2.503
 5263SOL     OW16687   1.433   6.540   2.320
 5263SOL    HW116688   1.510   6.489   2.359
 5263SOL    HW216689   1.447   6.551   2.222
 5264SOL     OW16690   6.593   1.784   1.627
 5264SOL    HW116691   6.594   1.868   1.573
 5264SOL    HW216692   6.607   1.806   1.724
 5265SOL     OW16693   6.907   5.101   5.513
 5265SOL    HW116694   6.971   5.030   5.541
 5265SOL    HW216695   6.814   5.067   5.520
 5266SOL     OW16696   1.583   0.685   6.478
 5266SOL    HW116697   1.519   0.659   6.550
 5266SOL    HW216698   1.534   0.736   6.407
 5267SOL     OW16699   5.344   2.445   4.286
 5267SOL    HW116700   5.320   2.497   4.204
 5267SOL    HW216701   5.343   2.506   4.365
 5268SOL     OW16702   5.581   0.226   6.085
 5268SOL    HW116703   5.655   0.270   6.136
 5268SOL    HW216704   5.620   0.166   6.015
 5269SOL     OW16705   0.447   6.870   3.575
 5269SOL    HW116706   0.370   6.811   3.600
 5269SOL    HW216707   0.436   6.902   3.481
 5270SOL     OW16708   0.840   1.539   6.289
 5270SOL    HW116709   0.864   1.621   6.238
 5270SOL    HW216710   0.850   1.556   6.387
 5271SOL     OW16711   1.158   4.953   3.015
 5271SOL    HW116712   1.154   5.047   2.980
 5271SOL    HW216713   1.080   4.936   3.075
 5272SOL     OW16714   4.416   0.111   6.932
 5272SOL    HW116715   4.485   0.071   6.992
 5272SOL    HW216716   4.461   0.173   6.867
 5273SOL     OW16717   2.478   1.681   2.464
 5273SOL    HW116718   2.456   1.584   2.471
 5273SOL    HW216719   2.527   1.711   2.545
 5274SOL     OW16720   5.572   4.981   1.199
 5274SOL    HW116721   5.533   5.071   1.180
 5274SOL    HW216722   5.548   4.954   1.292
 5275SOL     OW16723   4.706   1.666   6.615
 5275SOL    HW116724   4.642   1.652   6.539
 5275SOL    HW216725   4.790   1.708   6.580
 5276SOL     OW16726   4.400   6.414   2.025
 5276SOL    HW116727   4.318   6.455   2.064
 5276SOL    HW216728   4.401   6.429   1.926
 5277SOL     OW16729   1.780   3.081   1.895
 5277SOL    HW116730   1.824   3.009   1.949
 5277SOL    HW216731   1.844   3.157   1.883
 5278SOL     OW16732   4.125   3.566   1.587
 5278SOL    HW116733   4.046   3.540   1.643
 5278SOL    HW216734   4.138   3.665   1.593
 5279SOL     OW16735   1.937   6.376   2.416
 5279SOL    HW116736   2.024   6.401   2.373
 5279SOL    HW216737   1.940   6.397   2.514
 5280SOL     OW16738   4.384   0.219   5.471
 5280SOL    HW116739   4.381   0.307   5.518
 5280SOL    HW216740   4.477   0.202   5.438
 5281SOL     OW16741   0.198   2.884   3.199
 5281SOL    HW116742   0.182   2.858   3.294
 5281SOL    HW216743   0.131   2.838   3.140
 5282SOL     OW16744   4.829   1.731   1.512
 5282SOL    HW116745   4.779   1.654   1.554
 5282SOL    HW216746   4.808   1.815   1.561
 5283SOL     OW16747   5.384   5.128   5.914
 5283SOL    HW116748   5.409   5.047   5.966
 5283SOL    HW216749   5.291   5.119   5.880
 5284SOL     OW16750   4.780   2.463   3.261
 5284SOL    HW116751   4.855   2.455   3.327
 5284SOL    HW216752   4.815   2.502   3.176
 5285SOL     OW16753   3.826   5.766   2.450
 5285SOL    HW116754   3.792   5.700   2.383
 5285SOL    HW216755   3.766   5.767   2.530
 5286SOL     OW16756   2.707   5.576   2.102
 5286SOL    HW116757   2.619   5.588   2.057
 5286SOL    HW216758   2.741   5.483   2.085
 5287SOL     OW16759   0.514   1.825   1.967
 5287SOL    HW116760   0.446   1.862   2.030
 5287SOL    HW216761   0.528   1.728   1.985
 5288SOL     OW16762   4.175   0.674   0.571
 5288SOL    HW116763   4.229   0.758   0.577
 5288SOL    HW216764   4.080   0.697   0.553
 5289SOL     OW16765   2.445   6.063   0.917
 5289SOL    HW116766   2.529   6.101   0.878
 5289SOL    HW216767   2.463   5.972   0.955
 5290SOL     OW16768   4.843   5.997   0.742
 5290SOL    HW116769   4.905   6.025   0.815
 5290SOL    HW216770   4.760   6.053   0.746
 5291SOL     OW16771   1.450   4.937   6.480
 5291SOL    HW116772   1.449   4.838   6.492
 5291SOL    HW216773   1.497   4.960   6.394
 5292SOL     OW16774   5.174   2.364   6.560
 5292SOL    HW116775   5.271   2.342   6.566
 5292SOL    HW216776   5.154   2.405   6.471
 5293SOL     OW16777   1.366   1.248   3.952
 5293SOL    HW116778   1.303   1.314   3.910
 5293SOL    HW216779   1.387   1.277   4.045
 5294SOL     OW16780   4.831   2.556   5.366
 5294SOL    HW116781   4.744   2.582   5.408
 5294SOL    HW216782   4.884   2.639   5.345
 5295SOL     OW16783   5.594   1.037   1.949
 5295SOL    HW116784   5.642   1.088   2.021
 5295SOL    HW216785   5.503   1.076   1.935
 5296SOL     OW16786   0.524   3.573   0.423
 5296SOL    HW116787   0.584   3.495   0.443
 5296SOL    HW216788   0.460   3.548   0.350
 5297SOL     OW16789   1.255   3.149   2.568
 5297SOL    HW116790   1.355   3.141   2.562
 5297SOL    HW216791   1.231   3.212   2.642
 5298SOL     OW16792   1.120   5.746   1.540
 5298SOL    HW116793   1.039   5.768   1.486
 5298SOL    HW216794   1.193   5.811   1.518
 5299SOL     OW16795   3.286   0.516   1.409
 5299SOL    HW116796   3.205   0.574   1.399
 5299SOL    HW216797   3.350   0.559   1.473
 5300SOL     OW16798   6.509   5.384   3.861
 5300SOL    HW116799   6.609   5.389   3.864
 5300SOL    HW216800   6.481   5.307   3.803
 5301SOL     OW16801   4.903   0.296   0.479
 5301SOL    HW116802   4.822   0.345   0.510
 5301SOL    HW216803   4.948   0.254   0.558
 5302SOL     OW16804   6.484   4.350   3.563
 5302SOL    HW116805   6.518   4.335   3.469
 5302SOL    HW216806   6.415   4.281   3.585
 5303SOL     OW16807   0.970   5.366   2.866
 5303SOL    HW116808   0.965   5.459   2.901
 5303SOL    HW216809   0.919   5.360   2.780
 5304SOL     OW16810   5.177   2.196   5.087
 5304SOL    HW116811   5.162   2.203   5.185
 5304SOL    HW216812   5.174   2.287   5.045
 5305SOL     OW16813   2.471   1.031   2.798
 5305SOL    HW116814   2.520   1.118   2.804
 5305SOL    HW216815   2.379   1.047   2.761
 5306SOL     OW16816   2.900   6.872   4.726
 5306SOL    HW116817   2.993   6.835   4.735
 5306SOL    HW216818   2.893   6.958   4.776
 5307SOL     OW16819   4.578   6.644   6.841
 5307SOL    HW116820   4.612   6.710   6.774
 5307SOL    HW216821   4.487   6.612   6.814
 5308SOL     OW16822   6.996   1.382   2.276
 5308SOL    HW116823   7.007   1.424   2.186
 5308SOL    HW216824   6.904   1.402   2.311
 5309SOL     OW16825   3.488   3.943   4.714
 5309SOL    HW116826   3.538   4.030   4.707
 5309SOL    HW216827   3.475   3.905   4.623
 5310SOL     OW16828   5.653   2.057   0.396
 5310SOL    HW116829   5.624   2.152   0.395
 5310SOL    HW216830   5.644   2.019   0.304
 5311SOL     OW16831   1.349   6.135   6.747
 5311SOL    HW116832   1.430   6.077   6.743
 5311SOL    HW216833   1.355   6.208   6.679
 5312SOL     OW16834   0.487   3.243   1.826
 5312SOL    HW116835   0.414   3.304   1.792
 5312SOL    HW216836   0.454   3.195   1.907
 5313SOL     OW16837   1.293   5.838   0.632
 5313SOL    HW116838   1.285   5.787   0.546
 5313SOL    HW216839   1.202   5.869   0.661
 5314SOL     OW16840   3.672   4.889   0.979
 5314SOL    HW116841   3.605   4.852   1.043
 5314SOL    HW216842   3.669   4.838   0.893
 5315SOL     OW16843   5.382   2.913   1.752
 5315SOL    HW116844   5.448   2.963   1.808
 5315SOL    HW216845   5.311   2.874   1.811
 5316SOL     OW16846   6.019   5.273   4.774
 5316SOL    HW116847   5.964   5.224   4.842
 5316SOL    HW216848   5.963   5.342   4.729
 5317SOL     OW16849   5.966   5.327   3.160
 5317SOL    HW116850   5.975   5.412   3.108
 5317SOL    HW216851   5.905   5.342   3.238
 5318SOL     OW16852   0.497   2.054   4.341
 5318SOL    HW116853   0.506   2.142   4.388
 5318SOL    HW216854   0.483   1.981   4.409
 5319SOL     OW16855   3.497   0.234   1.152
 5319SOL    HW116856   3.520   0.137   1.166
 5319SOL    HW216857   3.508   0.258   1.056
 5320SOL     OW16858   6.296   3.963   5.316
 5320SOL    HW116859   6.379   3.979   5.370
 5320SOL    HW216860   6.258   4.051   5.289
 5321SOL     OW16861   1.808   5.179   6.440
 5321SOL    HW116862   1.736   5.110   6.429
 5321SOL    HW216863   1.891   5.136   6.476
 5322SOL     OW16864   2.602   5.822   0.907
 5322SOL    HW116865   2.599   5.727   0.877
 5322SOL    HW216866   2.633   5.826   1.002
 5323SOL     OW16867   5.750   3.703   0.453
 5323SOL    HW116868   5.759   3.794   0.495
 5323SOL    HW216869   5.791   3.705   0.361
 5324SOL     OW16870   4.093   3.383   1.409
 5324SOL    HW116871   4.050   3.319   1.473
 5324SOL    HW216872   4.132   3.459   1.460
 5325SOL     OW16873   4.658   6.154   4.711
 5325SOL    HW116874   4.617   6.159   4.802
 5325SOL    HW216875   4.732   6.088   4.712
 5326SOL     OW16876   0.163   0.092   2.590
 5326SOL    HW116877   0.224   0.137   2.655
 5326SOL    HW216878   0.069   0.095   2.626
 5327SOL     OW16879   6.916   0.429   4.130
 5327SOL    HW116880   6.958   0.390   4.048
 5327SOL    HW216881   6.987   0.456   4.195
 5328SOL     OW16882   4.217   4.719   0.589
 5328SOL    HW116883   4.291   4.724   0.655
 5328SOL    HW216884   4.153   4.794   0.605
 5329SOL     OW16885   6.884   5.960   0.222
 5329SOL    HW116886   6.847   5.942   0.314
 5329SOL    HW216887   6.822   5.922   0.153
 5330SOL     OW16888   3.582   4.713   0.297
 5330SOL    HW116889   3.524   4.633   0.311
 5330SOL    HW216890   3.651   4.717   0.369
 5331SOL     OW16891   5.010   2.616   6.617
 5331SOL    HW116892   5.108   2.610   6.636
 5331SOL    HW216893   4.969   2.525   6.626
 5332SOL     OW16894   5.484   3.306   6.988
 5332SOL    HW116895   5.458   3.306   6.891
 5332SOL    HW216896   5.439   3.229   0.011
 5333SOL     OW16897   1.837   1.686   4.746
 5333SOL    HW116898   1.849   1.730   4.657
 5333SOL    HW216899   1.748   1.713   4.784
 5334SOL     OW16900   3.240   6.290   1.561
 5334SOL    HW116901   3.263   6.314   1.655
 5334SOL    HW216902   3.308   6.330   1.499
 5335SOL     OW16903   0.541   5.151   1.737
 5335SOL    HW116904   0.468   5.087   1.715
 5335SOL    HW216905   0.502   5.233   1.779
 5336SOL     OW16906   1.733   3.130   5.216
 5336SOL    HW116907   1.694   3.216   5.249
 5336SOL    HW216908   1.693   3.054   5.266
 5337SOL     OW16909   0.158   4.139   0.947
 5337SOL    HW116910   0.206   4.079   0.883
 5337SOL    HW216911   0.159   4.233   0.912
 5338SOL     OW16912   6.673   4.024   0.454
 5338SOL    HW116913   6.712   4.002   0.364
 5338SOL    HW216914   6.647   3.940   0.501
 5339SOL     OW16915   5.659   3.252   2.276
 5339SOL    HW116916   5.749   3.267   2.235
 5339SOL    HW216917   5.594   3.226   2.205
 5340SOL     OW16918   4.559   3.426   1.708
 5340SOL    HW116919   4.487   3.356   1.700
 5340SOL    HW216920   4.639   3.386   1.753
 5341SOL     OW16921   4.733   4.626   3.559
 5341SOL    HW116922   4.695   4.566   3.629
 5341SOL    HW216923   4.784   4.701   3.603
 5342SOL     OW16924   5.864   5.890   5.123
 5342SOL    HW116925   5.882   5.930   5.033
 5342SOL    HW216926   5.949   5.888   5.176
 5343SOL     OW16927   3.874   3.338   6.343
 5343SOL    HW116928   3.775   3.350   6.347
 5343SOL    HW216929   3.897   3.245   6.373
 5344SOL     OW16930   0.421   1.560   6.889
 5344SOL    HW116931   0.494   1.612   6.933
 5344SOL    HW216932   0.369   1.620   6.828
 5345SOL     OW16933   4.981   1.268   6.473
 5345SOL    HW116934   4.887   1.295   6.494
 5345SOL    HW216935   4.980   1.197   6.403
 5346SOL     OW16936   3.095   5.682   2.998
 5346SOL    HW116937   3.182   5.657   3.040
 5346SOL    HW216938   3.106   5.767   2.947
 5347SOL     OW16939   5.370   1.427   4.390
 5347SOL    HW116940   5.276   1.447   4.418
 5347SOL    HW216941   5.380   1.328   4.376
 5348SOL     OW16942   5.081   2.761   5.004
 5348SOL    HW116943   5.084   2.859   4.984
 5348SOL    HW216944   5.044   2.711   4.926
 5349SOL     OW16945   0.913   3.632   1.879
 5349SOL    HW116946   0.815   3.644   1.864
 5349SOL    HW216947   0.959   3.616   1.792
 5350SOL     OW16948   0.816   6.743   6.853
 5350SOL    HW116949   0.732   6.750   6.799
 5350SOL    HW216950   0.810   6.665   6.914
 5351SOL     OW16951   6.561   5.931   3.018
 5351SOL    HW116952   6.511   6.012   3.049
 5351SOL    HW216953   6.610   5.890   3.095
 5352SOL     OW16954   1.311   2.827   5.752
 5352SOL    HW116955   1.253   2.848   5.673
 5352SOL    HW216956   1.270   2.865   5.835
 5353SOL     OW16957   4.124   4.705   3.142
 5353SOL    HW116958   4.158   4.721   3.235
 5353SOL    HW216959   4.195   4.660   3.088
 5354SOL     OW16960   3.577   5.810   1.248
 5354SOL    HW116961   3.555   5.824   1.152
 5354SOL    HW216962   3.578   5.712   1.268
 5355SOL     OW16963   5.017   5.633   4.993
 5355SOL    HW116964   5.039   5.554   4.936
 5355SOL    HW216965   5.025   5.608   5.089
 5356SOL     OW16966   1.123   6.352   0.751
 5356SOL    HW116967   1.189   6.407   0.699
 5356SOL    HW216968   1.038   6.345   0.699
 5357SOL     OW16969   6.764   3.641   2.521
 5357SOL    HW116970   6.757   3.621   2.619
 5357SOL    HW216971   6.784   3.738   2.508
 5358SOL     OW16972   5.337   1.082   6.396
 5358SOL    HW116973   5.415   1.047   6.344
 5358SOL    HW216974   5.325   1.180   6.376
 5359SOL     OW16975   3.441   2.458   0.020
 5359SOL    HW116976   3.522   2.441   6.987
 5359SOL    HW216977   3.394   2.540   7.011
 5360SOL     OW16978   5.187   5.347   3.893
 5360SOL    HW116979   5.107   5.333   3.836
 5360SOL    HW216980   5.248   5.414   3.849
 5361SOL     OW16981   1.435   4.977   3.016
 5361SOL    HW116982   1.445   4.989   2.918
 5361SOL    HW216983   1.339   4.965   3.039
 5362SOL     OW16984   5.733   1.558   2.930
 5362SOL    HW116985   5.658   1.494   2.946
 5362SOL    HW216986   5.820   1.515   2.955
 5363SOL     OW16987   5.305   5.749   3.610
 5363SOL    HW116988   5.283   5.678   3.542
 5363SOL    HW216989   5.397   5.784   3.593
 5364SOL     OW16990   4.165   2.188   2.300
 5364SOL    HW116991   4.194   2.105   2.253
 5364SOL    HW216992   4.095   2.165   2.368
 5365SOL     OW16993   2.859   3.624   5.064
 5365SOL    HW116994   2.799   3.662   5.135
 5365SOL    HW216995   2.911   3.547   5.102
 5366SOL     OW16996   6.429   6.142   3.189
 5366SOL    HW116997   6.418   6.235   3.154
 5366SOL    HW216998   6.350   6.118   3.245
 5367SOL     OW16999   6.108   6.023   1.286
 5367SOL    HW117000   6.094   6.017   1.187
 5367SOL    HW217001   6.022   5.999   1.333
 5368SOL     OW17002   0.254   6.207   4.534
 5368SOL    HW117003   0.212   6.125   4.496
 5368SOL    HW217004   0.320   6.182   4.605
 5369SOL     OW17005   4.156   5.857   2.826
 5369SOL    HW117006   4.162   5.858   2.726
 5369SOL    HW217007   4.221   5.922   2.864
 5370SOL     OW17008   1.889   2.778   0.563
 5370SOL    HW117009   1.901   2.690   0.608
 5370SOL    HW217010   1.939   2.779   0.477
 5371SOL     OW17011   6.091   5.725   4.734
 5371SOL    HW117012   6.159   5.691   4.669
 5371SOL    HW217013   6.028   5.651   4.758
 5372SOL     OW17014   1.916   6.919   3.302
 5372SOL    HW117015   1.823   6.925   3.266
 5372SOL    HW217016   1.931   6.991   3.370
 5373SOL     OW17017   2.576   1.016   6.320
 5373SOL    HW117018   2.535   1.008   6.229
 5373SOL    HW217019   2.626   0.932   6.340
 5374SOL     OW17020   1.308   4.008   1.251
 5374SOL    HW117021   1.367   4.010   1.332
 5374SOL    HW217022   1.351   4.061   1.177
 5375SOL     OW17023   2.527   4.363   5.275
 5375SOL    HW117024   2.577   4.278   5.289
 5375SOL    HW217025   2.526   4.416   5.360
 5376SOL     OW17026   1.068   0.296   0.033
 5376SOL    HW117027   1.072   0.207   0.077
 5376SOL    HW217028   1.006   0.291   6.977
 5377SOL     OW17029   1.337   1.988   3.136
 5377SOL    HW117030   1.305   2.050   3.065
 5377SOL    HW217031   1.309   2.022   3.226
 5378SOL     OW17032   4.798   6.658   2.673
 5378SOL    HW117033   4.878   6.614   2.715
 5378SOL    HW217034   4.795   6.636   2.576
 5379SOL     OW17035   2.088   1.962   3.795
 5379SOL    HW117036   2.059   2.057   3.785
 5379SOL    HW217037   2.016   1.910   3.843
 5380SOL     OW17038   4.467   5.927   1.330
 5380SOL    HW117039   4.508   5.957   1.244
 5380SOL    HW217040   4.525   5.858   1.373
 5381SOL     OW17041   3.178   1.026   3.421
 5381SOL    HW117042   3.155   0.997   3.328
 5381SOL    HW217043   3.277   1.027   3.433
 5382SOL     OW17044   4.164   0.989   2.822
 5382SOL    HW117045   4.131   1.036   2.740
 5382SOL    HW217046   4.263   0.981   2.817
 5383SOL     OW17047   2.320   2.781   4.530
 5383SOL    HW117048   2.300   2.760   4.626
 5383SOL    HW217049   2.331   2.880   4.519
 5384SOL     OW17050   5.354   5.741   5.981
 5384SOL    HW117051   5.297   5.741   6.063
 5384SOL    HW217052   5.338   5.824   5.928
 5385SOL     OW17053   4.230   3.665   6.802
 5385SOL    HW117054   4.163   3.590   6.804
 5385SOL    HW217055   4.297   3.652   6.875
 5386SOL     OW17056   4.651   4.806   4.301
 5386SOL    HW117057   4.738   4.758   4.304
 5386SOL    HW217058   4.585   4.761   4.361
 5387SOL     OW17059   1.071   1.986   4.411
 5387SOL    HW117060   1.037   1.895   4.389
 5387SOL    HW217061   1.016   2.026   4.485
 5388SOL     OW17062   6.786   6.609   4.135
 5388SOL    HW117063   6.885   6.594   4.131
 5388SOL    HW217064   6.739   6.529   4.097
 5389SOL     OW17065   5.429   1.152   4.276
 5389SOL    HW117066   5.477   1.066   4.296
 5389SOL    HW217067   5.483   1.205   4.210
 5390SOL     OW17068   6.642   4.033   3.218
 5390SOL    HW117069   6.554   4.008   3.179
 5390SOL    HW217070   6.672   3.962   3.282
 5391SOL     OW17071   3.463   2.769   1.297
 5391SOL    HW117072   3.417   2.685   1.325
 5391SOL    HW217073   3.435   2.844   1.357
 5392SOL     OW17074   5.363   0.697   4.553
 5392SOL    HW117075   5.308   0.693   4.636
 5392SOL    HW217076   5.309   0.736   4.478
 5393SOL     OW17077   4.136   1.403   4.239
 5393SOL    HW117078   4.047   1.431   4.203
 5393SOL    HW217079   4.192   1.484   4.256
 5394SOL     OW17080   0.055   2.777   1.623
 5394SOL    HW117081   6.981   2.763   1.644
 5394SOL    HW217082   0.077   2.874   1.634
 5395SOL     OW17083   0.301   1.962   0.546
 5395SOL    HW117084   0.349   1.953   0.458
 5395SOL    HW217085   0.236   2.038   0.541
 5396SOL     OW17086   3.753   3.153   0.782
 5396SOL    HW117087   3.770   3.059   0.810
 5396SOL    HW217088   3.732   3.156   0.684
 5397SOL     OW17089   6.487   0.306   2.542
 5397SOL    HW117090   6.489   0.390   2.488
 5397SOL    HW217091   6.432   0.237   2.494
 5398SOL     OW17092   6.694   3.134   3.069
 5398SOL    HW117093   6.741   3.161   3.153
 5398SOL    HW217094   6.629   3.206   3.044
 5399SOL     OW17095   2.072   3.346   1.019
 5399SOL    HW117096   2.152   3.387   0.976
 5399SOL    HW217097   2.029   3.282   0.955
 5400SOL     OW17098   4.350   3.235   1.348
 5400SOL    HW117099   4.394   3.154   1.310
 5400SOL    HW217100   4.271   3.208   1.403
 5401SOL     OW17101   5.346   3.091   1.216
 5401SOL    HW117102   5.403   3.173   1.205
 5401SOL    HW217103   5.265   3.114   1.270
 5402SOL     OW17104   1.114   6.101   2.215
 5402SOL    HW117105   1.150   6.174   2.274
 5402SOL    HW217106   1.106   6.016   2.267
 5403SOL     OW17107   4.832   2.210   6.485
 5403SOL    HW117108   4.814   2.306   6.463
 5403SOL    HW217109   4.751   2.169   6.526
 5404SOL     OW17110   5.070   6.966   0.194
 5404SOL    HW117111   5.161   7.005   0.191
 5404SOL    HW217112   5.002   0.015   0.185
 5405SOL     OW17113   0.224   5.145   0.084
 5405SOL    HW117114   0.310   5.171   0.127
 5405SOL    HW217115   0.233   5.054   0.043
 5406SOL     OW17116   2.820   1.164   5.684
 5406SOL    HW117117   2.867   1.076   5.679
 5406SOL    HW217118   2.879   1.235   5.644
 5407SOL     OW17119   1.255   6.337   3.542
 5407SOL    HW117120   1.240   6.272   3.616
 5407SOL    HW217121   1.229   6.429   3.572
 5408SOL     OW17122   2.998   1.822   4.372
 5408SOL    HW117123   2.922   1.795   4.431
 5408SOL    HW217124   3.076   1.851   4.428
 5409SOL     OW17125   0.721   2.256   2.570
 5409SOL    HW117126   0.659   2.316   2.620
 5409SOL    HW217127   0.700   2.160   2.592
 5410SOL     OW17128   6.635   2.636   0.501
 5410SOL    HW117129   6.726   2.601   0.481
 5410SOL    HW217130   6.637   2.736   0.506
 5411SOL     OW17131   3.555   5.430   0.495
 5411SOL    HW117132   3.546   5.353   0.558
 5411SOL    HW217133   3.526   5.402   0.404
 5412SOL     OW17134   1.230   1.930   5.353
 5412SOL    HW117135   1.276   1.863   5.411
 5412SOL    HW217136   1.284   1.948   5.271
 5413SOL     OW17137   0.643   5.007   4.763
 5413SOL    HW117138   0.712   4.956   4.815
 5413SOL    HW217139   0.636   5.100   4.799
 5414SOL     OW17140   5.710   4.215   5.456
 5414SOL    HW117141   5.661   4.129   5.442
 5414SOL    HW217142   5.658   4.273   5.520
 5415SOL     OW17143   2.292   1.459   0.132
 5415SOL    HW117144   2.337   1.545   0.109
 5415SOL    HW217145   2.269   1.457   0.229
 5416SOL     OW17146   3.331   5.383   6.830
 5416SOL    HW117147   3.371   5.467   6.866
 5416SOL    HW217148   3.364   5.305   6.884
 5417SOL     OW17149   5.292   0.300   3.724
 5417SOL    HW117150   5.238   0.336   3.648
 5417SOL    HW217151   5.361   0.237   3.689
 5418SOL     OW17152   6.912   3.149   5.912
 5418SOL    HW117153   6.916   3.081   5.985
 5418SOL    HW217154   6.980   3.127   5.842
 5419SOL     OW17155   4.081   2.037   6.550
 5419SOL    HW117156   4.048   2.131   6.554
 5419SOL    HW217157   4.004   1.975   6.540
 5420SOL     OW17158   1.361   2.301   1.935
 5420SOL    HW117159   1.386   2.213   1.896
 5420SOL    HW217160   1.262   2.303   1.951
 5421SOL     OW17161   3.976   5.520   1.729
 5421SOL    HW117162   4.015   5.431   1.753
 5421SOL    HW217163   4.024   5.591   1.781
 5422SOL     OW17164   2.511   5.158   4.006
 5422SOL    HW117165   2.435   5.123   4.061
 5422SOL    HW217166   2.570   5.082   3.980
 5423SOL     OW17167   4.881   0.002   1.453
 5423SOL    HW117168   4.845   6.932   1.441
 5423SOL    HW217169   4.843   0.062   1.383
 5424SOL     OW17170   4.125   4.027   5.503
 5424SOL    HW117171   4.126   3.932   5.471
 5424SOL    HW217172   4.212   4.047   5.549
 5425SOL     OW17173   1.628   4.901   6.257
 5425SOL    HW117174   1.575   4.839   6.199
 5425SOL    HW217175   1.712   4.855   6.286
 5426SOL     OW17176   6.532   4.964   1.849
 5426SOL    HW117177   6.606   4.991   1.911
 5426SOL    HW217178   6.475   4.895   1.893
 5427SOL     OW17179   4.635   3.180   0.508
 5427SOL    HW117180   4.582   3.145   0.586
 5427SOL    HW217181   4.727   3.141   0.512
 5428SOL     OW17182   5.111   4.970   3.443
 5428SOL    HW117183   5.174   4.905   3.484
 5428SOL    HW217184   5.025   4.925   3.420
 5429SOL     OW17185   2.974   0.140   4.520
 5429SOL    HW117186   2.910   0.065   4.503
 5429SOL    HW217187   3.062   0.119   4.477
 5430SOL     OW17188   1.998   3.628   5.732
 5430SOL    HW117189   1.980   3.550   5.792
 5430SOL    HW217190   2.086   3.615   5.686
 5431SOL     OW17191   4.962   4.850   0.071
 5431SOL    HW117192   4.889   4.888   0.127
 5431SOL    HW217193   4.922   4.804   7.015
 5432SOL     OW17194   0.549   5.198   6.413
 5432SOL    HW117195   0.644   5.188   6.443
 5432SOL    HW217196   0.543   5.270   6.344
 5433SOL     OW17197   3.886   0.017   1.190
 5433SOL    HW117198   3.827   0.008   1.110
 5433SOL    HW217199   3.872   0.107   1.232
 5434SOL     OW17200   4.776   7.014   4.164
 5434SOL    HW117201   4.820   0.077   4.137
 5434SOL    HW217202   4.828   6.937   4.127
 5435SOL     OW17203   0.033   5.356   6.995
 5435SOL    HW117204   0.101   5.284   7.003
 5435SOL    HW217205   0.071   5.442   0.007
 5436SOL     OW17206   1.945   4.970   2.359
 5436SOL    HW117207   1.892   5.032   2.302
 5436SOL    HW217208   2.041   4.974   2.332
 5437SOL     OW17209   3.439   6.382   1.142
 5437SOL    HW117210   3.401   6.307   1.089
 5437SOL    HW217211   3.539   6.379   1.138
 5438SOL     OW17212   4.075   6.439   1.809
 5438SOL    HW117213   4.120   6.351   1.823
 5438SOL    HW217214   4.143   6.508   1.786
 5439SOL     OW17215   1.307   4.077   0.959
 5439SOL    HW117216   1.234   4.142   0.982
 5439SOL    HW217217   1.270   3.984   0.956
 5440SOL     OW17218   5.334   6.896   3.807
 5440SOL    HW117219   5.355   6.988   3.774
 5440SOL    HW217220   5.388   6.876   3.888
 5441SOL     OW17221   5.680   2.214   4.701
 5441SOL    HW117222   5.745   2.205   4.776
 5441SOL    HW217223   5.609   2.143   4.710
 5442SOL     OW17224   2.586   0.413   6.540
 5442SOL    HW117225   2.640   0.496   6.556
 5442SOL    HW217226   2.648   0.337   6.521
 5443SOL     OW17227   5.970   1.036   3.081
 5443SOL    HW117228   5.891   1.084   3.044
 5443SOL    HW217229   5.982   0.949   3.034
 5444SOL     OW17230   0.286   1.170   6.316
 5444SOL    HW117231   0.191   1.163   6.347
 5444SOL    HW217232   0.346   1.128   6.385
 5445SOL     OW17233   5.772   6.620   5.537
 5445SOL    HW117234   5.792   6.718   5.549
 5445SOL    HW217235   5.737   6.583   5.623
 5446SOL     OW17236   0.971   4.339   5.727
 5446SOL    HW117237   0.994   4.335   5.824
 5446SOL    HW217238   1.054   4.354   5.674
 5447SOL     OW17239   6.649   1.835   1.908
 5447SOL    HW117240   6.746   1.831   1.883
 5447SOL    HW217241   6.608   1.917   1.869
 5448SOL     OW17242   5.792   5.465   2.569
 5448SOL    HW117243   5.804   5.398   2.495
 5448SOL    HW217244   5.698   5.499   2.568
 5449SOL     OW17245   2.109   0.682   0.942
 5449SOL    HW117246   2.179   0.614   0.923
 5449SOL    HW217247   2.129   0.728   1.029
 5450SOL     OW17248   4.851   5.566   2.233
 5450SOL    HW117249   4.865   5.481   2.284
 5450SOL    HW217250   4.932   5.586   2.179
 5451SOL     OW17251   6.427   6.486   3.421
 5451SOL    HW117252   6.344   6.440   3.453
 5451SOL    HW217253   6.416   6.585   3.430
 5452SOL     OW17254   2.290   4.123   2.670
 5452SOL    HW117255   2.364   4.174   2.716
 5452SOL    HW217256   2.258   4.050   2.730
 5453SOL     OW17257   6.496   4.370   4.325
 5453SOL    HW117258   6.535   4.388   4.234
 5453SOL    HW217259   6.431   4.442   4.348
 5454SOL     OW17260   6.494   4.176   2.798
 5454SOL    HW117261   6.454   4.154   2.887
 5454SOL    HW217262   6.439   4.245   2.752
 5455SOL     OW17263   2.517   1.773   3.386
 5455SOL    HW117264   2.555   1.793   3.295
 5455SOL    HW217265   2.592   1.766   3.452
 5456SOL     OW17266   6.037   2.549   0.550
 5456SOL    HW117267   6.038   2.593   0.639
 5456SOL    HW217268   6.130   2.524   0.523
 5457SOL     OW17269   6.331   1.293   6.658
 5457SOL    HW117270   6.342   1.258   6.565
 5457SOL    HW217271   6.251   1.354   6.661
 5458SOL     OW17272   5.347   4.246   6.888
 5458SOL    HW117273   5.274   4.182   6.864
 5458SOL    HW217274   5.321   4.339   6.860
 5459SOL     OW17275   2.119   3.143   4.898
 5459SOL    HW117276   2.190   3.137   4.968
 5459SOL    HW217277   2.078   3.053   4.885
 5460SOL     OW17278   0.712   0.524   1.460
 5460SOL    HW117279   0.802   0.567   1.447
 5460SOL    HW217280   0.651   0.587   1.507
 5461SOL     OW17281   6.075   1.270   6.058
 5461SOL    HW117282   6.028   1.216   5.989
 5461SOL    HW217283   6.017   1.346   6.086
 5462SOL     OW17284   4.986   4.584   5.946
 5462SOL    HW117285   4.954   4.497   5.985
 5462SOL    HW217286   4.993   4.575   5.847
 5463SOL     OW17287   0.707   3.845   5.696
 5463SOL    HW117288   0.608   3.861   5.706
 5463SOL    HW217289   0.755   3.933   5.697
 5464SOL     OW17290   1.780   5.314   4.837
 5464SOL    HW117291   1.815   5.286   4.926
 5464SOL    HW217292   1.826   5.399   4.809
 5465SOL     OW17293   0.587   6.960   4.920
 5465SOL    HW117294   0.531   0.017   4.895
 5465SOL    HW217295   0.628   6.921   4.838
 5466SOL     OW17296   5.700   1.556   4.473
 5466SOL    HW117297   5.710   1.651   4.444
 5466SOL    HW217298   5.604   1.528   4.464
 5467SOL     OW17299   4.905   3.358   4.385
 5467SOL    HW117300   4.913   3.458   4.394
 5467SOL    HW217301   4.934   3.331   4.293
 5468SOL     OW17302   6.963   1.955   1.445
 5468SOL    HW117303   6.997   1.870   1.405
 5468SOL    HW217304   6.935   2.018   1.372
 5469SOL     OW17305   3.690   0.945   4.678
 5469SOL    HW117306   3.698   0.988   4.589
 5469SOL    HW217307   3.601   0.899   4.685
 5470SOL     OW17308   4.542   5.159   4.336
 5470SOL    HW117309   4.543   5.157   4.436
 5470SOL    HW217310   4.615   5.101   4.300
 5471SOL     OW17311   5.335   0.772   2.630
 5471SOL    HW117312   5.427   0.763   2.591
 5471SOL    HW217313   5.277   0.698   2.595
 5472SOL     OW17314   2.778   3.466   6.914
 5472SOL    HW117315   2.862   3.519   6.922
 5472SOL    HW217316   2.759   3.419   7.001
 5473SOL     OW17317   3.111   5.178   1.813
 5473SOL    HW117318   3.141   5.126   1.893
 5473SOL    HW217319   3.110   5.276   1.834
 5474SOL     OW17320   1.382   4.888   2.238
 5474SOL    HW117321   1.438   4.928   2.310
 5474SOL    HW217322   1.374   4.954   2.163
 5475SOL     OW17323   0.864   0.882   5.021
 5475SOL    HW117324   0.868   0.982   5.024
 5475SOL    HW217325   0.957   0.845   5.029
 5476SOL     OW17326   2.346   6.848   5.059
 5476SOL    HW117327   2.286   6.791   5.115
 5476SOL    HW217328   2.390   6.792   4.989
 5477SOL     OW17329   2.087   3.539   4.142
 5477SOL    HW117330   2.153   3.608   4.171
 5477SOL    HW217331   2.044   3.499   4.223
 5478SOL     OW17332   5.326   4.738   5.399
 5478SOL    HW117333   5.365   4.649   5.375
 5478SOL    HW217334   5.380   4.780   5.471
 5479SOL     OW17335   5.396   1.876   4.121
 5479SOL    HW117336   5.321   1.942   4.113
 5479SOL    HW217337   5.432   1.878   4.214
 5480SOL     OW17338   1.463   3.274   4.187
 5480SOL    HW117339   1.406   3.308   4.112
 5480SOL    HW217340   1.438   3.180   4.209
 5481SOL     OW17341   4.292   1.803   6.530
 5481SOL    HW117342   4.264   1.708   6.546
 5481SOL    HW217343   4.389   1.806   6.505
 5482SOL     OW17344   5.469   3.457   1.954
 5482SOL    HW117345   5.483   3.546   1.998
 5482SOL    HW217346   5.549   3.434   1.899
 5483SOL     OW17347   6.826   3.001   7.011
 5483SOL    HW117348   6.769   3.079   6.986
 5483SOL    HW217349   6.769   2.919   7.016
 5484SOL     OW17350   6.194   6.748   4.943
 5484SOL    HW117351   6.208   6.841   4.909
 5484SOL    HW217352   6.276   6.717   4.991
 5485SOL     OW17353   3.860   6.977   4.941
 5485SOL    HW117354   3.826   0.047   4.925
 5485SOL    HW217355   3.783   6.912   4.935
 5486SOL     OW17356   1.021   0.803   4.292
 5486SOL    HW117357   0.932   0.759   4.288
 5486SOL    HW217358   1.079   0.757   4.359
 5487SOL     OW17359   4.462   5.242   0.578
 5487SOL    HW117360   4.366   5.217   0.572
 5487SOL    HW217361   4.498   5.259   0.486
 5488SOL     OW17362   5.177   1.111   5.841
 5488SOL    HW117363   5.260   1.091   5.892
 5488SOL    HW217364   5.185   1.200   5.796
 5489SOL     OW17365   6.892   4.381   3.098
 5489SOL    HW117366   6.987   4.399   3.073
 5489SOL    HW217367   6.846   4.467   3.121
 5490SOL     OW17368   2.225   2.422   7.000
 5490SOL    HW117369   2.245   2.467   0.064
 5490SOL    HW217370   2.306   2.426   6.941
 5491SOL     OW17371   0.486   5.838   1.727
 5491SOL    HW117372   0.481   5.790   1.815
 5491SOL    HW217373   0.460   5.934   1.740
 5492SOL     OW17374   1.901   0.987   4.867
 5492SOL    HW117375   1.830   0.916   4.869
 5492SOL    HW217376   1.917   1.019   4.960
 5493SOL     OW17377   3.224   2.928   6.841
 5493SOL    HW117378   3.136   2.881   6.834
 5493SOL    HW217379   3.230   2.976   6.928
 5494SOL     OW17380   6.074   2.786   2.348
 5494SOL    HW117381   5.975   2.774   2.357
 5494SOL    HW217382   6.105   2.858   2.409
 5495SOL     OW17383   3.440   2.891   2.933
 5495SOL    HW117384   3.452   2.848   2.844
 5495SOL    HW217385   3.359   2.950   2.931
 5496SOL     OW17386   3.571   5.263   1.162
 5496SOL    HW117387   3.489   5.275   1.217
 5496SOL    HW217388   3.611   5.353   1.142
 5497SOL     OW17389   6.221   6.896   1.665
 5497SOL    HW117390   6.283   6.840   1.612
 5497SOL    HW217391   6.166   6.953   1.604
 5498SOL     OW17392   4.511   0.008   5.038
 5498SOL    HW117393   4.462   0.071   4.977
 5498SOL    HW217394   4.526   0.053   5.126
 5499SOL     OW17395   0.225   1.403   4.734
 5499SOL    HW117396   0.273   1.325   4.774
 5499SOL    HW217397   0.199   1.467   4.806
 5500SOL     OW17398   2.277   5.712   1.421
 5500SOL    HW117399   2.211   5.638   1.408
 5500SOL    HW217400   2.370   5.677   1.411
 5501SOL     OW17401   2.062   0.180   2.734
 5501SOL    HW117402   2.049   0.273   2.768
 5501SOL    HW217403   2.121   0.181   2.654
 5502SOL     OW17404   4.702   3.606   0.369
 5502SOL    HW117405   4.715   3.512   0.339
 5502SOL    HW217406   4.699   3.667   0.290
 5503SOL     OW17407   0.686   6.293   4.759
 5503SOL    HW117408   0.766   6.330   4.805
 5503SOL    HW217409   0.712   6.213   4.705
 5504SOL     OW17410   3.463   2.083   4.435
 5504SOL    HW117411   3.513   2.050   4.355
 5504SOL    HW217412   3.380   2.129   4.405
 5505SOL     OW17413   3.310   4.609   6.036
 5505SOL    HW117414   3.376   4.685   6.033
 5505SOL    HW217415   3.335   4.540   5.968
 5506SOL     OW17416   0.017   0.127   5.656
 5506SOL    HW117417   6.954   0.177   5.656
 5506SOL    HW217418   0.000   0.032   5.627
 5507SOL     OW17419   3.211   5.724   4.329
 5507SOL    HW117420   3.115   5.707   4.348
 5507SOL    HW217421   3.268   5.673   4.393
 5508SOL     OW17422   2.678   0.417   6.105
 5508SOL    HW117423   2.646   0.495   6.159
 5508SOL    HW217424   2.606   0.387   6.043
 5509SOL     OW17425   6.102   6.224   6.850
 5509SOL    HW117426   6.034   6.165   6.806
 5509SOL    HW217427   6.057   6.308   6.881
 5510SOL     OW17428   5.372   0.388   6.110
 5510SOL    HW117429   5.448   0.324   6.118
 5510SOL    HW217430   5.392   0.470   6.164
 5511SOL     OW17431   0.028   1.768   1.972
 5511SOL    HW117432   0.059   1.859   1.946
 5511SOL    HW217433   7.020   1.719   1.891
 5512SOL     OW17434   0.602   6.940   0.785
 5512SOL    HW117435   0.636   6.899   0.870
 5512SOL    HW217436   0.541   7.016   0.807
 5513SOL     OW17437   3.610   5.089   4.573
 5513SOL    HW117438   3.638   5.024   4.502
 5513SOL    HW217439   3.689   5.113   4.629
 5514SOL     OW17440   6.138   5.720   3.707
 5514SOL    HW117441   6.236   5.704   3.695
 5514SOL    HW217442   6.109   5.796   3.648
 5515SOL     OW17443   6.703   3.028   2.576
 5515SOL    HW117444   6.761   2.947   2.577
 5515SOL    HW217445   6.759   3.110   2.588
 5516SOL     OW17446   1.194   3.479   6.047
 5516SOL    HW117447   1.172   3.479   6.145
 5516SOL    HW217448   1.152   3.559   6.003
 5517SOL     OW17449   2.230   1.376   1.806
 5517SOL    HW117450   2.257   1.344   1.897
 5517SOL    HW217451   2.152   1.322   1.774
 5518SOL     OW17452   5.726   5.022   5.388
 5518SOL    HW117453   5.764   5.082   5.458
 5518SOL    HW217454   5.656   4.964   5.429
 5519SOL     OW17455   5.276   3.500   3.469
 5519SOL    HW117456   5.235   3.462   3.552
 5519SOL    HW217457   5.246   3.446   3.390
 5520SOL     OW17458   1.746   3.258   1.310
 5520SOL    HW117459   1.840   3.253   1.343
 5520SOL    HW217460   1.687   3.201   1.366
 5521SOL     OW17461   4.853   5.758   1.666
 5521SOL    HW117462   4.798   5.841   1.660
 5521SOL    HW217463   4.796   5.678   1.647
 5522SOL     OW17464   1.885   3.529   2.441
 5522SOL    HW117465   1.908   3.487   2.353
 5522SOL    HW217466   1.959   3.590   2.469
 5523SOL     OW17467   3.353   0.707   1.147
 5523SOL    HW117468   3.318   0.801   1.153
 5523SOL    HW217469   3.321   0.655   1.226
 5524SOL     OW17470   6.792   5.857   6.278
 5524SOL    HW117471   6.734   5.832   6.201
 5524SOL    HW217472   6.887   5.839   6.256
 5525SOL     OW17473   6.597   5.725   4.533
 5525SOL    HW117474   6.650   5.807   4.512
 5525SOL    HW217475   6.523   5.715   4.466
 5526SOL     OW17476   5.315   2.753   5.156
 5526SOL    HW117477   5.362   2.666   5.147
 5526SOL    HW217478   5.241   2.758   5.089
 5527SOL     OW17479   2.081   3.547   1.232
 5527SOL    HW117480   2.093   3.480   1.159
 5527SOL    HW217481   2.064   3.637   1.193
 5528SOL     OW17482   0.513   3.505   3.162
 5528SOL    HW117483   0.423   3.546   3.146
 5528SOL    HW217484   0.563   3.560   3.229
 5529SOL     OW17485   2.079   1.291   5.026
 5529SOL    HW117486   2.078   1.254   5.119
 5529SOL    HW217487   1.998   1.260   4.977
 5530SOL     OW17488   1.205   2.878   0.987
 5530SOL    HW117489   1.191   2.806   0.919
 5530SOL    HW217490   1.270   2.945   0.951
 5531SOL     OW17491   2.787   2.652   5.910
 5531SOL    HW117492   2.727   2.574   5.897
 5531SOL    HW217493   2.877   2.620   5.940
 5532SOL     OW17494   2.564   1.884   1.145
 5532SOL    HW117495   2.614   1.955   1.095
 5532SOL    HW217496   2.613   1.798   1.137
 5533SOL     OW17497   3.944   0.016   0.784
 5533SOL    HW117498   3.894   0.053   0.706
 5533SOL    HW217499   3.954   0.087   0.854
 5534SOL     OW17500   0.279   4.334   5.682
 5534SOL    HW117501   0.246   4.306   5.592
 5534SOL    HW217502   0.253   4.266   5.750
 5535SOL     OW17503   5.533   3.466   3.532
 5535SOL    HW117504   5.452   3.490   3.478
 5535SOL    HW217505   5.575   3.383   3.495
 5536SOL     OW17506   1.817   0.665   3.309
 5536SOL    HW117507   1.870   0.608   3.372
 5536SOL    HW217508   1.751   0.719   3.361
 5537SOL     OW17509   4.465   1.175   4.877
 5537SOL    HW117510   4.366   1.158   4.876
 5537SOL    HW217511   4.482   1.273   4.877
 5538SOL     OW17512   5.592   2.080   0.857
 5538SOL    HW117513   5.586   2.179   0.871
 5538SOL    HW217514   5.531   2.054   0.782
 5539SOL     OW17515   3.128   6.542   0.071
 5539SOL    HW117516   3.155   6.599   0.149
 5539SOL    HW217517   3.083   6.459   0.105
 5540SOL     OW17518   5.351   0.430   6.597
 5540SOL    HW117519   5.271   0.462   6.546
 5540SOL    HW217520   5.382   0.503   6.657
 5541SOL     OW17521   4.599   3.700   6.175
 5541SOL    HW117522   4.516   3.684   6.229
 5541SOL    HW217523   4.669   3.634   6.200
 5542SOL     OW17524   4.574   4.692   0.169
 5542SOL    HW117525   4.610   4.607   0.131
 5542SOL    HW217526   4.508   4.671   0.241
 5543SOL     OW17527   1.836   0.064   0.341
 5543SOL    HW117528   1.782   0.081   0.424
 5543SOL    HW217529   1.874   6.994   0.345
 5544SOL     OW17530   3.692   5.633   6.319
 5544SOL    HW117531   3.704   5.584   6.233
 5544SOL    HW217532   3.758   5.708   6.324
 5545SOL     OW17533   4.426   0.376   3.297
 5545SOL    HW117534   4.338   0.419   3.318
 5545SOL    HW217535   4.499   0.441   3.315
 5546SOL     OW17536   0.393   5.070   4.444
 5546SOL    HW117537   0.368   5.027   4.530
 5546SOL    HW217538   0.328   5.044   4.373
 5547SOL     OW17539   5.285   1.268   4.951
 5547SOL    HW117540   5.350   1.319   4.894
 5547SOL    HW217541   5.325   1.180   4.976
 5548SOL     OW17542   0.243   4.028   4.566
 5548SOL    HW117543   0.331   3.994   4.599
 5548SOL    HW217544   0.170   3.991   4.623
 5549SOL     OW17545   4.441   2.987   0.415
 5549SOL    HW117546   4.459   2.999   0.512
 5549SOL    HW217547   4.354   3.031   0.391
 5550SOL     OW17548   2.140   4.133   2.075
 5550SOL    HW117549   2.045   4.115   2.101
 5550SOL    HW217550   2.181   4.195   2.141
 5551SOL     OW17551   1.796   5.490   3.569
 5551SOL    HW117552   1.773   5.460   3.477
 5551SOL    HW217553   1.764   5.422   3.635
 5552SOL     OW17554   0.347   6.708   6.970
 5552SOL    HW117555   0.427   6.669   7.016
 5552SOL    HW217556   0.351   6.684   6.873
 5553SOL     OW17557   4.852   0.238   6.868
 5553SOL    HW117558   4.930   0.245   6.931
 5553SOL    HW217559   4.783   0.306   6.894
 5554SOL     OW17560   5.636   2.149   1.424
 5554SOL    HW117561   5.589   2.069   1.462
 5554SOL    HW217562   5.729   2.123   1.397
 5555SOL     OW17563   1.629   4.927   2.531
 5555SOL    HW117564   1.723   4.896   2.546
 5555SOL    HW217565   1.580   4.861   2.475
 5556SOL     OW17566   0.341   0.962   4.649
 5556SOL    HW117567   0.251   0.961   4.691
 5556SOL    HW217568   0.331   0.958   4.549
 5557SOL     OW17569   3.147   6.004   2.702
 5557SOL    HW117570   3.056   5.970   2.725
 5557SOL    HW217571   3.202   6.011   2.785
 5558SOL     OW17572   4.253   4.476   0.260
 5558SOL    HW117573   4.278   4.567   0.293
 5558SOL    HW217574   4.154   4.463   0.271
 5559SOL     OW17575   2.332   0.219   2.626
 5559SOL    HW117576   2.305   0.287   2.559
 5559SOL    HW217577   2.430   0.200   2.617
 5560SOL     OW17578   0.909   6.336   2.744
 5560SOL    HW117579   0.866   6.246   2.746
 5560SOL    HW217580   0.904   6.378   2.835
 5561SOL     OW17581   3.496   6.586   3.315
 5561SOL    HW117582   3.447   6.524   3.253
 5561SOL    HW217583   3.539   6.659   3.261
 5562SOL     OW17584   4.045   4.437   0.834
 5562SOL    HW117585   3.952   4.420   0.803
 5562SOL    HW217586   4.066   4.376   0.910
 5563SOL     OW17587   2.517   4.607   3.056
 5563SOL    HW117588   2.458   4.598   2.976
 5563SOL    HW217589   2.603   4.649   3.029
 5564SOL     OW17590   5.175   0.502   5.939
 5564SOL    HW117591   5.087   0.529   5.979
 5564SOL    HW217592   5.242   0.489   6.011
 5565SOL     OW17593   3.376   2.110   6.168
 5565SOL    HW117594   3.406   2.201   6.139
 5565SOL    HW217595   3.306   2.076   6.106
 5566SOL     OW17596   1.446   3.776   6.467
 5566SOL    HW117597   1.356   3.794   6.427
 5566SOL    HW217598   1.517   3.814   6.407
 5567SOL     OW17599   6.996   4.163   1.569
 5567SOL    HW117600   0.051   4.226   1.577
 5567SOL    HW217601   6.937   4.194   1.494
 5568SOL     OW17602   4.249   5.761   1.272
 5568SOL    HW117603   4.208   5.726   1.356
 5568SOL    HW217604   4.311   5.837   1.294
 5569SOL     OW17605   2.128   3.142   3.804
 5569SOL    HW117606   2.060   3.092   3.858
 5569SOL    HW217607   2.175   3.207   3.863
 5570SOL     OW17608   0.667   3.836   2.830
 5570SOL    HW117609   0.668   3.749   2.878
 5570SOL    HW217610   0.670   3.911   2.896
 5571SOL     OW17611   6.083   4.990   1.820
 5571SOL    HW117612   6.019   5.061   1.793
 5571SOL    HW217613   6.036   4.901   1.820
 5572SOL     OW17614   1.614   4.004   5.060
 5572SOL    HW117615   1.692   4.059   5.089
 5572SOL    HW217616   1.646   3.915   5.028
 5573SOL     OW17617   2.666   4.949   3.865
 5573SOL    HW117618   2.662   4.856   3.829
 5573SOL    HW217619   2.635   5.013   3.795
 5574SOL     OW17620   1.008   2.397   6.653
 5574SOL    HW117621   1.004   2.451   6.569
 5574SOL    HW217622   0.917   2.360   6.673
 5575SOL     OW17623   0.416   0.417   1.398
 5575SOL    HW117624   0.457   0.327   1.384
 5575SOL    HW217625   0.411   0.466   1.310
 5576SOL     OW17626   1.886   4.667   3.308
 5576SOL    HW117627   1.845   4.747   3.264
 5576SOL    HW217628   1.985   4.681   3.316
 5577SOL     OW17629   1.955   2.740   5.866
 5577SOL    HW117630   1.978   2.795   5.786
 5577SOL    HW217631   1.989   2.784   5.949
 5578SOL     OW17632   3.631   3.545   3.581
 5578SOL    HW117633   3.713   3.520   3.632
 5578SOL    HW217634   3.580   3.615   3.631
 5579SOL     OW17635   0.668   3.323   1.518
 5579SOL    HW117636   0.724   3.282   1.591
 5579SOL    HW217637   0.707   3.410   1.492
 5580SOL     OW17638   5.282   1.943   5.039
 5580SOL    HW117639   5.244   1.886   4.966
 5580SOL    HW217640   5.227   2.026   5.047
 5581SOL     OW17641   1.171   1.738   6.452
 5581SOL    HW117642   1.174   1.677   6.373
 5581SOL    HW217643   1.140   1.828   6.424
 5582SOL     OW17644   2.483   2.469   6.322
 5582SOL    HW117645   2.394   2.474   6.277
 5582SOL    HW217646   2.501   2.375   6.350
 5583SOL     OW17647   5.278   0.997   2.106
 5583SOL    HW117648   5.307   1.057   2.032
 5583SOL    HW217649   5.258   0.906   2.069
 5584SOL     OW17650   0.978   3.681   5.170
 5584SOL    HW117651   0.990   3.697   5.072
 5584SOL    HW217652   0.902   3.617   5.184
 5585SOL     OW17653   4.581   4.703   2.188
 5585SOL    HW117654   4.534   4.645   2.122
 5585SOL    HW217655   4.591   4.796   2.151
 5586SOL     OW17656   6.687   3.226   6.963
 5586SOL    HW117657   6.619   3.253   6.896
 5586SOL    HW217658   6.730   3.307   7.003
 5587SOL     OW17659   5.772   0.546   6.492
 5587SOL    HW117660   5.779   0.476   6.563
 5587SOL    HW217661   5.691   0.602   6.509
 5588SOL     OW17662   3.395   6.859   1.626
 5588SOL    HW117663   3.450   6.784   1.664
 5588SOL    HW217664   3.435   6.947   1.653
 5589SOL     OW17665   5.991   4.986   6.261
 5589SOL    HW117666   5.954   4.903   6.219
 5589SOL    HW217667   6.016   4.968   6.356
 5590SOL     OW17668   5.395   5.676   4.004
 5590SOL    HW117669   5.464   5.604   4.008
 5590SOL    HW217670   5.428   5.757   4.052
 5591SOL     OW17671   6.098   1.278   1.213
 5591SOL    HW117672   6.142   1.237   1.133
 5591SOL    HW217673   6.098   1.213   1.289
 5592SOL     OW17674   0.953   4.163   3.210
 5592SOL    HW117675   1.012   4.107   3.153
 5592SOL    HW217676   0.933   4.249   3.163
 5593SOL     OW17677   0.037   2.853   0.293
 5593SOL    HW117678   0.082   2.764   0.280
 5593SOL    HW217679   6.961   2.842   0.282
 5594SOL     OW17680   5.935   2.402   5.619
 5594SOL    HW117681   6.002   2.442   5.683
 5594SOL    HW217682   5.960   2.427   5.526
 5595SOL     OW17683   0.958   2.338   5.746
 5595SOL    HW117684   0.999   2.427   5.767
 5595SOL    HW217685   0.992   2.306   5.657
 5596SOL     OW17686   4.011   6.623   2.907
 5596SOL    HW117687   3.951   6.561   2.857
 5596SOL    HW217688   4.061   6.571   2.977
 5597SOL     OW17689   5.174   3.325   3.289
 5597SOL    HW117690   5.082   3.334   3.327
 5597SOL    HW217691   5.190   3.229   3.264
 5598SOL     OW17692   5.796   2.032   5.305
 5598SOL    HW117693   5.738   1.951   5.294
 5598SOL    HW217694   5.779   2.096   5.231
 5599SOL     OW17695   0.419   1.562   3.932
 5599SOL    HW117696   0.470   1.534   3.851
 5599SOL    HW217697   0.399   1.482   3.988
 5600SOL     OW17698   1.375   2.365   4.193
 5600SOL    HW117699   1.432   2.404   4.121
 5600SOL    HW217700   1.397   2.268   4.205
 5601SOL     OW17701   2.573   0.990   5.488
 5601SOL    HW117702   2.611   0.970   5.578
 5601SOL    HW217703   2.635   1.050   5.437
 5602SOL     OW17704   1.202   1.894   0.590
 5602SOL    HW117705   1.218   1.960   0.663
 5602SOL    HW217706   1.134   1.826   0.620
 5603SOL     OW17707   6.399   2.461   6.405
 5603SOL    HW117708   6.455   2.421   6.478
 5603SOL    HW217709   6.408   2.561   6.409
 5604SOL     OW17710   6.467   1.816   5.831
 5604SOL    HW117711   6.448   1.773   5.743
 5604SOL    HW217712   6.505   1.907   5.816
 5605SOL     OW17713   0.553   2.292   4.879
 5605SOL    HW117714   0.548   2.364   4.810
 5605SOL    HW217715   0.575   2.333   4.967
 5606SOL     OW17716   4.626   6.955   1.832
 5606SOL    HW117717   4.660   6.972   1.740
 5606SOL    HW217718   4.604   0.019   1.877
 5607SOL     OW17719   5.659   1.049   1.664
 5607SOL    HW117720   5.610   1.053   1.751
 5607SOL    HW217721   5.600   1.081   1.591
 5608SOL     OW17722   3.868   6.509   5.172
 5608SOL    HW117723   3.874   6.410   5.162
 5608SOL    HW217724   3.951   6.551   5.133
 5609SOL     OW17725   2.772   6.228   6.029
 5609SOL    HW117726   2.853   6.244   6.086
 5609SOL    HW217727   2.714   6.160   6.073
 5610SOL     OW17728   4.735   0.844   6.710
 5610SOL    HW117729   4.832   0.855   6.732
 5610SOL    HW217730   4.725   0.782   6.632
 5611SOL     OW17731   1.588   4.957   3.236
 5611SOL    HW117732   1.566   4.867   3.274
 5611SOL    HW217733   1.530   4.974   3.156
 5612SOL     OW17734   2.748   6.864   5.650
 5612SOL    HW117735   2.667   6.834   5.599
 5612SOL    HW217736   2.830   6.822   5.610
 5613SOL     OW17737   3.886   4.831   1.641
 5613SOL    HW117738   3.866   4.885   1.723
 5613SOL    HW217739   3.954   4.762   1.663
 5614SOL     OW17740   4.585   2.073   3.002
 5614SOL    HW117741   4.585   2.017   2.919
 5614SOL    HW217742   4.594   2.013   3.082
 5615SOL     OW17743   1.624   0.950   1.116
 5615SOL    HW117744   1.589   1.039   1.144
 5615SOL    HW217745   1.687   0.962   1.038
 5616SOL     OW17746   1.871   0.968   4.384
 5616SOL    HW117747   1.916   1.021   4.313
 5616SOL    HW217748   1.832   0.885   4.344
 5617SOL     OW17749   2.005   0.725   5.068
 5617SOL    HW117750   2.057   0.758   4.990
 5617SOL    HW217751   2.024   0.782   5.148
 5618SOL     OW17752   0.376   4.159   3.250
 5618SOL    HW117753   0.413   4.239   3.298
 5618SOL    HW217754   0.291   4.184   3.204
 5619SOL     OW17755   2.315   3.573   5.283
 5619SOL    HW117756   2.290   3.476   5.285
 5619SOL    HW217757   2.262   3.619   5.211
 5620SOL     OW17758   3.429   1.724   6.271
 5620SOL    HW117759   3.504   1.759   6.215
 5620SOL    HW217760   3.406   1.791   6.342
 5621SOL     OW17761   2.429   2.476   5.606
 5621SOL    HW117762   2.386   2.486   5.696
 5621SOL    HW217763   2.527   2.457   5.618
 5622SOL     OW17764   6.192   0.451   5.999
 5622SOL    HW117765   6.188   0.356   5.966
 5622SOL    HW217766   6.139   0.509   5.937
 5623SOL     OW17767   0.881   6.029   0.244
 5623SOL    HW117768   0.937   6.111   0.262
 5623SOL    HW217769   0.940   5.955   0.212
 5624SOL     OW17770   0.627   4.238   3.762
 5624SOL    HW117771   0.719   4.262   3.731
 5624SOL    HW217772   0.602   4.149   3.725
 5625SOL     OW17773   6.783   2.531   5.108
 5625SOL    HW117774   6.769   2.450   5.165
 5625SOL    HW217775   6.801   2.610   5.167
 5626SOL     OW17776   4.085   6.943   4.759
 5626SOL    HW117777   4.124   0.002   4.716
 5626SOL    HW217778   4.006   6.969   4.814
 5627SOL     OW17779   1.555   6.340   1.014
 5627SOL    HW117780   1.512   6.427   1.035
 5627SOL    HW217781   1.501   6.291   0.945
 5628SOL     OW17782   1.811   1.561   4.253
 5628SOL    HW117783   1.760   1.569   4.338
 5628SOL    HW217784   1.799   1.644   4.199
 5629SOL     OW17785   3.407   3.546   2.762
 5629SOL    HW117786   3.323   3.531   2.815
 5629SOL    HW217787   3.441   3.459   2.727
 5630SOL     OW17788   0.773   4.563   1.589
 5630SOL    HW117789   0.692   4.522   1.548
 5630SOL    HW217790   0.806   4.505   1.664
 5631SOL     OW17791   4.737   0.773   0.288
 5631SOL    HW117792   4.791   0.781   0.372
 5631SOL    HW217793   4.742   0.858   0.236
 5632SOL     OW17794   4.041   3.887   6.882
 5632SOL    HW117795   3.955   3.838   6.891
 5632SOL    HW217796   4.117   3.822   6.886
 5633SOL     OW17797   5.939   2.521   4.492
 5633SOL    HW117798   5.950   2.620   4.482
 5633SOL    HW217799   5.945   2.478   4.402
 5634SOL     OW17800   3.925   5.825   4.393
 5634SOL    HW117801   3.848   5.770   4.424
 5634SOL    HW217802   3.909   5.921   4.416
 5635SOL     OW17803   2.993   2.224   4.840
 5635SOL    HW117804   2.952   2.138   4.869
 5635SOL    HW217805   3.048   2.262   4.914
 5636SOL     OW17806   3.824   5.612   3.775
 5636SOL    HW117807   3.783   5.634   3.863
 5636SOL    HW217808   3.856   5.696   3.731
 5637SOL     OW17809   5.682   0.482   3.610
 5637SOL    HW117810   5.657   0.442   3.522
 5637SOL    HW217811   5.599   0.499   3.664
 5638SOL     OW17812   5.605   3.329   6.333
 5638SOL    HW117813   5.575   3.424   6.348
 5638SOL    HW217814   5.703   3.323   6.350
 5639SOL     OW17815   2.273   1.329   6.202
 5639SOL    HW117816   2.207   1.402   6.220
 5639SOL    HW217817   2.333   1.356   6.127
 5640SOL     OW17818   2.377   0.453   3.337
 5640SOL    HW117819   2.359   0.489   3.429
 5640SOL    HW217820   2.414   0.361   3.344
 5641SOL     OW17821   6.311   5.707   4.965
 5641SOL    HW117822   6.362   5.789   4.991
 5641SOL    HW217823   6.226   5.735   4.920
 5642SOL     OW17824   1.171   1.574   6.199
 5642SOL    HW117825   1.203   1.481   6.213
 5642SOL    HW217826   1.122   1.580   6.112
 5643SOL     OW17827   5.596   2.599   4.838
 5643SOL    HW117828   5.688   2.582   4.803
 5643SOL    HW217829   5.528   2.570   4.771
 5644SOL     OW17830   3.592   0.393   6.693
 5644SOL    HW117831   3.573   0.488   6.717
 5644SOL    HW217832   3.606   0.385   6.595
 5645SOL     OW17833   5.432   2.468   4.675
 5645SOL    HW117834   5.403   2.385   4.722
 5645SOL    HW217835   5.356   2.534   4.674
 5646SOL     OW17836   1.857   4.681   2.873
 5646SOL    HW117837   1.762   4.680   2.905
 5646SOL    HW217838   1.908   4.752   2.923
 5647SOL     OW17839   6.662   5.710   2.620
 5647SOL    HW117840   6.682   5.789   2.561
 5647SOL    HW217841   6.631   5.633   2.564
 5648SOL     OW17842   4.462   6.844   2.890
 5648SOL    HW117843   4.516   6.889   2.960
 5648SOL    HW217844   4.375   6.813   2.929
 5649SOL     OW17845   0.954   6.442   3.897
 5649SOL    HW117846   0.878   6.507   3.900
 5649SOL    HW217847   0.961   6.403   3.805
 5650SOL     OW17848   6.625   4.504   0.110
 5650SOL    HW117849   6.541   4.548   0.079
 5650SOL    HW217850   6.619   4.406   0.092
 5651SOL     OW17851   1.756   0.398   2.297
 5651SOL    HW117852   1.820   0.354   2.234
 5651SOL    HW217853   1.685   0.444   2.244
 5652SOL     OW17854   1.051   6.004   1.436
 5652SOL    HW117855   1.116   6.058   1.490
 5652SOL    HW217856   1.042   6.044   1.345
 5653SOL     OW17857   6.958   6.824   0.944
 5653SOL    HW117858   6.986   6.793   0.853
 5653SOL    HW217859   6.934   6.745   1.001
 5654SOL     OW17860   2.838   6.277   4.582
 5654SOL    HW117861   2.838   6.339   4.504
 5654SOL    HW217862   2.928   6.280   4.627
 5655SOL     OW17863   6.259   2.870   4.500
 5655SOL    HW117864   6.263   2.835   4.406
 5655SOL    HW217865   6.203   2.953   4.502
 5656SOL     OW17866   0.297   3.399   0.351
 5656SOL    HW117867   0.250   3.388   0.264
 5656SOL    HW217868   0.231   3.421   0.423
 5657SOL     OW17869   4.801   5.593   5.354
 5657SOL    HW117870   4.896   5.591   5.325
 5657SOL    HW217871   4.774   5.687   5.374
 5658SOL     OW17872   2.650   3.050   5.654
 5658SOL    HW117873   2.595   2.970   5.626
 5658SOL    HW217874   2.610   3.090   5.736
 5659SOL     OW17875   3.971   4.122   6.387
 5659SOL    HW117876   4.035   4.183   6.339
 5659SOL    HW217877   3.894   4.102   6.327
 5660SOL     OW17878   4.299   1.172   6.053
 5660SOL    HW117879   4.389   1.197   6.016
 5660SOL    HW217880   4.255   1.107   5.991
 5661SOL     OW17881   1.248   5.344   5.448
 5661SOL    HW117882   1.332   5.395   5.460
 5661SOL    HW217883   1.258   5.279   5.372
 5662SOL     OW17884   2.688   6.448   2.173
 5662SOL    HW117885   2.678   6.448   2.273
 5662SOL    HW217886   2.681   6.354   2.139
 5663SOL     OW17887   1.121   3.105   6.320
 5663SOL    HW117888   1.126   3.105   6.419
 5663SOL    HW217889   1.058   3.176   6.289
 5664SOL     OW17890   4.738   4.171   4.739
 5664SOL    HW117891   4.716   4.246   4.801
 5664SOL    HW217892   4.743   4.206   4.645
 5665SOL     OW17893   1.732   2.316   0.965
 5665SOL    HW117894   1.681   2.234   0.935
 5665SOL    HW217895   1.712   2.333   1.061
 5666SOL     OW17896   5.085   1.354   5.123
 5666SOL    HW117897   5.163   1.331   5.065
 5666SOL    HW217898   5.064   1.452   5.113
 5667SOL     OW17899   2.765   5.064   4.530
 5667SOL    HW117900   2.800   4.970   4.535
 5667SOL    HW217901   2.666   5.064   4.548
 5668SOL     OW17902   5.079   3.105   3.676
 5668SOL    HW117903   5.099   3.086   3.772
 5668SOL    HW217904   5.079   3.019   3.625
 5669SOL     OW17905   6.523   4.508   6.584
 5669SOL    HW117906   6.496   4.559   6.666
 5669SOL    HW217907   6.611   4.463   6.600
 5670SOL     OW17908   0.290   1.896   2.870
 5670SOL    HW117909   0.198   1.932   2.884
 5670SOL    HW217910   0.283   1.804   2.830
 5671SOL     OW17911   0.060   6.642   3.440
 5671SOL    HW117912   7.019   6.589   3.384
 5671SOL    HW217913   0.064   6.603   3.532
 5672SOL     OW17914   4.663   2.923   5.424
 5672SOL    HW117915   4.579   2.911   5.371
 5672SOL    HW217916   4.693   2.834   5.459
 5673SOL     OW17917   0.518   1.087   1.230
 5673SOL    HW117918   0.617   1.082   1.222
 5673SOL    HW217919   0.477   1.006   1.188
 5674SOL     OW17920   2.250   5.318   5.904
 5674SOL    HW117921   2.189   5.362   5.839
 5674SOL    HW217922   2.274   5.382   5.977
 5675SOL     OW17923   2.887   1.965   0.800
 5675SOL    HW117924   2.860   1.872   0.826
 5675SOL    HW217925   2.984   1.965   0.777
 5676SOL     OW17926   2.581   1.988   2.097
 5676SOL    HW117927   2.658   1.928   2.074
 5676SOL    HW217928   2.531   2.012   2.013
 5677SOL     OW17929   6.543   1.241   1.088
 5677SOL    HW117930   6.559   1.207   0.995
 5677SOL    HW217931   6.471   1.311   1.085
 5678SOL     OW17932   3.247   2.069   1.958
 5678SOL    HW117933   3.151   2.085   1.938
 5678SOL    HW217934   3.267   2.099   2.052
 5679SOL     OW17935   6.367   3.583   5.314
 5679SOL    HW117936   6.392   3.493   5.278
 5679SOL    HW217937   6.286   3.575   5.371
 5680SOL     OW17938   1.458   5.876   5.216
 5680SOL    HW117939   1.532   5.845   5.277
 5680SOL    HW217940   1.371   5.875   5.266
 5681SOL     OW17941   1.180   3.555   4.235
 5681SOL    HW117942   1.145   3.483   4.294
 5681SOL    HW217943   1.160   3.644   4.277
 5682SOL     OW17944   1.980   4.382   2.234
 5682SOL    HW117945   1.948   4.339   2.319
 5682SOL    HW217946   1.903   4.429   2.190
 5683SOL     OW17947   6.677   1.329   6.312
 5683SOL    HW117948   6.745   1.345   6.240
 5683SOL    HW217949   6.640   1.417   6.343
 5684SOL     OW17950   2.116   2.591   5.246
 5684SOL    HW117951   2.048   2.546   5.188
 5684SOL    HW217952   2.139   2.680   5.207
 5685SOL     OW17953   2.259   1.945   2.805
 5685SOL    HW117954   2.268   1.986   2.895
 5685SOL    HW217955   2.322   1.990   2.741
 5686SOL     OW17956   3.647   5.480   6.079
 5686SOL    HW117957   3.675   5.391   6.117
 5686SOL    HW217958   3.569   5.466   6.018
 5687SOL     OW17959   1.955   6.262   6.791
 5687SOL    HW117960   2.032   6.325   6.808
 5687SOL    HW217961   1.874   6.316   6.768
 5688SOL     OW17962   2.269   2.443   3.278
 5688SOL    HW117963   2.328   2.511   3.236
 5688SOL    HW217964   2.238   2.378   3.209
 5689SOL     OW17965   0.837   2.888   1.424
 5689SOL    HW117966   0.856   2.838   1.508
 5689SOL    HW217967   0.910   2.873   1.358
 5690SOL     OW17968   1.732   5.285   0.497
 5690SOL    HW117969   1.692   5.317   0.582
 5690SOL    HW217970   1.701   5.343   0.421
 5691SOL     OW17971   3.426   1.087   2.469
 5691SOL    HW117972   3.515   1.132   2.455
 5691SOL    HW217973   3.359   1.155   2.499
 5692SOL     OW17974   4.549   4.924   1.572
 5692SOL    HW117975   4.637   4.889   1.538
 5692SOL    HW217976   4.550   4.923   1.672
 5693SOL     OW17977   4.442   0.709   1.041
 5693SOL    HW117978   4.510   0.687   0.971
 5693SOL    HW217979   4.475   0.677   1.130
 5694SOL     OW17980   0.910   6.333   1.422
 5694SOL    HW117981   0.971   6.310   1.346
 5694SOL    HW217982   0.849   6.256   1.440
 5695SOL     OW17983   1.735   0.125   1.292
 5695SOL    HW117984   1.660   0.104   1.229
 5695SOL    HW217985   1.768   0.041   1.334
 5696SOL     OW17986   1.599   0.421   3.811
 5696SOL    HW117987   1.565   0.335   3.851
 5696SOL    HW217988   1.600   0.492   3.882
 5697SOL     OW17989   6.668   2.915   0.545
 5697SOL    HW117990   6.635   2.991   0.489
 5697SOL    HW217991   6.751   2.943   0.593
 5698SOL     OW17992   2.681   2.277   3.719
 5698SOL    HW117993   2.610   2.309   3.781
 5698SOL    HW217994   2.650   2.194   3.674
 5699SOL     OW17995   1.899   2.718   3.000
 5699SOL    HW117996   1.828   2.689   2.937
 5699SOL    HW217997   1.885   2.813   3.026
 5700SOL     OW17998   6.277   0.506   3.014
 5700SOL    HW117999   6.239   0.560   3.089
 5700SOL    HW218000   6.214   0.509   2.936
 5701SOL     OW18001   0.156   1.060   1.293
 5701SOL    HW118002   0.235   1.018   1.247
 5701SOL    HW218003   0.188   1.115   1.370
 5702SOL     OW18004   2.512   6.843   4.269
 5702SOL    HW118005   2.514   6.936   4.307
 5702SOL    HW218006   2.422   6.802   4.284
 5703SOL     OW18007   6.946   2.755   6.263
 5703SOL    HW118008   6.906   2.810   6.336
 5703SOL    HW218009   6.977   2.667   6.300
 5704SOL     OW18010   4.649   4.806   4.039
 5704SOL    HW118011   4.635   4.903   4.016
 5704SOL    HW218012   4.644   4.794   4.138
 5705SOL     OW18013   5.943   6.896   5.095
 5705SOL    HW118014   5.867   6.950   5.131
 5705SOL    HW218015   6.009   6.957   5.050
 5706SOL     OW18016   5.180   2.026   0.103
 5706SOL    HW118017   5.203   2.091   0.176
 5706SOL    HW218018   5.257   1.964   0.089
 5707SOL     OW18019   5.468   5.554   2.240
 5707SOL    HW118020   5.433   5.643   2.210
 5707SOL    HW218021   5.406   5.482   2.209
 5708SOL     OW18022   4.390   5.678   2.893
 5708SOL    HW118023   4.476   5.644   2.854
 5708SOL    HW218024   4.361   5.760   2.844
 5709SOL     OW18025   0.157   1.695   2.194
 5709SOL    HW118026   0.124   1.723   2.104
 5709SOL    HW218027   0.096   1.731   2.264
 5710SOL     OW18028   3.345   1.929   1.340
 5710SOL    HW118029   3.404   1.960   1.414
 5710SOL    HW218030   3.301   2.008   1.297
 5711SOL     OW18031   5.298   1.552   2.085
 5711SOL    HW118032   5.350   1.532   2.168
 5711SOL    HW218033   5.353   1.608   2.023
 5712SOL     OW18034   6.062   0.042   1.193
 5712SOL    HW118035   6.069   0.141   1.180
 5712SOL    HW218036   6.083   7.019   1.107
 5713SOL     OW18037   2.301   6.987   0.650
 5713SOL    HW118038   2.279   0.059   0.625
 5713SOL    HW218039   2.368   6.987   0.724
 5714SOL     OW18040   6.351   0.074   1.118
 5714SOL    HW118041   6.436   0.051   1.070
 5714SOL    HW218042   6.356   0.167   1.153
 5715SOL     OW18043   6.942   0.446   1.462
 5715SOL    HW118044   0.007   0.486   1.437
 5715SOL    HW218045   6.953   0.348   1.476
 5716SOL     OW18046   6.667   5.006   5.234
 5716SOL    HW118047   6.600   5.077   5.215
 5716SOL    HW218048   6.660   4.979   5.331
 5717SOL     OW18049   1.335   5.245   3.251
 5717SOL    HW118050   1.379   5.198   3.176
 5717SOL    HW218051   1.238   5.221   3.253
 5718SOL     OW18052   0.917   3.065   0.113
 5718SOL    HW118053   0.987   3.134   0.131
 5718SOL    HW218054   0.922   3.036   0.018
 5719SOL     OW18055   2.295   3.208   0.800
 5719SOL    HW118056   2.321   3.300   0.828
 5719SOL    HW218057   2.196   3.195   0.815
 5720SOL     OW18058   2.611   4.604   6.457
 5720SOL    HW118059   2.608   4.508   6.483
 5720SOL    HW218060   2.587   4.613   6.360
 5721SOL     OW18061   2.508   3.454   0.529
 5721SOL    HW118062   2.564   3.507   0.466
 5721SOL    HW218063   2.559   3.438   0.614
 5722SOL     OW18064   1.428   1.032   6.115
 5722SOL    HW118065   1.433   1.116   6.170
 5722SOL    HW218066   1.339   1.026   6.071
 5723SOL     OW18067   3.925   3.490   0.670
 5723SOL    HW118068   3.952   3.446   0.756
 5723SOL    HW218069   4.006   3.526   0.624
 5724SOL     OW18070   5.447   2.207   4.975
 5724SOL    HW118071   5.389   2.215   4.894
 5724SOL    HW218072   5.391   2.176   5.052
 5725SOL     OW18073   6.943   4.237   4.728
 5725SOL    HW118074   6.933   4.177   4.648
 5725SOL    HW218075   0.008   4.284   4.723
 5726SOL     OW18076   5.497   4.268   2.579
 5726SOL    HW118077   5.430   4.305   2.515
 5726SOL    HW218078   5.453   4.200   2.638
 5727SOL     OW18079   0.531   1.804   5.001
 5727SOL    HW118080   0.573   1.850   5.079
 5727SOL    HW218081   0.508   1.872   4.931
 5728SOL     OW18082   4.483   6.671   5.260
 5728SOL    HW118083   4.417   6.721   5.204
 5728SOL    HW218084   4.438   6.591   5.300
 5729SOL     OW18085   2.113   2.172   5.349
 5729SOL    HW118086   2.120   2.251   5.410
 5729SOL    HW218087   2.104   2.203   5.255
 5730SOL     OW18088   0.112   3.796   4.846
 5730SOL    HW118089   0.026   3.762   4.807
 5730SOL    HW218090   0.181   3.724   4.843
 5731SOL     OW18091   0.299   6.582   2.314
 5731SOL    HW118092   0.321   6.665   2.263
 5731SOL    HW218093   0.305   6.503   2.253
 5732SOL     OW18094   0.866   6.927   3.474
 5732SOL    HW118095   0.808   6.966   3.546
 5732SOL    HW218096   0.813   6.864   3.418
 5733SOL     OW18097   3.213   0.265   5.757
 5733SOL    HW118098   3.161   0.344   5.725
 5733SOL    HW218099   3.210   0.261   5.857
 5734SOL     OW18100   1.983   6.085   3.475
 5734SOL    HW118101   2.031   6.038   3.401
 5734SOL    HW218102   2.042   6.089   3.556
 5735SOL     OW18103   2.885   1.000   1.406
 5735SOL    HW118104   2.911   1.095   1.419
 5735SOL    HW218105   2.794   0.995   1.363
 5736SOL     OW18106   1.189   5.001   6.516
 5736SOL    HW118107   1.141   4.926   6.561
 5736SOL    HW218108   1.283   4.973   6.495
 5737SOL     OW18109   5.359   4.584   0.846
 5737SOL    HW118110   5.332   4.667   0.894
 5737SOL    HW218111   5.445   4.549   0.883
 5738SOL     OW18112   1.403   4.087   5.825
 5738SOL    HW118113   1.345   4.008   5.806
 5738SOL    HW218114   1.346   4.166   5.850
 5739SOL     OW18115   0.738   1.588   1.521
 5739SOL    HW118116   0.688   1.674   1.514
 5739SOL    HW218117   0.817   1.600   1.581
 5740SOL     OW18118   3.769   5.887   6.026
 5740SOL    HW118119   3.783   5.794   5.995
 5740SOL    HW218120   3.800   5.951   5.956
 5741SOL     OW18121   0.091   4.707   3.280
 5741SOL    HW118122   0.044   4.734   3.196
 5741SOL    HW218123   0.046   4.625   3.318
 5742SOL     OW18124   6.987   6.335   4.537
 5742SOL    HW118125   0.045   6.278   4.551
 5742SOL    HW218126   6.911   6.300   4.592
 5743SOL     OW18127   2.075   6.877   4.641
 5743SOL    HW118128   2.171   6.873   4.670
 5743SOL    HW218129   2.017   6.838   4.712
 5744SOL     OW18130   5.305   6.457   1.744
 5744SOL    HW118131   5.387   6.511   1.723
 5744SOL    HW218132   5.302   6.378   1.683
 5745SOL     OW18133   1.137   1.819   3.724
 5745SOL    HW118134   1.201   1.889   3.755
 5745SOL    HW218135   1.176   1.771   3.644
 5746SOL     OW18136   6.335   4.312   0.253
 5746SOL    HW118137   6.290   4.358   0.329
 5746SOL    HW218138   6.357   4.218   0.279
 5747SOL     OW18139   0.705   6.153   2.666
 5747SOL    HW118140   0.666   6.227   2.720
 5747SOL    HW218141   0.666   6.066   2.696
 5748SOL     OW18142   2.277   6.716   3.234
 5748SOL    HW118143   2.289   6.650   3.308
 5748SOL    HW218144   2.315   6.678   3.150
 5749SOL     OW18145   1.951   2.138   3.298
 5749SOL    HW118146   1.882   2.100   3.236
 5749SOL    HW218147   2.035   2.085   3.290
 5750SOL     OW18148   6.572   5.481   2.524
 5750SOL    HW118149   6.473   5.488   2.506
 5750SOL    HW218150   6.591   5.393   2.568
 5751SOL     OW18151   2.327   2.811   6.047
 5751SOL    HW118152   2.380   2.827   6.130
 5751SOL    HW218153   2.346   2.719   6.012
 5752SOL     OW18154   6.631   1.018   6.934
 5752SOL    HW118155   6.653   1.113   6.917
 5752SOL    HW218156   6.623   1.002   0.010
 5753SOL     OW18157   4.169   2.500   0.353
 5753SOL    HW118158   4.099   2.471   0.288
 5753SOL    HW218159   4.126   2.522   0.441
 5754SOL     OW18160   6.140   4.540   1.163
 5754SOL    HW118161   6.192   4.541   1.248
 5754SOL    HW218162   6.120   4.446   1.137
 5755SOL     OW18163   3.546   3.779   1.425
 5755SOL    HW118164   3.503   3.689   1.418
 5755SOL    HW218165   3.545   3.809   1.520
 5756SOL     OW18166   0.266   6.250   4.178
 5756SOL    HW118167   0.355   6.213   4.204
 5756SOL    HW218168   0.255   6.245   4.079
 5757SOL     OW18169   0.629   5.478   1.685
 5757SOL    HW118170   0.560   5.464   1.756
 5757SOL    HW218171   0.663   5.571   1.689
 5758SOL     OW18172   1.392   1.614   5.316
 5758SOL    HW118173   1.348   1.683   5.373
 5758SOL    HW218174   1.481   1.590   5.355
 5759SOL     OW18175   5.938   1.777   5.199
 5759SOL    HW118176   5.920   1.873   5.179
 5759SOL    HW218177   5.866   1.740   5.258
 5760SOL     OW18178   1.906   5.396   1.507
 5760SOL    HW118179   2.003   5.418   1.508
 5760SOL    HW218180   1.867   5.424   1.419
 5761SOL     OW18181   5.225   0.645   5.250
 5761SOL    HW118182   5.244   0.719   5.185
 5761SOL    HW218183   5.298   0.577   5.245
 5762SOL     OW18184   5.699   6.131   1.346
 5762SOL    HW118185   5.662   6.121   1.254
 5762SOL    HW218186   5.635   6.184   1.402
 5763SOL     OW18187   1.644   1.903   1.176
 5763SOL    HW118188   1.596   1.979   1.220
 5763SOL    HW218189   1.723   1.937   1.127
 5764SOL     OW18190   4.695   3.164   5.669
 5764SOL    HW118191   4.644   3.079   5.679
 5764SOL    HW218192   4.711   3.182   5.572
 5765SOL     OW18193   5.815   4.718   0.421
 5765SOL    HW118194   5.893   4.712   0.359
 5765SOL    HW218195   5.763   4.632   0.417
 5766SOL     OW18196   2.673   1.036   3.406
 5766SOL    HW118197   2.765   1.070   3.422
 5766SOL    HW218198   2.627   1.020   3.493
 5767SOL     OW18199   6.567   6.990   0.958
 5767SOL    HW118200   6.581   6.900   0.915
 5767SOL    HW218201   6.609   0.038   0.901
 5768SOL     OW18202   6.361   0.646   2.602
 5768SOL    HW118203   6.390   0.556   2.634
 5768SOL    HW218204   6.315   0.636   2.514
 5769SOL     OW18205   2.086   5.985   3.209
 5769SOL    HW118206   2.026   5.920   3.161
 5769SOL    HW218207   2.177   5.945   3.219
 5770SOL     OW18208   6.381   0.975   1.669
 5770SOL    HW118209   6.349   1.046   1.607
 5770SOL    HW218210   6.438   0.910   1.619
 5771SOL     OW18211   0.579   1.566   1.940
 5771SOL    HW118212   0.592   1.504   2.018
 5771SOL    HW218213   0.667   1.599   1.908
 5772SOL     OW18214   0.046   4.396   6.822
 5772SOL    HW118215   0.064   4.389   6.724
 5772SOL    HW218216   6.970   4.390   6.838
 5773SOL     OW18217   5.543   5.899   4.602
 5773SOL    HW118218   5.549   5.808   4.561
 5773SOL    HW218219   5.574   5.967   4.536
 5774SOL     OW18220   2.874   4.747   2.649
 5774SOL    HW118221   2.951   4.791   2.696
 5774SOL    HW218222   2.890   4.750   2.550
 5775SOL     OW18223   0.723   0.610   0.303
 5775SOL    HW118224   0.760   0.524   0.267
 5775SOL    HW218225   0.625   0.614   0.283
 5776SOL     OW18226   5.372   1.167   6.094
 5776SOL    HW118227   5.470   1.166   6.072
 5776SOL    HW218228   5.347   1.258   6.128
 5777SOL     OW18229   6.073   0.628   5.394
 5777SOL    HW118230   6.089   0.529   5.392
 5777SOL    HW218231   6.040   0.658   5.305
 5778SOL     OW18232   2.129   0.134   3.779
 5778SOL    HW118233   2.152   0.208   3.717
 5778SOL    HW218234   2.168   0.152   3.869
 5779SOL     OW18235   4.221   0.695   1.909
 5779SOL    HW118236   4.156   0.722   1.838
 5779SOL    HW218237   4.188   0.726   1.998
 5780SOL     OW18238   6.079   3.668   1.671
 5780SOL    HW118239   6.114   3.576   1.689
 5780SOL    HW218240   6.062   3.679   1.573
 5781SOL     OW18241   2.567   4.875   5.003
 5781SOL    HW118242   2.563   4.785   5.047
 5781SOL    HW218243   2.609   4.866   4.913
 5782SOL     OW18244   3.409   1.296   3.205
 5782SOL    HW118245   3.377   1.281   3.112
 5782SOL    HW218246   3.506   1.318   3.204
 5783SOL     OW18247   2.495   6.512   1.312
 5783SOL    HW118248   2.405   6.486   1.276
 5783SOL    HW218249   2.557   6.533   1.236
 5784SOL     OW18250   1.703   5.779   0.151
 5784SOL    HW118251   1.664   5.687   0.158
 5784SOL    HW218252   1.631   5.847   0.159
 5785SOL     OW18253   2.294   1.246   0.390
 5785SOL    HW118254   2.197   1.229   0.374
 5785SOL    HW218255   2.348   1.179   0.340
 5786SOL     OW18256   0.886   3.431   0.056
 5786SOL    HW118257   0.903   3.411   0.152
 5786SOL    HW218258   0.946   3.375   7.022
 5787SOL     OW18259   0.332   3.236   5.327
 5787SOL    HW118260   0.395   3.207   5.255
 5787SOL    HW218261   0.238   3.216   5.300
 5788SOL     OW18262   1.939   2.639   2.162
 5788SOL    HW118263   1.968   2.598   2.075
 5788SOL    HW218264   1.857   2.591   2.195
 5789SOL     OW18265   2.826   5.212   0.166
 5789SOL    HW118266   2.758   5.169   0.226
 5789SOL    HW218267   2.912   5.162   0.172
 5790SOL     OW18268   6.558   6.437   3.186
 5790SOL    HW118269   6.505   6.473   3.110
 5790SOL    HW218270   6.505   6.446   3.271
 5791SOL     OW18271   4.104   1.678   1.434
 5791SOL    HW118272   4.168   1.755   1.436
 5791SOL    HW218273   4.126   1.615   1.508
 5792SOL     OW18274   4.116   2.272   3.208
 5792SOL    HW118275   4.107   2.260   3.109
 5792SOL    HW218276   4.212   2.261   3.235
 5793SOL     OW18277   3.800   2.693   6.698
 5793SOL    HW118278   3.808   2.704   6.798
 5793SOL    HW218279   3.879   2.644   6.663
 5794SOL     OW18280   3.475   6.190   0.134
 5794SOL    HW118281   3.379   6.163   0.128
 5794SOL    HW218282   3.489   6.248   0.214
 5795SOL     OW18283   2.070   6.943   1.588
 5795SOL    HW118284   2.100   0.015   1.589
 5795SOL    HW218285   2.149   6.882   1.589
 5796SOL     OW18286   5.003   0.732   6.747
 5796SOL    HW118287   5.067   0.697   6.816
 5796SOL    HW218288   5.053   0.758   6.665
 5797SOL     OW18289   0.026   2.819   0.573
 5797SOL    HW118290   0.021   2.815   0.473
 5797SOL    HW218291   0.046   2.728   0.610
 5798SOL     OW18292   1.635   3.433   4.331
 5798SOL    HW118293   1.564   3.371   4.298
 5798SOL    HW218294   1.724   3.387   4.326
 5799SOL     OW18295   2.976   0.175   3.543
 5799SOL    HW118296   3.053   0.193   3.483
 5799SOL    HW218297   3.004   0.187   3.638
 5800SOL     OW18298   1.142   0.248   1.849
 5800SOL    HW118299   1.234   0.210   1.851
 5800SOL    HW218300   1.126   0.291   1.760
 5801SOL     OW18301   1.469   1.486   2.325
 5801SOL    HW118302   1.424   1.550   2.262
 5801SOL    HW218303   1.567   1.507   2.329
 5802SOL     OW18304   0.421   0.358   2.918
 5802SOL    HW118305   0.389   0.275   2.964
 5802SOL    HW218306   0.494   0.400   2.972
 5803SOL     OW18307   0.458   5.885   4.594
 5803SOL    HW118308   0.455   5.786   4.579
 5803SOL    HW218309   0.502   5.929   4.516
 5804SOL     OW18310   5.589   2.390   3.153
 5804SOL    HW118311   5.498   2.384   3.193
 5804SOL    HW218312   5.604   2.313   3.091
 5805SOL     OW18313   1.169   3.131   2.292
 5805SOL    HW118314   1.077   3.151   2.327
 5805SOL    HW218315   1.231   3.117   2.369
 5806SOL     OW18316   6.842   3.955   2.626
 5806SOL    HW118317   6.790   4.040   2.633
 5806SOL    HW218318   6.888   3.951   2.538
 5807SOL     OW18319   1.298   1.279   2.242
 5807SOL    HW118320   1.347   1.360   2.273
 5807SOL    HW218321   1.263   1.228   2.321
 5808SOL     OW18322   6.992   0.558   5.928
 5808SOL    HW118323   6.998   0.631   5.996
 5808SOL    HW218324   6.920   0.494   5.954
 5809SOL     OW18325   0.167   2.497   4.783
 5809SOL    HW118326   0.095   2.482   4.850
 5809SOL    HW218327   0.139   2.459   4.695
 5810SOL     OW18328   2.752   6.432   5.286
 5810SOL    HW118329   2.773   6.474   5.374
 5810SOL    HW218330   2.796   6.483   5.213
 5811SOL     OW18331   3.911   4.238   6.668
 5811SOL    HW118332   3.901   4.191   6.580
 5811SOL    HW218333   3.820   4.265   6.702
 5812SOL     OW18334   5.851   2.917   6.424
 5812SOL    HW118335   5.939   2.937   6.468
 5812SOL    HW218336   5.840   2.818   6.416
 5813SOL     OW18337   5.192   5.242   0.590
 5813SOL    HW118338   5.159   5.165   0.536
 5813SOL    HW218339   5.259   5.211   0.657
 5814SOL     OW18340   5.933   1.120   1.866
 5814SOL    HW118341   5.836   1.097   1.860
 5814SOL    HW218342   5.973   1.074   1.945
 5815SOL     OW18343   6.136   3.295   4.324
 5815SOL    HW118344   6.136   3.356   4.404
 5815SOL    HW218345   6.227   3.257   4.312
 5816SOL     OW18346   0.325   3.882   2.216
 5816SOL    HW118347   0.267   3.804   2.190
 5816SOL    HW218348   0.268   3.963   2.226
 5817SOL     OW18349   6.068   3.479   3.072
 5817SOL    HW118350   6.003   3.414   3.110
 5817SOL    HW218351   6.087   3.455   2.976
 5818SOL     OW18352   2.411   0.141   4.898
 5818SOL    HW118353   2.327   0.125   4.950
 5818SOL    HW218354   2.395   0.121   4.801
 5819SOL     OW18355   3.761   3.852   0.408
 5819SOL    HW118356   3.724   3.941   0.434
 5819SOL    HW218357   3.713   3.780   0.458
 5820SOL     OW18358   6.113   6.959   2.611
 5820SOL    HW118359   6.179   6.884   2.615
 5820SOL    HW218360   6.155   0.014   2.564
 5821SOL     OW18361   6.732   6.923   1.865
 5821SOL    HW118362   6.668   6.981   1.816
 5821SOL    HW218363   6.687   6.885   1.946
 5822SOL     OW18364   1.091   4.092   2.489
 5822SOL    HW118365   1.006   4.136   2.461
 5822SOL    HW218366   1.136   4.148   2.558
 5823SOL     OW18367   2.285   6.745   3.902
 5823SOL    HW118368   2.339   6.709   3.826
 5823SOL    HW218369   2.336   6.817   3.948
 5824SOL     OW18370   1.770   6.851   2.403
 5824SOL    HW118371   1.758   6.766   2.454
 5824SOL    HW218372   1.827   6.834   2.323
 5825SOL     OW18373   4.900   1.492   3.903
 5825SOL    HW118374   4.999   1.488   3.911
 5825SOL    HW218375   4.864   1.400   3.884
 5826SOL     OW18376   1.418   6.657   5.047
 5826SOL    HW118377   1.347   6.635   5.115
 5826SOL    HW218378   1.491   6.589   5.052
 5827SOL     OW18379   2.089   3.846   3.690
 5827SOL    HW118380   2.123   3.928   3.644
 5827SOL    HW218381   2.026   3.797   3.629
 5828SOL     OW18382   4.604   0.594   5.641
 5828SOL    HW118383   4.610   0.679   5.693
 5828SOL    HW218384   4.660   0.601   5.558
 5829SOL     OW18385   2.007   0.639   3.084
 5829SOL    HW118386   1.955   0.647   3.169
 5829SOL    HW218387   1.950   0.597   3.013
 5830SOL     OW18388   3.896   5.272   4.183
 5830SOL    HW118389   3.908   5.183   4.138
 5830SOL    HW218390   3.815   5.269   4.242
 5831SOL     OW18391   2.151   2.287   5.102
 5831SOL    HW118392   2.136   2.385   5.115
 5831SOL    HW218393   2.249   2.269   5.093
 5832SOL     OW18394   3.136   5.526   2.176
 5832SOL    HW118395   3.094   5.435   2.181
 5832SOL    HW218396   3.235   5.518   2.190
 5833SOL     OW18397   3.957   5.603   0.021
 5833SOL    HW118398   3.995   5.632   0.108
 5833SOL    HW218399   3.857   5.598   0.028
 5834SOL     OW18400   6.489   3.408   5.967
 5834SOL    HW118401   6.455   3.493   6.007
 5834SOL    HW218402   6.553   3.428   5.893
 5835SOL     OW18403   4.585   1.908   3.243
 5835SOL    HW118404   4.514   1.974   3.269
 5835SOL    HW218405   4.544   1.817   3.236
 5836SOL     OW18406   4.968   6.145   1.920
 5836SOL    HW118407   4.902   6.081   1.879
 5836SOL    HW218408   5.004   6.106   2.004
 5837SOL     OW18409   3.009   4.748   6.649
 5837SOL    HW118410   3.054   4.756   6.560
 5837SOL    HW218411   3.039   4.663   6.693
 5838SOL     OW18412   4.229   3.145   0.304
 5838SOL    HW118413   4.303   3.212   0.315
 5838SOL    HW218414   4.154   3.169   0.365
 5839SOL     OW18415   2.011   2.517   0.657
 5839SOL    HW118416   1.929   2.462   0.675
 5839SOL    HW218417   2.069   2.518   0.738
 5840SOL     OW18418   0.551   3.866   3.768
 5840SOL    HW118419   0.577   3.833   3.678
 5840SOL    HW218420   0.465   3.916   3.763
 5841SOL     OW18421   5.339   1.457   0.398
 5841SOL    HW118422   5.413   1.403   0.436
 5841SOL    HW218423   5.313   1.421   0.308
 5842SOL     OW18424   3.060   1.572   1.433
 5842SOL    HW118425   3.102   1.582   1.523
 5842SOL    HW218426   2.965   1.540   1.444
 5843SOL     OW18427   3.663   3.329   7.018
 5843SOL    HW118428   3.733   3.258   7.013
 5843SOL    HW218429   3.575   3.287   0.016
 5844SOL     OW18430   0.575   5.932   5.252
 5844SOL    HW118431   0.582   6.006   5.318
 5844SOL    HW218432   0.534   5.966   5.167
 5845SOL     OW18433   1.483   6.987   2.830
 5845SOL    HW118434   1.441   0.019   2.759
 5845SOL    HW218435   1.543   0.021   2.886
 5846SOL     OW18436   1.011   4.367   5.117
 5846SOL    HW118437   0.934   4.344   5.057
 5846SOL    HW218438   1.097   4.359   5.066
 5847SOL     OW18439   1.606   3.855   6.231
 5847SOL    HW118440   1.664   3.813   6.160
 5847SOL    HW218441   1.531   3.904   6.188
 5848SOL     OW18442   1.998   5.776   2.087
 5848SOL    HW118443   2.089   5.744   2.112
 5848SOL    HW218444   1.969   5.731   2.002
 5849SOL     OW18445   2.595   5.387   6.172
 5849SOL    HW118446   2.522   5.318   6.183
 5849SOL    HW218447   2.655   5.384   6.252
 5850SOL     OW18448   0.480   1.896   1.722
 5850SOL    HW118449   0.504   1.892   1.819
 5850SOL    HW218450   0.423   1.817   1.699
 5851SOL     OW18451   6.352   3.672   4.744
 5851SOL    HW118452   6.274   3.661   4.806
 5851SOL    HW218453   6.327   3.732   4.669
 5852SOL     OW18454   4.851   4.324   2.351
 5852SOL    HW118455   4.852   4.226   2.334
 5852SOL    HW218456   4.756   4.355   2.362
 5853SOL     OW18457   4.697   4.754   6.250
 5853SOL    HW118458   4.764   4.824   6.227
 5853SOL    HW218459   4.622   4.795   6.302
 5854SOL     OW18460   3.307   4.882   5.101
 5854SOL    HW118461   3.223   4.923   5.137
 5854SOL    HW218462   3.317   4.789   5.137
 5855SOL     OW18463   2.477   2.618   3.202
 5855SOL    HW118464   2.537   2.553   3.248
 5855SOL    HW218465   2.429   2.674   3.271
 5856SOL     OW18466   0.870   6.416   3.039
 5856SOL    HW118467   0.779   6.437   3.075
 5856SOL    HW218468   0.935   6.409   3.114
 5857SOL     OW18469   5.609   4.753   6.545
 5857SOL    HW118470   5.546   4.676   6.553
 5857SOL    HW218471   5.702   4.719   6.536
 5858SOL     OW18472   1.811   1.243   2.779
 5858SOL    HW118473   1.794   1.243   2.878
 5858SOL    HW218474   1.860   1.159   2.754
 5859SOL     OW18475   5.700   5.377   2.240
 5859SOL    HW118476   5.632   5.448   2.256
 5859SOL    HW218477   5.764   5.408   2.170
 5860SOL     OW18478   0.415   4.100   2.826
 5860SOL    HW118479   0.436   4.135   2.734
 5860SOL    HW218480   0.433   4.002   2.829
 5861SOL     OW18481   4.680   0.814   5.787
 5861SOL    HW118482   4.774   0.831   5.817
 5861SOL    HW218483   4.658   0.876   5.711
 5862SOL     OW18484   6.528   4.950   3.398
 5862SOL    HW118485   6.564   4.941   3.491
 5862SOL    HW218486   6.431   4.973   3.402
 5863SOL     OW18487   4.061   6.990   6.537
 5863SOL    HW118488   4.115   0.046   6.509
 5863SOL    HW218489   4.105   6.946   6.616
 5864SOL     OW18490   3.357   3.575   2.497
 5864SOL    HW118491   3.395   3.573   2.590
 5864SOL    HW218492   3.344   3.482   2.465
 5865SOL     OW18493   6.677   0.616   6.754
 5865SOL    HW118494   6.594   0.604   6.808
 5865SOL    HW218495   6.673   0.704   6.706
 5866SOL     OW18496   3.186   3.105   2.666
 5866SOL    HW118497   3.102   3.117   2.613
 5866SOL    HW218498   3.176   3.150   2.755
 5867SOL     OW18499   3.657   1.570   1.544
 5867SOL    HW118500   3.706   1.631   1.481
 5867SOL    HW218501   3.721   1.503   1.581
 5868SOL     OW18502   1.089   0.787   0.481
 5868SOL    HW118503   0.992   0.767   0.488
 5868SOL    HW218504   1.136   0.708   0.441
 5869SOL     OW18505   1.323   5.803   3.291
 5869SOL    HW118506   1.404   5.807   3.350
 5869SOL    HW218507   1.285   5.711   3.293
 5870SOL     OW18508   3.930   6.497   3.992
 5870SOL    HW118509   3.875   6.578   3.969
 5870SOL    HW218510   3.868   6.421   4.016
 5871SOL     OW18511   3.539   3.015   3.489
 5871SOL    HW118512   3.450   2.971   3.498
 5871SOL    HW218513   3.538   3.102   3.539
 5872SOL     OW18514   4.465   6.344   0.343
 5872SOL    HW118515   4.411   6.305   0.418
 5872SOL    HW218516   4.421   6.323   0.256
 5873SOL     OW18517   4.011   6.161   2.077
 5873SOL    HW118518   4.058   6.185   1.992
 5873SOL    HW218519   3.934   6.223   2.091
 5874SOL     OW18520   0.820   4.104   5.694
 5874SOL    HW118521   0.771   4.137   5.613
 5874SOL    HW218522   0.890   4.171   5.720
 5875SOL     OW18523   3.901   1.896   1.471
 5875SOL    HW118524   3.841   1.926   1.397
 5875SOL    HW218525   3.938   1.806   1.450
 5876SOL     OW18526   3.502   3.464   1.961
 5876SOL    HW118527   3.445   3.539   1.927
 5876SOL    HW218528   3.444   3.386   1.984
 5877SOL     OW18529   5.677   4.581   1.238
 5877SOL    HW118530   5.735   4.500   1.229
 5877SOL    HW218531   5.713   4.654   1.181
 5878SOL     OW18532   1.902   3.984   2.659
 5878SOL    HW118533   1.966   3.932   2.716
 5878SOL    HW218534   1.911   4.082   2.681
 5879SOL     OW18535   0.978   4.138   3.859
 5879SOL    HW118536   1.058   4.148   3.919
 5879SOL    HW218537   0.912   4.209   3.881
 5880SOL     OW18538   3.520   6.029   0.388
 5880SOL    HW118539   3.514   6.100   0.318
 5880SOL    HW218540   3.512   5.939   0.346
 5881SOL     OW18541   1.162   5.911   4.256
 5881SOL    HW118542   1.142   5.977   4.328
 5881SOL    HW218543   1.239   5.854   4.283
 5882SOL     OW18544   4.910   0.734   3.004
 5882SOL    HW118545   4.885   0.731   3.100
 5882SOL    HW218546   4.925   0.829   2.977
 5883SOL     OW18547   0.665   3.439   5.314
 5883SOL    HW118548   0.725   3.499   5.367
 5883SOL    HW218549   0.575   3.434   5.359
 5884SOL     OW18550   0.619   0.558   3.460
 5884SOL    HW118551   0.718   0.544   3.464
 5884SOL    HW218552   0.599   0.642   3.410
 5885SOL     OW18553   5.843   6.192   1.060
 5885SOL    HW118554   5.881   6.210   0.970
 5885SOL    HW218555   5.790   6.272   1.090
 5886SOL     OW18556   0.708   1.007   6.537
 5886SOL    HW118557   0.777   1.006   6.610
 5886SOL    HW218558   0.740   0.951   6.460
 5887SOL     OW18559   4.446   6.558   3.008
 5887SOL    HW118560   4.477   6.572   2.914
 5887SOL    HW218561   4.493   6.622   3.069
 5888SOL     OW18562   0.508   1.028   2.702
 5888SOL    HW118563   0.491   0.945   2.649
 5888SOL    HW218564   0.504   1.007   2.800
 5889SOL     OW18565   2.363   0.041   6.986
 5889SOL    HW118566   2.263   0.047   6.979
 5889SOL    HW218567   2.387   7.018   0.049
 5890SOL     OW18568   3.196   4.695   5.527
 5890SOL    HW118569   3.219   4.791   5.538
 5890SOL    HW218570   3.273   4.647   5.483
 5891SOL     OW18571   2.496   3.448   6.523
 5891SOL    HW118572   2.491   3.516   6.450
 5891SOL    HW218573   2.558   3.481   6.594
 5892SOL     OW18574   2.037   6.643   2.600
 5892SOL    HW118575   2.060   6.736   2.629
 5892SOL    HW218576   1.942   6.640   2.570
 5893SOL     OW18577   1.701   0.983   3.165
 5893SOL    HW118578   1.645   0.904   3.138
 5893SOL    HW218579   1.646   1.044   3.222
 5894SOL     OW18580   0.716   3.598   4.364
 5894SOL    HW118581   0.620   3.619   4.382
 5894SOL    HW218582   0.724   3.507   4.324
 5895SOL     OW18583   5.650   3.818   3.484
 5895SOL    HW118584   5.719   3.751   3.456
 5895SOL    HW218585   5.615   3.793   3.575
 5896SOL     OW18586   4.856   2.518   5.690
 5896SOL    HW118587   4.952   2.534   5.668
 5896SOL    HW218588   4.798   2.577   5.633
 5897SOL     OW18589   4.390   6.911   1.374
 5897SOL    HW118590   4.413   6.819   1.340
 5897SOL    HW218591   4.362   6.905   1.470
 5898SOL     OW18592   2.653   6.755   2.789
 5898SOL    HW118593   2.723   6.693   2.753
 5898SOL    HW218594   2.563   6.712   2.782
 5899SOL     OW18595   5.904   0.641   3.577
 5899SOL    HW118596   5.901   0.695   3.492
 5899SOL    HW218597   5.824   0.582   3.581
 5900SOL     OW18598   3.815   4.857   2.509
 5900SOL    HW118599   3.721   4.859   2.544
 5900SOL    HW218600   3.859   4.945   2.528
 5901SOL     OW18601   3.250   6.447   4.723
 5901SOL    HW118602   3.294   6.412   4.641
 5901SOL    HW218603   3.225   6.370   4.782
 5902SOL     OW18604   6.155   1.746   6.570
 5902SOL    HW118605   6.226   1.737   6.500
 5902SOL    HW218606   6.168   1.831   6.621
 5903SOL     OW18607   6.764   3.847   6.796
 5903SOL    HW118608   6.726   3.851   6.888
 5903SOL    HW218609   6.824   3.926   6.782
 5904SOL     OW18610   0.768   4.090   1.889
 5904SOL    HW118611   0.865   4.068   1.874
 5904SOL    HW218612   0.739   4.051   1.976
 5905SOL     OW18613   6.536   5.175   2.295
 5905SOL    HW118614   6.494   5.252   2.246
 5905SOL    HW218615   6.581   5.209   2.378
 5906SOL     OW18616   0.158   1.654   3.885
 5906SOL    HW118617   0.253   1.623   3.887
 5906SOL    HW218618   0.127   1.663   3.791
 5907SOL     OW18619   2.191   0.149   2.229
 5907SOL    HW118620   2.286   0.116   2.227
 5907SOL    HW218621   2.129   0.075   2.204
 5908SOL     OW18622   0.141   2.622   5.912
 5908SOL    HW118623   0.179   2.540   5.869
 5908SOL    HW218624   0.096   2.679   5.843
 5909SOL     OW18625   6.951   3.992   0.905
 5909SOL    HW118626   0.008   4.047   0.925
 5909SOL    HW218627   6.877   4.051   0.872
 5910SOL     OW18628   2.010   1.705   3.650
 5910SOL    HW118629   2.036   1.776   3.716
 5910SOL    HW218630   2.050   1.618   3.677
 5911SOL     OW18631   6.408   5.979   6.537
 5911SOL    HW118632   6.362   5.974   6.625
 5911SOL    HW218633   6.414   6.074   6.508
 5912SOL     OW18634   0.963   0.519   4.062
 5912SOL    HW118635   0.892   0.569   4.112
 5912SOL    HW218636   1.024   0.584   4.017
 5913SOL     OW18637   6.142   1.893   0.355
 5913SOL    HW118638   6.138   1.851   0.447
 5913SOL    HW218639   6.237   1.911   0.331
 5914SOL     OW18640   1.079   6.519   0.430
 5914SOL    HW118641   1.148   6.512   0.502
 5914SOL    HW218642   1.001   6.460   0.452
 5915SOL     OW18643   3.977   1.747   5.739
 5915SOL    HW118644   4.047   1.757   5.810
 5915SOL    HW218645   3.887   1.764   5.780
 5916SOL     OW18646   0.715   6.731   1.920
 5916SOL    HW118647   0.655   6.722   1.999
 5916SOL    HW218648   0.748   6.825   1.914
 5917SOL     OW18649   3.694   4.144   0.430
 5917SOL    HW118650   3.662   4.145   0.335
 5917SOL    HW218651   3.776   4.201   0.438
 5918SOL     OW18652   3.128   6.700   4.682
 5918SOL    HW118653   3.162   6.612   4.716
 5918SOL    HW218654   3.105   6.692   4.585
 5919SOL     OW18655   3.248   3.279   4.880
 5919SOL    HW118656   3.154   3.246   4.884
 5919SOL    HW218657   3.249   3.377   4.899
 5920SOL     OW18658   6.391   0.494   5.647
 5920SOL    HW118659   6.474   0.485   5.702
 5920SOL    HW218660   6.397   0.434   5.568
 5921SOL     OW18661   2.655   4.288   6.796
 5921SOL    HW118662   2.604   4.208   6.827
 5921SOL    HW218663   2.628   4.310   6.702
 5922SOL     OW18664   4.982   2.646   2.181
 5922SOL    HW118665   4.924   2.719   2.218
 5922SOL    HW218666   4.930   2.595   2.112
 5923SOL     OW18667   6.118   1.181   3.261
 5923SOL    HW118668   6.175   1.100   3.275
 5923SOL    HW218669   6.049   1.161   3.192
 5924SOL     OW18670   5.020   6.763   3.447
 5924SOL    HW118671   4.999   6.795   3.539
 5924SOL    HW218672   5.069   6.834   3.397
 5925SOL     OW18673   4.715   1.315   1.272
 5925SOL    HW118674   4.760   1.227   1.289
 5925SOL    HW218675   4.748   1.353   1.185
 5926SOL     OW18676   4.904   4.361   3.384
 5926SOL    HW118677   4.883   4.430   3.315
 5926SOL    HW218678   5.002   4.340   3.381
 5927SOL     OW18679   0.275   4.649   2.060
 5927SOL    HW118680   0.321   4.697   1.985
 5927SOL    HW218681   0.239   4.717   2.124
 5928SOL     OW18682   2.860   0.303   0.224
 5928SOL    HW118683   2.779   0.346   0.184
 5928SOL    HW218684   2.916   0.262   0.152
 5929SOL     OW18685   1.688   0.745   6.840
 5929SOL    HW118686   1.660   0.814   6.907
 5929SOL    HW218687   1.741   0.674   6.886
 5930SOL     OW18688   1.743   3.750   2.240
 5930SOL    HW118689   1.779   3.659   2.257
 5930SOL    HW218690   1.702   3.755   2.149
 5931SOL     OW18691   5.170   6.839   3.080
 5931SOL    HW118692   5.083   6.790   3.071
 5931SOL    HW218693   5.246   6.774   3.077
 5932SOL     OW18694   2.878   0.607   6.972
 5932SOL    HW118695   2.954   0.672   6.979
 5932SOL    HW218696   2.911   0.520   6.934
 5933SOL     OW18697   5.983   6.181   4.759
 5933SOL    HW118698   5.960   6.203   4.854
 5933SOL    HW218699   6.052   6.245   4.725
 5934SOL     OW18700   3.355   3.439   6.786
 5934SOL    HW118701   3.284   3.368   6.786
 5934SOL    HW218702   3.441   3.400   6.754
 5935SOL     OW18703   1.232   6.207   6.327
 5935SOL    HW118704   1.297   6.201   6.251
 5935SOL    HW218705   1.198   6.115   6.348
 5936SOL     OW18706   3.740   3.171   2.070
 5936SOL    HW118707   3.665   3.191   2.007
 5936SOL    HW218708   3.810   3.118   2.022
 5937SOL     OW18709   0.548   3.317   1.033
 5937SOL    HW118710   0.625   3.283   1.088
 5937SOL    HW218711   0.504   3.240   0.986
 5938SOL     OW18712   0.414   4.298   4.232
 5938SOL    HW118713   0.509   4.270   4.220
 5938SOL    HW218714   0.396   4.317   4.328
 5939SOL     OW18715   3.901   1.641   5.164
 5939SOL    HW118716   3.826   1.609   5.106
 5939SOL    HW218717   3.938   1.564   5.216
 5940SOL     OW18718   5.006   5.458   1.620
 5940SOL    HW118719   5.089   5.507   1.649
 5940SOL    HW218720   5.021   5.360   1.630
 5941SOL     OW18721   0.260   2.173   3.103
 5941SOL    HW118722   0.220   2.110   3.036
 5941SOL    HW218723   0.217   2.158   3.192
 5942SOL     OW18724   4.974   2.991   6.088
 5942SOL    HW118725   5.017   3.000   6.178
 5942SOL    HW218726   5.033   3.034   6.019
 5943SOL     OW18727   2.935   4.297   1.710
 5943SOL    HW118728   2.921   4.381   1.762
 5943SOL    HW218729   2.847   4.253   1.693
 5944SOL     OW18730   6.322   3.468   6.323
 5944SOL    HW118731   6.280   3.532   6.387
 5944SOL    HW218732   6.345   3.515   6.238
 5945SOL     OW18733   6.759   6.254   4.703
 5945SOL    HW118734   6.738   6.184   4.771
 5945SOL    HW218735   6.674   6.287   4.662
 5946SOL     OW18736   1.965   3.494   0.191
 5946SOL    HW118737   1.992   3.398   0.196
 5946SOL    HW218738   1.898   3.506   0.118
 5947SOL     OW18739   3.830   3.297   4.824
 5947SOL    HW118740   3.818   3.365   4.752
 5947SOL    HW218741   3.872   3.215   4.787
 5948SOL     OW18742   4.939   3.340   2.015
 5948SOL    HW118743   4.924   3.241   2.009
 5948SOL    HW218744   4.912   3.383   1.929
 5949SOL     OW18745   0.302   4.590   3.034
 5949SOL    HW118746   0.260   4.562   3.120
 5949SOL    HW218747   0.252   4.549   2.958
 5950SOL     OW18748   3.918   0.133   4.534
 5950SOL    HW118749   3.825   0.098   4.533
 5950SOL    HW218750   3.941   0.167   4.626
 5951SOL     OW18751   0.342   3.595   6.753
 5951SOL    HW118752   0.337   3.687   6.715
 5951SOL    HW218753   0.268   3.582   6.819
 5952SOL     OW18754   4.502   4.553   1.180
 5952SOL    HW118755   4.481   4.603   1.264
 5952SOL    HW218756   4.540   4.616   1.112
 5953SOL     OW18757   6.543   2.852   5.264
 5953SOL    HW118758   6.496   2.777   5.311
 5953SOL    HW218759   6.482   2.893   5.196
 5954SOL     OW18760   1.815   6.113   4.143
 5954SOL    HW118761   1.722   6.136   4.112
 5954SOL    HW218762   1.815   6.021   4.182
 5955SOL     OW18763   5.432   3.479   0.318
 5955SOL    HW118764   5.385   3.533   0.388
 5955SOL    HW218765   5.524   3.457   0.348
 5956SOL     OW18766   5.692   2.286   5.530
 5956SOL    HW118767   5.638   2.359   5.488
 5956SOL    HW218768   5.784   2.319   5.550
 5957SOL     OW18769   6.606   1.774   3.214
 5957SOL    HW118770   6.554   1.691   3.190
 5957SOL    HW218771   6.672   1.751   3.286
 5958SOL     OW18772   2.992   6.943   2.873
 5958SOL    HW118773   2.920   6.989   2.925
 5958SOL    HW218774   3.081   6.985   2.894
 5959SOL     OW18775   4.947   2.604   4.002
 5959SOL    HW118776   4.919   2.676   4.066
 5959SOL    HW218777   4.929   2.514   4.043
 5960SOL     OW18778   4.169   0.272   6.087
 5960SOL    HW118779   4.209   0.212   6.156
 5960SOL    HW218780   4.178   0.367   6.118
 5961SOL     OW18781   2.732   2.340   3.033
 5961SOL    HW118782   2.670   2.403   2.987
 5961SOL    HW218783   2.789   2.294   2.965
 5962SOL     OW18784   5.172   5.856   0.777
 5962SOL    HW118785   5.252   5.910   0.751
 5962SOL    HW218786   5.130   5.896   0.859
 5963SOL     OW18787   2.851   3.914   0.319
 5963SOL    HW118788   2.924   3.856   0.283
 5963SOL    HW218789   2.837   3.992   0.259
 5964SOL     OW18790   2.523   6.688   2.167
 5964SOL    HW118791   2.521   6.718   2.262
 5964SOL    HW218792   2.577   6.604   2.160
 5965SOL     OW18793   2.198   0.408   0.340
 5965SOL    HW118794   2.169   0.475   0.272
 5965SOL    HW218795   2.221   0.456   0.425
 5966SOL     OW18796   2.913   1.610   4.539
 5966SOL    HW118797   2.881   1.565   4.456
 5966SOL    HW218798   3.010   1.633   4.529
 5967SOL     OW18799   3.989   1.636   4.452
 5967SOL    HW118800   4.079   1.623   4.412
 5967SOL    HW218801   3.996   1.633   4.552
 5968SOL     OW18802   5.841   2.735   1.914
 5968SOL    HW118803   5.915   2.689   1.866
 5968SOL    HW218804   5.767   2.755   1.850
 5969SOL     OW18805   5.619   0.113   0.571
 5969SOL    HW118806   5.683   0.038   0.555
 5969SOL    HW218807   5.609   0.166   0.486
 5970SOL     OW18808   0.102   3.664   0.446
 5970SOL    HW118809   0.165   3.694   0.374
 5970SOL    HW218810   0.055   3.581   0.416
 5971SOL     OW18811   0.027   6.510   3.732
 5971SOL    HW118812   0.040   6.413   3.711
 5971SOL    HW218813   6.953   6.531   3.739
 5972SOL     OW18814   5.108   4.909   0.739
 5972SOL    HW118815   5.065   4.985   0.788
 5972SOL    HW218816   5.056   4.825   0.756
 5973SOL     OW18817   3.229   1.302   2.548
 5973SOL    HW118818   3.147   1.325   2.496
 5973SOL    HW218819   3.303   1.366   2.525
 5974SOL     OW18820   5.284   2.032   5.606
 5974SOL    HW118821   5.379   2.016   5.577
 5974SOL    HW218822   5.283   2.055   5.704
 5975SOL     OW18823   4.652   5.219   1.027
 5975SOL    HW118824   4.639   5.159   1.106
 5975SOL    HW218825   4.700   5.302   1.056
 5976SOL     OW18826   2.289   3.531   5.854
 5976SOL    HW118827   2.292   3.438   5.890
 5976SOL    HW218828   2.246   3.591   5.921
 5977SOL     OW18829   6.678   4.551   0.770
 5977SOL    HW118830   6.739   4.493   0.825
 5977SOL    HW218831   6.652   4.632   0.823
 5978SOL     OW18832   2.476   3.760   0.087
 5978SOL    HW118833   2.503   3.665   0.099
 5978SOL    HW218834   2.545   3.819   0.127
 5979SOL     OW18835   6.026   0.702   1.619
 5979SOL    HW118836   5.943   0.702   1.564
 5979SOL    HW218837   6.061   0.795   1.627
 5980SOL     OW18838   2.721   2.723   1.005
 5980SOL    HW118839   2.813   2.709   0.967
 5980SOL    HW218840   2.709   2.662   1.083
 5981SOL     OW18841   3.181   2.196   0.509
 5981SOL    HW118842   3.134   2.114   0.540
 5981SOL    HW218843   3.127   2.243   0.440
 5982SOL     OW18844   5.296   3.117   0.300
 5982SOL    HW118845   5.373   3.168   0.337
 5982SOL    HW218846   5.253   3.063   0.372
 5983SOL     OW18847   6.858   0.989   3.677
 5983SOL    HW118848   6.951   1.026   3.674
 5983SOL    HW218849   6.793   1.064   3.695
 5984SOL     OW18850   5.869   0.011   4.303
 5984SOL    HW118851   5.957   6.988   4.286
 5984SOL    HW218852   5.868   0.098   4.254
 5985SOL     OW18853   6.440   3.146   2.208
 5985SOL    HW118854   6.393   3.210   2.268
 5985SOL    HW218855   6.389   3.136   2.123
 5986SOL     OW18856   3.601   3.198   4.577
 5986SOL    HW118857   3.518   3.160   4.617
 5986SOL    HW218858   3.656   3.124   4.538
 5987SOL     OW18859   0.198   6.493   5.407
 5987SOL    HW118860   0.214   6.409   5.356
 5987SOL    HW218861   0.126   6.546   5.363
 5988SOL     OW18862   0.751   2.818   6.176
 5988SOL    HW118863   0.752   2.911   6.139
 5988SOL    HW218864   0.840   2.775   6.159
 5989SOL     OW18865   0.748   6.362   5.879
 5989SOL    HW118866   0.662   6.356   5.929
 5989SOL    HW218867   0.795   6.447   5.904
 5990SOL     OW18868   2.856   4.873   1.981
 5990SOL    HW118869   2.851   4.776   2.006
 5990SOL    HW218870   2.816   4.885   1.889
 5991SOL     OW18871   4.672   0.409   0.593
 5991SOL    HW118872   4.675   0.460   0.679
 5991SOL    HW218873   4.589   0.353   0.591
 5992SOL     OW18874   3.249   6.177   2.074
 5992SOL    HW118875   3.348   6.165   2.063
 5992SOL    HW218876   3.229   6.207   2.168
 5993SOL     OW18877   5.579   1.993   0.117
 5993SOL    HW118878   5.651   1.958   0.057
 5993SOL    HW218879   5.517   1.918   0.141
 5994SOL     OW18880   0.165   3.443   0.082
 5994SOL    HW118881   0.247   3.500   0.094
 5994SOL    HW218882   0.194   3.349   0.064
 5995SOL     OW18883   4.873   3.835   1.576
 5995SOL    HW118884   4.787   3.885   1.562
 5995SOL    HW218885   4.950   3.898   1.569
 5996SOL     OW18886   2.756   5.776   1.425
 5996SOL    HW118887   2.785   5.872   1.431
 5996SOL    HW218888   2.824   5.718   1.470
 5997SOL     OW18889   6.263   0.651   3.922
 5997SOL    HW118890   6.255   0.575   3.987
 5997SOL    HW218891   6.279   0.736   3.971
 5998SOL     OW18892   6.263   5.613   0.575
 5998SOL    HW118893   6.300   5.703   0.548
 5998SOL    HW218894   6.251   5.610   0.674
 5999SOL     OW18895   4.938   3.169   1.497
 5999SOL    HW118896   5.010   3.231   1.527
 5999SOL    HW218897   4.977   3.082   1.467
 6000SOL     OW18898   0.604   4.248   1.055
 6000SOL    HW118899   0.691   4.212   1.021
 6000SOL    HW218900   0.542   4.173   1.075
 6001SOL     OW18901   6.479   5.776   5.721
 6001SOL    HW118902   6.468   5.835   5.801
 6001SOL    HW218903   6.409   5.704   5.723
 6002SOL     OW18904   5.792   4.709   5.590
 6002SOL    HW118905   5.878   4.752   5.562
 6002SOL    HW218906   5.795   4.612   5.567
 6003SOL     OW18907   1.949   2.668   4.713
 6003SOL    HW118908   1.982   2.574   4.717
 6003SOL    HW218909   1.936   2.695   4.617
 6004SOL     OW18910   5.232   2.196   4.299
 6004SOL    HW118911   5.230   2.148   4.212
 6004SOL    HW218912   5.291   2.277   4.292
 6005SOL     OW18913   4.374   4.614   6.471
 6005SOL    HW118914   4.467   4.579   6.478
 6005SOL    HW218915   4.310   4.544   6.503
 6006SOL     OW18916   3.560   6.173   6.550
 6006SOL    HW118917   3.477   6.229   6.543
 6006SOL    HW218918   3.571   6.119   6.466
 6007SOL     OW18919   2.656   5.951   6.070
 6007SOL    HW118920   2.708   5.867   6.054
 6007SOL    HW218921   2.675   5.984   6.163
 6008SOL     OW18922   3.161   3.925   6.316
 6008SOL    HW118923   3.172   3.859   6.242
 6008SOL    HW218924   3.228   3.999   6.306
 6009SOL     OW18925   3.679   5.272   3.013
 6009SOL    HW118926   3.767   5.240   2.978
 6009SOL    HW218927   3.688   5.293   3.110
 6010SOL     OW18928   0.563   5.345   3.868
 6010SOL    HW118929   0.636   5.338   3.800
 6010SOL    HW218930   0.525   5.254   3.884
 6011SOL     OW18931   6.062   2.074   1.908
 6011SOL    HW118932   6.008   2.152   1.941
 6011SOL    HW218933   6.128   2.049   1.979
 6012SOL     OW18934   6.783   0.417   6.285
 6012SOL    HW118935   6.844   0.491   6.313
 6012SOL    HW218936   6.738   0.378   6.366
 6013SOL     OW18937   5.842   1.488   2.342
 6013SOL    HW118938   5.877   1.548   2.414
 6013SOL    HW218939   5.778   1.540   2.284
 6014SOL     OW18940   3.267   4.016   4.043
 6014SOL    HW118941   3.367   4.011   4.040
 6014SOL    HW218942   3.236   4.005   4.138
 6015SOL     OW18943   6.048   0.416   4.374
 6015SOL    HW118944   6.122   0.354   4.401
 6015SOL    HW218945   5.992   0.439   4.453
 6016SOL     OW18946   4.851   1.299   4.822
 6016SOL    HW118947   4.761   1.342   4.816
 6016SOL    HW218948   4.869   1.246   4.740
 6017SOL     OW18949   0.270   1.616   5.862
 6017SOL    HW118950   0.191   1.673   5.884
 6017SOL    HW218951   0.247   1.555   5.786
 6018SOL     OW18952   2.903   0.974   4.523
 6018SOL    HW118953   2.990   0.925   4.519
 6018SOL    HW218954   2.887   1.006   4.617
 6019SOL     OW18955   6.485   4.007   0.196
 6019SOL    HW118956   6.440   3.932   0.244
 6019SOL    HW218957   6.584   3.989   0.192
 6020SOL     OW18958   0.735   4.786   6.170
 6020SOL    HW118959   0.760   4.872   6.127
 6020SOL    HW218960   0.642   4.793   6.208
 6021SOL     OW18961   5.905   6.989   3.547
 6021SOL    HW118962   5.874   6.954   3.635
 6021SOL    HW218963   5.970   6.925   3.507
 6022SOL     OW18964   6.730   2.213   1.524
 6022SOL    HW118965   6.681   2.256   1.599
 6022SOL    HW218966   6.702   2.118   1.514
 6023SOL     OW18967   3.951   0.256   1.570
 6023SOL    HW118968   4.050   0.244   1.578
 6023SOL    HW218969   3.917   0.308   1.648
 6024SOL     OW18970   1.372   6.167   0.495
 6024SOL    HW118971   1.421   6.131   0.415
 6024SOL    HW218972   1.309   6.098   0.529
 6025SOL     OW18973   2.997   0.376   4.641
 6025SOL    HW118974   2.996   0.427   4.555
 6025SOL    HW218975   2.968   0.282   4.624
 6026SOL     OW18976   5.891   5.681   4.513
 6026SOL    HW118977   5.825   5.755   4.520
 6026SOL    HW218978   5.976   5.707   4.559
 6027SOL     OW18979   5.257   4.486   6.757
 6027SOL    HW118980   5.196   4.468   6.680
 6027SOL    HW218981   5.222   4.563   6.811
 6028SOL     OW18982   5.905   5.041   5.932
 6028SOL    HW118983   5.930   5.039   6.029
 6028SOL    HW218984   5.881   5.135   5.906
 6029SOL     OW18985   2.842   1.073   2.397
 6029SOL    HW118986   2.765   1.018   2.427
 6029SOL    HW218987   2.823   1.110   2.306
 6030SOL     OW18988   5.925   3.352   4.628
 6030SOL    HW118989   5.999   3.414   4.602
 6030SOL    HW218990   5.854   3.402   4.677
 6031SOL     OW18991   0.313   5.993   5.466
 6031SOL    HW118992   0.395   6.050   5.459
 6031SOL    HW218993   0.282   5.967   5.375
 6032SOL     OW18994   3.796   5.426   3.418
 6032SOL    HW118995   3.722   5.438   3.485
 6032SOL    HW218996   3.810   5.512   3.369
 6033SOL     OW18997   1.205   1.862   2.881
 6033SOL    HW118998   1.188   1.960   2.892
 6033SOL    HW218999   1.287   1.836   2.934
 6034SOL     OW19000   1.097   0.122   1.276
 6034SOL    HW119001   1.152   0.059   1.220
 6034SOL    HW219002   1.141   0.212   1.277
 6035SOL     OW19003   2.045   0.428   2.857
 6035SOL    HW119004   2.111   0.439   2.931
 6035SOL    HW219005   2.035   0.514   2.808
 6036SOL     OW19006   6.816   3.301   0.858
 6036SOL    HW119007   6.838   3.306   0.956
 6036SOL    HW219008   6.852   3.216   0.821
 6037SOL     OW19009   5.023   2.024   6.903
 6037SOL    HW119010   5.000   2.107   6.853
 6037SOL    HW219011   5.088   2.045   6.975
 6038SOL     OW19012   1.063   2.017   6.137
 6038SOL    HW119013   1.087   1.995   6.042
 6038SOL    HW219014   1.113   2.099   6.165
 6039SOL     OW19015   4.064   3.258   3.764
 6039SOL    HW119016   4.004   3.178   3.761
 6039SOL    HW219017   4.159   3.229   3.753
 6040SOL     OW19018   0.590   1.199   6.945
 6040SOL    HW119019   0.599   1.137   7.022
 6040SOL    HW219020   0.643   1.283   6.963
 6041SOL     OW19021   2.275   3.684   5.623
 6041SOL    HW119022   2.287   3.648   5.716
 6041SOL    HW219023   2.327   3.629   5.558
 6042SOL     OW19024   3.634   5.673   3.992
 6042SOL    HW119025   3.714   5.696   4.047
 6042SOL    HW219026   3.578   5.755   3.980
 6043SOL     OW19027   2.527   0.562   3.158
 6043SOL    HW119028   2.471   0.513   3.224
 6043SOL    HW219029   2.533   0.658   3.185
 6044SOL     OW19030   1.324   3.284   1.432
 6044SOL    HW119031   1.410   3.259   1.475
 6044SOL    HW219032   1.294   3.211   1.372
 6045SOL     OW19033   4.919   1.909   3.536
 6045SOL    HW119034   4.928   2.009   3.534
 6045SOL    HW219035   4.884   1.881   3.626
 6046SOL     OW19036   3.563   2.869   2.661
 6046SOL    HW119037   3.632   2.872   2.589
 6046SOL    HW219038   3.475   2.898   2.624
 6047SOL     OW19039   6.916   1.901   0.781
 6047SOL    HW119040   7.002   1.918   0.829
 6047SOL    HW219041   6.918   1.812   0.737
 6048SOL     OW19042   5.490   5.881   4.142
 6048SOL    HW119043   5.458   5.967   4.182
 6048SOL    HW219044   5.586   5.867   4.167
 6049SOL     OW19045   4.498   4.878   5.862
 6049SOL    HW119046   4.452   4.834   5.785
 6049SOL    HW219047   4.580   4.826   5.885
 6050SOL     OW19048   3.054   6.012   2.043
 6050SOL    HW119049   3.114   6.093   2.046
 6050SOL    HW219050   3.042   5.977   2.136
 6051SOL     OW19051   0.418   1.302   3.383
 6051SOL    HW119052   0.427   1.398   3.359
 6051SOL    HW219053   0.507   1.267   3.413
 6052SOL     OW19054   5.054   6.360   0.054
 6052SOL    HW119055   5.031   6.363   0.151
 6052SOL    HW219056   5.000   6.427   0.004
 6053SOL     OW19057   4.230   2.439   5.921
 6053SOL    HW119058   4.175   2.457   5.839
 6053SOL    HW219059   4.305   2.378   5.897
 6054SOL     OW19060   3.773   4.337   0.802
 6054SOL    HW119061   3.733   4.311   0.890
 6054SOL    HW219062   3.819   4.258   0.762
 6055SOL     OW19063   3.159   3.861   1.197
 6055SOL    HW119064   3.156   3.782   1.135
 6055SOL    HW219065   3.251   3.872   1.232
 6056SOL     OW19066   5.360   6.112   3.954
 6056SOL    HW119067   5.437   6.124   4.017
 6056SOL    HW219068   5.300   6.039   3.988
 6057SOL     OW19069   4.812   0.380   4.256
 6057SOL    HW119070   4.879   0.450   4.280
 6057SOL    HW219071   4.827   0.299   4.312
 6058SOL     OW19072   5.877   2.629   5.945
 6058SOL    HW119073   5.933   2.622   5.863
 6058SOL    HW219074   5.933   2.609   6.026
 6059SOL     OW19075   4.541   2.914   7.020
 6059SOL    HW119076   4.463   2.945   0.052
 6059SOL    HW219077   4.613   2.983   7.022
 6060SOL     OW19078   2.096   3.152   0.157
 6060SOL    HW119079   2.113   3.131   0.253
 6060SOL    HW219080   2.015   3.103   0.125
 6061SOL     OW19081   2.711   4.336   0.136
 6061SOL    HW119082   2.668   4.386   0.061
 6061SOL    HW219083   2.676   4.369   0.223
 6062SOL     OW19084   1.713   2.375   0.013
 6062SOL    HW119085   1.706   2.401   6.939
 6062SOL    HW219086   1.798   2.411   0.051
 6063SOL     OW19087   4.769   4.314   6.618
 6063SOL    HW119088   4.725   4.225   6.607
 6063SOL    HW219089   4.853   4.317   6.564
 6064SOL     OW19090   6.564   5.394   1.271
 6064SOL    HW119091   6.604   5.485   1.259
 6064SOL    HW219092   6.517   5.388   1.359
 6065SOL     OW19093   1.421   0.140   2.248
 6065SOL    HW119094   1.337   0.143   2.193
 6065SOL    HW219095   1.464   0.050   2.238
 6066SOL     OW19096   5.531   5.887   3.509
 6066SOL    HW119097   5.556   5.980   3.538
 6066SOL    HW219098   5.522   5.884   3.410
 6067SOL     OW19099   6.077   6.716   6.142
 6067SOL    HW119100   5.985   6.687   6.168
 6067SOL    HW219101   6.107   6.790   6.201
 6068SOL     OW19102   4.417   2.413   4.444
 6068SOL    HW119103   4.473   2.495   4.453
 6068SOL    HW219104   4.475   2.332   4.453
 6069SOL     OW19105   0.337   4.328   6.019
 6069SOL    HW119106   0.263   4.278   5.975
 6069SOL    HW219107   0.402   4.360   5.950
 6070SOL     OW19108   2.687   1.351   0.612
 6070SOL    HW119109   2.754   1.330   0.541
 6070SOL    HW219110   2.598   1.372   0.570
 6071SOL     OW19111   5.872   0.961   5.975
 6071SOL    HW119112   5.846   0.954   5.879
 6071SOL    HW219113   5.790   0.981   6.030
 6072SOL     OW19114   0.138   2.408   0.459
 6072SOL    HW119115   0.226   2.368   0.484
 6072SOL    HW219116   0.086   2.430   0.541
 6073SOL     OW19117   5.021   2.916   0.132
 6073SOL    HW119118   4.978   2.845   0.076
 6073SOL    HW219119   4.953   2.985   0.156
 6074SOL     OW19120   0.710   6.767   2.407
 6074SOL    HW119121   0.768   6.727   2.478
 6074SOL    HW219122   0.616   6.773   2.440
 6075SOL     OW19123   5.460   0.236   6.419
 6075SOL    HW119124   5.395   0.162   6.402
 6075SOL    HW219125   5.413   0.313   6.463
 6076SOL     OW19126   0.932   5.664   2.821
 6076SOL    HW119127   1.006   5.725   2.849
 6076SOL    HW219128   0.909   5.682   2.725
 6077SOL     OW19129   5.589   0.045   2.394
 6077SOL    HW119130   5.554   6.984   2.353
 6077SOL    HW219131   5.675   0.025   2.441
 6078SOL     OW19132   4.156   3.996   0.608
 6078SOL    HW119133   4.113   3.911   0.636
 6078SOL    HW219134   4.087   4.058   0.572
 6079SOL     OW19135   3.083   2.930   0.546
 6079SOL    HW119136   2.989   2.962   0.534
 6079SOL    HW219137   3.112   2.879   0.465
 6080SOL     OW19138   0.124   5.168   6.498
 6080SOL    HW119139   0.213   5.199   6.531
 6080SOL    HW219140   0.062   5.158   6.576
 6081SOL     OW19141   1.388   3.766   3.759
 6081SOL    HW119142   1.317   3.695   3.754
 6081SOL    HW219143   1.377   3.818   3.844
 6082SOL     OW19144   4.807   0.885   1.009
 6082SOL    HW119145   4.885   0.942   1.035
 6082SOL    HW219146   4.794   0.813   1.078
 6083SOL     OW19147   4.604   0.631   6.107
 6083SOL    HW119148   4.594   0.568   6.030
 6083SOL    HW219149   4.685   0.606   6.161
 6084SOL     OW19150   0.245   6.146   2.340
 6084SOL    HW119151   0.314   6.204   2.383
 6084SOL    HW219152   0.282   6.106   2.256
 6085SOL     OW19153   0.331   0.454   0.818
 6085SOL    HW119154   0.238   0.471   0.848
 6085SOL    HW219155   0.342   0.487   0.724
 6086SOL     OW19156   3.194   4.175   6.579
 6086SOL    HW119157   3.225   4.080   6.592
 6086SOL    HW219158   3.104   4.174   6.534
 6087SOL     OW19159   5.076   6.449   0.652
 6087SOL    HW119160   5.014   6.527   0.661
 6087SOL    HW219161   5.092   6.432   0.554
 6088SOL     OW19162   5.424   5.856   3.235
 6088SOL    HW119163   5.403   5.947   3.201
 6088SOL    HW219164   5.344   5.797   3.226
 6089SOL     OW19165   6.331   3.817   3.922
 6089SOL    HW119166   6.284   3.729   3.917
 6089SOL    HW219167   6.418   3.811   3.874
 6090SOL     OW19168   3.681   5.832   4.233
 6090SOL    HW119169   3.689   5.755   4.296
 6090SOL    HW219170   3.750   5.823   4.161
 6091SOL     OW19171   1.110   1.697   2.196
 6091SOL    HW119172   1.063   1.664   2.114
 6091SOL    HW219173   1.042   1.727   2.263
 6092SOL     OW19174   3.185   6.082   0.882
 6092SOL    HW119175   3.225   6.075   0.973
 6092SOL    HW219176   3.098   6.032   0.880
 6093SOL     OW19177   2.180   2.174   2.548
 6093SOL    HW119178   2.259   2.148   2.604
 6093SOL    HW219179   2.211   2.235   2.475
 6094SOL     OW19180   0.494   6.028   5.010
 6094SOL    HW119181   0.459   6.008   4.918
 6094SOL    HW219182   0.468   6.121   5.035
 6095SOL     OW19183   4.905   4.834   1.764
 6095SOL    HW119184   4.995   4.802   1.736
 6095SOL    HW219185   4.908   4.865   1.859
 6096SOL     OW19186   5.512   6.298   3.277
 6096SOL    HW119187   5.481   6.238   3.203
 6096SOL    HW219188   5.505   6.393   3.249
 6097SOL     OW19189   1.715   5.214   1.616
 6097SOL    HW119190   1.757   5.292   1.570
 6097SOL    HW219191   1.714   5.230   1.714
 6098SOL     OW19192   6.589   0.331   4.579
 6098SOL    HW119193   6.629   0.373   4.498
 6098SOL    HW219194   6.515   0.388   4.614
 6099SOL     OW19195   3.742   0.713   6.123
 6099SOL    HW119196   3.801   0.793   6.126
 6099SOL    HW219197   3.692   0.711   6.036
 6100SOL     OW19198   0.173   6.240   5.299
 6100SOL    HW119199   0.176   6.217   5.202
 6100SOL    HW219200   0.264   6.232   5.339
 6101SOL     OW19201   0.131   3.029   1.723
 6101SOL    HW119202   0.182   3.034   1.809
 6101SOL    HW219203   0.063   3.102   1.721
 6102SOL     OW19204   4.477   7.011   2.671
 6102SOL    HW119205   4.458   0.086   2.673
 6102SOL    HW219206   4.479   6.975   2.764
 6103SOL     OW19207   6.245   1.872   2.097
 6103SOL    HW119208   6.283   1.858   2.006
 6103SOL    HW219209   6.305   1.829   2.165
 6104SOL     OW19210   0.083   0.689   4.023
 6104SOL    HW119211   0.144   0.682   3.944
 6104SOL    HW219212   0.000   0.635   4.006
 6105SOL     OW19213   2.961   4.588   5.426
 6105SOL    HW119214   2.945   4.564   5.330
 6105SOL    HW219215   3.051   4.630   5.436
 6106SOL     OW19216   6.122   5.137   5.637
 6106SOL    HW119217   6.132   5.219   5.693
 6106SOL    HW219218   6.128   5.056   5.695
 6107SOL     OW19219   5.351   5.360   4.987
 6107SOL    HW119220   5.400   5.400   5.064
 6107SOL    HW219221   5.359   5.421   4.908
 6108SOL     OW19222   2.449   1.420   0.519
 6108SOL    HW119223   2.440   1.510   0.475
 6108SOL    HW219224   2.397   1.353   0.467
 6109SOL     OW19225   6.349   6.955   3.659
 6109SOL    HW119226   6.306   7.023   3.598
 6109SOL    HW219227   6.358   6.994   3.751
 6110SOL     OW19228   1.573   1.344   4.402
 6110SOL    HW119229   1.516   1.340   4.320
 6110SOL    HW219230   1.622   1.431   4.404
 6111SOL     OW19231   1.735   4.396   0.557
 6111SOL    HW119232   1.673   4.382   0.479
 6111SOL    HW219233   1.760   4.307   0.596
 6112SOL     OW19234   4.785   7.013   2.908
 6112SOL    HW119235   4.790   0.063   2.840
 6112SOL    HW219236   4.709   0.007   2.971
 6113SOL     OW19237   3.045   5.117   0.494
 6113SOL    HW119238   3.000   5.203   0.472
 6113SOL    HW219239   3.017   5.088   0.586
 6114SOL     OW19240   4.846   2.242   0.152
 6114SOL    HW119241   4.832   2.279   0.243
 6114SOL    HW219242   4.936   2.198   0.147
 6115SOL     OW19243   0.941   0.726   5.744
 6115SOL    HW119244   0.883   0.742   5.664
 6115SOL    HW219245   1.036   0.716   5.716
 6116SOL     OW19246   5.380   2.324   6.263
 6116SOL    HW119247   5.364   2.227   6.244
 6116SOL    HW219248   5.417   2.368   6.181
 6117SOL     OW19249   2.101   2.057   1.285
 6117SOL    HW119250   2.187   2.042   1.236
 6117SOL    HW219251   2.121   2.095   1.376
 6118SOL     OW19252   6.105   0.496   0.822
 6118SOL    HW119253   6.043   0.429   0.782
 6118SOL    HW219254   6.112   0.576   0.762
 6119SOL     OW19255   0.030   2.014   0.202
 6119SOL    HW119256   0.062   1.921   0.222
 6119SOL    HW219257   0.099   2.080   0.231
 6120SOL     OW19258   2.248   0.951   4.547
 6120SOL    HW119259   2.297   0.964   4.633
 6120SOL    HW219260   2.153   0.928   4.565
 6121SOL     OW19261   0.461   2.837   5.124
 6121SOL    HW119262   0.391   2.904   5.100
 6121SOL    HW219263   0.418   2.756   5.165
 6122SOL     OW19264   4.969   4.640   5.664
 6122SOL    HW119265   5.019   4.701   5.602
 6122SOL    HW219266   4.925   4.568   5.610
 6123SOL     OW19267   5.373   1.573   5.149
 6123SOL    HW119268   5.377   1.620   5.237
 6123SOL    HW219269   5.281   1.582   5.110
 6124SOL     OW19270   2.529   5.956   3.987
 6124SOL    HW119271   2.518   5.921   4.080
 6124SOL    HW219272   2.526   5.879   3.923
 6125SOL     OW19273   2.367   2.086   6.937
 6125SOL    HW119274   2.388   2.146   7.015
 6125SOL    HW219275   2.426   2.109   6.860
 6126SOL     OW19276   6.040   3.334   5.083
 6126SOL    HW119277   5.977   3.262   5.113
 6126SOL    HW219278   5.997   3.423   5.095
 6127SOL     OW19279   4.279   2.251   1.714
 6127SOL    HW119280   4.336   2.327   1.742
 6127SOL    HW219281   4.183   2.271   1.737
 6128SOL     OW19282   5.515   5.790   0.216
 6128SOL    HW119283   5.500   5.691   0.220
 6128SOL    HW219284   5.510   5.828   0.308
 6129SOL     OW19285   1.366   5.403   2.062
 6129SOL    HW119286   1.465   5.400   2.078
 6129SOL    HW219287   1.320   5.436   2.145
 6130SOL     OW19288   5.899   2.485   0.333
 6130SOL    HW119289   5.945   2.523   0.413
 6130SOL    HW219290   5.950   2.510   0.251
 6131SOL     OW19291   6.307   1.622   2.748
 6131SOL    HW119292   6.258   1.537   2.728
 6131SOL    HW219293   6.297   1.644   2.845
 6132SOL     OW19294   3.650   1.409   6.919
 6132SOL    HW119295   3.569   1.389   6.973
 6132SOL    HW219296   3.732   1.382   6.970
 6133SOL     OW19297   1.776   1.924   3.547
 6133SOL    HW119298   1.771   1.834   3.591
 6133SOL    HW219299   1.766   1.913   3.448
 6134SOL     OW19300   6.124   0.203   6.504
 6134SOL    HW119301   6.213   0.168   6.475
 6134SOL    HW219302   6.051   0.159   6.452
 6135SOL     OW19303   6.543   0.331   6.936
 6135SOL    HW119304   6.506   0.304   6.848
 6135SOL    HW219305   6.501   0.416   6.966
 6136SOL     OW19306   1.220   3.446   2.653
 6136SOL    HW119307   1.131   3.484   2.627
 6136SOL    HW219308   1.262   3.402   2.574
 6137SOL     OW19309   6.948   3.913   2.374
 6137SOL    HW119310   7.020   3.845   2.357
 6137SOL    HW219311   6.888   3.918   2.294
 6138SOL     OW19312   4.281   0.107   1.727
 6138SOL    HW119313   4.285   0.157   1.813
 6138SOL    HW219314   4.249   0.168   1.654
 6139SOL     OW19315   1.175   0.435   5.937
 6139SOL    HW119316   1.083   0.411   5.906
 6139SOL    HW219317   1.242   0.400   5.872
 6140SOL     OW19318   1.042   0.264   3.520
 6140SOL    HW119319   0.999   0.234   3.435
 6140SOL    HW219320   0.995   0.221   3.598
 6141SOL     OW19321   0.375   1.256   5.754
 6141SOL    HW119322   0.357   1.238   5.850
 6141SOL    HW219323   0.472   1.271   5.740
 6142SOL     OW19324   0.157   0.645   1.422
 6142SOL    HW119325   0.221   0.662   1.496
 6142SOL    HW219326   0.206   0.606   1.344
 6143SOL     OW19327   6.903   3.989   5.687
 6143SOL    HW119328   6.944   4.076   5.713
 6143SOL    HW219329   6.974   3.927   5.654
 6144SOL     OW19330   3.970   5.373   3.092
 6144SOL    HW119331   4.027   5.416   3.162
 6144SOL    HW219332   4.003   5.280   3.075
 6145SOL     OW19333   4.772   2.914   3.808
 6145SOL    HW119334   4.772   3.005   3.768
 6145SOL    HW219335   4.865   2.890   3.838
 6146SOL     OW19336   5.458   6.905   5.037
 6146SOL    HW119337   5.406   6.945   4.962
 6146SOL    HW219338   5.455   6.966   5.116
 6147SOL     OW19339   1.443   2.096   4.171
 6147SOL    HW119340   1.524   2.047   4.203
 6147SOL    HW219341   1.380   2.031   4.128
 6148SOL     OW19342   3.242   6.077   0.166
 6148SOL    HW119343   3.229   6.026   0.081
 6148SOL    HW219344   3.205   6.024   0.243
 6149SOL     OW19345   3.031   0.615   1.579
 6149SOL    HW119346   3.023   0.587   1.484
 6149SOL    HW219347   3.018   0.536   1.639
 6150SOL     OW19348   0.372   3.872   5.503
 6150SOL    HW119349   0.363   3.875   5.603
 6150SOL    HW219350   0.298   3.815   5.465
 6151SOL     OW19351   4.418   5.159   4.082
 6151SOL    HW119352   4.436   5.152   4.180
 6151SOL    HW219353   4.504   5.171   4.033
 6152SOL     OW19354   1.112   5.055   4.193
 6152SOL    HW119355   1.179   5.071   4.120
 6152SOL    HW219356   1.078   4.962   4.187
 6153SOL     OW19357   5.430   5.559   1.427
 6153SOL    HW119358   5.518   5.531   1.466
 6153SOL    HW219359   5.443   5.591   1.334
 6154SOL     OW19360   5.279   3.175   1.757
 6154SOL    HW119361   5.256   3.084   1.722
 6154SOL    HW219362   5.248   3.183   1.852
 6155SOL     OW19363   1.732   1.520   2.985
 6155SOL    HW119364   1.782   1.550   2.904
 6155SOL    HW219365   1.767   1.432   3.016
 6156SOL     OW19366   5.217   5.358   1.431
 6156SOL    HW119367   5.242   5.422   1.503
 6156SOL    HW219368   5.275   5.374   1.350
 6157SOL     OW19369   1.597   2.844   2.209
 6157SOL    HW119370   1.530   2.873   2.140
 6157SOL    HW219371   1.576   2.750   2.238
 6158SOL     OW19372   2.874   2.407   5.251
 6158SOL    HW119373   2.955   2.412   5.193
 6158SOL    HW219374   2.835   2.498   5.263
 6159SOL     OW19375   6.499   2.829   0.803
 6159SOL    HW119376   6.458   2.815   0.713
 6159SOL    HW219377   6.437   2.883   0.860
 6160SOL     OW19378   1.510   0.700   0.399
 6160SOL    HW119379   1.590   0.650   0.432
 6160SOL    HW219380   1.489   0.671   0.306
 6161SOL     OW19381   4.292   3.311   6.629
 6161SOL    HW119382   4.232   3.263   6.694
 6161SOL    HW219383   4.383   3.319   6.668
 6162SOL     OW19384   5.786   5.236   3.375
 6162SOL    HW119385   5.724   5.167   3.412
 6162SOL    HW219386   5.734   5.318   3.351
 6163SOL     OW19387   5.389   6.390   3.878
 6163SOL    HW119388   5.393   6.401   3.978
 6163SOL    HW219389   5.388   6.293   3.856
 6164SOL     OW19390   3.236   3.714   4.408
 6164SOL    HW119391   3.322   3.682   4.448
 6164SOL    HW219392   3.162   3.704   4.474
 6165SOL     OW19393   4.217   1.484   0.237
 6165SOL    HW119394   4.269   1.501   0.320
 6165SOL    HW219395   4.124   1.519   0.248
 6166SOL     OW19396   2.089   2.667   6.367
 6166SOL    HW119397   1.998   2.671   6.407
 6166SOL    HW219398   2.157   2.687   6.437
 6167SOL     OW19399   1.715   4.037   3.587
 6167SOL    HW119400   1.733   3.955   3.641
 6167SOL    HW219401   1.616   4.051   3.580
 6168SOL     OW19402   6.992   3.828   3.995
 6168SOL    HW119403   0.026   3.910   4.004
 6168SOL    HW219404   6.980   3.807   3.898
 6169SOL     OW19405   2.366   0.115   0.368
 6169SOL    HW119406   2.282   0.095   0.319
 6169SOL    HW219407   2.370   0.213   0.389
 6170SOL     OW19408   3.308   3.780   0.402
 6170SOL    HW119409   3.342   3.784   0.308
 6170SOL    HW219410   3.208   3.769   0.401
 6171SOL     OW19411   2.136   3.823   2.288
 6171SOL    HW119412   2.082   3.847   2.207
 6171SOL    HW219413   2.178   3.906   2.326
 6172SOL     OW19414   1.766   6.626   2.883
 6172SOL    HW119415   1.753   6.646   2.786
 6172SOL    HW219416   1.679   6.640   2.931
 6173SOL     OW19417   1.506   6.226   2.332
 6173SOL    HW119418   1.407   6.220   2.316
 6173SOL    HW219419   1.554   6.172   2.263
 6174SOL     OW19420   5.172   5.581   3.008
 6174SOL    HW119421   5.094   5.617   3.059
 6174SOL    HW219422   5.147   5.570   2.912
 6175SOL     OW19423   5.140   0.409   3.509
 6175SOL    HW119424   5.182   0.447   3.426
 6175SOL    HW219425   5.077   0.335   3.484
 6176SOL     OW19426   6.562   3.700   5.489
 6176SOL    HW119427   6.606   3.760   5.422
 6176SOL    HW219428   6.471   3.674   5.456
 6177SOL     OW19429   6.283   2.711   6.978
 6177SOL    HW119430   6.367   2.666   7.007
 6177SOL    HW219431   6.256   2.678   6.888
 6178SOL     OW19432   6.383   2.982   0.997
 6178SOL    HW119433   6.293   3.021   1.017
 6178SOL    HW219434   6.442   2.990   1.077
 6179SOL     OW19435   0.128   2.263   5.638
 6179SOL    HW119436   0.134   2.173   5.596
 6179SOL    HW219437   0.083   2.326   5.576
 6180SOL     OW19438   3.868   6.910   0.273
 6180SOL    HW119439   3.773   6.920   0.242
 6180SOL    HW219440   3.906   7.000   0.294
 6181SOL     OW19441   4.750   6.494   6.606
 6181SOL    HW119442   4.814   6.437   6.556
 6181SOL    HW219443   4.800   6.553   6.669
 6182SOL     OW19444   4.726   6.000   6.528
 6182SOL    HW119445   4.638   5.967   6.563
 6182SOL    HW219446   4.780   6.037   6.603
 6183SOL     OW19447   3.594   0.422   3.316
 6183SOL    HW119448   3.654   0.344   3.334
 6183SOL    HW219449   3.645   0.493   3.268
 6184SOL     OW19450   0.463   7.023   6.898
 6184SOL    HW119451   0.379   7.006   6.950
 6184SOL    HW219452   0.455   0.086   6.848
 6185SOL     OW19453   6.916   3.570   5.735
 6185SOL    HW119454   6.908   3.670   5.739
 6185SOL    HW219455   6.843   3.529   5.791
 6186SOL     OW19456   5.618   0.247   4.800
 6186SOL    HW119457   5.690   0.306   4.762
 6186SOL    HW219458   5.619   0.160   4.752
 6187SOL     OW19459   4.379   4.881   3.542
 6187SOL    HW119460   4.310   4.905   3.473
 6187SOL    HW219461   4.403   4.963   3.594
 6188SOL     OW19462   2.720   6.382   1.498
 6188SOL    HW119463   2.668   6.428   1.425
 6188SOL    HW219464   2.676   6.399   1.586
 6189SOL     OW19465   5.826   4.619   3.141
 6189SOL    HW119466   5.854   4.579   3.228
 6189SOL    HW219467   5.780   4.706   3.158
 6190SOL     OW19468   5.454   2.461   0.068
 6190SOL    HW119469   5.457   2.374   0.116
 6190SOL    HW219470   5.420   2.447   6.998
 6191SOL     OW19471   6.592   2.362   6.963
 6191SOL    HW119472   6.677   2.310   6.956
 6191SOL    HW219473   6.529   2.334   6.891
 6192SOL     OW19474   3.091   2.644   6.660
 6192SOL    HW119475   3.109   2.714   6.590
 6192SOL    HW219476   3.010   2.669   6.712
 6193SOL     OW19477   5.481   0.129   1.443
 6193SOL    HW119478   5.401   0.168   1.489
 6193SOL    HW219479   5.563   0.179   1.471
 6194SOL     OW19480   1.808   0.842   0.374
 6194SOL    HW119481   1.810   0.936   0.409
 6194SOL    HW219482   1.884   0.829   0.310
 6195SOL     OW19483   3.525   0.726   6.498
 6195SOL    HW119484   3.432   0.703   6.528
 6195SOL    HW219485   3.521   0.798   6.429
 6196SOL     OW19486   0.639   1.221   5.684
 6196SOL    HW119487   0.691   1.170   5.753
 6196SOL    HW219488   0.702   1.278   5.632
 6197SOL     OW19489   2.433   3.193   0.517
 6197SOL    HW119490   2.462   3.287   0.499
 6197SOL    HW219491   2.408   3.183   0.613
 6198SOL     OW19492   4.076   4.770   2.469
 6198SOL    HW119493   4.090   4.716   2.387
 6198SOL    HW219494   3.978   4.780   2.487
 6199SOL     OW19495   1.475   6.941   6.345
 6199SOL    HW119496   1.377   6.922   6.351
 6199SOL    HW219497   1.501   7.001   6.420
 6200SOL     OW19498   3.864   0.392   6.512
 6200SOL    HW119499   3.868   0.440   6.600
 6200SOL    HW219500   3.868   0.459   6.438
 6201SOL     OW19501   2.118   4.039   5.223
 6201SOL    HW119502   2.124   3.964   5.290
 6201SOL    HW219503   2.192   4.029   5.156
 6202SOL     OW19504   3.538   1.784   1.151
 6202SOL    HW119505   3.469   1.829   1.208
 6202SOL    HW219506   3.575   1.851   1.086
 6203SOL     OW19507   5.114   1.326   4.304
 6203SOL    HW119508   5.033   1.383   4.307
 6203SOL    HW219509   5.160   1.338   4.216
 6204SOL     OW19510   1.828   6.523   5.909
 6204SOL    HW119511   1.813   6.555   5.815
 6204SOL    HW219512   1.742   6.525   5.959
 6205SOL     OW19513   5.580   5.914   6.516
 6205SOL    HW119514   5.541   5.967   6.591
 6205SOL    HW219515   5.621   5.977   6.449
 6206SOL     OW19516   5.468   0.149   2.155
 6206SOL    HW119517   5.401   0.222   2.168
 6206SOL    HW219518   5.508   0.125   2.244
 6207SOL     OW19519   1.853   4.172   4.813
 6207SOL    HW119520   1.939   4.219   4.791
 6207SOL    HW219521   1.860   4.075   4.788
 6208SOL     OW19522   6.250   6.602   5.721
 6208SOL    HW119523   6.186   6.670   5.756
 6208SOL    HW219524   6.240   6.593   5.622
 6209SOL     OW19525   3.777   5.466   0.676
 6209SOL    HW119526   3.796   5.545   0.734
 6209SOL    HW219527   3.691   5.481   0.626
 6210SOL     OW19528   5.688   4.650   3.632
 6210SOL    HW119529   5.680   4.578   3.563
 6210SOL    HW219530   5.768   4.706   3.612
 6211SOL     OW19531   3.412   6.722   4.777
 6211SOL    HW119532   3.359   6.725   4.862
 6211SOL    HW219533   3.367   6.779   4.708
 6212SOL     OW19534   6.560   6.568   3.902
 6212SOL    HW119535   6.632   6.549   3.835
 6212SOL    HW219536   6.542   6.666   3.905
 6213SOL     OW19537   6.779   6.904   6.690
 6213SOL    HW119538   6.804   6.919   6.594
 6213SOL    HW219539   6.799   6.986   6.743
 6214SOL     OW19540   6.262   4.359   2.608
 6214SOL    HW119541   6.334   4.420   2.640
 6214SOL    HW219542   6.173   4.389   2.643
 6215SOL     OW19543   3.296   3.096   0.484
 6215SOL    HW119544   3.258   3.010   0.517
 6215SOL    HW219545   3.227   3.168   0.490
 6216SOL     OW19546   5.567   1.673   2.217
 6216SOL    HW119547   5.571   1.660   2.316
 6216SOL    HW219548   5.606   1.763   2.194
 6217SOL     OW19549   5.027   3.107   1.125
 6217SOL    HW119550   5.005   3.205   1.128
 6217SOL    HW219551   5.068   3.085   1.037
 6218SOL     OW19552   3.017   5.343   4.810
 6218SOL    HW119553   2.999   5.422   4.752
 6218SOL    HW219554   2.937   5.283   4.812
 6219SOL     OW19555   0.962   1.766   4.817
 6219SOL    HW119556   1.003   1.674   4.824
 6219SOL    HW219557   0.927   1.780   4.724
 6220SOL     OW19558   2.119   4.417   5.253
 6220SOL    HW119559   2.163   4.375   5.334
 6220SOL    HW219560   2.110   4.348   5.181
 6221SOL     OW19561   3.625   5.237   4.290
 6221SOL    HW119562   3.591   5.166   4.229
 6221SOL    HW219563   3.656   5.195   4.376
 6222SOL     OW19564   6.964   0.821   1.233
 6222SOL    HW119565   7.018   0.903   1.253
 6222SOL    HW219566   0.001   0.750   1.198
 6223SOL     OW19567   4.723   2.816   4.808
 6223SOL    HW119568   4.803   2.758   4.791
 6223SOL    HW219569   4.747   2.911   4.785
 6224SOL     OW19570   2.998   1.388   5.084
 6224SOL    HW119571   2.951   1.439   5.012
 6224SOL    HW219572   3.097   1.391   5.068
 6225SOL     OW19573   3.568   2.986   6.986
 6225SOL    HW119574   3.577   2.911   0.029
 6225SOL    HW219575   3.601   2.956   6.897
 6226SOL     OW19576   5.518   0.749   5.057
 6226SOL    HW119577   5.604   0.771   5.011
 6226SOL    HW219578   5.536   0.688   5.134
 6227SOL     OW19579   3.380   4.386   5.876
 6227SOL    HW119580   3.424   4.369   5.788
 6227SOL    HW219581   3.283   4.362   5.869
 6228SOL     OW19582   6.929   0.708   3.103
 6228SOL    HW119583   6.933   0.619   3.150
 6228SOL    HW219584   6.945   0.781   3.169
 6229SOL     OW19585   2.370   2.600   2.157
 6229SOL    HW119586   2.426   2.524   2.123
 6229SOL    HW219587   2.359   2.668   2.085
 6230SOL     OW19588   2.587   2.148   3.371
 6230SOL    HW119589   2.567   2.097   3.454
 6230SOL    HW219590   2.588   2.246   3.391
 6231SOL     OW19591   6.855   5.202   1.755
 6231SOL    HW119592   6.903   5.122   1.790
 6231SOL    HW219593   6.780   5.173   1.695
 6232SOL     OW19594   1.029   1.193   0.020
 6232SOL    HW119595   0.958   1.123   0.012
 6232SOL    HW219596   1.079   1.180   0.105
 6233SOL     OW19597   4.692   1.922   6.929
 6233SOL    HW119598   4.651   1.962   7.011
 6233SOL    HW219599   4.780   1.967   6.911
 6234SOL     OW19600   2.377   1.978   4.013
 6234SOL    HW119601   2.330   1.957   3.928
 6234SOL    HW219602   2.361   1.905   4.079
 6235SOL     OW19603   2.653   6.994   3.312
 6235SOL    HW119604   2.731   6.999   3.375
 6235SOL    HW219605   2.663   6.914   3.253
 6236SOL     OW19606   0.110   4.464   0.860
 6236SOL    HW119607   0.193   4.507   0.896
 6236SOL    HW219608   0.103   4.482   0.762
 6237SOL     OW19609   4.200   6.976   0.611
 6237SOL    HW119610   4.260   6.908   0.654
 6237SOL    HW219611   4.120   6.992   0.669
 6238SOL     OW19612   5.051   5.267   1.193
 6238SOL    HW119613   5.118   5.282   1.265
 6238SOL    HW219614   5.017   5.173   1.198
 6239SOL     OW19615   2.675   0.293   3.170
 6239SOL    HW119616   2.597   0.236   3.197
 6239SOL    HW219617   2.641   0.380   3.135
 6240SOL     OW19618   1.435   3.889   0.711
 6240SOL    HW119619   1.439   3.813   0.646
 6240SOL    HW219620   1.388   3.859   0.794
 6241SOL     OW19621   4.566   0.369   1.450
 6241SOL    HW119622   4.537   0.285   1.403
 6241SOL    HW219623   4.664   0.382   1.438
 6242SOL     OW19624   4.734   2.494   3.599
 6242SOL    HW119625   4.789   2.411   3.590
 6242SOL    HW219626   4.657   2.489   3.537
 6243SOL     OW19627   6.076   6.148   4.037
 6243SOL    HW119628   6.049   6.079   3.970
 6243SOL    HW219629   6.040   6.124   4.126
 6244SOL     OW19630   2.826   1.882   2.219
 6244SOL    HW119631   2.870   1.876   2.308
 6244SOL    HW219632   2.778   1.797   2.199
 6245SOL     OW19633   2.989   4.230   0.826
 6245SOL    HW119634   3.012   4.319   0.866
 6245SOL    HW219635   2.893   4.230   0.798
 6246SOL     OW19636   2.610   1.364   5.667
 6246SOL    HW119637   2.599   1.417   5.751
 6246SOL    HW219638   2.689   1.303   5.677
 6247SOL     OW19639   0.371   6.140   2.943
 6247SOL    HW119640   0.291   6.194   2.971
 6247SOL    HW219641   0.412   6.183   2.863
 6248SOL     OW19642   0.480   4.920   1.171
 6248SOL    HW119643   0.502   4.838   1.118
 6248SOL    HW219644   0.405   4.969   1.127
 6249SOL     OW19645   5.913   4.131   6.534
 6249SOL    HW119646   5.954   4.126   6.625
 6249SOL    HW219647   5.927   4.043   6.487
 6250SOL     OW19648   6.006   6.071   0.099
 6250SOL    HW119649   6.007   5.983   0.052
 6250SOL    HW219650   5.914   6.110   0.094
 6251SOL     OW19651   4.817   1.778   0.312
 6251SOL    HW119652   4.766   1.737   0.236
 6251SOL    HW219653   4.913   1.751   0.305
 6252SOL     OW19654   2.494   6.283   5.312
 6252SOL    HW119655   2.590   6.294   5.287
 6252SOL    HW219656   2.440   6.264   5.231
 6253SOL     OW19657   2.252   3.879   1.958
 6253SOL    HW119658   2.345   3.869   1.995
 6253SOL    HW219659   2.210   3.962   1.996
 6254SOL     OW19660   5.301   0.504   0.499
 6254SOL    HW119661   5.318   0.414   0.539
 6254SOL    HW219662   5.328   0.576   0.564
 6255SOL     OW19663   0.892   1.557   2.653
 6255SOL    HW119664   0.935   1.611   2.726
 6255SOL    HW219665   0.957   1.488   2.621
 6256SOL     OW19666   3.176   5.284   2.925
 6256SOL    HW119667   3.188   5.323   2.833
 6256SOL    HW219668   3.133   5.353   2.984
 6257SOL     OW19669   5.536   2.733   6.846
 6257SOL    HW119670   5.620   2.788   6.844
 6257SOL    HW219671   5.457   2.794   6.853
 6258SOL     OW19672   5.024   1.759   2.192
 6258SOL    HW119673   5.104   1.738   2.249
 6258SOL    HW219674   5.053   1.772   2.097
 6259SOL     OW19675   2.814   2.585   1.714
 6259SOL    HW119676   2.781   2.528   1.638
 6259SOL    HW219677   2.851   2.527   1.786
 6260SOL     OW19678   3.660   3.930   6.915
 6260SOL    HW119679   3.660   3.907   7.012
 6260SOL    HW219680   3.611   3.860   6.864
 6261SOL     OW19681   4.371   0.905   0.488
 6261SOL    HW119682   4.416   0.844   0.423
 6261SOL    HW219683   4.316   0.973   0.438
 6262SOL     OW19684   0.842   5.051   6.159
 6262SOL    HW119685   0.938   5.059   6.132
 6262SOL    HW219686   0.826   5.103   6.243
 6263SOL     OW19687   6.773   0.065   0.747
 6263SOL    HW119688   6.849   0.130   0.755
 6263SOL    HW219689   6.809   6.999   0.718
 6264SOL     OW19690   3.099   1.618   0.747
 6264SOL    HW119691   3.017   1.560   0.757
 6264SOL    HW219692   3.149   1.620   0.833
 6265SOL     OW19693   3.643   2.835   1.093
 6265SOL    HW119694   3.732   2.837   1.138
 6265SOL    HW219695   3.570   2.830   1.162
 6266SOL     OW19696   2.667   0.544   2.915
 6266SOL    HW119697   2.617   0.574   2.833
 6266SOL    HW219698   2.612   0.563   2.996
 6267SOL     OW19699   3.372   0.163   6.404
 6267SOL    HW119700   3.457   0.210   6.383
 6267SOL    HW219701   3.388   0.095   6.475
 6268SOL     OW19702   3.984   5.094   2.513
 6268SOL    HW119703   3.949   5.170   2.458
 6268SOL    HW219704   3.996   5.124   2.608
 6269SOL     OW19705   6.113   5.064   1.472
 6269SOL    HW119706   6.201   5.105   1.445
 6269SOL    HW219707   6.048   5.137   1.495
 6270SOL     OW19708   0.679   0.432   4.976
 6270SOL    HW119709   0.741   0.373   4.925
 6270SOL    HW219710   0.610   0.377   5.022
 6271SOL     OW19711   6.034   1.444   0.772
 6271SOL    HW119712   6.108   1.430   0.838
 6271SOL    HW219713   6.061   1.514   0.706
 6272SOL     OW19714   1.698   1.904   3.281
 6272SOL    HW119715   1.724   1.816   3.241
 6272SOL    HW219716   1.707   1.976   3.212
 6273SOL     OW19717   3.445   1.103   1.355
 6273SOL    HW119718   3.490   1.193   1.358
 6273SOL    HW219719   3.401   1.091   1.266
 6274SOL     OW19720   4.063   6.871   6.232
 6274SOL    HW119721   3.979   6.838   6.275
 6274SOL    HW219722   4.109   6.934   6.294
 6275SOL     OW19723   2.311   0.422   4.644
 6275SOL    HW119724   2.350   0.356   4.709
 6275SOL    HW219725   2.382   0.486   4.616
 6276SOL     OW19726   1.174   5.595   3.839
 6276SOL    HW119727   1.143   5.690   3.842
 6276SOL    HW219728   1.225   5.579   3.755
 6277SOL     OW19729   5.286   3.243   2.946
 6277SOL    HW119730   5.202   3.293   2.926
 6277SOL    HW219731   5.345   3.244   2.865
 6278SOL     OW19732   4.965   0.718   4.597
 6278SOL    HW119733   4.874   0.697   4.632
 6278SOL    HW219734   4.959   0.792   4.530
 6279SOL     OW19735   4.646   2.058   0.130
 6279SOL    HW119736   4.585   2.078   0.207
 6279SOL    HW219737   4.714   2.131   0.122
 6280SOL     OW19738   0.547   4.709   5.900
 6280SOL    HW119739   0.637   4.670   5.920
 6280SOL    HW219740   0.539   4.723   5.801
 6281SOL     OW19741   2.945   6.779   5.491
 6281SOL    HW119742   2.869   6.798   5.428
 6281SOL    HW219743   3.013   6.723   5.445
 6282SOL     OW19744   1.885   0.023   4.374
 6282SOL    HW119745   1.856   0.015   4.279
 6282SOL    HW219746   1.956   6.978   4.393
 6283SOL     OW19747   6.335   2.418   5.040
 6283SOL    HW119748   6.342   2.338   4.980
 6283SOL    HW219749   6.406   2.484   5.016
 6284SOL     OW19750   1.814   4.266   5.850
 6284SOL    HW119751   1.772   4.245   5.762
 6284SOL    HW219752   1.769   4.212   5.922
 6285SOL     OW19753   1.805   4.238   2.726
 6285SOL    HW119754   1.774   4.329   2.752
 6285SOL    HW219755   1.728   4.174   2.731
 6286SOL     OW19756   6.055   1.066   3.709
 6286SOL    HW119757   5.961   1.102   3.704
 6286SOL    HW219758   6.052   0.969   3.734
 6287SOL     OW19759   4.634   4.361   1.685
 6287SOL    HW119760   4.615   4.454   1.651
 6287SOL    HW219761   4.569   4.339   1.758
 6288SOL     OW19762   5.788   3.511   0.901
 6288SOL    HW119763   5.867   3.454   0.876
 6288SOL    HW219764   5.775   3.582   0.832
 6289SOL     OW19765   1.586   1.131   3.784
 6289SOL    HW119766   1.530   1.200   3.830
 6289SOL    HW219767   1.618   1.063   3.851
 6290SOL     OW19768   5.175   3.872   3.158
 6290SOL    HW119769   5.119   3.865   3.241
 6290SOL    HW219770   5.231   3.789   3.148
 6291SOL     OW19771   3.540   4.162   3.507
 6291SOL    HW119772   3.496   4.252   3.511
 6291SOL    HW219773   3.566   4.142   3.412
 6292SOL     OW19774   0.980   2.006   2.470
 6292SOL    HW119775   0.977   1.918   2.422
 6292SOL    HW219776   0.960   1.992   2.567
 6293SOL     OW19777   4.878   0.178   0.234
 6293SOL    HW119778   4.924   0.251   0.181
 6293SOL    HW219779   4.879   0.202   0.331
 6294SOL     OW19780   4.259   5.235   2.691
 6294SOL    HW119781   4.171   5.253   2.735
 6294SOL    HW219782   4.333   5.266   2.752
 6295SOL     OW19783   5.945   6.748   6.535
 6295SOL    HW119784   6.021   6.686   6.552
 6295SOL    HW219785   5.873   6.731   6.603
 6296SOL     OW19786   6.474   1.269   3.258
 6296SOL    HW119787   6.431   1.251   3.346
 6296SOL    HW219788   6.458   1.192   3.196
 6297SOL     OW19789   5.575   6.820   5.349
 6297SOL    HW119790   5.487   6.850   5.385
 6297SOL    HW219791   5.573   6.722   5.331
 6298SOL     OW19792   1.334   1.969   5.101
 6298SOL    HW119793   1.282   2.022   5.035
 6298SOL    HW219794   1.428   1.958   5.068
 6299SOL     OW19795   6.164   3.029   6.883
 6299SOL    HW119796   6.256   2.991   6.889
 6299SOL    HW219797   6.102   2.978   6.942
 6300SOL     OW19798   5.216   0.164   3.950
 6300SOL    HW119799   5.232   0.213   3.865
 6300SOL    HW219800   5.261   0.212   4.025
 6301SOL     OW19801   3.032   6.851   0.747
 6301SOL    HW119802   3.081   6.876   0.664
 6301SOL    HW219803   3.074   6.770   0.788
 6302SOL     OW19804   0.895   0.834   3.642
 6302SOL    HW119805   0.979   0.824   3.695
 6302SOL    HW219806   0.830   0.762   3.668
 6303SOL     OW19807   2.017   6.165   5.383
 6303SOL    HW119808   1.969   6.132   5.302
 6303SOL    HW219809   2.074   6.091   5.420
 6304SOL     OW19810   3.274   1.147   6.848
 6304SOL    HW119811   3.181   1.134   6.815
 6304SOL    HW219812   3.278   1.133   6.947
 6305SOL     OW19813   6.408   0.602   0.940
 6305SOL    HW119814   6.467   0.657   0.881
 6305SOL    HW219815   6.334   0.564   0.886
 6306SOL     OW19816   6.419   2.890   3.675
 6306SOL    HW119817   6.341   2.830   3.694
 6306SOL    HW219818   6.388   2.970   3.624
 6307SOL     OW19819   2.294   4.696   0.770
 6307SOL    HW119820   2.239   4.777   0.790
 6307SOL    HW219821   2.233   4.620   0.748
 6308SOL     OW19822   3.130   2.048   5.187
 6308SOL    HW119823   3.219   2.041   5.232
 6308SOL    HW219824   3.125   2.135   5.138
 6309SOL     OW19825   5.642   2.207   4.307
 6309SOL    HW119826   5.640   2.281   4.375
 6309SOL    HW219827   5.737   2.177   4.294
 6310SOL     OW19828   1.646   4.998   4.960
 6310SOL    HW119829   1.640   5.072   5.027
 6310SOL    HW219830   1.742   4.975   4.944
 6311SOL     OW19831   5.747   0.772   4.934
 6311SOL    HW119832   5.723   0.748   4.839
 6311SOL    HW219833   5.809   0.850   4.934
 6312SOL     OW19834   3.870   5.200   5.602
 6312SOL    HW119835   3.830   5.253   5.678
 6312SOL    HW219836   3.855   5.249   5.516
 6313SOL     OW19837   2.181   5.250   3.032
 6313SOL    HW119838   2.148   5.196   2.955
 6313SOL    HW219839   2.159   5.347   3.018
 6314SOL     OW19840   2.855   6.367   3.287
 6314SOL    HW119841   2.758   6.360   3.265
 6314SOL    HW219842   2.875   6.314   3.370
 6315SOL     OW19843   2.839   3.015   0.530
 6315SOL    HW119844   2.840   3.113   0.513
 6315SOL    HW219845   2.797   2.996   0.618
 6316SOL     OW19846   5.623   2.270   5.796
 6316SOL    HW119847   5.643   2.280   5.698
 6316SOL    HW219848   5.646   2.177   5.825
 6317SOL     OW19849   6.330   6.341   4.375
 6317SOL    HW119850   6.357   6.395   4.295
 6317SOL    HW219851   6.239   6.369   4.404
 6318SOL     OW19852   2.384   1.848   4.712
 6318SOL    HW119853   2.480   1.821   4.706
 6318SOL    HW219854   2.378   1.938   4.755
 6319SOL     OW19855   7.021   1.663   3.372
 6319SOL    HW119856   6.958   1.741   3.372
 6319SOL    HW219857   7.000   1.604   3.294
 6320SOL     OW19858   6.242   3.175   3.228
 6320SOL    HW119859   6.336   3.140   3.227
 6320SOL    HW219860   6.199   3.158   3.140
 6321SOL     OW19861   2.759   3.726   0.487
 6321SOL    HW119862   2.701   3.739   0.567
 6321SOL    HW219863   2.760   3.810   0.432
 6322SOL     OW19864   1.298   0.993   6.970
 6322SOL    HW119865   1.263   0.989   0.040
 6322SOL    HW219866   1.291   1.087   6.936
 6323SOL     OW19867   3.690   2.599   0.425
 6323SOL    HW119868   3.782   2.610   0.465
 6323SOL    HW219869   3.697   2.551   0.338
 6324SOL     OW19870   4.363   1.091   6.501
 6324SOL    HW119871   4.462   1.095   6.518
 6324SOL    HW219872   4.315   1.133   6.578
 6325SOL     OW19873   1.169   2.249   2.678
 6325SOL    HW119874   1.098   2.236   2.609
 6325SOL    HW219875   1.258   2.260   2.634
 6326SOL     OW19876   5.249   5.931   1.421
 6326SOL    HW119877   5.234   6.026   1.393
 6326SOL    HW219878   5.328   5.926   1.482
 6327SOL     OW19879   5.388   5.521   5.789
 6327SOL    HW119880   5.360   5.596   5.848
 6327SOL    HW219881   5.310   5.459   5.775
 6328SOL     OW19882   2.940   4.228   6.508
 6328SOL    HW119883   2.857   4.179   6.484
 6328SOL    HW219884   2.931   4.324   6.482
 6329SOL     OW19885   0.573   1.712   3.493
 6329SOL    HW119886   0.495   1.681   3.438
 6329SOL    HW219887   0.642   1.752   3.433
 6330SOL     OW19888   3.956   1.525   0.381
 6330SOL    HW119889   3.857   1.517   0.375
 6330SOL    HW219890   3.984   1.618   0.357
 6331SOL     OW19891   6.412   2.847   1.778
 6331SOL    HW119892   6.377   2.812   1.691
 6331SOL    HW219893   6.459   2.933   1.763
 6332SOL     OW19894   5.526   6.310   1.496
 6332SOL    HW119895   5.434   6.275   1.513
 6332SOL    HW219896   5.537   6.398   1.542
 6333SOL     OW19897   3.207   5.013   2.607
 6333SOL    HW119898   3.212   4.959   2.523
 6333SOL    HW219899   3.158   5.098   2.589
 6334SOL     OW19900   2.247   1.530   2.966
 6334SOL    HW119901   2.235   1.601   3.034
 6334SOL    HW219902   2.208   1.444   3.000
 6335SOL     OW19903   0.038   1.542   6.720
 6335SOL    HW119904   6.969   1.582   6.714
 6335SOL    HW219905   0.097   1.601   6.775
 6336SOL     OW19906   0.429   2.485   4.693
 6336SOL    HW119907   0.396   2.515   4.604
 6336SOL    HW219908   0.353   2.480   4.757
 6337SOL     OW19909   6.066   4.755   5.530
 6337SOL    HW119910   6.073   4.669   5.579
 6337SOL    HW219911   6.095   4.743   5.435
 6338SOL     OW19912   3.913   0.941   3.307
 6338SOL    HW119913   4.001   0.940   3.354
 6338SOL    HW219914   3.927   0.933   3.209
 6339SOL     OW19915   6.603   2.018   4.191
 6339SOL    HW119916   6.537   1.967   4.245
 6339SOL    HW219917   6.570   2.028   4.098
 6340SOL     OW19918   1.958   5.614   4.010
 6340SOL    HW119919   1.986   5.587   3.917
 6340SOL    HW219920   2.025   5.679   4.046
 6341SOL     OW19921   0.486   4.955   3.387
 6341SOL    HW119922   0.516   4.864   3.417
 6341SOL    HW219923   0.393   4.948   3.349
 6342SOL     OW19924   1.631   2.639   1.028
 6342SOL    HW119925   1.595   2.573   1.094
 6342SOL    HW219926   1.731   2.631   1.023
 6343SOL     OW19927   4.018   1.315   6.792
 6343SOL    HW119928   4.025   1.403   6.838
 6343SOL    HW219929   3.994   1.244   6.859
 6344SOL     OW19930   0.904   4.219   4.381
 6344SOL    HW119931   0.957   4.299   4.354
 6344SOL    HW219932   0.853   4.239   4.465
 6345SOL     OW19933   3.659   1.837   2.431
 6345SOL    HW119934   3.747   1.873   2.463
 6345SOL    HW219935   3.615   1.904   2.372
 6346SOL     OW19936   0.796   4.668   3.468
 6346SOL    HW119937   0.697   4.654   3.473
 6346SOL    HW219938   0.818   4.762   3.492
 6347SOL     OW19939   3.026   0.551   1.331
 6347SOL    HW119940   2.963   0.600   1.270
 6347SOL    HW219941   3.072   0.479   1.279
 6348SOL     OW19942   1.113   3.096   4.415
 6348SOL    HW119943   1.049   3.020   4.410
 6348SOL    HW219944   1.201   3.068   4.378
 6349SOL     OW19945   2.579   0.304   0.545
 6349SOL    HW119946   2.603   0.366   0.470
 6349SOL    HW219947   2.623   0.216   0.530
 6350SOL     OW19948   1.218   6.370   2.294
 6350SOL    HW119949   1.170   6.397   2.210
 6350SOL    HW219950   1.288   6.438   2.315
 6351SOL     OW19951   6.905   0.951   2.830
 6351SOL    HW119952   6.818   0.915   2.799
 6351SOL    HW219953   6.966   0.965   2.752
 6352SOL     OW19954   0.484   5.754   1.991
 6352SOL    HW119955   0.526   5.819   2.055
 6352SOL    HW219956   0.444   5.678   2.042
 6353SOL     OW19957   0.283   6.609   1.541
 6353SOL    HW119958   0.213   6.579   1.606
 6353SOL    HW219959   0.358   6.653   1.591
 6354SOL     OW19960   0.404   6.580   3.530
 6354SOL    HW119961   0.449   6.492   3.549
 6354SOL    HW219962   0.339   6.600   3.604
 6355SOL     OW19963   2.141   2.602   2.951
 6355SOL    HW119964   2.134   2.504   2.969
 6355SOL    HW219965   2.056   2.647   2.977
 6356SOL     OW19966   3.474   3.505   1.354
 6356SOL    HW119967   3.547   3.438   1.346
 6356SOL    HW219968   3.422   3.488   1.438
 6357SOL     OW19969   4.673   1.720   0.089
 6357SOL    HW119970   4.577   1.711   0.063
 6357SOL    HW219971   4.719   1.782   0.024
 6358SOL     OW19972   6.499   2.042   3.617
 6358SOL    HW119973   6.400   2.036   3.604
 6358SOL    HW219974   6.545   1.990   3.545
 6359SOL     OW19975   0.001   1.149   0.124
 6359SOL    HW119976   6.956   1.096   0.174
 6359SOL    HW219977   6.985   1.182   0.038
 6360SOL     OW19978   3.380   5.859   3.881
 6360SOL    HW119979   3.335   5.783   3.928
 6360SOL    HW219980   3.430   5.825   3.802
 6361SOL     OW19981   4.534   6.049   6.016
 6361SOL    HW119982   4.439   6.073   6.035
 6361SOL    HW219983   4.574   6.007   6.097
 6362SOL     OW19984   6.214   5.403   6.931
 6362SOL    HW119985   6.188   5.318   6.885
 6362SOL    HW219986   6.159   5.414   7.014
 6363SOL     OW19987   0.710   5.552   4.504
 6363SOL    HW119988   0.781   5.494   4.542
 6363SOL    HW219989   0.743   5.595   4.419
 6364SOL     OW19990   2.589   2.439   5.993
 6364SOL    HW119991   2.617   2.353   5.951
 6364SOL    HW219992   2.589   2.429   6.093
 6365SOL     OW19993   5.094   6.399   3.030
 6365SOL    HW119994   5.037   6.409   2.949
 6365SOL    HW219995   5.107   6.301   3.049
 6366SOL     OW19996   0.539   5.005   5.509
 6366SOL    HW119997   0.482   5.087   5.509
 6366SOL    HW219998   0.571   4.987   5.602
 6367SOL     OW19999   5.761   6.618   3.903
 6367SOL    HW120000   5.715   6.631   3.991
 6367SOL    HW220001   5.698   6.571   3.840
 6368SOL     OW20002   2.794   0.331   4.034
 6368SOL    HW120003   2.879   0.383   4.028
 6368SOL    HW220004   2.778   0.284   3.947
 6369SOL     OW20005   2.503   5.381   4.391
 6369SOL    HW120006   2.554   5.355   4.309
 6369SOL    HW220007   2.558   5.445   4.445
 6370SOL     OW20008   5.927   2.803   1.472
 6370SOL    HW120009   5.833   2.831   1.491
 6370SOL    HW220010   5.984   2.885   1.462
 6371SOL     OW20011   4.930   2.524   3.047
 6371SOL    HW120012   5.003   2.592   3.032
 6371SOL    HW220013   4.929   2.460   2.970
 6372SOL     OW20014   2.926   6.047   2.409
 6372SOL    HW120015   2.835   6.064   2.372
 6372SOL    HW220016   2.932   5.954   2.444
 6373SOL     OW20017   3.778   4.486   6.704
 6373SOL    HW120018   3.848   4.536   6.756
 6373SOL    HW220019   3.784   4.511   6.607
 6374SOL     OW20020   2.854   3.428   2.167
 6374SOL    HW120021   2.754   3.415   2.164
 6374SOL    HW220022   2.899   3.351   2.123
 6375SOL     OW20023   1.754   6.632   2.570
 6375SOL    HW120024   1.682   6.688   2.610
 6375SOL    HW220025   1.718   6.542   2.547
 6376SOL     OW20026   0.204   2.354   5.286
 6376SOL    HW120027   0.299   2.338   5.311
 6376SOL    HW220028   0.176   2.288   5.217
 6377SOL     OW20029   0.586   0.715   3.994
 6377SOL    HW120030   0.497   0.674   4.014
 6377SOL    HW220031   0.627   0.668   3.915
 6378SOL     OW20032   4.784   4.058   3.575
 6378SOL    HW120033   4.739   4.062   3.665
 6378SOL    HW220034   4.744   4.127   3.515
 6379SOL     OW20035   2.384   4.447   3.239
 6379SOL    HW120036   2.441   4.519   3.201
 6379SOL    HW220037   2.340   4.397   3.165
 6380SOL     OW20038   0.217   0.871   6.113
 6380SOL    HW120039   0.264   0.858   6.026
 6380SOL    HW220040   0.284   0.876   6.187
 6381SOL     OW20041   3.174   4.123   2.793
 6381SOL    HW120042   3.124   4.054   2.845
 6381SOL    HW220043   3.139   4.125   2.699
 6382SOL     OW20044   0.772   3.696   5.465
 6382SOL    HW120045   0.744   3.735   5.553
 6382SOL    HW220046   0.850   3.748   5.429
 6383SOL     OW20047   3.109   0.784   4.577
 6383SOL    HW120048   3.087   0.695   4.617
 6383SOL    HW220049   3.161   0.770   4.493
 6384SOL     OW20050   6.656   4.668   3.356
 6384SOL    HW120051   6.568   4.712   3.341
 6384SOL    HW220052   6.692   4.694   3.446
 6385SOL     OW20053   0.219   5.641   4.434
 6385SOL    HW120054   0.246   5.658   4.339
 6385SOL    HW220055   0.297   5.604   4.484
 6386SOL     OW20056   2.863   5.283   1.225
 6386SOL    HW120057   2.889   5.219   1.297
 6386SOL    HW220058   2.945   5.321   1.182
 6387SOL     OW20059   6.409   0.643   5.242
 6387SOL    HW120060   6.404   0.711   5.316
 6387SOL    HW220061   6.502   0.642   5.205
 6388SOL     OW20062   2.551   4.713   2.320
 6388SOL    HW120063   2.649   4.706   2.340
 6388SOL    HW220064   2.504   4.752   2.399
 6389SOL     OW20065   0.846   4.659   2.948
 6389SOL    HW120066   0.836   4.701   2.858
 6389SOL    HW220067   0.755   4.639   2.986
 6390SOL     OW20068   0.812   3.315   4.308
 6390SOL    HW120069   0.749   3.248   4.267
 6390SOL    HW220070   0.903   3.303   4.269
 6391SOL     OW20071   3.148   1.238   0.512
 6391SOL    HW120072   3.162   1.333   0.483
 6391SOL    HW220073   3.233   1.186   0.501
 6392SOL     OW20074   1.446   6.830   4.064
 6392SOL    HW120075   1.409   6.798   3.977
 6392SOL    HW220076   1.457   6.929   4.061
 6393SOL     OW20077   5.881   6.525   0.180
 6393SOL    HW120078   5.852   6.612   0.139
 6393SOL    HW220079   5.968   6.497   0.140
 6394SOL     OW20080   2.577   4.577   0.830
 6394SOL    HW120081   2.549   4.539   0.743
 6394SOL    HW220082   2.532   4.665   0.844
 6395SOL     OW20083   6.006   1.847   0.907
 6395SOL    HW120084   6.065   1.838   0.986
 6395SOL    HW220085   6.028   1.933   0.859
 6396SOL     OW20086   5.064   4.115   5.011
 6396SOL    HW120087   5.031   4.162   5.093
 6396SOL    HW220088   5.150   4.069   5.032
 6397SOL     OW20089   0.352   1.433   1.002
 6397SOL    HW120090   0.336   1.410   1.098
 6397SOL    HW220091   0.348   1.532   0.990
 6398SOL     OW20092   3.382   1.443   1.592
 6398SOL    HW120093   3.435   1.520   1.556
 6398SOL    HW220094   3.443   1.381   1.642
 6399SOL     OW20095   2.461   5.274   6.485
 6399SOL    HW120096   2.554   5.309   6.474
 6399SOL    HW220097   2.426   5.245   6.396
 6400SOL     OW20098   2.565   5.286   3.624
 6400SOL    HW120099   2.469   5.258   3.619
 6400SOL    HW220100   2.572   5.385   3.618
 6401SOL     OW20101   0.896   4.972   3.918
 6401SOL    HW120102   0.868   4.945   4.011
 6401SOL    HW220103   0.987   4.935   3.898
 6402SOL     OW20104   2.205   1.154   3.114
 6402SOL    HW120105   2.110   1.127   3.097
 6402SOL    HW220106   2.264   1.072   3.114
 6403SOL     OW20107   0.114   6.172   0.218
 6403SOL    HW120108   0.214   6.179   0.228
 6403SOL    HW220109   0.079   6.105   0.284
 6404SOL     OW20110   5.216   0.971   2.790
 6404SOL    HW120111   5.147   0.946   2.858
 6404SOL    HW220112   5.249   0.889   2.744
 6405SOL     OW20113   2.842   1.349   2.446
 6405SOL    HW120114   2.852   1.250   2.438
 6405SOL    HW220115   2.776   1.381   2.378
 6406SOL     OW20116   2.563   2.009   3.617
 6406SOL    HW120117   2.474   1.975   3.648
 6406SOL    HW220118   2.634   1.944   3.644
 6407SOL     OW20119   3.959   5.480   6.164
 6407SOL    HW120120   4.045   5.501   6.211
 6407SOL    HW220121   3.914   5.404   6.211
 6408SOL     OW20122   6.367   1.897   6.974
 6408SOL    HW120123   6.362   1.986   7.018
 6408SOL    HW220124   6.422   1.903   6.891
 6409SOL     OW20125   1.493   4.382   2.260
 6409SOL    HW120126   1.507   4.293   2.302
 6409SOL    HW220127   1.397   4.410   2.270
 6410SOL     OW20128   1.057   1.486   1.393
 6410SOL    HW120129   0.964   1.469   1.361
 6410SOL    HW220130   1.122   1.471   1.318
 6411SOL     OW20131   1.389   0.779   3.386
 6411SOL    HW120132   1.370   0.696   3.334
 6411SOL    HW220133   1.481   0.773   3.426
 6412SOL     OW20134   6.980   2.419   4.927
 6412SOL    HW120135   6.914   2.375   4.865
 6412SOL    HW220136   6.933   2.452   5.009
 6413SOL     OW20137   6.895   4.715   0.677
 6413SOL    HW120138   6.968   4.724   0.744
 6413SOL    HW220139   6.817   4.669   0.719
 6414SOL     OW20140   5.571   6.536   2.288
 6414SOL    HW120141   5.524   6.507   2.371
 6414SOL    HW220142   5.655   6.483   2.276
 6415SOL     OW20143   1.866   1.983   2.160
 6415SOL    HW120144   1.868   1.887   2.186
 6415SOL    HW220145   1.784   2.026   2.198
 6416SOL     OW20146   1.161   0.612   6.510
 6416SOL    HW120147   1.179   0.519   6.481
 6416SOL    HW220148   1.180   0.621   6.608
 6417SOL     OW20149   0.690   6.984   2.747
 6417SOL    HW120150   0.780   6.971   2.706
 6417SOL    HW220151   0.697   0.029   2.821
 6418SOL     OW20152   6.127   6.080   2.320
 6418SOL    HW120153   6.197   6.119   2.259
 6418SOL    HW220154   6.135   5.981   2.320
 6419SOL     OW20155   2.989   4.943   1.703
 6419SOL    HW120156   3.057   4.924   1.632
 6419SOL    HW220157   3.014   5.027   1.752
 6420SOL     OW20158   1.415   3.963   0.180
 6420SOL    HW120159   1.395   4.047   0.128
 6420SOL    HW220160   1.330   3.925   0.216
 6421SOL     OW20161   5.258   1.944   0.810
 6421SOL    HW120162   5.183   1.880   0.792
 6421SOL    HW220163   5.317   1.950   0.730
 6422SOL     OW20164   5.836   1.463   3.339
 6422SOL    HW120165   5.882   1.439   3.425
 6422SOL    HW220166   5.901   1.453   3.264
 6423SOL     OW20167   5.002   3.950   0.346
 6423SOL    HW120168   4.937   3.884   0.385
 6423SOL    HW220169   5.010   3.933   0.248
 6424SOL     OW20170   6.970   4.851   5.675
 6424SOL    HW120171   6.873   4.849   5.699
 6424SOL    HW220172   0.002   4.864   5.758
 6425SOL     OW20173   0.706   4.804   1.699
 6425SOL    HW120174   0.757   4.735   1.647
 6425SOL    HW220175   0.729   4.895   1.664
 6426SOL     OW20176   0.050   3.068   3.993
 6426SOL    HW120177   6.983   3.067   3.949
 6426SOL    HW220178   0.091   3.159   3.982
 6427SOL     OW20179   2.040   3.450   5.314
 6427SOL    HW120180   2.004   3.543   5.321
 6427SOL    HW220181   2.013   3.410   5.226
 6428SOL     OW20182   6.895   3.379   2.501
 6428SOL    HW120183   6.858   3.315   2.569
 6428SOL    HW220184   6.848   3.466   2.507
 6429SOL     OW20185   1.462   0.728   4.378
 6429SOL    HW120186   1.466   0.787   4.459
 6429SOL    HW220187   1.392   0.658   4.392
 6430SOL     OW20188   6.062   3.351   1.146
 6430SOL    HW120189   6.139   3.397   1.191
 6430SOL    HW220190   6.019   3.414   1.081
 6431SOL     OW20191   5.743   0.284   2.900
 6431SOL    HW120192   5.741   0.263   2.998
 6431SOL    HW220193   5.789   0.371   2.885
 6432SOL     OW20194   5.309   3.216   0.944
 6432SOL    HW120195   5.336   3.267   0.862
 6432SOL    HW220196   5.293   3.121   0.921
 6433SOL     OW20197   2.709   3.815   1.618
 6433SOL    HW120198   2.614   3.819   1.648
 6433SOL    HW220199   2.770   3.823   1.696
 6434SOL     OW20200   1.415   4.880   0.958
 6434SOL    HW120201   1.390   4.866   1.054
 6434SOL    HW220202   1.414   4.978   0.938
 6435SOL     OW20203   4.917   4.165   6.824
 6435SOL    HW120204   4.869   4.092   6.872
 6435SOL    HW220205   4.861   4.198   6.748
 6436SOL     OW20206   1.616   3.104   3.015
 6436SOL    HW120207   1.695   3.131   2.959
 6436SOL    HW220208   1.562   3.185   3.037
 6437SOL     OW20209   1.030   0.689   6.772
 6437SOL    HW120210   1.100   0.760   6.783
 6437SOL    HW220211   1.071   0.599   6.787
 6438SOL     OW20212   1.236   3.522   3.749
 6438SOL    HW120213   1.330   3.520   3.714
 6438SOL    HW220214   1.237   3.500   3.846
 6439SOL     OW20215   0.431   0.406   1.669
 6439SOL    HW120216   0.346   0.358   1.689
 6439SOL    HW220217   0.438   0.421   1.570
 6440SOL     OW20218   0.988   1.691   2.853
 6440SOL    HW120219   0.922   1.758   2.886
 6440SOL    HW220220   1.080   1.730   2.855
 6441SOL     OW20221   3.017   1.336   3.261
 6441SOL    HW120222   2.961   1.324   3.179
 6441SOL    HW220223   3.103   1.380   3.236
 6442SOL     OW20224   3.436   1.241   3.653
 6442SOL    HW120225   3.513   1.289   3.696
 6442SOL    HW220226   3.404   1.293   3.575
 6443SOL     OW20227   2.889   1.277   0.419
 6443SOL    HW120228   2.908   1.358   0.363
 6443SOL    HW220229   2.971   1.253   0.471
 6444SOL     OW20230   0.418   0.994   3.302
 6444SOL    HW120231   0.394   1.016   3.208
 6444SOL    HW220232   0.442   1.078   3.351
 6445SOL     OW20233   4.145   3.347   5.543
 6445SOL    HW120234   4.224   3.299   5.582
 6445SOL    HW220235   4.061   3.305   5.577
 6446SOL     OW20236   6.274   1.582   0.464
 6446SOL    HW120237   6.260   1.679   0.442
 6446SOL    HW220238   6.299   1.573   0.560
 6447SOL     OW20239   0.857   0.885   2.964
 6447SOL    HW120240   0.887   0.917   2.874
 6447SOL    HW220241   0.913   0.807   2.991
 6448SOL     OW20242   5.790   2.825   2.855
 6448SOL    HW120243   5.782   2.749   2.919
 6448SOL    HW220244   5.711   2.886   2.865
 6449SOL     OW20245   3.110   2.944   1.078
 6449SOL    HW120246   3.152   3.005   1.145
 6449SOL    HW220247   3.105   2.991   0.989
 6450SOL     OW20248   6.722   3.306   0.273
 6450SOL    HW120249   6.630   3.302   0.234
 6450SOL    HW220250   6.723   3.262   0.363
 6451SOL     OW20251   2.367   6.864   4.693
 6451SOL    HW120252   2.448   6.854   4.751
 6451SOL    HW220253   2.348   6.962   4.678
 6452SOL     OW20254   3.822   6.202   3.527
 6452SOL    HW120255   3.898   6.181   3.588
 6452SOL    HW220256   3.773   6.118   3.504
 6453SOL     OW20257   1.771   5.662   6.425
 6453SOL    HW120258   1.782   5.581   6.483
 6453SOL    HW220259   1.861   5.702   6.406
 6454SOL     OW20260   3.263   1.381   5.030
 6454SOL    HW120261   3.298   1.472   5.055
 6454SOL    HW220262   3.280   1.365   4.933
 6455SOL     OW20263   6.021   2.786   5.586
 6455SOL    HW120264   6.024   2.686   5.577
 6455SOL    HW220265   5.960   2.823   5.516
 6456SOL     OW20266   0.046   0.892   4.205
 6456SOL    HW120267   0.078   0.818   4.146
 6456SOL    HW220268   0.075   0.980   4.167
 6457SOL     OW20269   6.667   2.980   0.993
 6457SOL    HW120270   6.751   2.930   0.971
 6457SOL    HW220271   6.596   2.956   0.926
 6458SOL     OW20272   1.435   5.876   2.606
 6458SOL    HW120273   1.416   5.968   2.572
 6458SOL    HW220274   1.527   5.873   2.646
 6459SOL     OW20275   5.602   4.516   0.395
 6459SOL    HW120276   5.633   4.431   0.436
 6459SOL    HW220277   5.518   4.500   0.344
 6460SOL     OW20278   3.536   5.050   6.044
 6460SOL    HW120279   3.438   5.056   6.062
 6460SOL    HW220280   3.561   5.117   5.973
 6461SOL     OW20281   3.749   5.475   4.622
 6461SOL    HW120282   3.766   5.533   4.701
 6461SOL    HW220283   3.660   5.429   4.633
 6462SOL     OW20284   2.159   3.456   4.440
 6462SOL    HW120285   2.198   3.384   4.383
 6462SOL    HW220286   2.133   3.417   4.529
 6463SOL     OW20287   1.401   4.671   5.430
 6463SOL    HW120288   1.459   4.736   5.381
 6463SOL    HW220289   1.434   4.579   5.415
 6464SOL     OW20290   0.781   5.154   3.278
 6464SOL    HW120291   0.735   5.224   3.333
 6464SOL    HW220292   0.718   5.078   3.262
 6465SOL     OW20293   6.461   0.808   2.997
 6465SOL    HW120294   6.551   0.766   3.004
 6465SOL    HW220295   6.397   0.759   3.056
 6466SOL     OW20296   6.961   2.692   4.679
 6466SOL    HW120297   0.003   2.620   4.657
 6466SOL    HW220298   6.946   2.696   4.778
 6467SOL     OW20299   2.627   0.692   6.630
 6467SOL    HW120300   2.563   0.763   6.602
 6467SOL    HW220301   2.720   0.721   6.607
 6468SOL     OW20302   5.015   5.100   0.928
 6468SOL    HW120303   4.980   5.095   1.021
 6468SOL    HW220304   4.983   5.183   0.884
 6469SOL     OW20305   6.983   1.234   5.599
 6469SOL    HW120306   6.925   1.312   5.580
 6469SOL    HW220307   6.964   1.200   5.691
 6470SOL     OW20308   6.638   7.002   5.873
 6470SOL    HW120309   6.633   6.969   5.779
 6470SOL    HW220310   6.564   6.961   5.927
 6471SOL     OW20311   5.631   4.710   5.799
 6471SOL    HW120312   5.677   4.752   5.877
 6471SOL    HW220313   5.696   4.697   5.725
 6472SOL     OW20314   1.194   6.304   0.992
 6472SOL    HW120315   1.134   6.337   1.065
 6472SOL    HW220316   1.148   6.314   0.904
 6473SOL     OW20317   2.361   1.752   6.264
 6473SOL    HW120318   2.428   1.679   6.281
 6473SOL    HW220319   2.273   1.711   6.238
 6474SOL     OW20320   1.876   3.255   5.603
 6474SOL    HW120321   1.953   3.204   5.641
 6474SOL    HW220322   1.910   3.329   5.545
 6475SOL     OW20323   4.259   6.248   3.854
 6475SOL    HW120324   4.296   6.278   3.766
 6475SOL    HW220325   4.251   6.326   3.916
 6476SOL     OW20326   4.533   5.038   2.855
 6476SOL    HW120327   4.490   5.122   2.887
 6476SOL    HW220328   4.483   5.002   2.776
 6477SOL     OW20329   6.690   5.272   6.676
 6477SOL    HW120330   6.727   5.350   6.625
 6477SOL    HW220331   6.645   5.209   6.612
 6478SOL     OW20332   4.668   6.381   0.666
 6478SOL    HW120333   4.701   6.415   0.578
 6478SOL    HW220334   4.669   6.281   0.665
 6479SOL     OW20335   3.952   5.234   2.749
 6479SOL    HW120336   3.913   5.326   2.745
 6479SOL    HW220337   3.880   5.167   2.766
 6480SOL     OW20338   2.943   2.265   6.828
 6480SOL    HW120339   2.953   2.173   6.866
 6480SOL    HW220340   3.029   2.293   6.786
 6481SOL     OW20341   4.982   1.098   1.224
 6481SOL    HW120342   5.082   1.097   1.222
 6481SOL    HW220343   4.949   1.054   1.307
 6482SOL     OW20344   0.091   0.509   6.764
 6482SOL    HW120345   0.102   0.416   6.800
 6482SOL    HW220346   0.032   0.561   6.825
 6483SOL     OW20347   2.042   6.537   2.844
 6483SOL    HW120348   2.052   6.574   2.752
 6483SOL    HW220349   1.955   6.567   2.883
 6484SOL     OW20350   4.922   6.843   3.729
 6484SOL    HW120351   4.961   6.792   3.805
 6484SOL    HW220352   4.937   6.941   3.742
 6485SOL     OW20353   1.561   2.789   3.224
 6485SOL    HW120354   1.629   2.716   3.222
 6485SOL    HW220355   1.570   2.845   3.141
 6486SOL     OW20356   1.825   3.477   3.508
 6486SOL    HW120357   1.878   3.453   3.590
 6486SOL    HW220358   1.856   3.420   3.432
 6487SOL     OW20359   5.910   6.431   4.185
 6487SOL    HW120360   5.967   6.377   4.123
 6487SOL    HW220361   5.933   6.528   4.175
 6488SOL     OW20362   3.438   5.437   5.900
 6488SOL    HW120363   3.347   5.424   5.938
 6488SOL    HW220364   3.434   5.509   5.830
 6489SOL     OW20365   1.787   1.725   5.470
 6489SOL    HW120366   1.830   1.739   5.559
 6489SOL    HW220367   1.852   1.747   5.397
 6490SOL     OW20368   3.298   0.971   0.486
 6490SOL    HW120369   3.398   0.977   0.487
 6490SOL    HW220370   3.271   0.875   0.475
 6491SOL     OW20371   3.909   1.835   6.767
 6491SOL    HW120372   3.819   1.815   6.806
 6491SOL    HW220373   3.966   1.880   6.836
 6492SOL     OW20374   5.747   6.194   0.267
 6492SOL    HW120375   5.718   6.288   0.250
 6492SOL    HW220376   5.847   6.189   0.264
 6493SOL     OW20377   0.867   6.562   6.100
 6493SOL    HW120378   0.932   6.497   6.139
 6493SOL    HW220379   0.775   6.523   6.101
 6494SOL     OW20380   1.243   0.566   3.732
 6494SOL    HW120381   1.184   0.615   3.796
 6494SOL    HW220382   1.302   0.632   3.684
 6495SOL     OW20383   5.580   4.751   2.882
 6495SOL    HW120384   5.535   4.794   2.805
 6495SOL    HW220385   5.588   4.653   2.866
 6496SOL     OW20386   1.848   0.084   2.519
 6496SOL    HW120387   1.827   0.111   2.613
 6496SOL    HW220388   1.809   7.016   2.501
 6497SOL     OW20389   0.754   4.333   0.145
 6497SOL    HW120390   0.827   4.358   0.209
 6497SOL    HW220391   0.674   4.390   0.162
 6498SOL     OW20392   1.482   4.764   4.253
 6498SOL    HW120393   1.514   4.687   4.198
 6498SOL    HW220394   1.463   4.734   4.346
 6499SOL     OW20395   5.955   1.153   4.333
 6499SOL    HW120396   5.884   1.086   4.311
 6499SOL    HW220397   5.916   1.226   4.389
 6500SOL     OW20398   5.371   5.163   3.796
 6500SOL    HW120399   5.345   5.244   3.849
 6500SOL    HW220400   5.297   5.096   3.800
 6501SOL     OW20401   0.158   4.131   1.221
 6501SOL    HW120402   0.066   4.093   1.222
 6501SOL    HW220403   0.200   4.114   1.132
 6502SOL     OW20404   1.313   5.047   2.554
 6502SOL    HW120405   1.311   4.947   2.560
 6502SOL    HW220406   1.335   5.086   2.643
 6503SOL     OW20407   4.667   0.216   4.661
 6503SOL    HW120408   4.601   0.164   4.607
 6503SOL    HW220409   4.695   0.162   4.740
 6504SOL     OW20410   2.670   0.961   0.796
 6504SOL    HW120411   2.743   0.978   0.729
 6504SOL    HW220412   2.708   0.913   0.875
 6505SOL     OW20413   6.168   4.860   1.256
 6505SOL    HW120414   6.134   4.768   1.276
 6505SOL    HW220415   6.145   4.921   1.332
 6506SOL     OW20416   2.318   2.469   0.926
 6506SOL    HW120417   2.226   2.438   0.903
 6506SOL    HW220418   2.319   2.511   1.017
 6507SOL     OW20419   2.170   0.762   1.977
 6507SOL    HW120420   2.157   0.701   2.055
 6507SOL    HW220421   2.082   0.782   1.935
 6508SOL     OW20422   1.845   1.761   2.881
 6508SOL    HW120423   1.850   1.834   2.949
 6508SOL    HW220424   1.927   1.761   2.825
 6509SOL     OW20425   0.339   2.474   4.188
 6509SOL    HW120426   0.267   2.410   4.161
 6509SOL    HW220427   0.427   2.427   4.189
 6510SOL     OW20428   5.410   4.537   5.838
 6510SOL    HW120429   5.488   4.599   5.837
 6510SOL    HW220430   5.364   4.543   5.926
 6511SOL     OW20431   6.223   5.907   6.153
 6511SOL    HW120432   6.250   5.811   6.143
 6511SOL    HW220433   6.296   5.957   6.200
 6512SOL     OW20434   4.699   6.675   3.610
 6512SOL    HW120435   4.779   6.665   3.669
 6512SOL    HW220436   4.635   6.741   3.650
 6513SOL     OW20437   3.233   0.042   2.918
 6513SOL    HW120438   3.330   0.035   2.896
 6513SOL    HW220439   3.210   0.138   2.932
 6514SOL     OW20440   3.269   6.959   4.007
 6514SOL    HW120441   3.179   6.995   4.031
 6514SOL    HW220442   3.301   7.002   3.923
 6515SOL     OW20443   1.055   0.147   5.174
 6515SOL    HW120444   1.148   0.154   5.138
 6515SOL    HW220445   0.993   0.115   5.102
 6516SOL     OW20446   0.654   1.573   5.409
 6516SOL    HW120447   0.570   1.551   5.360
 6516SOL    HW220448   0.731   1.568   5.346
 6517SOL     OW20449   1.161   1.816   7.022
 6517SOL    HW120450   1.159   1.909   0.036
 6517SOL    HW220451   1.135   1.818   6.925
 6518SOL     OW20452   6.303   6.226   1.357
 6518SOL    HW120453   6.225   6.168   1.333
 6518SOL    HW220454   6.384   6.169   1.372
 6519SOL     OW20455   2.283   1.940   3.361
 6519SOL    HW120456   2.356   1.872   3.367
 6519SOL    HW220457   2.289   2.003   3.439
 6520SOL     OW20458   5.768   5.767   1.143
 6520SOL    HW120459   5.710   5.686   1.132
 6520SOL    HW220460   5.838   5.767   1.071
 6521SOL     OW20461   0.421   1.507   5.231
 6521SOL    HW120462   0.346   1.466   5.284
 6521SOL    HW220463   0.385   1.541   5.144
 6522SOL     OW20464   2.557   5.424   5.768
 6522SOL    HW120465   2.476   5.367   5.780
 6522SOL    HW220466   2.537   5.499   5.705
 6523SOL     OW20467   1.863   2.008   6.006
 6523SOL    HW120468   1.836   2.101   5.977
 6523SOL    HW220469   1.849   1.998   6.104
 6524SOL     OW20470   3.683   4.144   4.503
 6524SOL    HW120471   3.745   4.067   4.497
 6524SOL    HW220472   3.693   4.189   4.592
 6525SOL     OW20473   7.007   2.929   3.649
 6525SOL    HW120474   7.019   2.855   3.715
 6525SOL    HW220475   6.913   2.962   3.653
 6526SOL     OW20476   1.385   6.145   4.740
 6526SOL    HW120477   1.376   6.214   4.812
 6526SOL    HW220478   1.405   6.057   4.782
 6527SOL     OW20479   1.314   1.040   4.324
 6527SOL    HW120480   1.232   1.024   4.270
 6527SOL    HW220481   1.311   0.982   4.405
 6528SOL     OW20482   6.227   0.889   4.042
 6528SOL    HW120483   6.306   0.906   4.100
 6528SOL    HW220484   6.200   0.974   3.997
 6529SOL     OW20485   6.964   2.258   2.353
 6529SOL    HW120486   6.900   2.232   2.281
 6529SOL    HW220487   6.928   2.337   2.402
 6530SOL     OW20488   0.056   2.102   0.588
 6530SOL    HW120489   7.005   2.166   0.605
 6530SOL    HW220490   0.021   2.008   0.591
 6531SOL     OW20491   4.875   2.807   4.469
 6531SOL    HW120492   4.968   2.778   4.445
 6531SOL    HW220493   4.879   2.891   4.523
 6532SOL     OW20494   0.117   2.199   6.494
 6532SOL    HW120495   0.118   2.295   6.466
 6532SOL    HW220496   0.191   2.182   6.559
 6533SOL     OW20497   4.683   0.342   0.998
 6533SOL    HW120498   4.739   0.261   0.981
 6533SOL    HW220499   4.587   0.316   1.005
 6534SOL     OW20500   2.005   4.079   1.234
 6534SOL    HW120501   2.082   4.117   1.184
 6534SOL    HW220502   1.938   4.151   1.252
 6535SOL     OW20503   1.037   3.918   5.647
 6535SOL    HW120504   0.953   3.970   5.661
 6535SOL    HW220505   1.037   3.878   5.556
 6536SOL     OW20506   6.797   2.757   0.249
 6536SOL    HW120507   6.784   2.734   0.152
 6536SOL    HW220508   6.840   2.679   0.295
 6537SOL     OW20509   1.173   6.798   0.401
 6537SOL    HW120510   1.265   6.797   0.440
 6537SOL    HW220511   1.122   6.718   0.433
 6538SOL     OW20512   2.162   3.113   6.674
 6538SOL    HW120513   2.084   3.093   6.615
 6538SOL    HW220514   2.128   3.145   6.763
 6539SOL     OW20515   2.296   1.804   0.127
 6539SOL    HW120516   2.269   1.868   0.198
 6539SOL    HW220517   2.232   1.810   0.050
 6540SOL     OW20518   3.074   1.442   4.208
 6540SOL    HW120519   3.059   1.350   4.171
 6540SOL    HW220520   2.987   1.480   4.239
 6541SOL     OW20521   2.181   2.213   6.324
 6541SOL    HW120522   2.275   2.192   6.351
 6541SOL    HW220523   2.169   2.195   6.227
 6542SOL     OW20524   5.980   4.429   3.332
 6542SOL    HW120525   6.006   4.526   3.335
 6542SOL    HW220526   6.001   4.387   3.420
 6543SOL     OW20527   6.644   5.908   6.805
 6543SOL    HW120528   6.557   5.859   6.802
 6543SOL    HW220529   6.687   5.904   6.715
 6544SOL     OW20530   6.766   6.424   4.350
 6544SOL    HW120531   6.860   6.404   4.379
 6544SOL    HW220532   6.764   6.506   4.294
 6545SOL     OW20533   5.064   2.167   5.959
 6545SOL    HW120534   5.110   2.092   6.005
 6545SOL    HW220535   5.076   2.251   6.013
 6546SOL     OW20536   3.123   4.251   6.309
 6546SOL    HW120537   3.092   4.340   6.275
 6546SOL    HW220538   3.063   4.220   6.382
 6547SOL     OW20539   4.725   2.479   6.699
 6547SOL    HW120540   4.755   2.436   6.784
 6547SOL    HW220541   4.677   2.564   6.721
 6548SOL     OW20542   6.635   5.015   5.542
 6548SOL    HW120543   6.559   5.080   5.540
 6548SOL    HW220544   6.600   4.926   5.572
 6549SOL     OW20545   3.844   1.679   0.955
 6549SOL    HW120546   3.919   1.666   0.890
 6549SOL    HW220547   3.879   1.672   1.048
 6550SOL     OW20548   0.686   5.536   3.309
 6550SOL    HW120549   0.746   5.499   3.237
 6550SOL    HW220550   0.666   5.464   3.375
 6551SOL     OW20551   1.896   4.706   2.451
 6551SOL    HW120552   1.973   4.643   2.439
 6551SOL    HW220553   1.917   4.793   2.405
 6552SOL     OW20554   3.297   5.020   6.162
 6552SOL    HW120555   3.294   4.934   6.109
 6552SOL    HW220556   3.205   5.041   6.195
 6553SOL     OW20557   0.230   2.808   2.637
 6553SOL    HW120558   0.197   2.878   2.574
 6553SOL    HW220559   0.178   2.812   2.722
 6554SOL     OW20560   0.195   2.790   5.412
 6554SOL    HW120561   0.286   2.830   5.400
 6554SOL    HW220562   0.125   2.858   5.390
 6555SOL     OW20563   0.061   1.445   2.025
 6555SOL    HW120564   0.082   1.521   1.964
 6555SOL    HW220565   0.146   1.396   2.047
 6556SOL     OW20566   3.827   6.831   4.278
 6556SOL    HW120567   3.817   6.806   4.181
 6556SOL    HW220568   3.802   6.927   4.289
 6557SOL     OW20569   6.415   5.746   1.209
 6557SOL    HW120570   6.499   5.713   1.253
 6557SOL    HW220571   6.358   5.792   1.278
 6558SOL     OW20572   6.406   5.517   6.809
 6558SOL    HW120573   6.341   5.457   6.856
 6558SOL    HW220574   6.498   5.501   6.844
 6559SOL     OW20575   3.999   3.332   0.871
 6559SOL    HW120576   4.053   3.319   0.954
 6559SOL    HW220577   3.925   3.265   0.868
 6560SOL     OW20578   3.959   2.426   0.197
 6560SOL    HW120579   3.971   2.492   0.123
 6560SOL    HW220580   3.861   2.410   0.211
 6561SOL     OW20581   4.106   3.699   4.357
 6561SOL    HW120582   4.039   3.658   4.418
 6561SOL    HW220583   4.198   3.687   4.394
 6562SOL     OW20584   6.044   4.269   5.891
 6562SOL    HW120585   6.062   4.178   5.853
 6562SOL    HW220586   5.991   4.261   5.975
 6563SOL     OW20587   1.701   5.372   1.876
 6563SOL    HW120588   1.676   5.403   1.968
 6563SOL    HW220589   1.674   5.442   1.809
 6564SOL     OW20590   1.232   5.424   2.341
 6564SOL    HW120591   1.221   5.446   2.438
 6564SOL    HW220592   1.143   5.407   2.301
 6565SOL     OW20593   6.608   3.069   5.422
 6565SOL    HW120594   6.518   3.061   5.465
 6565SOL    HW220595   6.628   2.987   5.369
 6566SOL     OW20596   3.345   6.745   0.745
 6566SOL    HW120597   3.313   6.806   0.672
 6566SOL    HW220598   3.420   6.689   0.710
 6567SOL     OW20599   5.754   3.030   1.573
 6567SOL    HW120600   5.809   3.113   1.562
 6567SOL    HW220601   5.668   3.041   1.523
 6568SOL     OW20602   3.996   4.659   1.292
 6568SOL    HW120603   3.919   4.723   1.289
 6568SOL    HW220604   3.988   4.593   1.217
 6569SOL     OW20605   0.401   4.511   6.565
 6569SOL    HW120606   0.387   4.591   6.623
 6569SOL    HW220607   0.326   4.504   6.499
 6570SOL     OW20608   6.530   2.305   1.050
 6570SOL    HW120609   6.433   2.285   1.037
 6570SOL    HW220610   6.543   2.404   1.054
 6571SOL     OW20611   2.601   5.587   3.633
 6571SOL    HW120612   2.693   5.615   3.605
 6571SOL    HW220613   2.547   5.565   3.551
 6572SOL     OW20614   0.736   3.864   6.120
 6572SOL    HW120615   0.819   3.814   6.093
 6572SOL    HW220616   0.702   3.916   6.042
 6573SOL     OW20617   2.018   1.707   2.539
 6573SOL    HW120618   1.942   1.643   2.542
 6573SOL    HW220619   2.074   1.697   2.621
 6574SOL     OW20620   2.887   5.062   2.845
 6574SOL    HW120621   2.926   5.068   2.937
 6574SOL    HW220622   2.960   5.073   2.777
 6575SOL     OW20623   0.570   1.200   3.069
 6575SOL    HW120624   0.614   1.190   3.158
 6575SOL    HW220625   0.556   1.110   3.028
 6576SOL     OW20626   1.007   6.339   6.157
 6576SOL    HW120627   0.924   6.283   6.166
 6576SOL    HW220628   1.074   6.311   6.226
 6577SOL     OW20629   6.268   2.194   3.895
 6577SOL    HW120630   6.277   2.231   3.987
 6577SOL    HW220631   6.308   2.258   3.829
 6578SOL     OW20632   6.228   5.101   3.626
 6578SOL    HW120633   6.247   5.113   3.724
 6578SOL    HW220634   6.151   5.159   3.599
 6579SOL     OW20635   0.535   3.895   2.406
 6579SOL    HW120636   0.470   3.889   2.330
 6579SOL    HW220637   0.501   3.840   2.483
 6580SOL     OW20638   6.141   2.412   1.863
 6580SOL    HW120639   6.168   2.419   1.767
 6580SOL    HW220640   6.120   2.317   1.885
 6581SOL     OW20641   2.758   1.489   6.150
 6581SOL    HW120642   2.821   1.420   6.186
 6581SOL    HW220643   2.794   1.526   6.065
 6582SOL     OW20644   6.569   6.883   2.552
 6582SOL    HW120645   6.472   6.859   2.563
 6582SOL    HW220646   6.604   6.921   2.637
 6583SOL     OW20647   6.039   1.607   5.558
 6583SOL    HW120648   6.035   1.705   5.578
 6583SOL    HW220649   6.081   1.559   5.635
 6584SOL     OW20650   5.903   1.681   6.552
 6584SOL    HW120651   5.891   1.613   6.624
 6584SOL    HW220652   6.000   1.707   6.546
 6585SOL     OW20653   1.775   1.172   6.696
 6585SOL    HW120654   1.750   1.103   6.628
 6585SOL    HW220655   1.758   1.263   6.658
 6586SOL     OW20656   6.801   2.594   6.073
 6586SOL    HW120657   6.847   2.680   6.097
 6586SOL    HW220658   6.856   2.544   6.006
 6587SOL     OW20659   2.239   6.681   2.952
 6587SOL    HW120660   2.295   6.679   2.870
 6587SOL    HW220661   2.147   6.648   2.931
 6588SOL     OW20662   1.867   3.085   7.012
 6588SOL    HW120663   1.928   3.074   6.934
 6588SOL    HW220664   1.809   3.005   7.020
 6589SOL     OW20665   4.692   1.632   5.863
 6589SOL    HW120666   4.593   1.638   5.877
 6589SOL    HW220667   4.716   1.674   5.775
 6590SOL     OW20668   6.767   1.139   5.260
 6590SOL    HW120669   6.838   1.092   5.312
 6590SOL    HW220670   6.793   1.143   5.164
 6591SOL     OW20671   5.332   1.217   2.739
 6591SOL    HW120672   5.294   1.227   2.647
 6591SOL    HW220673   5.305   1.129   2.777
 6592SOL     OW20674   4.692   5.819   4.553
 6592SOL    HW120675   4.635   5.834   4.473
 6592SOL    HW220676   4.729   5.726   4.551
 6593SOL     OW20677   3.977   1.021   2.299
 6593SOL    HW120678   3.883   1.011   2.265
 6593SOL    HW220679   3.975   1.038   2.398
 6594SOL     OW20680   5.776   0.676   6.236
 6594SOL    HW120681   5.736   0.757   6.194
 6594SOL    HW220682   5.763   0.680   6.335
 6595SOL     OW20683   0.980   3.933   0.638
 6595SOL    HW120684   0.906   3.997   0.620
 6595SOL    HW220685   1.062   3.962   0.588
 6596SOL     OW20686   4.111   6.928   5.097
 6596SOL    HW120687   4.152   7.005   5.147
 6596SOL    HW220688   4.055   6.963   5.022
 6597SOL     OW20689   0.104   4.717   5.486
 6597SOL    HW120690   0.071   4.629   5.451
 6597SOL    HW220691   0.029   4.763   5.535
 6598SOL     OW20692   1.770   5.989   5.633
 6598SOL    HW120693   1.722   5.944   5.709
 6598SOL    HW220694   1.829   6.061   5.668
 6599SOL     OW20695   4.088   4.176   6.111
 6599SOL    HW120696   4.057   4.271   6.116
 6599SOL    HW220697   4.022   4.123   6.057
 6600SOL     OW20698   4.562   6.087   4.229
 6600SOL    HW120699   4.548   5.995   4.266
 6600SOL    HW220700   4.535   6.155   4.298
 6601SOL     OW20701   1.486   0.533   0.700
 6601SOL    HW120702   1.536   0.447   0.689
 6601SOL    HW220703   1.433   0.552   0.618
 6602SOL     OW20704   6.351   1.495   1.474
 6602SOL    HW120705   6.336   1.534   1.565
 6602SOL    HW220706   6.345   1.396   1.479
 6603SOL     OW20707   2.103   3.343   3.479
 6603SOL    HW120708   2.185   3.340   3.536
 6603SOL    HW220709   2.040   3.271   3.509
 6604SOL     OW20710   3.532   6.026   2.837
 6604SOL    HW120711   3.552   6.088   2.913
 6604SOL    HW220712   3.593   6.045   2.761
 6605SOL     OW20713   6.107   6.456   0.047
 6605SOL    HW120714   6.060   6.493   6.990
 6605SOL    HW220715   6.185   6.514   0.070
 6606SOL     OW20716   4.909   1.262   2.798
 6606SOL    HW120717   4.863   1.341   2.758
 6606SOL    HW220718   4.976   1.226   2.733
 6607SOL     OW20719   1.036   2.650   2.677
 6607SOL    HW120720   1.110   2.711   2.704
 6607SOL    HW220721   0.965   2.650   2.747
 6608SOL     OW20722   5.897   3.663   4.591
 6608SOL    HW120723   5.980   3.699   4.548
 6608SOL    HW220724   5.829   3.645   4.520
 6609SOL     OW20725   5.740   1.866   6.962
 6609SOL    HW120726   5.797   1.784   6.957
 6609SOL    HW220727   5.653   1.849   6.917
 6610SOL     OW20728   2.702   0.805   6.867
 6610SOL    HW120729   2.670   0.772   6.778
 6610SOL    HW220730   2.752   0.732   6.913
 6611SOL     OW20731   5.738   3.214   2.938
 6611SOL    HW120732   5.819   3.267   2.911
 6611SOL    HW220733   5.751   3.176   3.029
 6612SOL     OW20734   1.630   6.278   6.626
 6612SOL    HW120735   1.538   6.306   6.597
 6612SOL    HW220736   1.669   6.350   6.683
 6613SOL     OW20737   4.728   5.502   1.614
 6613SOL    HW120738   4.824   5.484   1.593
 6613SOL    HW220739   4.683   5.416   1.641
 6614SOL     OW20740   5.703   5.493   6.109
 6614SOL    HW120741   5.666   5.573   6.060
 6614SOL    HW220742   5.740   5.522   6.197
 6615SOL     OW20743   1.285   3.929   4.918
 6615SOL    HW120744   1.339   3.981   4.852
 6615SOL    HW220745   1.188   3.938   4.897
 6616SOL     OW20746   4.779   0.592   4.802
 6616SOL    HW120747   4.847   0.519   4.806
 6616SOL    HW220748   4.689   0.553   4.784
 6617SOL     OW20749   3.895   0.210   5.555
 6617SOL    HW120750   3.982   0.163   5.567
 6617SOL    HW220751   3.911   0.299   5.511
 6618SOL     OW20752   1.051   4.658   1.735
 6618SOL    HW120753   1.024   4.741   1.685
 6618SOL    HW220754   1.118   4.608   1.681
 6619SOL     OW20755   4.909   5.574   2.596
 6619SOL    HW120756   4.856   5.653   2.568
 6619SOL    HW220757   4.847   5.500   2.624
 6620SOL     OW20758   2.435   2.895   5.561
 6620SOL    HW120759   2.385   2.885   5.647
 6620SOL    HW220760   2.374   2.933   5.491
 6621SOL     OW20761   2.264   3.862   0.189
 6621SOL    HW120762   2.269   3.959   0.213
 6621SOL    HW220763   2.355   3.830   0.163
 6622SOL     OW20764   6.976   6.881   0.397
 6622SOL    HW120765   6.885   6.853   0.367
 6622SOL    HW220766   0.021   6.816   0.364
 6623SOL     OW20767   3.767   3.531   2.070
 6623SOL    HW120768   3.739   3.611   2.016
 6623SOL    HW220769   3.713   3.452   2.041
 6624SOL     OW20770   4.216   4.750   3.960
 6624SOL    HW120771   4.209   4.848   3.943
 6624SOL    HW220772   4.261   4.706   3.882
 6625SOL     OW20773   6.394   0.499   0.246
 6625SOL    HW120774   6.380   0.578   0.186
 6625SOL    HW220775   6.491   0.490   0.268
 6626SOL     OW20776   3.329   4.936   3.203
 6626SOL    HW120777   3.348   4.980   3.291
 6626SOL    HW220778   3.408   4.950   3.142
 6627SOL     OW20779   2.013   6.197   1.334
 6627SOL    HW120780   2.059   6.250   1.262
 6627SOL    HW220781   1.915   6.190   1.313
 6628SOL     OW20782   3.901   5.884   2.916
 6628SOL    HW120783   3.978   5.852   2.862
 6628SOL    HW220784   3.832   5.812   2.923
 6629SOL     OW20785   3.337   4.567   0.079
 6629SOL    HW120786   3.377   4.480   0.052
 6629SOL    HW220787   3.337   4.574   0.179
 6630SOL     OW20788   3.153   2.355   6.362
 6630SOL    HW120789   3.074   2.360   6.422
 6630SOL    HW220790   3.148   2.428   6.294
 6631SOL     OW20791   4.679   0.625   2.479
 6631SOL    HW120792   4.581   0.631   2.462
 6631SOL    HW220793   4.701   0.670   2.566
 6632SOL     OW20794   6.875   1.915   2.125
 6632SOL    HW120795   6.964   1.879   2.096
 6632SOL    HW220796   6.827   1.846   2.180
 6633SOL     OW20797   0.353   0.225   1.128
 6633SOL    HW120798   0.395   0.178   1.207
 6633SOL    HW220799   0.367   0.169   1.046
 6634SOL     OW20800   6.658   2.985   5.759
 6634SOL    HW120801   6.755   2.968   5.742
 6634SOL    HW220802   6.636   2.957   5.852
 6635SOL     OW20803   4.665   4.271   3.429
 6635SOL    HW120804   4.756   4.309   3.440
 6635SOL    HW220805   4.618   4.317   3.353
 6636SOL     OW20806   2.375   2.206   4.152
 6636SOL    HW120807   2.370   2.121   4.101
 6636SOL    HW220808   2.325   2.278   4.103
 6637SOL     OW20809   6.365   0.907   0.728
 6637SOL    HW120810   6.365   0.984   0.792
 6637SOL    HW220811   6.452   0.859   0.735
 6638SOL     OW20812   2.469   5.642   5.589
 6638SOL    HW120813   2.563   5.672   5.574
 6638SOL    HW220814   2.439   5.585   5.513
 6639SOL     OW20815   5.710   5.531   6.903
 6639SOL    HW120816   5.798   5.558   6.942
 6639SOL    HW220817   5.692   5.585   6.821
 6640SOL     OW20818   5.476   3.244   3.344
 6640SOL    HW120819   5.501   3.297   3.263
 6640SOL    HW220820   5.377   3.233   3.347
 6641SOL     OW20821   1.933   4.146   6.168
 6641SOL    HW120822   1.845   4.099   6.160
 6641SOL    HW220823   1.918   4.245   6.167
 6642SOL     OW20824   0.386   6.275   0.199
 6642SOL    HW120825   0.366   6.365   0.239
 6642SOL    HW220826   0.479   6.249   0.224
 6643SOL     OW20827   4.752   4.925   0.221
 6643SOL    HW120828   4.693   4.846   0.208
 6643SOL    HW220829   4.722   5.000   0.162
 6644SOL     OW20830   2.855   4.735   2.375
 6644SOL    HW120831   2.878   4.668   2.305
 6644SOL    HW220832   2.873   4.827   2.341
 6645SOL     OW20833   0.835   5.188   5.554
 6645SOL    HW120834   0.910   5.220   5.612
 6645SOL    HW220835   0.804   5.098   5.587
 6646SOL     OW20836   2.488   5.689   3.845
 6646SOL    HW120837   2.508   5.640   3.930
 6646SOL    HW220838   2.522   5.635   3.767
 6647SOL     OW20839   3.524   1.998   2.289
 6647SOL    HW120840   3.438   2.043   2.316
 6647SOL    HW220841   3.535   2.005   2.190
 6648SOL     OW20842   4.965   5.259   2.118
 6648SOL    HW120843   4.950   5.259   2.217
 6648SOL    HW220844   5.001   5.170   2.090
 6649SOL     OW20845   3.960   2.739   6.387
 6649SOL    HW120846   3.949   2.819   6.445
 6649SOL    HW220847   3.970   2.658   6.445
 6650SOL     OW20848   3.579   1.992   3.065
 6650SOL    HW120849   3.557   1.993   3.163
 6650SOL    HW220850   3.517   1.930   3.017
 6651SOL     OW20851   0.975   2.504   6.402
 6651SOL    HW120852   1.052   2.561   6.374
 6651SOL    HW220853   0.889   2.549   6.380
 6652SOL     OW20854   6.783   5.519   3.213
 6652SOL    HW120855   6.870   5.502   3.166
 6652SOL    HW220856   6.708   5.490   3.154
 6653SOL     OW20857   3.574   3.237   3.655
 6653SOL    HW120858   3.633   3.252   3.734
 6653SOL    HW220859   3.599   3.301   3.582
 6654SOL     OW20860   2.169   3.289   1.695
 6654SOL    HW120861   2.220   3.337   1.766
 6654SOL    HW220862   2.095   3.347   1.661
 6655SOL     OW20863   2.610   6.650   1.517
 6655SOL    HW120864   2.534   6.641   1.453
 6655SOL    HW220865   2.613   6.743   1.554
 6656SOL     OW20866   6.267   2.507   1.194
 6656SOL    HW120867   6.172   2.476   1.190
 6656SOL    HW220868   6.308   2.505   1.103
 6657SOL     OW20869   3.002   6.215   6.212
 6657SOL    HW120870   3.071   6.159   6.165
 6657SOL    HW220871   3.038   6.307   6.226
 6658SOL     OW20872   4.956   0.938   5.736
 6658SOL    HW120873   5.027   0.997   5.775
 6658SOL    HW220874   4.955   0.948   5.637
 6659SOL     OW20875   1.451   2.987   6.742
 6659SOL    HW120876   1.380   2.972   6.810
 6659SOL    HW220877   1.437   2.923   6.666
 6660SOL     OW20878   6.772   6.743   3.098
 6660SOL    HW120879   6.864   6.774   3.077
 6660SOL    HW220880   6.713   6.822   3.114
 6661SOL     OW20881   0.388   6.280   3.526
 6661SOL    HW120882   0.360   6.295   3.431
 6661SOL    HW220883   0.311   6.243   3.578
 6662SOL     OW20884   1.513   2.635   7.002
 6662SOL    HW120885   1.563   2.553   0.008
 6662SOL    HW220886   1.436   2.608   6.944
 6663SOL     OW20887   0.532   5.655   2.332
 6663SOL    HW120888   0.440   5.693   2.323
 6663SOL    HW220889   0.568   5.677   2.422
 6664SOL     OW20890   1.072   1.335   3.204
 6664SOL    HW120891   1.031   1.245   3.192
 6664SOL    HW220892   1.017   1.389   3.269
 6665SOL     OW20893   2.661   6.904   3.033
 6665SOL    HW120894   2.681   6.869   2.941
 6665SOL    HW220895   2.661   6.828   3.098
 6666SOL     OW20896   6.466   0.601   6.941
 6666SOL    HW120897   6.457   0.673   7.010
 6666SOL    HW220898   6.374   0.573   6.911
 6667SOL     OW20899   0.037   4.891   4.643
 6667SOL    HW120900   6.984   4.945   4.680
 6667SOL    HW220901   7.023   4.810   4.597
 6668SOL     OW20902   1.016   4.895   1.602
 6668SOL    HW120903   1.099   4.883   1.547
 6668SOL    HW220904   0.971   4.980   1.575
 6669SOL     OW20905   2.259   6.005   2.861
 6669SOL    HW120906   2.279   5.962   2.773
 6669SOL    HW220907   2.300   5.950   2.934
 6670SOL     OW20908   4.108   4.824   0.113
 6670SOL    HW120909   4.070   4.754   0.174
 6670SOL    HW220910   4.193   4.791   0.074
 6671SOL     OW20911   6.880   2.982   4.698
 6671SOL    HW120912   6.908   2.888   4.677
 6671SOL    HW220913   6.822   2.981   4.780
 6672SOL     OW20914   1.860   1.011   5.128
 6672SOL    HW120915   1.931   1.052   5.184
 6672SOL    HW220916   1.776   1.001   5.182
 6673SOL     OW20917   4.770   4.863   1.472
 6673SOL    HW120918   4.778   4.765   1.489
 6673SOL    HW220919   4.861   4.903   1.465
 6674SOL     OW20920   0.961   6.570   4.189
 6674SOL    HW120921   1.060   6.557   4.186
 6674SOL    HW220922   0.938   6.660   4.150
 6675SOL     OW20923   5.912   5.192   0.097
 6675SOL    HW120924   5.978   5.259   0.130
 6675SOL    HW220925   5.878   5.219   0.007
 6676SOL     OW20926   1.090   2.576   5.842
 6676SOL    HW120927   1.045   2.637   5.776
 6676SOL    HW220928   1.185   2.603   5.852
 6677SOL     OW20929   0.407   3.563   0.105
 6677SOL    HW120930   0.449   3.639   0.155
 6677SOL    HW220931   0.478   3.508   0.061
 6678SOL     OW20932   1.260   3.080   5.554
 6678SOL    HW120933   1.291   3.077   5.649
 6678SOL    HW220934   1.211   3.165   5.537
 6679SOL     OW20935   1.569   1.794   4.385
 6679SOL    HW120936   1.562   1.741   4.301
 6679SOL    HW220937   1.478   1.818   4.418
 6680SOL     OW20938   3.080   6.479   6.228
 6680SOL    HW120939   3.042   6.559   6.181
 6680SOL    HW220940   3.117   6.508   6.316
 6681SOL     OW20941   5.260   5.056   0.231
 6681SOL    HW120942   5.352   5.053   0.271
 6681SOL    HW220943   5.192   5.066   0.303
 6682SOL     OW20944   0.323   6.460   1.868
 6682SOL    HW120945   0.414   6.487   1.837
 6682SOL    HW220946   0.254   6.515   1.819
 6683SOL     OW20947   5.133   2.018   3.766
 6683SOL    HW120948   5.165   1.924   3.771
 6683SOL    HW220949   5.179   2.065   3.691
 6684SOL     OW20950   1.962   0.136   2.996
 6684SOL    HW120951   2.019   0.158   3.075
 6684SOL    HW220952   2.018   0.132   2.913
 6685SOL     OW20953   5.078   3.589   6.396
 6685SOL    HW120954   5.077   3.546   6.306
 6685SOL    HW220955   5.082   3.519   6.467
 6686SOL     OW20956   6.398   3.528   3.675
 6686SOL    HW120957   6.420   3.431   3.664
 6686SOL    HW220958   6.334   3.539   3.751
 6687SOL     OW20959   1.212   1.916   0.323
 6687SOL    HW120960   1.193   1.818   0.318
 6687SOL    HW220961   1.222   1.944   0.418
 6688SOL     OW20962   0.568   4.928   2.726
 6688SOL    HW120963   0.565   5.026   2.743
 6688SOL    HW220964   0.661   4.895   2.738
 6689SOL     OW20965   4.340   4.799   7.011
 6689SOL    HW120966   4.335   4.782   6.913
 6689SOL    HW220967   4.427   4.764   0.024
 6690SOL     OW20968   1.997   2.377   1.202
 6690SOL    HW120969   1.932   2.334   1.264
 6690SOL    HW220970   2.083   2.394   1.249
 6691SOL     OW20971   2.226   4.406   1.622
 6691SOL    HW120972   2.146   4.352   1.596
 6691SOL    HW220973   2.290   4.349   1.673
 6692SOL     OW20974   3.226   3.934   5.897
 6692SOL    HW120975   3.185   4.011   5.947
 6692SOL    HW220976   3.212   3.850   5.950
 6693SOL     OW20977   4.100   3.504   5.317
 6693SOL    HW120978   4.120   3.446   5.396
 6693SOL    HW220979   4.185   3.536   5.276
 6694SOL     OW20980   3.210   6.354   0.953
 6694SOL    HW120981   3.176   6.357   1.047
 6694SOL    HW220982   3.187   6.265   0.912
 6695SOL     OW20983   1.476   2.240   0.205
 6695SOL    HW120984   1.390   2.224   0.156
 6695SOL    HW220985   1.549   2.257   0.138
 6696SOL     OW20986   2.303   3.025   1.720
 6696SOL    HW120987   2.401   3.043   1.722
 6696SOL    HW220988   2.253   3.112   1.715
 6697SOL     OW20989   5.034   1.357   3.002
 6697SOL    HW120990   4.973   1.330   2.927
 6697SOL    HW220991   4.979   1.391   3.079
 6698SOL     OW20992   3.661   3.473   0.279
 6698SOL    HW120993   3.727   3.419   0.226
 6698SOL    HW220994   3.692   3.481   0.373
 6699SOL     OW20995   1.281   3.705   6.944
 6699SOL    HW120996   1.366   3.743   6.907
 6699SOL    HW220997   1.224   3.670   6.870
 6700SOL     OW20998   6.833   6.247   0.163
 6700SOL    HW120999   6.826   6.154   0.199
 6700SOL    HW221000   6.916   6.290   0.198
 6701SOL     OW21001   0.754   1.920   0.822
 6701SOL    HW121002   0.692   1.998   0.818
 6701SOL    HW221003   0.702   1.837   0.839
 6702SOL     OW21004   2.871   2.095   1.264
 6702SOL    HW121005   2.881   2.186   1.226
 6702SOL    HW221006   2.846   2.031   1.191
 6703SOL     OW21007   0.408   2.090   6.642
 6703SOL    HW121008   0.452   2.056   6.559
 6703SOL    HW221009   0.466   2.161   6.683
 6704SOL     OW21010   5.232   1.781   2.363
 6704SOL    HW121011   5.174   1.808   2.440
 6704SOL    HW221012   5.264   1.862   2.315
 6705SOL     OW21013   5.661   1.353   0.261
 6705SOL    HW121014   5.646   1.295   0.342
 6705SOL    HW221015   5.702   1.440   0.289
 6706SOL     OW21016   0.483   4.755   6.227
 6706SOL    HW121017   0.413   4.684   6.235
 6706SOL    HW221018   0.449   4.839   6.268
 6707SOL     OW21019   1.323   6.648   2.571
 6707SOL    HW121020   1.295   6.553   2.587
 6707SOL    HW221021   1.363   6.655   2.479
 6708SOL     OW21022   2.307   5.979   1.298
 6708SOL    HW121023   2.282   5.886   1.324
 6708SOL    HW221024   2.366   6.018   1.369
 6709SOL     OW21025   4.413   1.690   2.878
 6709SOL    HW121026   4.326   1.719   2.837
 6709SOL    HW221027   4.489   1.726   2.824
 6710SOL     OW21028   3.026   2.434   1.019
 6710SOL    HW121029   3.090   2.510   1.003
 6710SOL    HW221030   2.995   2.398   0.931
 6711SOL     OW21031   3.693   4.218   1.042
 6711SOL    HW121032   3.727   4.179   1.128
 6711SOL    HW221033   3.635   4.151   0.996
 6712SOL     OW21034   3.337   5.601   0.402
 6712SOL    HW121035   3.271   5.632   0.334
 6712SOL    HW221036   3.422   5.574   0.357
 6713SOL     OW21037   1.982   1.996   2.580
 6713SOL    HW121038   2.060   2.059   2.577
 6713SOL    HW221039   2.015   1.902   2.589
 6714SOL     OW21040   6.337   0.377   4.038
 6714SOL    HW121041   6.330   0.447   4.109
 6714SOL    HW221042   6.277   0.300   4.062
 6715SOL     OW21043   0.594   1.765   1.199
 6715SOL    HW121044   0.683   1.807   1.178
 6715SOL    HW221045   0.608   1.669   1.221
 6716SOL     OW21046   2.386   5.978   0.627
 6716SOL    HW121047   2.380   5.920   0.546
 6716SOL    HW221048   2.351   5.928   0.707
 6717SOL     OW21049   3.449   1.593   6.841
 6717SOL    HW121050   3.528   1.538   6.870
 6717SOL    HW221051   3.424   1.655   6.916
 6718SOL     OW21052   3.369   0.343   0.027
 6718SOL    HW121053   3.351   0.266   0.088
 6718SOL    HW221054   3.378   0.310   6.956
 6719SOL     OW21055   0.546   0.284   5.476
 6719SOL    HW121056   0.446   0.286   5.477
 6719SOL    HW221057   0.580   0.330   5.558
 6720SOL     OW21058   2.048   4.614   2.012
 6720SOL    HW121059   1.949   4.616   2.027
 6720SOL    HW221060   2.084   4.523   2.031
 6721SOL     OW21061   6.174   6.405   3.818
 6721SOL    HW121062   6.080   6.377   3.838
 6721SOL    HW221063   6.238   6.351   3.873
 6722SOL     OW21064   4.622   3.770   0.132
 6722SOL    HW121065   4.538   3.716   0.130
 6722SOL    HW221066   4.601   3.864   0.104
 6723SOL     OW21067   4.206   6.586   2.117
 6723SOL    HW121068   4.135   6.585   2.047
 6723SOL    HW221069   4.212   6.677   2.158
 6724SOL     OW21070   3.248   4.989   5.434
 6724SOL    HW121071   3.188   4.961   5.359
 6724SOL    HW221072   3.210   5.069   5.480
 6725SOL     OW21073   0.509   4.746   2.500
 6725SOL    HW121074   0.510   4.793   2.589
 6725SOL    HW221075   0.558   4.802   2.433
 6726SOL     OW21076   2.449   2.111   2.670
 6726SOL    HW121077   2.474   2.067   2.584
 6726SOL    HW221078   2.461   2.210   2.661
 6727SOL     OW21079   3.947   3.689   0.049
 6727SOL    HW121080   3.967   3.770   0.104
 6727SOL    HW221081   3.920   3.614   0.110
 6728SOL     OW21082   4.327   0.913   4.016
 6728SOL    HW121083   4.308   1.004   4.054
 6728SOL    HW221084   4.425   0.894   4.024
 6729SOL     OW21085   5.913   0.193   2.388
 6729SOL    HW121086   5.930   0.282   2.346
 6729SOL    HW221087   5.883   0.205   2.482
 6730SOL     OW21088   1.748   0.550   0.439
 6730SOL    HW121089   1.786   0.470   0.393
 6730SOL    HW221090   1.774   0.633   0.389
 6731SOL     OW21091   2.669   5.098   1.986
 6731SOL    HW121092   2.730   5.031   2.027
 6731SOL    HW221093   2.581   5.056   1.965
 6732SOL     OW21094   2.285   4.342   1.328
 6732SOL    HW121095   2.246   4.332   1.419
 6732SOL    HW221096   2.286   4.439   1.302
 6733SOL     OW21097   5.629   5.730   6.002
 6733SOL    HW121098   5.529   5.725   6.008
 6733SOL    HW221099   5.655   5.783   5.922
 6734SOL     OW21100   1.921   3.406   5.865
 6734SOL    HW121101   1.962   3.347   5.934
 6734SOL    HW221102   1.910   3.355   5.780
 6735SOL     OW21103   0.268   5.205   6.008
 6735SOL    HW121104   0.304   5.112   5.996
 6735SOL    HW221105   0.193   5.203   6.074
 6736SOL     OW21106   2.023   3.727   2.763
 6736SOL    HW121107   2.043   3.702   2.668
 6736SOL    HW221108   2.023   3.644   2.820
 6737SOL     OW21109   2.282   1.339   0.877
 6737SOL    HW121110   2.184   1.349   0.891
 6737SOL    HW221111   2.299   1.268   0.809
 6738SOL     OW21112   3.767   1.338   2.209
 6738SOL    HW121113   3.860   1.370   2.190
 6738SOL    HW221114   3.706   1.367   2.136
 6739SOL     OW21115   4.017   6.537   4.825
 6739SOL    HW121116   4.075   6.551   4.905
 6739SOL    HW221117   4.055   6.587   4.747
 6740SOL     OW21118   6.218   2.716   4.098
 6740SOL    HW121119   6.238   2.669   4.012
 6740SOL    HW221120   6.126   2.755   4.094
 6741SOL     OW21121   6.854   6.941   6.427
 6741SOL    HW121122   6.938   6.973   6.382
 6741SOL    HW221123   6.796   6.894   6.360
 6742SOL     OW21124   6.509   5.976   5.951
 6742SOL    HW121125   6.533   6.026   6.034
 6742SOL    HW221126   6.461   6.038   5.888
 6743SOL     OW21127   4.990   3.319   0.842
 6743SOL    HW121128   4.978   3.340   0.939
 6743SOL    HW221129   4.933   3.381   0.788
 6744SOL     OW21130   4.907   5.080   5.652
 6744SOL    HW121131   4.942   5.167   5.688
 6744SOL    HW221132   4.859   5.097   5.566
 6745SOL     OW21133   6.769   4.119   3.844
 6745SOL    HW121134   6.750   4.023   3.823
 6745SOL    HW221135   6.808   4.164   3.764
 6746SOL     OW21136   0.077   1.437   1.198
 6746SOL    HW121137   0.161   1.427   1.252
 6746SOL    HW221138   0.085   1.517   1.138
 6747SOL     OW21139   5.758   6.129   5.816
 6747SOL    HW121140   5.687   6.113   5.885
 6747SOL    HW221141   5.843   6.156   5.862
 6748SOL     OW21142   0.099   0.202   1.954
 6748SOL    HW121143   0.191   0.195   1.992
 6748SOL    HW221144   0.058   0.111   1.950
 6749SOL     OW21145   3.704   6.148   1.392
 6749SOL    HW121146   3.765   6.186   1.323
 6749SOL    HW221147   3.617   6.123   1.350
 6750SOL     OW21148   2.629   3.130   5.392
 6750SOL    HW121149   2.585   3.113   5.481
 6750SOL    HW221150   2.576   3.087   5.320
 6751SOL     OW21151   3.260   2.031   5.487
 6751SOL    HW121152   3.242   2.002   5.581
 6751SOL    HW221153   3.235   2.128   5.477
 6752SOL     OW21154   6.385   2.113   0.104
 6752SOL    HW121155   6.326   2.194   0.092
 6752SOL    HW221156   6.375   2.079   0.197
 6753SOL     OW21157   5.262   2.050   6.256
 6753SOL    HW121158   5.268   1.950   6.251
 6753SOL    HW221159   5.166   2.077   6.258
 6754SOL     OW21160   5.579   0.742   0.234
 6754SOL    HW121161   5.569   0.665   0.297
 6754SOL    HW221162   5.489   0.772   0.203
 6755SOL     OW21163   5.000   1.726   3.155
 6755SOL    HW121164   4.953   1.814   3.157
 6755SOL    HW221165   5.097   1.740   3.174
 6756SOL     OW21166   5.143   3.935   3.841
 6756SOL    HW121167   5.131   3.837   3.833
 6756SOL    HW221168   5.132   3.963   3.936
 6757SOL     OW21169   5.300   5.177   2.083
 6757SOL    HW121170   5.379   5.146   2.136
 6757SOL    HW221171   5.241   5.235   2.139
 6758SOL     OW21172   5.224   2.122   2.928
 6758SOL    HW121173   5.130   2.089   2.934
 6758SOL    HW221174   5.286   2.050   2.958
 6759SOL     OW21175   0.270   4.867   3.684
 6759SOL    HW121176   0.335   4.794   3.704
 6759SOL    HW221177   0.259   4.875   3.585
 6760SOL     OW21178   0.236   4.741   4.782
 6760SOL    HW121179   0.181   4.812   4.737
 6760SOL    HW221180   0.240   4.760   4.880
 6761SOL     OW21181   5.830   3.359   6.689
 6761SOL    HW121182   5.848   3.376   6.786
 6761SOL    HW221183   5.744   3.404   6.663
 6762SOL     OW21184   5.978   5.174   3.968
 6762SOL    HW121185   5.928   5.124   4.039
 6762SOL    HW221186   5.952   5.140   3.878
 6763SOL     OW21187   5.549   6.067   5.991
 6763SOL    HW121188   5.528   6.056   6.088
 6763SOL    HW221189   5.482   6.017   5.936
 6764SOL     OW21190   2.098   3.771   6.732
 6764SOL    HW121191   2.024   3.732   6.786
 6764SOL    HW221192   2.184   3.766   6.785
 6765SOL     OW21193   4.843   5.056   2.784
 6765SOL    HW121194   4.893   5.008   2.857
 6765SOL    HW221195   4.745   5.054   2.804
 6766SOL     OW21196   1.382   1.202   5.269
 6766SOL    HW121197   1.333   1.135   5.325
 6766SOL    HW221198   1.333   1.290   5.272
 6767SOL     OW21199   1.217   2.329   6.011
 6767SOL    HW121200   1.145   2.271   5.973
 6767SOL    HW221201   1.189   2.425   6.006
 6768SOL     OW21202   0.097   0.501   5.409
 6768SOL    HW121203   0.022   0.478   5.471
 6768SOL    HW221204   0.166   0.429   5.412
 6769SOL     OW21205   1.652   2.924   6.495
 6769SOL    HW121206   1.611   2.952   6.408
 6769SOL    HW221207   1.639   2.997   6.563
 6770SOL     OW21208   0.024   1.564   3.629
 6770SOL    HW121209   0.115   1.524   3.640
 6770SOL    HW221210   0.022   1.621   3.547
 6771SOL     OW21211   4.173   1.529   2.241
 6771SOL    HW121212   4.190   1.448   2.297
 6771SOL    HW221213   4.238   1.601   2.266
 6772SOL     OW21214   0.354   1.200   1.583
 6772SOL    HW121215   0.392   1.230   1.671
 6772SOL    HW221216   0.423   1.150   1.532
 6773SOL     OW21217   0.929   0.996   1.582
 6773SOL    HW121218   0.962   0.931   1.650
 6773SOL    HW221219   1.006   1.047   1.544
 6774SOL     OW21220   3.049   1.242   5.451
 6774SOL    HW121221   3.091   1.323   5.410
 6774SOL    HW221222   3.028   1.175   5.380
 6775SOL     OW21223   0.679   2.682   5.050
 6775SOL    HW121224   0.610   2.745   5.084
 6775SOL    HW221225   0.735   2.648   5.126
 6776SOL     OW21226   3.427   3.741   3.675
 6776SOL    HW121227   3.357   3.759   3.607
 6776SOL    HW221228   3.465   3.827   3.708
 6777SOL     OW21229   0.122   6.413   6.852
 6777SOL    HW121230   0.147   6.431   6.756
 6777SOL    HW221231   0.057   6.482   6.883
 6778SOL     OW21232   5.789   5.873   2.283
 6778SOL    HW121233   5.724   5.833   2.348
 6778SOL    HW221234   5.814   5.965   2.312
 6779SOL     OW21235   4.965   4.233   6.425
 6779SOL    HW121236   5.005   4.161   6.482
 6779SOL    HW221237   4.921   4.192   6.345
 6780SOL     OW21238   3.686   0.984   2.212
 6780SOL    HW121239   3.678   1.061   2.276
 6780SOL    HW221240   3.615   0.991   2.142
 6781SOL     OW21241   6.159   2.598   2.967
 6781SOL    HW121242   6.158   2.631   2.873
 6781SOL    HW221243   6.079   2.633   3.016
 6782SOL     OW21244   6.910   1.907   3.333
 6782SOL    HW121245   7.000   1.950   3.337
 6782SOL    HW221246   6.881   1.897   3.238
 6783SOL     OW21247   0.130   6.160   6.159
 6783SOL    HW121248   0.108   6.255   6.185
 6783SOL    HW221249   0.196   6.161   6.084
 6784SOL     OW21250   1.598   4.377   1.171
 6784SOL    HW121251   1.572   4.472   1.189
 6784SOL    HW221252   1.586   4.356   1.074
 6785SOL     OW21253   5.135   5.023   3.813
 6785SOL    HW121254   5.065   5.013   3.884
 6785SOL    HW221255   5.160   4.933   3.778
 6786SOL     OW21256   6.280   2.134   5.694
 6786SOL    HW121257   6.322   2.149   5.784
 6786SOL    HW221258   6.258   2.037   5.683
 6787SOL     OW21259   3.067   1.689   0.480
 6787SOL    HW121260   3.034   1.622   0.413
 6787SOL    HW221261   3.057   1.651   0.572
 6788SOL     OW21262   0.628   4.513   1.177
 6788SOL    HW121263   0.571   4.520   1.259
 6788SOL    HW221264   0.641   4.417   1.153
 6789SOL     OW21265   5.859   5.227   2.405
 6789SOL    HW121266   5.823   5.137   2.427
 6789SOL    HW221267   5.800   5.272   2.339
 6790SOL     OW21268   0.540   5.902   0.473
 6790SOL    HW121269   0.457   5.921   0.420
 6790SOL    HW221270   0.525   5.927   0.569
 6791SOL     OW21271   2.351   6.559   3.458
 6791SOL    HW121272   2.419   6.491   3.485
 6791SOL    HW221273   2.260   6.517   3.459
 6792SOL     OW21274   3.756   0.044   6.159
 6792SOL    HW121275   3.817   0.082   6.090
 6792SOL    HW221276   3.774   0.087   6.247
 6793SOL     OW21277   2.078   3.364   6.229
 6793SOL    HW121278   2.152   3.411   6.278
 6793SOL    HW221279   2.019   3.317   6.295
 6794SOL     OW21280   5.571   2.562   5.443
 6794SOL    HW121281   5.579   2.615   5.527
 6794SOL    HW221282   5.490   2.504   5.448
 6795SOL     OW21283   1.465   0.876   1.527
 6795SOL    HW121284   1.515   0.789   1.535
 6795SOL    HW221285   1.528   0.952   1.544
 6796SOL     OW21286   6.828   1.863   3.085
 6796SOL    HW121287   6.852   1.826   2.995
 6796SOL    HW221288   6.735   1.835   3.109
 6797SOL     OW21289   1.272   3.060   1.280
 6797SOL    HW121290   1.244   2.988   1.343
 6797SOL    HW221291   1.248   3.034   1.186
 6798SOL     OW21292   4.868   1.132   2.321
 6798SOL    HW121293   4.875   1.229   2.296
 6798SOL    HW221294   4.847   1.078   2.239
 6799SOL     OW21295   6.348   0.167   2.788
 6799SOL    HW121296   6.411   0.207   2.721
 6799SOL    HW221297   6.255   0.170   2.752
 6800SOL     OW21298   6.687   2.815   1.489
 6800SOL    HW121299   6.734   2.757   1.555
 6800SOL    HW221300   6.588   2.812   1.507
 6801SOL     OW21301   1.163   5.953   6.379
 6801SOL    HW121302   1.215   5.939   6.464
 6801SOL    HW221303   1.075   5.905   6.386
 6802SOL     OW21304   2.814   4.734   1.718
 6802SOL    HW121305   2.881   4.808   1.718
 6802SOL    HW221306   2.841   4.665   1.785
 6803SOL     OW21307   5.356   5.259   6.324
 6803SOL    HW121308   5.386   5.248   6.230
 6803SOL    HW221309   5.318   5.173   6.357
 6804SOL     OW21310   3.682   5.169   2.071
 6804SOL    HW121311   3.675   5.169   2.171
 6804SOL    HW221312   3.754   5.233   2.043
 6805SOL     OW21313   0.924   3.928   4.259
 6805SOL    HW121314   0.908   4.025   4.279
 6805SOL    HW221315   0.836   3.881   4.253
 6806SOL     OW21316   6.267   3.132   1.955
 6806SOL    HW121317   6.191   3.095   1.902
 6806SOL    HW221318   6.265   3.232   1.951
 6807SOL     OW21319   3.433   4.024   2.733
 6807SOL    HW121320   3.355   4.069   2.776
 6807SOL    HW221321   3.410   4.001   2.638
 6808SOL     OW21322   3.413   0.776   3.313
 6808SOL    HW121323   3.454   0.748   3.226
 6808SOL    HW221324   3.412   0.876   3.318
 6809SOL     OW21325   5.692   3.099   0.546
 6809SOL    HW121326   5.702   3.190   0.585
 6809SOL    HW221327   5.762   3.039   0.584
 6810SOL     OW21328   2.930   0.491   4.367
 6810SOL    HW121329   2.988   0.562   4.328
 6810SOL    HW221330   2.834   0.514   4.351
 6811SOL     OW21331   6.365   1.486   1.200
 6811SOL    HW121332   6.434   1.550   1.165
 6811SOL    HW221333   6.375   1.478   1.300
 6812SOL     OW21334   3.068   4.906   5.242
 6812SOL    HW121335   2.982   4.956   5.250
 6812SOL    HW221336   3.051   4.815   5.204
 6813SOL     OW21337   0.448   4.170   2.172
 6813SOL    HW121338   0.476   4.081   2.137
 6813SOL    HW221339   0.408   4.224   2.097
 6814SOL     OW21340   5.549   1.364   0.767
 6814SOL    HW121341   5.499   1.278   0.778
 6814SOL    HW221342   5.520   1.429   0.838
 6815SOL     OW21343   0.719   5.931   6.598
 6815SOL    HW121344   0.624   5.908   6.619
 6815SOL    HW221345   0.730   5.939   6.499
 6816SOL     OW21346   6.886   7.004   4.269
 6816SOL    HW121347   6.972   6.967   4.302
 6816SOL    HW221348   6.841   0.033   4.341
 6817SOL     OW21349   4.556   2.161   1.335
 6817SOL    HW121350   4.586   2.066   1.338
 6817SOL    HW221351   4.464   2.168   1.373
 6818SOL     OW21352   0.816   0.097   5.014
 6818SOL    HW121353   0.742   0.037   4.983
 6818SOL    HW221354   0.802   0.120   5.111
 6819SOL     OW21355   5.042   4.448   1.860
 6819SOL    HW121356   5.097   4.418   1.937
 6819SOL    HW221357   4.945   4.434   1.880
 6820SOL     OW21358   2.704   5.172   1.714
 6820SOL    HW121359   2.717   5.147   1.810
 6820SOL    HW221360   2.694   5.089   1.659
 6821SOL     OW21361   3.401   2.731   5.590
 6821SOL    HW121362   3.357   2.643   5.608
 6821SOL    HW221363   3.332   2.803   5.582
 6822SOL     OW21364   5.843   3.782   5.455
 6822SOL    HW121365   5.872   3.728   5.534
 6822SOL    HW221366   5.779   3.853   5.486
 6823SOL     OW21367   0.664   2.887   5.375
 6823SOL    HW121368   0.684   2.952   5.448
 6823SOL    HW221369   0.747   2.867   5.324
 6824SOL     OW21370   1.078   0.153   5.477
 6824SOL    HW121371   1.059   0.101   5.393
 6824SOL    HW221372   1.174   0.180   5.479
 6825SOL     OW21373   4.044   4.301   1.274
 6825SOL    HW121374   4.067   4.268   1.183
 6825SOL    HW221375   3.969   4.367   1.268
 6826SOL     OW21376   6.092   0.464   3.705
 6826SOL    HW121377   6.040   0.520   3.641
 6826SOL    HW221378   6.179   0.508   3.725
 6827SOL     OW21379   4.603   5.980   5.031
 6827SOL    HW121380   4.521   5.964   5.086
 6827SOL    HW221381   4.606   6.076   5.003
 6828SOL     OW21382   3.589   1.952   2.005
 6828SOL    HW121383   3.626   1.892   1.935
 6828SOL    HW221384   3.623   2.046   1.991
 6829SOL     OW21385   3.881   6.769   3.338
 6829SOL    HW121386   3.812   6.723   3.282
 6829SOL    HW221387   3.904   6.711   3.416
 6830SOL     OW21388   4.240   4.718   2.199
 6830SOL    HW121389   4.179   4.774   2.143
 6830SOL    HW221390   4.263   4.635   2.150
 6831SOL     OW21391   1.941   1.410   6.427
 6831SOL    HW121392   1.919   1.404   6.524
 6831SOL    HW221393   1.873   1.360   6.374
 6832SOL     OW21394   2.692   2.189   6.856
 6832SOL    HW121395   2.693   2.092   6.879
 6832SOL    HW221396   2.783   2.219   6.829
 6833SOL     OW21397   3.755   5.263   6.213
 6833SOL    HW121398   3.719   5.214   6.292
 6833SOL    HW221399   3.836   5.217   6.178
 6834SOL     OW21400   6.414   6.713   6.609
 6834SOL    HW121401   6.320   6.693   6.580
 6834SOL    HW221402   6.477   6.649   6.566
 6835SOL     OW21403   3.326   0.890   4.070
 6835SOL    HW121404   3.348   0.916   3.976
 6835SOL    HW221405   3.246   0.941   4.101
 6836SOL     OW21406   0.850   4.327   6.562
 6836SOL    HW121407   0.846   4.329   6.662
 6836SOL    HW221408   0.779   4.386   6.524
 6837SOL     OW21409   6.071   0.724   1.940
 6837SOL    HW121410   6.107   0.631   1.952
 6837SOL    HW221411   6.093   0.756   1.848
 6838SOL     OW21412   2.880   3.943   6.047
 6838SOL    HW121413   2.949   4.011   6.072
 6838SOL    HW221414   2.869   3.942   5.948
 6839SOL     OW21415   6.092   3.090   4.512
 6839SOL    HW121416   6.087   3.153   4.434
 6839SOL    HW221417   6.064   3.137   4.595
 6840SOL     OW21418   2.864   6.447   4.366
 6840SOL    HW121419   2.927   6.408   4.299
 6840SOL    HW221420   2.899   6.535   4.397
 6841SOL     OW21421   4.716   6.521   0.917
 6841SOL    HW121422   4.629   6.514   0.966
 6841SOL    HW221423   4.705   6.482   0.825
 6842SOL     OW21424   0.518   3.938   4.685
 6842SOL    HW121425   0.537   4.034   4.664
 6842SOL    HW221426   0.550   3.917   4.777
 6843SOL     OW21427   4.549   2.792   1.456
 6843SOL    HW121428   4.604   2.713   1.428
 6843SOL    HW221429   4.598   2.844   1.526
 6844SOL     OW21430   3.458   5.472   4.299
 6844SOL    HW121431   3.368   5.450   4.335
 6844SOL    HW221432   3.519   5.393   4.309
 6845SOL     OW21433   3.985   4.231   0.488
 6845SOL    HW121434   4.052   4.303   0.509
 6845SOL    HW221435   3.964   4.232   0.391
 6846SOL     OW21436   3.766   3.243   2.338
 6846SOL    HW121437   3.714   3.210   2.259
 6846SOL    HW221438   3.862   3.219   2.328
 6847SOL     OW21439   6.557   3.541   1.141
 6847SOL    HW121440   6.633   3.592   1.102
 6847SOL    HW221441   6.492   3.516   1.069
 6848SOL     OW21442   6.612   5.893   3.778
 6848SOL    HW121443   6.612   5.803   3.735
 6848SOL    HW221444   6.518   5.918   3.802
 6849SOL     OW21445   3.618   6.501   3.940
 6849SOL    HW121446   3.587   6.587   3.899
 6849SOL    HW221447   3.552   6.429   3.919
 6850SOL     OW21448   5.164   3.590   1.384
 6850SOL    HW121449   5.073   3.556   1.406
 6850SOL    HW221450   5.167   3.616   1.288
 6851SOL     OW21451   1.497   5.352   4.915
 6851SOL    HW121452   1.475   5.276   4.976
 6851SOL    HW221453   1.586   5.337   4.873
 6852SOL     OW21454   7.023   4.771   1.990
 6852SOL    HW121455   0.061   4.804   2.062
 6852SOL    HW221456   0.023   4.677   1.966
 6853SOL     OW21457   6.449   3.797   5.162
 6853SOL    HW121458   6.438   3.703   5.194
 6853SOL    HW221459   6.388   3.857   5.213
 6854SOL     OW21460   0.276   1.814   0.017
 6854SOL    HW121461   0.320   1.887   0.069
 6854SOL    HW221462   0.215   1.762   0.077
 6855SOL     OW21463   2.959   6.581   2.081
 6855SOL    HW121464   2.906   6.503   2.114
 6855SOL    HW221465   2.901   6.662   2.077
 6856SOL     OW21466   0.750   4.915   5.007
 6856SOL    HW121467   0.769   4.975   5.084
 6856SOL    HW221468   0.653   4.889   5.008
 6857SOL     OW21469   3.619   1.426   5.594
 6857SOL    HW121470   3.634   1.525   5.595
 6857SOL    HW221471   3.582   1.397   5.682
 6858SOL     OW21472   3.817   2.401   5.414
 6858SOL    HW121473   3.854   2.493   5.412
 6858SOL    HW221474   3.854   2.348   5.337
 6859SOL     OW21475   3.542   0.673   0.266
 6859SOL    HW121476   3.499   0.655   0.177
 6859SOL    HW221477   3.641   0.669   0.256
 6860SOL     OW21478   4.289   4.763   6.705
 6860SOL    HW121479   4.295   4.685   6.643
 6860SOL    HW221480   4.198   4.804   6.699
 6861SOL     OW21481   5.810   4.263   0.874
 6861SOL    HW121482   5.863   4.282   0.792
 6861SOL    HW221483   5.740   4.334   0.886
 6862SOL     OW21484   3.120   5.170   3.779
 6862SOL    HW121485   3.100   5.083   3.824
 6862SOL    HW221486   3.116   5.158   3.680
 6863SOL     OW21487   0.683   3.140   4.153
 6863SOL    HW121488   0.615   3.075   4.186
 6863SOL    HW221489   0.680   3.145   4.053
 6864SOL     OW21490   4.451   5.454   5.560
 6864SOL    HW121491   4.446   5.423   5.654
 6864SOL    HW221492   4.542   5.492   5.542
 6865SOL     OW21493   6.540   3.135   4.813
 6865SOL    HW121494   6.557   3.062   4.746
 6865SOL    HW221495   6.461   3.189   4.784
 6866SOL     OW21496   0.765   2.933   1.950
 6866SOL    HW121497   0.708   2.987   2.011
 6866SOL    HW221498   0.847   2.903   1.998
 6867SOL     OW21499   2.339   4.701   2.509
 6867SOL    HW121500   2.322   4.753   2.593
 6867SOL    HW221501   2.252   4.664   2.475
 6868SOL     OW21502   1.904   5.011   4.940
 6868SOL    HW121503   1.931   4.932   4.995
 6868SOL    HW221504   1.948   5.093   4.977
 6869SOL     OW21505   6.295   3.286   4.991
 6869SOL    HW121506   6.355   3.312   5.067
 6869SOL    HW221507   6.201   3.275   5.025
 6870SOL     OW21508   5.275   3.935   2.166
 6870SOL    HW121509   5.269   3.851   2.221
 6870SOL    HW221510   5.183   3.969   2.148
 6871SOL     OW21511   4.778   0.186   1.275
 6871SOL    HW121512   4.679   0.194   1.264
 6871SOL    HW221513   4.824   0.231   1.199
 6872SOL     OW21514   2.708   3.515   6.664
 6872SOL    HW121515   2.729   3.612   6.667
 6872SOL    HW221516   2.727   3.473   6.752
 6873SOL     OW21517   5.008   3.770   5.514
 6873SOL    HW121518   4.983   3.780   5.610
 6873SOL    HW221519   5.075   3.840   5.490
 6874SOL     OW21520   1.243   2.571   5.553
 6874SOL    HW121521   1.277   2.648   5.499
 6874SOL    HW221522   1.146   2.586   5.574
 6875SOL     OW21523   3.128   1.940   3.823
 6875SOL    HW121524   3.162   1.966   3.913
 6875SOL    HW221525   3.035   1.904   3.832
 6876SOL     OW21526   3.478   6.474   5.200
 6876SOL    HW121527   3.549   6.458   5.269
 6876SOL    HW221528   3.477   6.397   5.136
 6877SOL     OW21529   2.601   4.023   0.189
 6877SOL    HW121530   2.560   4.009   0.279
 6877SOL    HW221531   2.646   4.113   0.187
 6878SOL     OW21532   1.556   1.755   5.041
 6878SOL    HW121533   1.609   1.793   5.116
 6878SOL    HW221534   1.531   1.660   5.062
 6879SOL     OW21535   1.046   1.191   5.660
 6879SOL    HW121536   0.972   1.155   5.717
 6879SOL    HW221537   1.008   1.223   5.573
 6880SOL     OW21538   1.854   3.889   4.830
 6880SOL    HW121539   1.806   3.840   4.902
 6880SOL    HW221540   1.945   3.850   4.818
 6881SOL     OW21541   6.311   5.113   1.943
 6881SOL    HW121542   6.227   5.062   1.924
 6881SOL    HW221543   6.390   5.060   1.911
 6882SOL     OW21544   2.487   6.608   4.948
 6882SOL    HW121545   2.538   6.522   4.948
 6882SOL    HW221546   2.540   6.679   4.903
 6883SOL     OW21547   3.035   6.462   1.513
 6883SOL    HW121548   2.940   6.432   1.522
 6883SOL    HW221549   3.096   6.386   1.538
 6884SOL     OW21550   2.691   4.725   2.876
 6884SOL    HW121551   2.745   4.690   2.800
 6884SOL    HW221552   2.696   4.825   2.878
 6885SOL     OW21553   3.941   5.448   5.000
 6885SOL    HW121554   3.913   5.354   5.019
 6885SOL    HW221555   4.029   5.447   4.952
 6886SOL     OW21556   5.293   2.164   2.126
 6886SOL    HW121557   5.358   2.188   2.197
 6886SOL    HW221558   5.219   2.232   2.123
 6887SOL     OW21559   4.989   0.957   4.875
 6887SOL    HW121560   4.925   1.029   4.903
 6887SOL    HW221561   4.966   0.872   4.922
 6888SOL     OW21562   5.233   6.110   4.974
 6888SOL    HW121563   5.134   6.128   4.974
 6888SOL    HW221564   5.261   6.085   4.881
 6889SOL     OW21565   1.427   4.000   6.095
 6889SOL    HW121566   1.400   4.029   6.003
 6889SOL    HW221567   1.362   4.034   6.162
 6890SOL     OW21568   2.331   0.791   0.570
 6890SOL    HW121569   2.234   0.815   0.565
 6890SOL    HW221570   2.360   0.789   0.666
 6891SOL     OW21571   3.507   4.965   4.898
 6891SOL    HW121572   3.490   4.972   4.800
 6891SOL    HW221573   3.439   4.905   4.940
 6892SOL     OW21574   3.708   1.031   4.430
 6892SOL    HW121575   3.779   0.980   4.380
 6892SOL    HW221576   3.623   1.029   4.377
 6893SOL     OW21577   6.607   6.856   1.502
 6893SOL    HW121578   6.584   6.922   1.573
 6893SOL    HW221579   6.546   6.777   1.509
 6894SOL     OW21580   6.263   4.583   5.840
 6894SOL    HW121581   6.301   4.570   5.931
 6894SOL    HW221582   6.165   4.606   5.847
 6895SOL     OW21583   4.051   5.148   6.835
 6895SOL    HW121584   4.036   5.240   6.873
 6895SOL    HW221585   4.006   5.141   6.746
 6896SOL     OW21586   4.287   0.082   3.210
 6896SOL    HW121587   4.324   0.094   3.302
 6896SOL    HW221588   4.251   7.013   3.201
 6897SOL     OW21589   3.496   2.139   0.504
 6897SOL    HW121590   3.527   2.193   0.582
 6897SOL    HW221591   3.396   2.142   0.500
 6898SOL     OW21592   3.943   1.223   2.979
 6898SOL    HW121593   3.929   1.191   2.885
 6898SOL    HW221594   4.039   1.211   3.004
 6899SOL     OW21595   5.548   6.412   6.574
 6899SOL    HW121596   5.497   6.345   6.520
 6899SOL    HW221597   5.517   6.408   6.669
 6900SOL     OW21598   4.178   1.253   5.363
 6900SOL    HW121599   4.268   1.246   5.405
 6900SOL    HW221600   4.166   1.180   5.296
 6901SOL     OW21601   1.451   0.624   0.151
 6901SOL    HW121602   1.501   0.684   0.089
 6901SOL    HW221603   1.412   0.548   0.099
 6902SOL     OW21604   6.549   5.802   1.503
 6902SOL    HW121605   6.456   5.832   1.527
 6902SOL    HW221606   6.616   5.855   1.555
 6903SOL     OW21607   4.025   4.709   0.913
 6903SOL    HW121608   4.064   4.619   0.893
 6903SOL    HW221609   4.076   4.751   0.988
 6904SOL     OW21610   0.176   1.606   3.019
 6904SOL    HW121611   0.184   1.583   2.922
 6904SOL    HW221612   0.241   1.680   3.041
 6905SOL     OW21613   4.414   4.933   1.102
 6905SOL    HW121614   4.427   5.031   1.086
 6905SOL    HW221615   4.318   4.915   1.122
 6906SOL     OW21616   4.298   5.741   3.875
 6906SOL    HW121617   4.383   5.710   3.917
 6906SOL    HW221618   4.304   5.731   3.776
 6907SOL     OW21619   3.649   1.342   1.075
 6907SOL    HW121620   3.652   1.243   1.058
 6907SOL    HW221621   3.742   1.379   1.074
 6908SOL     OW21622   6.936   6.602   6.903
 6908SOL    HW121623   6.891   6.648   6.979
 6908SOL    HW221624   6.868   6.557   6.846
 6909SOL     OW21625   4.426   2.978   6.773
 6909SOL    HW121626   4.465   2.941   6.858
 6909SOL    HW221627   4.498   2.987   6.705
 6910SOL     OW21628   6.491   1.318   2.001
 6910SOL    HW121629   6.397   1.287   2.008
 6910SOL    HW221630   6.552   1.248   2.037
 6911SOL     OW21631   4.210   0.811   5.241
 6911SOL    HW121632   4.287   0.752   5.216
 6911SOL    HW221633   4.174   0.783   5.330
 6912SOL     OW21634   4.589   5.285   1.672
 6912SOL    HW121635   4.651   5.207   1.687
 6912SOL    HW221636   4.516   5.258   1.609
 6913SOL     OW21637   4.515   5.753   5.259
 6913SOL    HW121638   4.603   5.800   5.263
 6913SOL    HW221639   4.450   5.807   5.205
 6914SOL     OW21640   6.125   4.891   0.264
 6914SOL    HW121641   6.049   4.952   0.289
 6914SOL    HW221642   6.164   4.851   0.347
 6915SOL     OW21643   1.260   5.774   1.215
 6915SOL    HW121644   1.299   5.794   1.305
 6915SOL    HW221645   1.226   5.680   1.214
 6916SOL     OW21646   6.409   1.248   6.404
 6916SOL    HW121647   6.358   1.295   6.332
 6916SOL    HW221648   6.507   1.257   6.386
 6917SOL     OW21649   4.786   0.029   6.447
 6917SOL    HW121650   4.740   6.982   6.392
 6917SOL    HW221651   4.758   0.020   6.543
 6918SOL     OW21652   2.197   2.787   3.794
 6918SOL    HW121653   2.240   2.812   3.881
 6918SOL    HW221654   2.226   2.851   3.723
 6919SOL     OW21655   1.309   6.245   3.292
 6919SOL    HW121656   1.289   6.302   3.372
 6919SOL    HW221657   1.392   6.278   3.247
 6920SOL     OW21658   4.646   6.702   4.804
 6920SOL    HW121659   4.652   6.611   4.763
 6920SOL    HW221660   4.559   6.745   4.778
 6921SOL     OW21661   0.152   6.283   2.843
 6921SOL    HW121662   0.073   6.252   2.791
 6921SOL    HW221663   0.205   6.348   2.788
 6922SOL     OW21664   1.582   5.972   6.767
 6922SOL    HW121665   1.655   5.977   6.699
 6922SOL    HW221666   1.561   5.876   6.786
 6923SOL     OW21667   4.534   6.725   4.315
 6923SOL    HW121668   4.601   6.793   4.345
 6923SOL    HW221669   4.482   6.761   4.238
 6924SOL     OW21670   6.524   6.061   1.409
 6924SOL    HW121671   6.613   6.075   1.365
 6924SOL    HW221672   6.532   5.990   1.479
 6925SOL     OW21673   6.037   5.602   3.060
 6925SOL    HW121674   6.040   5.670   3.133
 6925SOL    HW221675   5.957   5.618   3.003
 6926SOL     OW21676   3.076   3.830   4.997
 6926SOL    HW121677   2.990   3.790   5.031
 6926SOL    HW221678   3.066   3.929   4.990
 6927SOL     OW21679   3.900   3.816   6.460
 6927SOL    HW121680   3.950   3.781   6.381
 6927SOL    HW221681   3.873   3.740   6.519
 6928SOL     OW21682   6.371   0.135   6.478
 6928SOL    HW121683   6.440   0.089   6.533
 6928SOL    HW221684   6.415   0.176   6.398
 6929SOL     OW21685   3.822   5.189   0.342
 6929SOL    HW121686   3.745   5.219   0.286
 6929SOL    HW221687   3.876   5.268   0.370
 6930SOL     OW21688   1.103   0.031   3.102
 6930SOL    HW121689   1.075   0.126   3.106
 6930SOL    HW221690   1.025   6.995   3.123
 6931SOL     OW21691   1.556   0.939   1.882
 6931SOL    HW121692   1.511   0.851   1.899
 6931SOL    HW221693   1.636   0.925   1.824
 6932SOL     OW21694   2.816   1.955   0.226
 6932SOL    HW121695   2.886   1.947   0.296
 6932SOL    HW221696   2.854   2.002   0.146
 6933SOL     OW21697   3.306   6.301   6.504
 6933SOL    HW121698   3.365   6.309   6.423
 6933SOL    HW221699   3.267   6.390   6.526
 6934SOL     OW21700   6.270   4.322   6.218
 6934SOL    HW121701   6.198   4.316   6.148
 6934SOL    HW221702   6.228   4.335   6.307
 6935SOL     OW21703   4.311   5.358   3.638
 6935SOL    HW121704   4.234   5.379   3.699
 6935SOL    HW221705   4.385   5.422   3.655
 6936SOL     OW21706   1.285   4.468   1.044
 6936SOL    HW121707   1.324   4.530   1.112
 6936SOL    HW221708   1.284   4.512   0.954
 6937SOL     OW21709   4.399   6.662   5.963
 6937SOL    HW121710   4.318   6.627   6.008
 6937SOL    HW221711   4.375   6.697   5.872
 6938SOL     OW21712   5.965   2.029   5.050
 6938SOL    HW121713   5.876   2.075   5.051
 6938SOL    HW221714   5.976   1.979   4.964
 6939SOL     OW21715   0.644   5.265   2.521
 6939SOL    HW121716   0.642   5.224   2.612
 6939SOL    HW221717   0.594   5.208   2.457
 6940SOL     OW21718   4.001   0.659   4.999
 6940SOL    HW121719   3.950   0.723   4.941
 6940SOL    HW221720   3.980   0.678   5.095
 6941SOL     OW21721   3.730   3.060   3.261
 6941SOL    HW121722   3.740   2.996   3.185
 6941SOL    HW221723   3.633   3.074   3.281
 6942SOL     OW21724   0.013   1.663   0.461
 6942SOL    HW121725   6.950   1.629   0.422
 6942SOL    HW221726   0.025   1.626   0.553
 6943SOL     OW21727   5.469   6.037   6.735
 6943SOL    HW121728   5.508   6.112   6.789
 6943SOL    HW221729   5.393   5.996   6.785
 6944SOL     OW21730   1.209   6.714   6.016
 6944SOL    HW121731   1.177   6.807   6.034
 6944SOL    HW221732   1.289   6.717   5.956
 6945SOL     OW21733   4.532   1.984   5.283
 6945SOL    HW121734   4.488   1.936   5.207
 6945SOL    HW221735   4.570   2.070   5.249
 6946SOL     OW21736   6.076   4.483   3.771
 6946SOL    HW121737   6.116   4.429   3.846
 6946SOL    HW221738   6.017   4.424   3.715
 6947SOL     OW21739   3.955   6.997   3.035
 6947SOL    HW121740   4.012   6.940   3.094
 6947SOL    HW221741   3.970   6.971   2.940
 6948SOL     OW21742   3.768   1.913   4.637
 6948SOL    HW121743   3.669   1.909   4.650
 6948SOL    HW221744   3.809   1.832   4.678
 6949SOL     OW21745   5.141   0.756   2.306
 6949SOL    HW121746   5.214   0.813   2.345
 6949SOL    HW221747   5.132   0.777   2.208
 6950SOL     OW21748   2.340   1.107   3.371
 6950SOL    HW121749   2.402   1.164   3.316
 6950SOL    HW221750   2.325   1.151   3.460
 6951SOL     OW21751   5.452   5.215   5.584
 6951SOL    HW121752   5.531   5.185   5.637
 6951SOL    HW221753   5.481   5.279   5.513
 6952SOL     OW21754   0.342   5.029   4.761
 6952SOL    HW121755   0.436   5.020   4.795
 6952SOL    HW221756   0.280   5.044   4.838
 6953SOL     OW21757   5.538   2.016   5.516
 6953SOL    HW121758   5.591   2.094   5.550
 6953SOL    HW221759   5.523   2.027   5.417
 6954SOL     OW21760   0.842   5.168   2.992
 6954SOL    HW121761   0.802   5.189   3.082
 6954SOL    HW221762   0.891   5.248   2.958
 6955SOL     OW21763   6.233   5.506   2.627
 6955SOL    HW121764   6.272   5.516   2.718
 6955SOL    HW221765   6.202   5.412   2.615
 6956SOL     OW21766   3.084   4.848   1.050
 6956SOL    HW121767   3.120   4.942   1.053
 6956SOL    HW221768   3.046   4.824   1.139
 6957SOL     OW21769   0.497   3.814   0.140
 6957SOL    HW121770   0.507   3.813   0.040
 6957SOL    HW221771   0.530   3.901   0.176
 6958SOL     OW21772   2.582   3.689   6.396
 6958SOL    HW121773   2.549   3.739   6.476
 6958SOL    HW221774   2.598   3.753   6.321
 6959SOL     OW21775   3.164   1.086   4.191
 6959SOL    HW121776   3.068   1.104   4.173
 6959SOL    HW221777   3.221   1.141   4.130
 6960SOL     OW21778   6.743   4.729   6.739
 6960SOL    HW121779   6.789   4.706   6.654
 6960SOL    HW221780   6.794   4.691   6.816
 6961SOL     OW21781   6.658   1.562   3.028
 6961SOL    HW121782   6.612   1.616   2.958
 6961SOL    HW221783   6.647   1.465   3.008
 6962SOL     OW21784   4.281   3.378   0.505
 6962SOL    HW121785   4.213   3.452   0.503
 6962SOL    HW221786   4.249   3.304   0.563
 6963SOL     OW21787   5.772   5.624   1.913
 6963SOL    HW121788   5.809   5.714   1.939
 6963SOL    HW221789   5.848   5.562   1.893
 6964SOL     OW21790   3.883   6.282   4.980
 6964SOL    HW121791   3.840   6.203   4.937
 6964SOL    HW221792   3.836   6.366   4.951
 6965SOL     OW21793   6.683   3.276   5.671
 6965SOL    HW121794   6.673   3.177   5.677
 6965SOL    HW221795   6.698   3.314   5.762
 6966SOL     OW21796   4.662   2.661   3.837
 6966SOL    HW121797   4.678   2.601   3.759
 6966SOL    HW221798   4.700   2.751   3.819
 6967SOL     OW21799   2.043   1.572   6.785
 6967SOL    HW121800   1.974   1.622   6.733
 6967SOL    HW221801   2.046   1.607   6.879
 6968SOL     OW21802   4.684   6.867   2.275
 6968SOL    HW121803   4.674   6.840   2.371
 6968SOL    HW221804   4.773   6.837   2.241
 6969SOL     OW21805   3.152   1.940   1.576
 6969SOL    HW121806   3.225   1.928   1.508
 6969SOL    HW221807   3.182   1.902   1.663
 6970SOL     OW21808   4.862   3.791   0.506
 6970SOL    HW121809   4.795   3.734   0.458
 6970SOL    HW221810   4.824   3.818   0.595
 6971SOL     OW21811   5.534   1.140   2.381
 6971SOL    HW121812   5.446   1.176   2.413
 6971SOL    HW221813   5.521   1.047   2.346
 6972SOL     OW21814   5.550   4.841   4.447
 6972SOL    HW121815   5.557   4.935   4.481
 6972SOL    HW221816   5.559   4.841   4.347
 6973SOL     OW21817   1.983   4.843   4.151
 6973SOL    HW121818   1.987   4.766   4.087
 6973SOL    HW221819   2.053   4.831   4.221
 6974SOL     OW21820   3.790   3.609   4.854
 6974SOL    HW121821   3.719   3.677   4.872
 6974SOL    HW221822   3.773   3.567   4.765
 6975SOL     OW21823   3.788   1.253   5.407
 6975SOL    HW121824   3.855   1.320   5.377
 6975SOL    HW221825   3.720   1.298   5.466
 6976SOL     OW21826   1.924   5.477   0.069
 6976SOL    HW121827   1.842   5.454   0.016
 6976SOL    HW221828   1.971   5.553   0.026
 6977SOL     OW21829   4.065   2.267   2.933
 6977SOL    HW121830   4.050   2.171   2.909
 6977SOL    HW221831   4.007   2.325   2.876
 6978SOL     OW21832   6.070   0.960   2.653
 6978SOL    HW121833   6.073   1.051   2.610
 6978SOL    HW221834   6.162   0.929   2.672
 6979SOL     OW21835   0.497   4.655   3.420
 6979SOL    HW121836   0.452   4.689   3.503
 6979SOL    HW221837   0.452   4.572   3.389
 6980SOL     OW21838   3.315   1.233   4.022
 6980SOL    HW121839   3.383   1.287   4.072
 6980SOL    HW221840   3.291   1.280   3.937
 6981SOL     OW21841   2.746   4.806   6.576
 6981SOL    HW121842   2.836   4.777   6.610
 6981SOL    HW221843   2.702   4.729   6.529
 6982SOL     OW21844   0.174   6.638   4.762
 6982SOL    HW121845   0.106   6.616   4.692
 6982SOL    HW221846   0.242   6.701   4.723
 6983SOL     OW21847   6.198   1.145   3.912
 6983SOL    HW121848   6.287   1.133   3.868
 6983SOL    HW221849   6.126   1.110   3.851
 6984SOL     OW21850   2.182   1.345   6.782
 6984SOL    HW121851   2.201   1.310   6.690
 6984SOL    HW221852   2.137   1.434   6.775
 6985SOL     OW21853   5.131   6.206   2.580
 6985SOL    HW121854   5.035   6.233   2.573
 6985SOL    HW221855   5.147   6.124   2.525
 6986SOL     OW21856   2.150   6.600   4.858
 6986SOL    HW121857   2.117   6.516   4.816
 6986SOL    HW221858   2.246   6.590   4.883
 6987SOL     OW21859   6.778   3.565   6.775
 6987SOL    HW121860   6.837   3.486   6.795
 6987SOL    HW221861   6.815   3.646   6.820
 6988SOL     OW21862   4.985   1.060   5.213
 6988SOL    HW121863   5.039   1.142   5.191
 6988SOL    HW221864   4.990   0.996   5.136
 6989SOL     OW21865   1.226   2.748   4.147
 6989SOL    HW121866   1.185   2.711   4.230
 6989SOL    HW221867   1.199   2.693   4.068
 6990SOL     OW21868   3.918   3.409   0.206
 6990SOL    HW121869   3.961   3.382   0.292
 6990SOL    HW221870   3.980   3.386   0.130
 6991SOL     OW21871   4.184   4.485   5.498
 6991SOL    HW121872   4.219   4.422   5.567
 6991SOL    HW221873   4.112   4.542   5.539
 6992SOL     OW21874   5.116   6.864   5.352
 6992SOL    HW121875   5.027   6.899   5.380
 6992SOL    HW221876   5.106   6.811   5.268
 6993SOL     OW21877   0.591   6.470   3.046
 6993SOL    HW121878   0.532   6.487   3.126
 6993SOL    HW221879   0.602   6.555   2.995
 6994SOL     OW21880   1.239   2.935   0.170
 6994SOL    HW121881   1.252   2.836   0.161
 6994SOL    HW221882   1.192   2.955   0.256
 6995SOL     OW21883   0.457   5.506   3.152
 6995SOL    HW121884   0.379   5.483   3.210
 6995SOL    HW221885   0.535   5.533   3.209
 6996SOL     OW21886   2.493   6.867   5.870
 6996SOL    HW121887   2.430   6.814   5.926
 6996SOL    HW221888   2.466   6.859   5.774
 6997SOL     OW21889   4.890   0.264   4.495
 6997SOL    HW121890   4.820   0.240   4.563
 6997SOL    HW221891   4.949   0.335   4.532
 6998SOL     OW21892   1.722   2.506   3.730
 6998SOL    HW121893   1.806   2.555   3.756
 6998SOL    HW221894   1.725   2.413   3.769
 6999SOL     OW21895   4.004   1.673   6.543
 6999SOL    HW121896   3.956   1.733   6.608
 6999SOL    HW221897   3.937   1.619   6.493
 7000SOL     OW21898   0.096   6.453   1.387
 7000SOL    HW121899   0.164   6.491   1.449
 7000SOL    HW221900   0.141   6.396   1.318
 7001SOL     OW21901   2.922   1.490   5.479
 7001SOL    HW121902   2.827   1.513   5.458
 7001SOL    HW221903   2.939   1.394   5.456
 7002SOL     OW21904   1.791   5.353   3.305
 7002SOL    HW121905   1.702   5.320   3.335
 7002SOL    HW221906   1.810   5.321   3.212
 7003SOL     OW21907   2.305   6.058   6.845
 7003SOL    HW121908   2.249   6.108   6.912
 7003SOL    HW221909   2.401   6.061   6.873
 7004SOL     OW21910   0.706   5.236   0.662
 7004SOL    HW121911   0.633   5.302   0.680
 7004SOL    HW221912   0.715   5.175   0.740
 7005SOL     OW21913   5.356   6.909   5.460
 7005SOL    HW121914   5.373   6.988   5.520
 7005SOL    HW221915   5.258   6.890   5.458
 7006SOL     OW21916   4.287   4.766   4.944
 7006SOL    HW121917   4.265   4.678   4.985
 7006SOL    HW221918   4.204   4.806   4.904
 7007SOL     OW21919   5.129   5.113   2.361
 7007SOL    HW121920   5.061   5.057   2.407
 7007SOL    HW221921   5.217   5.106   2.408
 7008SOL     OW21922   0.910   4.831   4.616
 7008SOL    HW121923   0.995   4.836   4.668
 7008SOL    HW221924   0.868   4.922   4.612
 7009SOL     OW21925   0.248   4.643   2.490
 7009SOL    HW121926   0.341   4.652   2.455
 7009SOL    HW221927   0.249   4.590   2.575
 7010SOL     OW21928   4.001   4.831   6.424
 7010SOL    HW121929   3.961   4.828   6.515
 7010SOL    HW221930   4.071   4.902   6.420
 7011SOL     OW21931   2.541   1.517   4.558
 7011SOL    HW121932   2.539   1.492   4.655
 7011SOL    HW221933   2.523   1.615   4.549
 7012SOL     OW21934   1.000   1.313   2.176
 7012SOL    HW121935   1.097   1.314   2.156
 7012SOL    HW221936   0.981   1.370   2.256
 7013SOL     OW21937   0.834   0.752   2.383
 7013SOL    HW121938   0.806   0.658   2.360
 7013SOL    HW221939   0.797   0.815   2.315
 7014SOL     OW21940   2.407   4.775   1.395
 7014SOL    HW121941   2.456   4.801   1.311
 7014SOL    HW221942   2.461   4.707   1.445
 7015SOL     OW21943   4.854   2.501   1.962
 7015SOL    HW121944   4.884   2.425   1.904
 7015SOL    HW221945   4.772   2.475   2.013
 7016SOL     OW21946   3.048   4.612   0.830
 7016SOL    HW121947   3.106   4.685   0.867
 7016SOL    HW221948   2.970   4.653   0.782
 7017SOL     OW21949   4.240   1.665   4.328
 7017SOL    HW121950   4.335   1.635   4.327
 7017SOL    HW221951   4.216   1.704   4.239
 7018SOL     OW21952   0.197   5.327   3.812
 7018SOL    HW121953   0.152   5.369   3.891
 7018SOL    HW221954   0.158   5.236   3.796
 7019SOL     OW21955   2.151   6.104   0.444
 7019SOL    HW121956   2.137   6.109   0.543
 7019SOL    HW221957   2.245   6.074   0.425
 7020SOL     OW21958   0.096   0.010   5.920
 7020SOL    HW121959   0.162   0.038   5.990
 7020SOL    HW221960   0.097   0.077   5.846
 7021SOL     OW21961   3.381   0.706   5.782
 7021SOL    HW121962   3.321   0.776   5.743
 7021SOL    HW221963   3.421   0.651   5.708
 7022SOL     OW21964   5.236   4.837   6.235
 7022SOL    HW121965   5.159   4.815   6.176
 7022SOL    HW221966   5.317   4.856   6.179
 7023SOL     OW21967   6.131   4.030   2.982
 7023SOL    HW121968   6.158   4.107   3.040
 7023SOL    HW221969   6.182   4.033   2.896
 7024SOL     OW21970   0.343   6.465   0.637
 7024SOL    HW121971   0.357   6.480   0.539
 7024SOL    HW221972   0.269   6.398   0.650
 7025SOL     OW21973   2.528   0.604   6.281
 7025SOL    HW121974   2.498   0.530   6.341
 7025SOL    HW221975   2.507   0.692   6.324
 7026SOL     OW21976   4.268   2.199   0.856
 7026SOL    HW121977   4.293   2.197   0.759
 7026SOL    HW221978   4.306   2.281   0.899
 7027SOL     OW21979   4.320   0.088   4.391
 7027SOL    HW121980   4.391   0.054   4.452
 7027SOL    HW221981   4.363   0.133   4.312
 7028SOL     OW21982   3.204   6.827   4.408
 7028SOL    HW121983   3.171   6.914   4.370
 7028SOL    HW221984   3.247   6.773   4.336
 7029SOL     OW21985   3.462   0.090   4.812
 7029SOL    HW121986   3.442   0.183   4.781
 7029SOL    HW221987   3.431   0.024   4.744
 7030SOL     OW21988   2.102   3.846   3.982
 7030SOL    HW121989   2.019   3.796   4.005
 7030SOL    HW221990   2.109   3.857   3.883
 7031SOL     OW21991   2.718   6.781   5.348
 7031SOL    HW121992   2.693   6.871   5.313
 7031SOL    HW221993   2.645   6.716   5.328
 7032SOL     OW21994   5.690   1.951   2.803
 7032SOL    HW121995   5.752   1.918   2.732
 7032SOL    HW221996   5.673   1.877   2.868
 7033SOL     OW21997   6.521   0.202   4.323
 7033SOL    HW121998   6.431   0.234   4.351
 7033SOL    HW221999   6.567   0.272   4.270
 7034SOL     OW22000   6.538   5.684   2.877
 7034SOL    HW122001   6.571   5.698   2.784
 7034SOL    HW222002   6.557   5.766   2.932
 7035SOL     OW22003   6.248   5.386   1.960
 7035SOL    HW122004   6.286   5.414   2.048
 7035SOL    HW222005   6.263   5.288   1.946
 7036SOL     OW22006   6.873   4.537   1.674
 7036SOL    HW122007   6.942   4.535   1.602
 7036SOL    HW222008   6.827   4.626   1.673
 7037SOL     OW22009   1.034   0.048   0.091
 7037SOL    HW122010   1.050   0.008   0.181
 7037SOL    HW222011   1.052   7.003   0.020
 7038SOL     OW22012   1.766   4.082   4.116
 7038SOL    HW122013   1.770   4.166   4.062
 7038SOL    HW222014   1.726   4.009   4.061
 7039SOL     OW22015   4.247   1.476   6.113
 7039SOL    HW122016   4.237   1.380   6.139
 7039SOL    HW222017   4.185   1.532   6.167
 7040SOL     OW22018   4.860   2.536   6.202
 7040SOL    HW122019   4.798   2.507   6.275
 7040SOL    HW222020   4.808   2.546   6.117
 7041SOL     OW22021   2.647   1.299   2.251
 7041SOL    HW122022   2.604   1.291   2.161
 7041SOL    HW222023   2.581   1.332   2.318
 7042SOL     OW22024   2.104   0.126   6.968
 7042SOL    HW122025   2.116   0.206   6.910
 7042SOL    HW222026   2.058   0.054   6.915
 7043SOL     OW22027   1.626   2.365   3.250
 7043SOL    HW122028   1.661   2.456   3.232
 7043SOL    HW222029   1.558   2.341   3.181
 7044SOL     OW22030   4.861   6.349   2.536
 7044SOL    HW122031   4.857   6.444   2.505
 7044SOL    HW222032   4.771   6.307   2.525
 7045SOL     OW22033   5.989   4.914   1.018
 7045SOL    HW122034   6.058   4.892   1.087
 7045SOL    HW222035   6.000   4.852   0.940
 7046SOL     OW22036   2.476   0.896   4.387
 7046SOL    HW122037   2.400   0.911   4.451
 7046SOL    HW222038   2.446   0.836   4.313
 7047SOL     OW22039   2.061   1.578   3.953
 7047SOL    HW122040   1.970   1.547   3.924
 7047SOL    HW222041   2.071   1.564   4.051
 7048SOL     OW22042   6.243   6.489   0.552
 7048SOL    HW122043   6.317   6.519   0.612
 7048SOL    HW222044   6.278   6.419   0.489
 7049SOL     OW22045   2.052   1.023   0.626
 7049SOL    HW122046   2.138   1.061   0.662
 7049SOL    HW222047   2.061   1.008   0.527
 7050SOL     OW22048   4.169   3.545   4.943
 7050SOL    HW122049   4.127   3.552   4.852
 7050SOL    HW222050   4.260   3.587   4.941
 7051SOL     OW22051   6.422   6.667   2.133
 7051SOL    HW122052   6.455   6.573   2.130
 7051SOL    HW222053   6.402   6.698   2.040
 7052SOL     OW22054   6.253   1.793   3.245
 7052SOL    HW122055   6.175   1.856   3.241
 7052SOL    HW222056   6.258   1.740   3.161
 7053SOL     OW22057   6.812   4.387   6.232
 7053SOL    HW122058   6.868   4.313   6.270
 7053SOL    HW222059   6.716   4.359   6.232
 7054SOL     OW22060   7.017   6.845   1.547
 7054SOL    HW122061   6.959   6.774   1.587
 7054SOL    HW222062   6.983   6.935   1.575
 7055SOL     OW22063   3.289   6.967   5.387
 7055SOL    HW122064   3.206   7.016   5.361
 7055SOL    HW222065   3.264   6.887   5.443
 7056SOL     OW22066   4.666   5.083   3.975
 7056SOL    HW122067   4.658   5.072   3.876
 7056SOL    HW222068   4.760   5.108   3.999
 7057SOL     OW22069   0.686   6.006   3.308
 7057SOL    HW122070   0.631   6.021   3.391
 7057SOL    HW222071   0.677   6.085   3.248
 7058SOL     OW22072   0.516   5.138   5.105
 7058SOL    HW122073   0.433   5.156   5.158
 7058SOL    HW222074   0.579   5.082   5.159
 7059SOL     OW22075   1.711   0.458   2.663
 7059SOL    HW122076   1.624   0.444   2.615
 7059SOL    HW222077   1.783   0.408   2.616
 7060SOL     OW22078   2.542   0.223   1.460
 7060SOL    HW122079   2.559   0.257   1.553
 7060SOL    HW222080   2.620   0.247   1.402
 7061SOL     OW22081   0.038   1.114   2.373
 7061SOL    HW122082   0.057   1.208   2.349
 7061SOL    HW222083   0.020   1.060   2.290
 7062SOL     OW22084   6.285   1.193   5.190
 7062SOL    HW122085   6.385   1.195   5.182
 7062SOL    HW222086   6.256   1.259   5.259
 7063SOL     OW22087   2.604   6.811   1.828
 7063SOL    HW122088   2.615   6.910   1.814
 7063SOL    HW222089   2.654   6.783   1.909
 7064SOL     OW22090   4.453   2.394   0.305
 7064SOL    HW122091   4.354   2.393   0.318
 7064SOL    HW222092   4.475   2.444   0.221
 7065SOL     OW22093   4.416   4.111   1.685
 7065SOL    HW122094   4.381   4.170   1.611
 7065SOL    HW222095   4.453   4.167   1.758
 7066SOL     OW22096   3.402   6.485   0.461
 7066SOL    HW122097   3.499   6.488   0.436
 7066SOL    HW222098   3.374   6.390   0.474
 7067SOL     OW22099   0.190   4.294   4.889
 7067SOL    HW122100   0.281   4.286   4.849
 7067SOL    HW222101   0.170   4.212   4.944
 7068SOL     OW22102   0.883   1.162   3.126
 7068SOL    HW122103   0.857   1.081   3.074
 7068SOL    HW222104   0.871   1.243   3.070
 7069SOL     OW22105   1.467   4.064   4.782
 7069SOL    HW122106   1.532   4.054   4.858
 7069SOL    HW222107   1.446   4.161   4.769
 7070SOL     OW22108   5.491   5.682   4.439
 7070SOL    HW122109   5.547   5.602   4.458
 7070SOL    HW222110   5.511   5.717   4.348
 7071SOL     OW22111   1.511   6.564   5.532
 7071SOL    HW122112   1.502   6.655   5.491
 7071SOL    HW222113   1.447   6.501   5.488
 7072SOL     OW22114   0.049   6.530   6.591
 7072SOL    HW122115   0.007   6.439   6.586
 7072SOL    HW222116   7.007   6.594   6.632
 7073SOL     OW22117   1.177   0.968   6.009
 7073SOL    HW122118   1.112   1.006   6.074
 7073SOL    HW222119   1.170   0.868   6.009
 7074SOL     OW22120   3.570   2.281   1.427
 7074SOL    HW122121   3.474   2.309   1.424
 7074SOL    HW222122   3.620   2.338   1.492
 7075SOL     OW22123   1.177   5.516   3.267
 7075SOL    HW122124   1.118   5.534   3.345
 7075SOL    HW222125   1.122   5.500   3.185
 7076SOL     OW22126   3.146   2.377   6.663
 7076SOL    HW122127   3.199   2.332   6.590
 7076SOL    HW222128   3.123   2.470   6.635
 7077SOL     OW22129   2.105   5.460   5.691
 7077SOL    HW122130   2.094   5.559   5.682
 7077SOL    HW222131   2.016   5.418   5.709
 7078SOL     OW22132   6.689   0.671   3.001
 7078SOL    HW122133   6.670   0.578   2.969
 7078SOL    HW222134   6.785   0.679   3.024
 7079SOL     OW22135   5.131   5.346   5.399
 7079SOL    HW122136   5.060   5.300   5.346
 7079SOL    HW222137   5.221   5.323   5.361
 7080SOL     OW22138   5.352   0.339   4.112
 7080SOL    HW122139   5.305   0.337   4.200
 7080SOL    HW222140   5.327   0.423   4.063
 7081SOL     OW22141   3.835   1.112   5.181
 7081SOL    HW122142   3.836   1.165   5.265
 7081SOL    HW222143   3.792   1.166   5.108
 7082SOL     OW22144   5.283   0.887   6.159
 7082SOL    HW122145   5.282   0.969   6.217
 7082SOL    HW222146   5.362   0.889   6.099
 7083SOL     OW22147   3.518   6.990   6.033
 7083SOL    HW122148   3.531   7.021   5.939
 7083SOL    HW222149   3.567   0.027   6.095
 7084SOL     OW22150   6.353   6.704   0.106
 7084SOL    HW122151   6.364   6.701   0.007
 7084SOL    HW222152   6.388   6.619   0.146
 7085SOL     OW22153   2.673   2.365   0.975
 7085SOL    HW122154   2.646   2.441   0.916
 7085SOL    HW222155   2.683   2.398   1.069
 7086SOL     OW22156   6.824   1.083   6.585
 7086SOL    HW122157   6.888   1.010   6.607
 7086SOL    HW222158   6.752   1.048   6.525
 7087SOL     OW22159   1.996   2.636   4.027
 7087SOL    HW122160   1.908   2.610   4.066
 7087SOL    HW222161   1.994   2.625   3.928
 7088SOL     OW22162   6.721   2.321   5.258
 7088SOL    HW122163   6.676   2.297   5.345
 7088SOL    HW222164   6.787   2.250   5.234
 7089SOL     OW22165   2.941   1.526   0.295
 7089SOL    HW122166   2.984   1.548   0.208
 7089SOL    HW222167   2.854   1.575   0.303
 7090SOL     OW22168   2.274   2.348   4.677
 7090SOL    HW122169   2.291   2.334   4.579
 7090SOL    HW222170   2.351   2.398   4.717
 7091SOL     OW22171   0.374   5.886   6.806
 7091SOL    HW122172   0.363   5.962   6.870
 7091SOL    HW222173   0.294   5.825   6.812
 7092SOL     OW22174   2.921   3.406   0.686
 7092SOL    HW122175   2.975   3.485   0.714
 7092SOL    HW222176   2.981   3.338   0.644
 7093SOL     OW22177   3.452   2.863   5.009
 7093SOL    HW122178   3.356   2.836   5.008
 7093SOL    HW222179   3.459   2.963   5.015
 7094SOL     OW22180   0.485   0.670   5.956
 7094SOL    HW122181   0.441   0.750   5.917
 7094SOL    HW222182   0.421   0.592   5.953
 7095SOL     OW22183   0.522   2.963   6.455
 7095SOL    HW122184   0.519   2.998   6.361
 7095SOL    HW222185   0.605   2.996   6.500
 7096SOL     OW22186   4.661   1.574   2.302
 7096SOL    HW122187   4.710   1.502   2.253
 7096SOL    HW222188   4.721   1.653   2.314
 7097SOL     OW22189   0.749   0.773   1.997
 7097SOL    HW122190   0.794   0.749   1.911
 7097SOL    HW222191   0.698   0.693   2.031
 7098SOL     OW22192   2.097   6.931   5.965
 7098SOL    HW122193   2.035   6.904   6.039
 7098SOL    HW222194   2.153   6.853   5.937
 7099SOL     OW22195   0.424   0.784   6.291
 7099SOL    HW122196   0.522   0.804   6.288
 7099SOL    HW222197   0.410   0.685   6.297
 7100SOL     OW22198   5.610   2.888   1.215
 7100SOL    HW122199   5.695   2.894   1.162
 7100SOL    HW222200   5.533   2.872   1.154
 7101SOL     OW22201   2.622   6.812   4.832
 7101SOL    HW122202   2.711   6.774   4.807
 7101SOL    HW222203   2.624   6.912   4.818
 7102SOL     OW22204   4.837   2.855   0.520
 7102SOL    HW122205   4.804   2.761   0.523
 7102SOL    HW222206   4.801   2.905   0.599
 7103SOL     OW22207   3.961   6.380   6.256
 7103SOL    HW122208   4.037   6.417   6.308
 7103SOL    HW222209   3.876   6.425   6.284
 7104SOL     OW22210   1.079   2.201   3.159
 7104SOL    HW122211   1.003   2.209   3.095
 7104SOL    HW222212   1.166   2.198   3.109
 7105SOL     OW22213   2.889   3.944   5.209
 7105SOL    HW122214   2.946   3.970   5.286
 7105SOL    HW222215   2.830   4.020   5.183
 7106SOL     OW22216   3.078   2.292   5.458
 7106SOL    HW122217   3.109   2.332   5.372
 7106SOL    HW222218   2.978   2.285   5.458
 7107SOL     OW22219   2.845   1.020   6.953
 7107SOL    HW122220   2.788   0.945   6.920
 7107SOL    HW222221   2.791   1.104   6.958
 7108SOL     OW22222   4.806   6.926   1.124
 7108SOL    HW122223   4.810   0.001   1.144
 7108SOL    HW222224   4.898   6.891   1.106
 7109SOL     OW22225   3.694   5.949   6.653
 7109SOL    HW122226   3.658   6.038   6.625
 7109SOL    HW222227   3.638   5.876   6.614
 7110SOL     OW22228   4.536   4.453   2.956
 7110SOL    HW122229   4.450   4.504   2.949
 7110SOL    HW222230   4.598   4.482   2.883
 7111SOL     OW22231   1.704   3.043   3.699
 7111SOL    HW122232   1.678   3.077   3.789
 7111SOL    HW222233   1.621   3.030   3.643
 7112SOL     OW22234   0.907   6.706   2.922
 7112SOL    HW122235   0.954   6.646   2.987
 7112SOL    HW222236   0.936   6.684   2.829
 7113SOL     OW22237   3.913   3.860   4.725
 7113SOL    HW122238   3.891   3.931   4.792
 7113SOL    HW222239   3.883   3.771   4.760
 7114SOL     OW22240   3.804   1.013   0.792
 7114SOL    HW122241   3.717   0.964   0.797
 7114SOL    HW222242   3.802   1.091   0.854
 7115SOL     OW22243   4.375   1.961   0.970
 7115SOL    HW122244   4.325   2.022   0.908
 7115SOL    HW222245   4.459   2.005   1.000
 7116SOL     OW22246   5.388   3.804   2.907
 7116SOL    HW122247   5.404   3.844   2.997
 7116SOL    HW222248   5.407   3.872   2.836
 7117SOL     OW22249   5.907   6.598   1.661
 7117SOL    HW122250   6.004   6.578   1.678
 7117SOL    HW222251   5.864   6.627   1.746
 7118SOL     OW22252   0.073   3.186   1.371
 7118SOL    HW122253   0.069   3.086   1.381
 7118SOL    HW222254   7.010   3.226   1.403
 7119SOL     OW22255   6.216   1.686   3.003
 7119SOL    HW122256   6.135   1.727   2.962
 7119SOL    HW222257   6.196   1.591   3.029
 7120SOL     OW22258   5.480   0.514   3.773
 7120SOL    HW122259   5.526   0.527   3.860
 7120SOL    HW222260   5.404   0.451   3.785
 7121SOL     OW22261   3.262   6.748   2.223
 7121SOL    HW122262   3.230   6.712   2.135
 7121SOL    HW222263   3.188   6.800   2.266
 7122SOL     OW22264   6.591   1.012   6.425
 7122SOL    HW122265   6.525   1.082   6.396
 7122SOL    HW222266   6.553   0.921   6.406
 7123SOL     OW22267   2.557   4.945   1.039
 7123SOL    HW122268   2.542   4.940   0.941
 7123SOL    HW222269   2.651   4.919   1.061
 7124SOL     OW22270   0.930   4.978   1.216
 7124SOL    HW122271   0.964   5.070   1.198
 7124SOL    HW222272   0.878   4.978   1.301
 7125SOL     OW22273   6.068   6.028   2.601
 7125SOL    HW122274   6.098   6.070   2.515
 7125SOL    HW222275   6.147   5.988   2.647
 7126SOL     OW22276   0.987   4.778   0.295
 7126SOL    HW122277   1.003   4.749   0.390
 7126SOL    HW222278   1.049   4.728   0.234
 7127SOL     OW22279   3.600   6.650   4.244
 7127SOL    HW122280   3.664   6.714   4.288
 7127SOL    HW222281   3.628   6.637   4.149
 7128SOL     OW22282   2.861   4.636   1.470
 7128SOL    HW122283   2.847   4.661   1.565
 7128SOL    HW222284   2.897   4.543   1.464
 7129SOL     OW22285   2.490   0.787   1.653
 7129SOL    HW122286   2.572   0.841   1.636
 7129SOL    HW222287   2.512   0.690   1.645
 7130SOL     OW22288   2.111   5.392   2.543
 7130SOL    HW122289   2.204   5.356   2.549
 7130SOL    HW222290   2.051   5.340   2.605
 7131SOL     OW22291   3.086   0.729   3.082
 7131SOL    HW122292   3.079   0.633   3.109
 7131SOL    HW222293   3.142   0.737   3.000
 7132SOL     OW22294   3.589   4.094   3.237
 7132SOL    HW122295   3.657   4.034   3.194
 7132SOL    HW222296   3.509   4.101   3.178
 7133SOL     OW22297   5.490   4.884   2.551
 7133SOL    HW122298   5.513   4.789   2.531
 7133SOL    HW222299   5.427   4.887   2.629
 7134SOL     OW22300   5.433   3.891   4.049
 7134SOL    HW122301   5.439   3.991   4.056
 7134SOL    HW222302   5.439   3.864   3.953
 7135SOL     OW22303   1.076   1.427   4.969
 7135SOL    HW122304   1.167   1.460   4.942
 7135SOL    HW222305   1.019   1.418   4.888
 7136SOL     OW22306   2.320   1.710   0.458
 7136SOL    HW122307   2.284   1.787   0.511
 7136SOL    HW222308   2.418   1.724   0.442
 7137SOL     OW22309   4.273   0.813   4.929
 7137SOL    HW122310   4.368   0.782   4.924
 7137SOL    HW222311   4.240   0.804   5.023
 7138SOL     OW22312   2.460   4.020   0.407
 7138SOL    HW122313   2.392   3.947   0.414
 7138SOL    HW222314   2.415   4.109   0.418
 7139SOL     OW22315   3.648   2.012   1.026
 7139SOL    HW122316   3.594   2.085   1.069
 7139SOL    HW222317   3.736   2.004   1.073
 7140SOL     OW22318   6.439   3.324   5.231
 7140SOL    HW122319   6.528   3.295   5.196
 7140SOL    HW222320   6.435   3.310   5.330
 7141SOL     OW22321   2.931   6.389   0.740
 7141SOL    HW122322   2.842   6.419   0.775
 7141SOL    HW222323   3.000   6.459   0.759
 7142SOL     OW22324   3.923   6.139   4.431
 7142SOL    HW122325   4.016   6.138   4.393
 7142SOL    HW222326   3.915   6.215   4.496
 7143SOL     OW22327   1.862   3.497   4.703
 7143SOL    HW122328   1.845   3.484   4.800
 7143SOL    HW222329   1.777   3.521   4.656
 7144SOL     OW22330   0.450   2.753   3.768
 7144SOL    HW122331   0.463   2.661   3.804
 7144SOL    HW222332   0.368   2.794   3.808
 7145SOL     OW22333   4.737   0.011   6.715
 7145SOL    HW122334   4.796   6.955   6.726
 7145SOL    HW222335   4.779   0.091   6.756
 7146SOL     OW22336   3.384   4.528   0.339
 7146SOL    HW122337   3.385   4.567   0.431
 7146SOL    HW222338   3.337   4.439   0.342
 7147SOL     OW22339   0.311   0.438   3.714
 7147SOL    HW122340   0.293   0.368   3.783
 7147SOL    HW222341   0.245   0.512   3.722
 7148SOL     OW22342   0.561   1.257   0.997
 7148SOL    HW122343   0.485   1.321   0.983
 7148SOL    HW222344   0.555   1.218   1.089
 7149SOL     OW22345   5.982   1.272   4.082
 7149SOL    HW122346   5.974   1.237   4.175
 7149SOL    HW222347   6.041   1.211   4.029
 7150SOL     OW22348   5.751   3.198   6.986
 7150SOL    HW122349   5.654   3.202   7.009
 7150SOL    HW222350   5.763   3.170   6.891
 7151SOL     OW22351   2.667   6.137   1.232
 7151SOL    HW122352   2.703   6.154   1.140
 7151SOL    HW222353   2.741   6.141   1.299
 7152SOL     OW22354   1.197   2.643   3.807
 7152SOL    HW122355   1.137   2.722   3.794
 7152SOL    HW222356   1.278   2.653   3.749
 7153SOL     OW22357   3.664   1.563   3.616
 7153SOL    HW122358   3.731   1.615   3.562
 7153SOL    HW222359   3.711   1.511   3.686
 7154SOL     OW22360   4.834   6.112   4.204
 7154SOL    HW122361   4.735   6.115   4.193
 7154SOL    HW222362   4.874   6.198   4.172
 7155SOL     OW22363   2.709   0.507   1.582
 7155SOL    HW122364   2.671   0.454   1.658
 7155SOL    HW222365   2.807   0.519   1.595
 7156SOL     OW22366   6.798   5.544   4.510
 7156SOL    HW122367   6.742   5.626   4.517
 7156SOL    HW222368   6.886   5.560   4.556
 7157SOL     OW22369   4.818   4.157   0.943
 7157SOL    HW122370   4.754   4.221   0.900
 7157SOL    HW222371   4.874   4.114   0.872
 7158SOL     OW22372   6.100   6.806   4.288
 7158SOL    HW122373   6.188   6.763   4.270
 7158SOL    HW222374   6.033   6.775   4.220
 7159SOL     OW22375   0.632   5.960   6.933
 7159SOL    HW122376   0.536   5.963   6.905
 7159SOL    HW222377   0.673   5.874   6.904
 7160SOL     OW22378   5.517   0.779   1.943
 7160SOL    HW122379   5.565   0.722   1.876
 7160SOL    HW222380   5.560   0.869   1.948
 7161SOL     OW22381   4.154   3.650   4.093
 7161SOL    HW122382   4.154   3.695   4.182
 7161SOL    HW222383   4.102   3.705   4.028
 7162SOL     OW22384   3.143   5.027   3.007
 7162SOL    HW122385   3.212   5.001   3.074
 7162SOL    HW222386   3.156   5.123   2.981
 7163SOL     OW22387   2.616   0.213   2.817
 7163SOL    HW122388   2.652   0.143   2.757
 7163SOL    HW222389   2.666   0.299   2.803
 7164SOL     OW22390   2.468   1.518   2.779
 7164SOL    HW122391   2.471   1.614   2.750
 7164SOL    HW222392   2.387   1.504   2.837
 7165SOL     OW22393   4.888   0.570   1.585
 7165SOL    HW122394   4.837   0.648   1.624
 7165SOL    HW222395   4.883   0.493   1.648
 7166SOL     OW22396   5.145   4.685   1.745
 7166SOL    HW122397   5.085   4.608   1.765
 7166SOL    HW222398   5.189   4.671   1.656
 7167SOL     OW22399   4.765   2.881   5.120
 7167SOL    HW122400   4.820   2.843   5.195
 7167SOL    HW222401   4.693   2.815   5.096
 7168SOL     OW22402   1.501   0.861   4.628
 7168SOL    HW122403   1.528   0.948   4.588
 7168SOL    HW222404   1.466   0.875   4.720
 7169SOL     OW22405   1.959   2.366   6.048
 7169SOL    HW122406   1.904   2.291   6.084
 7169SOL    HW222407   1.899   2.432   6.001
 7170SOL     OW22408   6.592   4.827   4.225
 7170SOL    HW122409   6.573   4.737   4.184
 7170SOL    HW222410   6.564   4.826   4.321
 7171SOL     OW22411   3.917   3.229   5.275
 7171SOL    HW122412   3.836   3.275   5.312
 7171SOL    HW222413   3.940   3.268   5.186
 7172SOL     OW22414   1.660   6.650   0.913
 7172SOL    HW122415   1.567   6.623   0.939
 7172SOL    HW222416   1.719   6.650   0.993
 7173SOL     OW22417   6.306   6.082   5.757
 7173SOL    HW122418   6.269   6.175   5.766
 7173SOL    HW222419   6.234   6.021   5.724
 7174SOL     OW22420   1.133   5.596   0.139
 7174SOL    HW122421   1.130   5.528   0.066
 7174SOL    HW222422   1.096   5.557   0.223
 7175SOL     OW22423   6.700   3.526   5.198
 7175SOL    HW122424   6.663   3.440   5.163
 7175SOL    HW222425   6.710   3.520   5.297
 7176SOL     OW22426   6.127   4.128   1.600
 7176SOL    HW122427   6.103   4.053   1.662
 7176SOL    HW222428   6.097   4.106   1.508
 7177SOL     OW22429   0.746   6.463   1.749
 7177SOL    HW122430   0.808   6.540   1.737
 7177SOL    HW222431   0.701   6.470   1.838
 7178SOL     OW22432   0.314   2.864   6.004
 7178SOL    HW122433   0.339   2.844   5.909
 7178SOL    HW222434   0.301   2.779   6.054
 7179SOL     OW22435   2.511   4.021   6.418
 7179SOL    HW122436   2.479   4.010   6.512
 7179SOL    HW222437   2.434   4.046   6.359
 7180SOL     OW22438   6.983   6.259   2.272
 7180SOL    HW122439   0.035   6.273   2.337
 7180SOL    HW222440   6.977   6.163   2.247
 7181SOL     OW22441   4.737   0.946   2.488
 7181SOL    HW122442   4.815   0.991   2.445
 7181SOL    HW222443   4.760   0.923   2.583
 7182SOL     OW22444   3.042   3.613   5.467
 7182SOL    HW122445   2.967   3.627   5.402
 7182SOL    HW222446   3.069   3.517   5.467
 7183SOL     OW22447   1.215   5.448   2.623
 7183SOL    HW122448   1.221   5.350   2.643
 7183SOL    HW222449   1.265   5.499   2.692
 7184SOL     OW22450   1.747   6.682   3.431
 7184SOL    HW122451   1.757   6.778   3.404
 7184SOL    HW222452   1.806   6.625   3.372
 7185SOL     OW22453   4.397   2.405   6.561
 7185SOL    HW122454   4.362   2.314   6.538
 7185SOL    HW222455   4.446   2.400   6.648
 7186SOL     OW22456   0.620   6.464   4.552
 7186SOL    HW122457   0.653   6.554   4.580
 7186SOL    HW222458   0.628   6.400   4.628
 7187SOL     OW22459   2.039   5.052   1.505
 7187SOL    HW122460   1.943   5.023   1.499
 7187SOL    HW222461   2.067   5.092   1.418
 7188SOL     OW22462   5.254   1.081   1.246
 7188SOL    HW122463   5.323   1.112   1.181
 7188SOL    HW222464   5.294   1.016   1.310
 7189SOL     OW22465   6.254   0.727   4.603
 7189SOL    HW122466   6.226   0.737   4.698
 7189SOL    HW222467   6.180   0.756   4.542
 7190SOL     OW22468   4.691   5.016   3.667
 7190SOL    HW122469   4.641   4.984   3.587
 7190SOL    HW222470   4.771   4.958   3.683
 7191SOL     OW22471   1.280   3.414   2.403
 7191SOL    HW122472   1.295   3.320   2.373
 7191SOL    HW222473   1.364   3.466   2.396
 7192SOL     OW22474   3.327   4.881   5.880
 7192SOL    HW122475   3.257   4.814   5.856
 7192SOL    HW222476   3.366   4.919   5.797
 7193SOL     OW22477   4.606   1.372   3.195
 7193SOL    HW122478   4.529   1.427   3.227
 7193SOL    HW222479   4.664   1.429   3.136
 7194SOL     OW22480   3.052   1.605   1.776
 7194SOL    HW122481   3.095   1.690   1.804
 7194SOL    HW222482   2.957   1.623   1.749
 7195SOL     OW22483   0.897   5.128   1.502
 7195SOL    HW122484   0.807   5.089   1.484
 7195SOL    HW222485   0.890   5.198   1.573
 7196SOL     OW22486   3.929   2.929   1.847
 7196SOL    HW122487   3.837   2.960   1.821
 7196SOL    HW222488   3.946   2.839   1.808
 7197SOL     OW22489   1.158   2.104   5.866
 7197SOL    HW122490   1.068   2.095   5.822
 7197SOL    HW222491   1.229   2.109   5.795
 7198SOL     OW22492   1.243   5.877   6.660
 7198SOL    HW122493   1.145   5.865   6.670
 7198SOL    HW222494   1.272   5.962   6.705
 7199SOL     OW22495   6.249   6.341   2.762
 7199SOL    HW122496   6.334   6.305   2.724
 7199SOL    HW222497   6.197   6.267   2.804
 7200SOL     OW22498   2.146   1.876   1.027
 7200SOL    HW122499   2.111   1.824   0.949
 7200SOL    HW222500   2.154   1.816   1.106
 7201SOL     OW22501   2.384   4.312   3.929
 7201SOL    HW122502   2.403   4.401   3.888
 7201SOL    HW222503   2.440   4.242   3.884
 7202SOL     OW22504   3.812   0.936   6.753
 7202SOL    HW122505   3.789   0.887   6.836
 7202SOL    HW222506   3.730   0.978   6.715
 7203SOL     OW22507   5.766   0.895   6.662
 7203SOL    HW122508   5.719   0.983   6.674
 7203SOL    HW222509   5.855   0.910   6.619
 7204SOL     OW22510   5.926   1.597   2.590
 7204SOL    HW122511   5.967   1.519   2.638
 7204SOL    HW222512   5.993   1.639   2.531
 7205SOL     OW22513   2.110   4.519   2.421
 7205SOL    HW122514   2.045   4.474   2.360
 7205SOL    HW222515   2.136   4.456   2.494
 7206SOL     OW22516   5.811   1.401   1.741
 7206SOL    HW122517   5.906   1.428   1.730
 7206SOL    HW222518   5.806   1.315   1.793
 7207SOL     OW22519   3.727   0.098   1.663
 7207SOL    HW122520   3.702   0.010   1.623
 7207SOL    HW222521   3.819   0.123   1.632
 7208SOL     OW22522   3.062   0.125   4.851
 7208SOL    HW122523   3.121   0.206   4.855
 7208SOL    HW222524   3.111   0.046   4.888
 7209SOL     OW22525   4.077   3.468   4.696
 7209SOL    HW122526   4.042   3.466   4.602
 7209SOL    HW222527   4.121   3.381   4.716
 7210SOL     OW22528   3.835   0.407   4.366
 7210SOL    HW122529   3.856   0.397   4.268
 7210SOL    HW222530   3.901   0.354   4.420
 7211SOL     OW22531   1.414   5.617   2.761
 7211SOL    HW122532   1.424   5.684   2.687
 7211SOL    HW222533   1.499   5.566   2.772
 7212SOL     OW22534   5.318   6.598   4.381
 7212SOL    HW122535   5.222   6.583   4.406
 7212SOL    HW222536   5.339   6.695   4.387
 7213SOL     OW22537   5.285   0.767   5.864
 7213SOL    HW122538   5.243   0.819   5.789
 7213SOL    HW222539   5.234   0.683   5.879
 7214SOL     OW22540   1.039   4.895   5.044
 7214SOL    HW122541   1.064   4.989   5.022
 7214SOL    HW222542   0.942   4.881   5.027
 7215SOL     OW22543   1.154   3.378   3.381
 7215SOL    HW122544   1.073   3.377   3.322
 7215SOL    HW222545   1.153   3.459   3.439
 7216SOL     OW22546   2.165   1.077   1.299
 7216SOL    HW122547   2.219   1.160   1.314
 7216SOL    HW222548   2.204   1.001   1.351
 7217SOL     OW22549   0.960   2.872   2.299
 7217SOL    HW122550   1.013   2.861   2.214
 7217SOL    HW222551   0.930   2.967   2.307
 7218SOL     OW22552   5.694   2.595   6.216
 7218SOL    HW122553   5.655   2.669   6.163
 7218SOL    HW222554   5.709   2.515   6.157
 7219SOL     OW22555   3.997   1.369   2.096
 7219SOL    HW122556   4.076   1.431   2.100
 7219SOL    HW222557   4.022   1.281   2.136
 7220SOL     OW22558   6.914   0.672   2.617
 7220SOL    HW122559   6.987   0.655   2.551
 7220SOL    HW222560   6.933   0.622   2.702
 7221SOL     OW22561   5.985   5.281   5.252
 7221SOL    HW122562   6.004   5.202   5.309
 7221SOL    HW222563   5.892   5.275   5.216
 7222SOL     OW22564   6.761   6.445   2.300
 7222SOL    HW122565   6.838   6.380   2.300
 7222SOL    HW222566   6.790   6.531   2.259
 7223SOL     OW22567   3.568   0.617   5.508
 7223SOL    HW122568   3.501   0.611   5.434
 7223SOL    HW222569   3.603   0.525   5.529
 7224SOL     OW22570   4.710   6.913   4.410
 7224SOL    HW122571   4.794   6.885   4.456
 7224SOL    HW222572   4.734   6.960   4.325
 7225SOL     OW22573   2.169   6.433   6.887
 7225SOL    HW122574   2.252   6.394   6.925
 7225SOL    HW222575   2.185   6.528   6.861
 7226SOL     OW22576   6.398   0.083   0.585
 7226SOL    HW122577   6.487   0.117   0.554
 7226SOL    HW222578   6.398   7.006   0.585
 7227SOL     OW22579   6.388   2.885   6.135
 7227SOL    HW122580   6.356   2.791   6.124
 7227SOL    HW222581   6.315   2.940   6.175
 7228SOL     OW22582   1.308   1.022   2.710
 7228SOL    HW122583   1.231   1.056   2.763
 7228SOL    HW222584   1.315   0.923   2.720
 7229SOL     OW22585   0.824   0.389   3.756
 7229SOL    HW122586   0.734   0.345   3.763
 7229SOL    HW222587   0.895   0.320   3.766
 7230SOL     OW22588   5.814   4.138   3.107
 7230SOL    HW122589   5.909   4.129   3.076
 7230SOL    HW222590   5.800   4.081   3.187
 7231SOL     OW22591   5.671   1.039   6.335
 7231SOL    HW122592   5.655   1.110   6.404
 7231SOL    HW222593   5.751   1.063   6.280
 7232SOL     OW22594   3.784   4.459   1.201
 7232SOL    HW122595   3.699   4.505   1.226
 7232SOL    HW222596   3.766   4.395   1.125
 7233SOL     OW22597   0.315   2.454   5.782
 7233SOL    HW122598   0.410   2.423   5.783
 7233SOL    HW222599   0.263   2.399   5.717
 7234SOL     OW22600   5.626   2.004   2.244
 7234SOL    HW122601   5.626   1.986   2.146
 7234SOL    HW222602   5.669   2.093   2.261
 7235SOL     OW22603   6.355   3.343   4.708
 7235SOL    HW122604   6.433   3.405   4.711
 7235SOL    HW222605   6.321   3.329   4.801
 7236SOL     OW22606   3.322   1.340   2.955
 7236SOL    HW122607   3.321   1.429   2.909
 7236SOL    HW222608   3.252   1.281   2.914
 7237SOL     OW22609   6.101   5.791   5.882
 7237SOL    HW122610   6.170   5.765   5.949
 7237SOL    HW222611   6.044   5.864   5.919
 7238SOL     OW22612   1.143   1.129   1.431
 7238SOL    HW122613   1.163   1.032   1.412
 7238SOL    HW222614   1.151   1.182   1.346
 7239SOL     OW22615   4.474   1.427   1.990
 7239SOL    HW122616   4.468   1.498   1.920
 7239SOL    HW222617   4.550   1.448   2.052
 7240SOL     OW22618   3.080   3.675   0.518
 7240SOL    HW122619   3.031   3.749   0.564
 7240SOL    HW222620   3.050   3.670   0.422
 7241SOL     OW22621   3.725   0.180   4.935
 7241SOL    HW122622   3.692   0.191   5.029
 7241SOL    HW222623   3.647   0.165   4.874
 7242SOL     OW22624   4.805   4.860   0.934
 7242SOL    HW122625   4.869   4.908   0.993
 7242SOL    HW222626   4.856   4.808   0.865
 7243SOL     OW22627   0.365   5.882   0.245
 7243SOL    HW122628   0.286   5.876   0.185
 7243SOL    HW222629   0.449   5.874   0.191
 7244SOL     OW22630   5.533   1.594   0.960
 7244SOL    HW122631   5.454   1.643   0.926
 7244SOL    HW222632   5.617   1.645   0.940
 7245SOL     OW22633   6.541   1.803   3.975
 7245SOL    HW122634   6.636   1.796   4.006
 7245SOL    HW222635   6.484   1.740   4.027
 7246SOL     OW22636   1.241   5.844   5.378
 7246SOL    HW122637   1.149   5.819   5.349
 7246SOL    HW222638   1.243   5.857   5.477
 7247SOL     OW22639   3.478   5.646   2.797
 7247SOL    HW122640   3.404   5.652   2.730
 7247SOL    HW222641   3.494   5.550   2.821
 7248SOL     OW22642   3.382   0.649   4.975
 7248SOL    HW122643   3.364   0.563   4.927
 7248SOL    HW222644   3.462   0.637   5.034
 7249SOL     OW22645   6.350   4.902   6.839
 7249SOL    HW122646   6.279   4.910   6.910
 7249SOL    HW222647   6.338   4.974   6.772
 7250SOL     OW22648   2.973   4.255   6.789
 7250SOL    HW122649   2.873   4.259   6.797
 7250SOL    HW222650   2.998   4.237   6.694
 7251SOL     OW22651   5.499   0.281   5.467
 7251SOL    HW122652   5.539   0.247   5.552
 7251SOL    HW222653   5.410   0.237   5.452
 7252SOL     OW22654   4.375   3.607   5.271
 7252SOL    HW122655   4.405   3.698   5.301
 7252SOL    HW222656   4.442   3.570   5.206
 7253SOL     OW22657   5.321   5.490   0.856
 7253SOL    HW122658   5.387   5.451   0.791
 7253SOL    HW222659   5.247   5.535   0.806
 7254SOL     OW22660   4.688   6.657   5.084
 7254SOL    HW122661   4.602   6.662   5.135
 7254SOL    HW222662   4.672   6.686   4.990
 7255SOL     OW22663   3.576   4.064   2.362
 7255SOL    HW122664   3.649   3.998   2.344
 7255SOL    HW222665   3.588   4.104   2.453
 7256SOL     OW22666   4.544   4.590   3.888
 7256SOL    HW122667   4.566   4.682   3.921
 7256SOL    HW222668   4.467   4.595   3.825
 7257SOL     OW22669   6.049   4.253   3.517
 7257SOL    HW122670   5.986   4.246   3.595
 7257SOL    HW222671   6.044   4.169   3.463
 7258SOL     OW22672   3.206   6.606   5.529
 7258SOL    HW122673   3.210   6.510   5.558
 7258SOL    HW222674   3.184   6.664   5.608
 7259SOL     OW22675   1.683   5.921   5.931
 7259SOL    HW122676   1.633   5.931   6.017
 7259SOL    HW222677   1.747   5.998   5.921
 7260SOL     OW22678   3.927   1.760   2.249
 7260SOL    HW122679   3.886   1.694   2.186
 7260SOL    HW222680   3.894   1.852   2.226
 7261SOL     OW22681   1.344   4.314   1.826
 7261SOL    HW122682   1.431   4.268   1.847
 7261SOL    HW222683   1.310   4.280   1.738
 7262SOL     OW22684   6.340   1.645   5.333
 7262SOL    HW122685   6.334   1.559   5.384
 7262SOL    HW222686   6.382   1.715   5.391
 7263SOL     OW22687   4.917   6.720   2.222
 7263SOL    HW122688   5.004   6.761   2.252
 7263SOL    HW222689   4.917   6.710   2.123
 7264SOL     OW22690   1.234   6.773   4.497
 7264SOL    HW122691   1.333   6.766   4.509
 7264SOL    HW222692   1.214   6.838   4.423
 7265SOL     OW22693   4.219   3.784   6.047
 7265SOL    HW122694   4.154   3.750   6.114
 7265SOL    HW222695   4.269   3.862   6.085
 7266SOL     OW22696   5.030   1.607   1.918
 7266SOL    HW122697   4.991   1.543   1.851
 7266SOL    HW222698   5.103   1.562   1.969
 7267SOL     OW22699   0.225   2.823   4.523
 7267SOL    HW122700   0.187   2.777   4.444
 7267SOL    HW222701   0.307   2.874   4.496
 7268SOL     OW22702   2.933   6.977   0.956
 7268SOL    HW122703   2.978   6.929   0.880
 7268SOL    HW222704   2.853   0.003   0.921
 7269SOL     OW22705   1.408   6.916   1.907
 7269SOL    HW122706   1.385   6.873   1.994
 7269SOL    HW222707   1.440   6.846   1.842
 7270SOL     OW22708   3.364   1.787   2.469
 7270SOL    HW122709   3.319   1.846   2.535
 7270SOL    HW222710   3.429   1.840   2.414
 7271SOL     OW22711   5.900   4.722   4.551
 7271SOL    HW122712   5.936   4.811   4.578
 7271SOL    HW222713   5.976   4.661   4.528
 7272SOL     OW22714   6.172   1.787   1.115
 7272SOL    HW122715   6.271   1.774   1.109
 7272SOL    HW222716   6.129   1.701   1.144
 7273SOL     OW22717   6.004   6.007   6.031
 7273SOL    HW122718   6.009   6.096   5.987
 7273SOL    HW222719   6.093   5.982   6.068
 7274SOL     OW22720   0.398   4.395   4.518
 7274SOL    HW122721   0.305   4.358   4.513
 7274SOL    HW222722   0.395   4.485   4.563
 7275SOL     OW22723   5.567   6.635   1.302
 7275SOL    HW122724   5.590   6.730   1.280
 7275SOL    HW222725   5.643   6.593   1.352
 7276SOL     OW22726   2.897   2.310   3.887
 7276SOL    HW122727   2.969   2.320   3.819
 7276SOL    HW222728   2.813   2.281   3.843
 7277SOL     OW22729   5.366   1.568   4.154
 7277SOL    HW122730   5.370   1.667   4.160
 7277SOL    HW222731   5.374   1.528   4.246
 7278SOL     OW22732   2.165   1.709   3.148
 7278SOL    HW122733   2.135   1.680   3.239
 7278SOL    HW222734   2.153   1.808   3.139
 7279SOL     OW22735   4.056   4.215   1.015
 7279SOL    HW122736   4.102   4.128   0.997
 7279SOL    HW222737   3.957   4.202   1.009
 7280SOL     OW22738   6.515   1.786   5.519
 7280SOL    HW122739   6.576   1.811   5.444
 7280SOL    HW222740   6.544   1.698   5.558
 7281SOL     OW22741   3.753   5.868   1.988
 7281SOL    HW122742   3.852   5.854   1.989
 7281SOL    HW222743   3.725   5.912   2.074
 7282SOL     OW22744   6.858   3.556   2.209
 7282SOL    HW122745   6.822   3.649   2.209
 7282SOL    HW222746   6.872   3.525   2.303
 7283SOL     OW22747   4.318   5.058   3.067
 7283SOL    HW122748   4.358   5.140   3.026
 7283SOL    HW222749   4.226   5.044   3.031
 7284SOL     OW22750   0.702   1.386   2.469
 7284SOL    HW122751   0.730   1.458   2.532
 7284SOL    HW222752   0.616   1.345   2.501
 7285SOL     OW22753   4.792   3.262   1.769
 7285SOL    HW122754   4.869   3.270   1.705
 7285SOL    HW222755   4.786   3.167   1.801
 7286SOL     OW22756   5.965   1.881   3.661
 7286SOL    HW122757   5.938   1.846   3.571
 7286SOL    HW222758   5.886   1.925   3.704
 7287SOL     OW22759   3.165   1.641   2.769
 7287SOL    HW122760   3.250   1.627   2.717
 7287SOL    HW222761   3.183   1.702   2.846
 7288SOL     OW22762   2.697   1.653   2.171
 7288SOL    HW122763   2.602   1.630   2.192
 7288SOL    HW222764   2.754   1.571   2.179
 7289SOL     OW22765   6.603   2.338   1.751
 7289SOL    HW122766   6.681   2.401   1.755
 7289SOL    HW222767   6.530   2.372   1.811
 7290SOL     OW22768   3.749   1.273   4.994
 7290SOL    HW122769   3.675   1.270   4.926
 7290SOL    HW222770   3.824   1.329   4.959
 7291SOL     OW22771   2.891   1.461   0.793
 7291SOL    HW122772   2.932   1.406   0.866
 7291SOL    HW222773   2.842   1.401   0.729
 7292SOL     OW22774   2.607   0.211   2.496
 7292SOL    HW122775   2.656   0.297   2.481
 7292SOL    HW222776   2.664   0.149   2.549
 7293SOL     OW22777   6.363   1.647   4.081
 7293SOL    HW122778   6.347   1.549   4.074
 7293SOL    HW222779   6.325   1.682   4.167
 7294SOL     OW22780   3.173   6.193   2.346
 7294SOL    HW122781   3.103   6.123   2.356
 7294SOL    HW222782   3.243   6.182   2.417
 7295SOL     OW22783   5.433   4.136   1.351
 7295SOL    HW122784   5.501   4.162   1.419
 7295SOL    HW222785   5.349   4.189   1.365
 7296SOL     OW22786   4.424   5.593   2.017
 7296SOL    HW122787   4.447   5.496   2.007
 7296SOL    HW222788   4.503   5.649   1.993
 7297SOL     OW22789   4.126   6.871   0.987
 7297SOL    HW122790   4.053   6.877   0.919
 7297SOL    HW222791   4.198   6.812   0.953
 7298SOL     OW22792   3.914   5.233   0.722
 7298SOL    HW122793   3.885   5.141   0.698
 7298SOL    HW222794   3.853   5.300   0.680
 7299SOL     OW22795   1.202   3.006   5.922
 7299SOL    HW122796   1.240   3.098   5.930
 7299SOL    HW222797   1.114   3.011   5.875
 7300SOL     OW22798   0.020   5.621   2.471
 7300SOL    HW122799   0.078   5.541   2.459
 7300SOL    HW222800   7.017   5.658   2.382
 7301SOL     OW22801   4.438   2.101   6.214
 7301SOL    HW122802   4.523   2.126   6.169
 7301SOL    HW222803   4.365   2.096   6.146
 7302SOL     OW22804   6.014   2.426   6.179
 7302SOL    HW122805   5.914   2.427   6.174
 7302SOL    HW222806   6.043   2.410   6.273
 7303SOL     OW22807   2.755   1.667   1.829
 7303SOL    HW122808   2.718   1.743   1.776
 7303SOL    HW222809   2.809   1.702   1.905
 7304SOL     OW22810   2.707   5.208   0.775
 7304SOL    HW122811   2.673   5.206   0.870
 7304SOL    HW222812   2.773   5.282   0.764
 7305SOL     OW22813   5.974   1.296   6.995
 7305SOL    HW122814   6.001   1.219   6.938
 7305SOL    HW222815   6.039   1.307   0.047
 7306SOL     OW22816   1.300   3.032   1.683
 7306SOL    HW122817   1.369   3.100   1.710
 7306SOL    HW222818   1.347   2.950   1.649
 7307SOL     OW22819   1.998   0.245   1.357
 7307SOL    HW122820   1.905   0.214   1.338
 7307SOL    HW222821   2.024   0.218   1.450
 7308SOL     OW22822   3.847   1.232   2.709
 7308SOL    HW122823   3.915   1.303   2.724
 7308SOL    HW222824   3.764   1.254   2.761
 7309SOL     OW22825   2.135   5.367   3.755
 7309SOL    HW122826   2.197   5.331   3.686
 7309SOL    HW222827   2.174   5.351   3.846
 7310SOL     OW22828   2.746   2.854   6.390
 7310SOL    HW122829   2.724   2.849   6.292
 7310SOL    HW222830   2.687   2.922   6.434
 7311SOL     OW22831   0.411   5.971   5.768
 7311SOL    HW122832   0.511   5.976   5.771
 7311SOL    HW222833   0.379   5.990   5.676
 7312SOL     OW22834   5.998   2.449   4.110
 7312SOL    HW122835   5.942   2.523   4.075
 7312SOL    HW222836   6.067   2.486   4.173
 7313SOL     OW22837   2.474   0.613   2.692
 7313SOL    HW122838   2.513   0.688   2.639
 7313SOL    HW222839   2.408   0.563   2.636
 7314SOL     OW22840   1.355   4.780   5.727
 7314SOL    HW122841   1.357   4.749   5.631
 7314SOL    HW222842   1.346   4.879   5.729
 7315SOL     OW22843   2.183   5.056   2.176
 7315SOL    HW122844   2.257   4.996   2.145
 7315SOL    HW222845   2.204   5.150   2.149
 7316SOL     OW22846   3.923   1.393   1.192
 7316SOL    HW122847   4.011   1.436   1.174
 7316SOL    HW222848   3.934   1.294   1.192
 7317SOL     OW22849   4.294   2.094   0.201
 7317SOL    HW122850   4.209   2.129   0.241
 7317SOL    HW222851   4.310   2.138   0.113
 7318SOL     OW22852   5.297   6.585   0.760
 7318SOL    HW122853   5.232   6.509   0.759
 7318SOL    HW222854   5.274   6.647   0.836
 7319SOL     OW22855   6.159   6.560   6.572
 7319SOL    HW122856   6.173   6.553   6.473
 7319SOL    HW222857   6.187   6.475   6.616
 7320SOL     OW22858   0.973   2.864   1.187
 7320SOL    HW122859   0.928   2.827   1.106
 7320SOL    HW222860   1.019   2.950   1.163
 7321SOL     OW22861   2.013   1.904   0.150
 7321SOL    HW122862   2.066   1.952   0.221
 7321SOL    HW222863   1.993   1.968   0.076
 7322SOL     OW22864   0.765   3.338   3.438
 7322SOL    HW122865   0.809   3.293   3.361
 7322SOL    HW222866   0.729   3.427   3.409
 7323SOL     OW22867   1.211   2.458   0.461
 7323SOL    HW122868   1.308   2.433   0.450
 7323SOL    HW222869   1.160   2.377   0.491
 7324SOL     OW22870   5.025   3.847   3.396
 7324SOL    HW122871   4.945   3.789   3.402
 7324SOL    HW222872   5.007   3.934   3.441
 7325SOL     OW22873   4.090   1.335   5.829
 7325SOL    HW122874   4.126   1.383   5.909
 7325SOL    HW222875   4.082   1.399   5.752
 7326SOL     OW22876   3.782   0.254   0.623
 7326SOL    HW122877   3.877   0.270   0.597
 7326SOL    HW222878   3.723   0.271   0.543
 7327SOL     OW22879   1.712   4.554   3.544
 7327SOL    HW122880   1.624   4.600   3.532
 7327SOL    HW222881   1.773   4.579   3.469
 7328SOL     OW22882   4.691   4.772   5.336
 7328SOL    HW122883   4.637   4.752   5.254
 7328SOL    HW222884   4.653   4.853   5.382
 7329SOL     OW22885   2.624   3.192   0.950
 7329SOL    HW122886   2.538   3.147   0.974
 7329SOL    HW222887   2.612   3.245   0.866
 7330SOL     OW22888   2.467   3.170   1.250
 7330SOL    HW122889   2.565   3.189   1.235
 7330SOL    HW222890   2.434   3.110   1.178
 7331SOL     OW22891   5.414   2.353   2.321
 7331SOL    HW122892   5.508   2.325   2.343
 7331SOL    HW222893   5.415   2.449   2.293
 7332SOL     OW22894   3.366   6.518   6.115
 7332SOL    HW122895   3.382   6.584   6.042
 7332SOL    HW222896   3.269   6.492   6.115
 7333SOL     OW22897   0.749   1.325   1.482
 7333SOL    HW122898   0.809   1.302   1.558
 7333SOL    HW222899   0.731   1.423   1.482
 7334SOL     OW22900   1.607   5.836   3.761
 7334SOL    HW122901   1.546   5.757   3.764
 7334SOL    HW222902   1.684   5.821   3.822
 7335SOL     OW22903   0.079   3.709   2.473
 7335SOL    HW122904   0.153   3.770   2.503
 7335SOL    HW222905   0.018   3.690   2.549
 7336SOL     OW22906   2.352   6.681   1.789
 7336SOL    HW122907   2.439   6.715   1.823
 7336SOL    HW222908   2.321   6.739   1.713
 7337SOL     OW22909   2.891   1.247   3.038
 7337SOL    HW122910   2.899   1.266   2.940
 7337SOL    HW222911   2.846   1.159   3.051
 7338SOL     OW22912   5.167   3.919   1.163
 7338SOL    HW122913   5.265   3.913   1.180
 7338SOL    HW222914   5.129   3.994   1.218
 7339SOL     OW22915   6.977   6.059   5.177
 7339SOL    HW122916   6.981   6.078   5.079
 7339SOL    HW222917   6.881   6.054   5.205
 7340SOL     OW22918   3.024   6.276   0.143
 7340SOL    HW122919   3.001   6.318   0.231
 7340SOL    HW222920   3.121   6.251   0.143
 7341SOL     OW22921   6.858   5.672   5.030
 7341SOL    HW122922   6.768   5.669   5.072
 7341SOL    HW222923   6.922   5.717   5.092
 7342SOL     OW22924   1.379   5.114   1.363
 7342SOL    HW122925   1.317   5.114   1.284
 7342SOL    HW222926   1.473   5.098   1.331
 7343SOL     OW22927   5.052   2.506   3.385
 7343SOL    HW122928   4.991   2.543   3.455
 7343SOL    HW222929   5.147   2.511   3.416
 7344SOL     OW22930   2.546   1.052   0.030
 7344SOL    HW122931   2.462   1.097   0.000
 7344SOL    HW222932   2.592   1.011   6.974
 7345SOL     OW22933   2.812   5.669   0.252
 7345SOL    HW122934   2.764   5.751   0.221
 7345SOL    HW222935   2.758   5.588   0.230
 7346SOL     OW22936   3.582   4.849   1.631
 7346SOL    HW122937   3.623   4.940   1.634
 7346SOL    HW222938   3.571   4.815   1.725
 7347SOL     OW22939   6.708   3.175   2.298
 7347SOL    HW122940   6.719   3.254   2.358
 7347SOL    HW222941   6.611   3.155   2.286
 7348SOL     OW22942   0.540   1.407   4.860
 7348SOL    HW122943   0.548   1.313   4.829
 7348SOL    HW222944   0.628   1.439   4.895
 7349SOL     OW22945   3.868   1.291   0.823
 7349SOL    HW122946   3.828   1.370   0.778
 7349SOL    HW222947   3.918   1.235   0.757
 7350SOL     OW22948   2.131   1.053   2.740
 7350SOL    HW122949   2.180   1.061   2.653
 7350SOL    HW222950   2.130   1.141   2.787
 7351SOL     OW22951   4.865   4.853   0.450
 7351SOL    HW122952   4.818   4.896   0.374
 7351SOL    HW222953   4.804   4.845   0.529
 7352SOL     OW22954   6.403   1.068   3.062
 7352SOL    HW122955   6.427   0.973   3.041
 7352SOL    HW222956   6.355   1.107   2.983
 7353SOL     OW22957   5.264   2.074   4.543
 7353SOL    HW122958   5.261   2.117   4.453
 7353SOL    HW222959   5.352   2.028   4.555
 7354SOL     OW22960   6.456   4.285   5.116
 7354SOL    HW122961   6.486   4.224   5.042
 7354SOL    HW222962   6.512   4.368   5.115
 7355SOL     OW22963   1.108   4.266   1.005
 7355SOL    HW122964   1.065   4.292   0.919
 7355SOL    HW222965   1.166   4.340   1.038
 7356SOL     OW22966   6.828   1.730   5.915
 7356SOL    HW122967   6.773   1.807   5.948
 7356SOL    HW222968   6.925   1.756   5.915
 7357SOL     OW22969   0.637   1.724   0.255
 7357SOL    HW122970   0.589   1.649   0.301
 7357SOL    HW222971   0.726   1.737   0.299
 7358SOL     OW22972   3.227   0.557   3.750
 7358SOL    HW122973   3.270   0.591   3.666
 7358SOL    HW222974   3.137   0.599   3.760
 7359SOL     OW22975   3.182   3.136   2.940
 7359SOL    HW122976   3.095   3.184   2.947
 7359SOL    HW222977   3.207   3.099   3.030
 7360SOL     OW22978   0.241   3.333   5.699
 7360SOL    HW122979   0.160   3.299   5.652
 7360SOL    HW222980   0.308   3.259   5.708
 7361SOL     OW22981   5.138   7.013   1.808
 7361SOL    HW122982   5.166   6.925   1.847
 7361SOL    HW222983   5.158   0.063   1.873
 7362SOL     OW22984   1.878   6.803   6.315
 7362SOL    HW122985   1.967   6.838   6.346
 7362SOL    HW222986   1.892   6.722   6.259
 7363SOL     OW22987   5.410   3.165   6.359
 7363SOL    HW122988   5.443   3.091   6.299
 7363SOL    HW222989   5.469   3.245   6.349
 7364SOL     OW22990   5.535   0.795   1.397
 7364SOL    HW122991   5.485   0.881   1.398
 7364SOL    HW222992   5.470   0.719   1.393
 7365SOL     OW22993   3.551   0.479   1.785
 7365SOL    HW122994   3.479   0.430   1.835
 7365SOL    HW222995   3.509   0.544   1.722
 7366SOL     OW22996   1.029   5.409   6.983
 7366SOL    HW122997   0.958   5.367   0.016
 7366SOL    HW222998   0.987   5.452   6.903
 7367SOL     OW22999   4.887   3.220   6.753
 7367SOL    HW123000   4.966   3.260   6.799
 7367SOL    HW223001   4.851   3.284   6.685
 7368SOL     OW23002   2.895   3.547   3.644
 7368SOL    HW123003   2.879   3.462   3.595
 7368SOL    HW223004   2.933   3.527   3.735
 7369SOL     OW23005   5.006   2.154   6.287
 7369SOL    HW123006   4.938   2.184   6.355
 7369SOL    HW223007   5.037   2.233   6.235
 7370SOL     OW23008   1.847   5.752   1.221
 7370SOL    HW123009   1.778   5.751   1.149
 7370SOL    HW223010   1.893   5.841   1.222
 7371SOL     OW23011   2.311   5.007   4.166
 7371SOL    HW123012   2.219   5.038   4.191
 7371SOL    HW223013   2.351   4.957   4.243
 7372SOL     OW23014   3.051   6.244   5.860
 7372SOL    HW123015   2.969   6.282   5.903
 7372SOL    HW223016   3.085   6.168   5.914
 7373SOL     OW23017   3.830   0.430   1.749
 7373SOL    HW123018   3.730   0.422   1.758
 7373SOL    HW223019   3.865   0.491   1.820
 7374SOL     OW23020   2.209   4.034   6.675
 7374SOL    HW123021   2.168   4.089   6.602
 7374SOL    HW223022   2.158   3.949   6.686
 7375SOL     OW23023   1.523   6.733   3.007
 7375SOL    HW123024   1.535   6.814   2.950
 7375SOL    HW223025   1.444   6.680   2.974
 7376SOL     OW23026   2.780   3.980   5.545
 7376SOL    HW123027   2.705   3.914   5.557
 7376SOL    HW223028   2.859   3.950   5.597
 7377SOL     OW23029   4.811   5.084   1.741
 7377SOL    HW123030   4.895   5.138   1.745
 7377SOL    HW223031   4.834   4.987   1.731
 7378SOL     OW23032   6.909   2.414   5.897
 7378SOL    HW123033   6.842   2.420   5.823
 7378SOL    HW223034   6.965   2.333   5.886
 7379SOL     OW23035   4.300   1.490   1.060
 7379SOL    HW123036   4.283   1.558   0.989
 7379SOL    HW223037   4.256   1.404   1.034
 7380SOL     OW23038   6.326   2.207   4.890
 7380SOL    HW123039   6.335   2.116   4.931
 7380SOL    HW223040   6.322   2.198   4.790
 7381SOL     OW23041   5.173   2.282   0.236
 7381SOL    HW123042   5.269   2.286   0.209
 7381SOL    HW223043   5.142   2.373   0.264
 7382SOL     OW23044   0.004   5.883   3.826
 7382SOL    HW123045   0.063   5.810   3.861
 7382SOL    HW223046   0.044   5.971   3.849
 7383SOL     OW23047   6.936   5.773   3.607
 7383SOL    HW123048   6.967   5.834   3.534
 7383SOL    HW223049   6.955   5.815   3.696
 7384SOL     OW23050   6.079   1.412   1.596
 7384SOL    HW123051   6.137   1.352   1.651
 7384SOL    HW223052   6.062   1.497   1.646
 7385SOL     OW23053   5.263   0.203   1.620
 7385SOL    HW123054   5.292   0.286   1.668
 7385SOL    HW223055   5.180   0.167   1.664
 7386SOL     OW23056   0.492   2.695   6.169
 7386SOL    HW123057   0.585   2.726   6.148
 7386SOL    HW223058   0.496   2.606   6.215
 7387SOL     OW23059   4.098   5.933   3.922
 7387SOL    HW123060   4.125   6.026   3.947
 7387SOL    HW223061   4.176   5.872   3.931
 7388SOL     OW23062   5.965   4.538   4.863
 7388SOL    HW123063   5.880   4.586   4.839
 7388SOL    HW223064   5.969   4.451   4.814
 7389SOL     OW23065   0.728   4.375   5.291
 7389SOL    HW123066   0.739   4.334   5.200
 7389SOL    HW223067   0.717   4.474   5.282
 7390SOL     OW23068   2.193   0.159   5.959
 7390SOL    HW123069   2.255   0.185   6.032
 7390SOL    HW223070   2.177   0.060   5.963
 7391SOL     OW23071   6.974   4.126   0.164
 7391SOL    HW123072   6.987   4.208   0.220
 7391SOL    HW223073   0.038   4.097   0.126
 7392SOL     OW23074   1.872   4.968   3.209
 7392SOL    HW123075   1.781   4.999   3.236
 7392SOL    HW223076   1.937   4.990   3.282
 7393SOL     OW23077   0.689   3.340   0.414
 7393SOL    HW123078   0.687   3.242   0.430
 7393SOL    HW223079   0.780   3.367   0.382
 7394SOL     OW23080   3.060   3.265   6.377
 7394SOL    HW123081   3.082   3.360   6.356
 7394SOL    HW223082   3.137   3.207   6.352
 7395SOL     OW23083   1.833   6.052   0.308
 7395SOL    HW123084   1.815   6.150   0.299
 7395SOL    HW223085   1.840   6.028   0.405
 7396SOL     OW23086   0.829   0.061   1.246
 7396SOL    HW123087   0.792   0.117   1.173
 7396SOL    HW223088   0.924   0.087   1.264
 7397SOL     OW23089   6.089   4.516   4.492
 7397SOL    HW123090   6.188   4.513   4.478
 7397SOL    HW223091   6.043   4.462   4.421
 7398SOL     OW23092   3.917   5.690   3.335
 7398SOL    HW123093   3.972   5.658   3.412
 7398SOL    HW223094   3.946   5.782   3.309
 7399SOL     OW23095   5.204   4.329   4.877
 7399SOL    HW123096   5.256   4.325   4.792
 7399SOL    HW223097   5.144   4.250   4.884
 7400SOL     OW23098   2.080   4.946   6.788
 7400SOL    HW123099   2.061   4.953   6.886
 7400SOL    HW223100   2.168   4.988   6.767
 7401SOL     OW23101   5.289   1.736   4.567
 7401SOL    HW123102   5.237   1.668   4.516
 7401SOL    HW223103   5.328   1.694   4.649
 7402SOL     OW23104   2.179   6.930   3.651
 7402SOL    HW123105   2.136   6.843   3.677
 7402SOL    HW223106   2.155   7.000   3.718
 7403SOL     OW23107   1.836   3.560   1.385
 7403SOL    HW123108   1.795   3.650   1.373
 7403SOL    HW223109   1.897   3.540   1.308
 7404SOL     OW23110   0.982   1.912   3.177
 7404SOL    HW123111   1.022   2.000   3.150
 7404SOL    HW223112   1.050   1.839   3.164
 7405SOL     OW23113   3.042   5.011   6.274
 7405SOL    HW123114   3.053   4.913   6.292
 7405SOL    HW223115   2.947   5.031   6.249
 7406SOL     OW23116   0.826   5.672   2.112
 7406SOL    HW123117   0.823   5.642   2.016
 7406SOL    HW223118   0.872   5.603   2.167
 7407SOL     OW23119   1.741   0.652   5.526
 7407SOL    HW123120   1.791   0.738   5.515
 7407SOL    HW223121   1.803   0.575   5.513
 7408SOL     OW23122   0.525   3.752   5.318
 7408SOL    HW123123   0.474   3.771   5.402
 7408SOL    HW223124   0.618   3.723   5.341
 7409SOL     OW23125   3.206   5.798   6.132
 7409SOL    HW123126   3.285   5.753   6.090
 7409SOL    HW223127   3.169   5.740   6.204
 7410SOL     OW23128   5.533   5.201   0.711
 7410SOL    HW123129   5.615   5.210   0.767
 7410SOL    HW223130   5.490   5.112   0.729
 7411SOL     OW23131   5.124   5.052   5.847
 7411SOL    HW123132   5.066   5.133   5.850
 7411SOL    HW223133   5.155   5.036   5.753
 7412SOL     OW23134   1.260   2.084   0.082
 7412SOL    HW123135   1.191   2.150   0.110
 7412SOL    HW223136   1.276   2.019   0.156
 7413SOL     OW23137   0.047   3.266   4.417
 7413SOL    HW123138   0.075   3.209   4.494
 7413SOL    HW223139   7.014   3.341   4.450
 7414SOL     OW23140   6.736   5.433   2.941
 7414SOL    HW123141   6.683   5.513   2.914
 7414SOL    HW223142   6.698   5.352   2.897
 7415SOL     OW23143   2.658   1.740   2.670
 7415SOL    HW123144   2.727   1.677   2.704
 7415SOL    HW223145   2.663   1.825   2.722
 7416SOL     OW23146   5.640   0.535   3.984
 7416SOL    HW123147   5.636   0.599   4.061
 7416SOL    HW223148   5.724   0.480   3.990
 7417SOL     OW23149   0.930   5.902   0.497
 7417SOL    HW123150   1.010   5.961   0.513
 7417SOL    HW223151   0.874   5.942   0.425
 7418SOL     OW23152   1.289   3.762   0.377
 7418SOL    HW123153   1.214   3.748   0.313
 7418SOL    HW223154   1.303   3.679   0.431
 7419SOL     OW23155   5.374   1.041   5.297
 7419SOL    HW123156   5.333   0.959   5.336
 7419SOL    HW223157   5.333   1.122   5.338
 7420SOL     OW23158   0.001   6.029   2.100
 7420SOL    HW123159   6.974   6.024   2.013
 7420SOL    HW223160   6.987   5.962   2.164
 7421SOL     OW23161   3.858   3.137   1.311
 7421SOL    HW123162   3.906   3.198   1.249
 7421SOL    HW223163   3.887   3.043   1.294
 7422SOL     OW23164   1.031   2.548   1.132
 7422SOL    HW123165   1.105   2.605   1.096
 7422SOL    HW223166   1.055   2.515   1.223
 7423SOL     OW23167   2.036   5.215   0.088
 7423SOL    HW123168   2.111   5.205   0.022
 7423SOL    HW223169   2.007   5.311   0.090
 7424SOL     OW23170   5.896   1.233   4.844
 7424SOL    HW123171   5.975   1.287   4.875
 7424SOL    HW223172   5.918   1.189   4.757
 7425SOL     OW23173   4.493   6.745   5.629
 7425SOL    HW123174   4.393   6.748   5.637
 7425SOL    HW223175   4.533   6.787   5.710
 7426SOL     OW23176   0.951   1.472   0.096
 7426SOL    HW123177   1.023   1.530   0.134
 7426SOL    HW223178   0.991   1.385   0.067
 7427SOL     OW23179   4.234   5.591   4.472
 7427SOL    HW123180   4.285   5.516   4.430
 7427SOL    HW223181   4.179   5.555   4.548
 7428SOL     OW23182   2.595   1.576   5.849
 7428SOL    HW123183   2.687   1.558   5.883
 7428SOL    HW223184   2.597   1.658   5.791
 7429SOL     OW23185   6.407   6.760   3.448
 7429SOL    HW123186   6.372   6.830   3.386
 7429SOL    HW223187   6.383   6.784   3.542
 7430SOL     OW23188   0.588   4.180   4.616
 7430SOL    HW123189   0.672   4.235   4.619
 7430SOL    HW223190   0.521   4.224   4.556
 7431SOL     OW23191   1.017   4.448   2.471
 7431SOL    HW123192   1.025   4.462   2.570
 7431SOL    HW223193   0.942   4.503   2.436
 7432SOL     OW23194   1.287   6.337   4.959
 7432SOL    HW123195   1.238   6.291   5.034
 7432SOL    HW223196   1.382   6.353   4.987
 7433SOL     OW23197   6.966   6.273   0.965
 7433SOL    HW123198   6.881   6.302   1.010
 7433SOL    HW223199   0.006   6.350   0.959
 7434SOL     OW23200   4.514   0.289   6.667
 7434SOL    HW123201   4.570   0.368   6.694
 7434SOL    HW223202   4.533   0.266   6.572
 7435SOL     OW23203   1.449   5.864   0.370
 7435SOL    HW123204   1.461   5.962   0.360
 7435SOL    HW223205   1.418   5.825   0.283
 7436SOL     OW23206   5.314   2.901   6.911
 7436SOL    HW123207   5.243   2.955   6.865
 7436SOL    HW223208   5.358   2.958   6.981
 7437SOL     OW23209   0.257   5.572   5.797
 7437SOL    HW123210   0.263   5.649   5.861
 7437SOL    HW223211   0.184   5.590   5.731
 7438SOL     OW23212   6.207   4.623   2.156
 7438SOL    HW123213   6.226   4.637   2.253
 7438SOL    HW223214   6.109   4.634   2.138
 7439SOL     OW23215   1.207   6.036   3.653
 7439SOL    HW123216   1.131   5.973   3.666
 7439SOL    HW223217   1.275   5.995   3.593
 7440SOL     OW23218   0.790   2.151   4.024
 7440SOL    HW123219   0.878   2.128   4.065
 7440SOL    HW223220   0.805   2.201   3.939
 7441SOL     OW23221   5.735   0.105   3.927
 7441SOL    HW123222   5.677   0.136   4.002
 7441SOL    HW223223   5.716   0.160   3.846
 7442SOL     OW23224   1.704   0.908   6.611
 7442SOL    HW123225   1.618   0.905   6.560
 7442SOL    HW223226   1.697   0.850   6.692
 7443SOL     OW23227   6.994   1.318   0.829
 7443SOL    HW123228   0.034   1.326   0.906
 7443SOL    HW223229   7.008   1.229   0.784
 7444SOL     OW23230   0.171   2.697   6.390
 7444SOL    HW123231   0.168   2.646   6.304
 7444SOL    HW223232   0.162   2.795   6.372
 7445SOL     OW23233   5.691   2.948   2.104
 7445SOL    HW123234   5.772   2.921   2.051
 7445SOL    HW223235   5.626   2.873   2.106
 7446SOL     OW23236   0.077   3.446   1.029
 7446SOL    HW123237   0.023   3.517   0.983
 7446SOL    HW223238   0.016   3.375   1.064
 7447SOL     OW23239   0.085   4.032   6.288
 7447SOL    HW123240   0.089   4.033   6.388
 7447SOL    HW223241   0.084   3.938   6.255
 7448SOL     OW23242   6.678   6.505   6.128
 7448SOL    HW123243   6.739   6.584   6.137
 7448SOL    HW223244   6.636   6.506   6.037
 7449SOL     OW23245   4.731   0.754   1.751
 7449SOL    HW123246   4.633   0.740   1.741
 7449SOL    HW223247   4.752   0.851   1.740
 7450SOL     OW23248   3.385   6.954   2.547
 7450SOL    HW123249   3.454   6.967   2.476
 7450SOL    HW223250   3.412   7.003   2.629
 7451SOL     OW23251   1.269   1.465   3.059
 7451SOL    HW123252   1.213   1.401   3.112
 7451SOL    HW223253   1.265   1.440   2.962
 7452SOL     OW23254   1.519   6.378   4.334
 7452SOL    HW123255   1.530   6.468   4.293
 7452SOL    HW223256   1.521   6.386   4.433
 7453SOL     OW23257   5.433   5.603   5.536
 7453SOL    HW123258   5.417   5.695   5.500
 7453SOL    HW223259   5.389   5.594   5.625
 7454SOL     OW23260   0.800   2.903   0.299
 7454SOL    HW123261   0.833   2.961   0.225
 7454SOL    HW223262   0.745   2.958   0.362
 7455SOL     OW23263   5.533   1.262   0.485
 7455SOL    HW123264   5.566   1.275   0.579
 7455SOL    HW223265   5.481   1.177   0.480
 7456SOL     OW23266   1.918   2.954   5.712
 7456SOL    HW123267   1.985   3.027   5.701
 7456SOL    HW223268   1.838   2.974   5.655
 7457SOL     OW23269   6.207   0.150   5.869
 7457SOL    HW123270   6.305   0.145   5.851
 7457SOL    HW223271   6.190   0.126   5.965
 7458SOL     OW23272   2.486   0.813   0.346
 7458SOL    HW123273   2.415   0.806   0.416
 7458SOL    HW223274   2.444   0.802   0.255
 7459SOL     OW23275   4.492   0.466   4.708
 7459SOL    HW123276   4.425   0.487   4.637
 7459SOL    HW223277   4.550   0.390   4.677
 7460SOL     OW23278   0.620   4.961   6.907
 7460SOL    HW123279   0.654   4.919   6.991
 7460SOL    HW223280   0.691   4.957   6.836
 7461SOL     OW23281   4.441   0.244   3.805
 7461SOL    HW123282   4.476   0.261   3.897
 7461SOL    HW223283   4.352   0.289   3.795
 7462SOL     OW23284   1.753   1.546   2.333
 7462SOL    HW123285   1.834   1.559   2.276
 7462SOL    HW223286   1.749   1.618   2.402
 7463SOL     OW23287   3.631   3.732   2.289
 7463SOL    HW123288   3.693   3.662   2.324
 7463SOL    HW223289   3.668   3.770   2.204
 7464SOL     OW23290   5.199   6.386   6.449
 7464SOL    HW123291   5.104   6.359   6.465
 7464SOL    HW223292   5.209   6.484   6.463
 7465SOL     OW23293   3.428   1.049   1.746
 7465SOL    HW123294   3.329   1.048   1.728
 7465SOL    HW223295   3.469   0.965   1.711
 7466SOL     OW23296   0.432   0.337   6.332
 7466SOL    HW123297   0.498   0.364   6.262
 7466SOL    HW223298   0.354   0.400   6.332
 7467SOL     OW23299   5.972   1.508   1.147
 7467SOL    HW123300   6.021   1.432   1.189
 7467SOL    HW223301   5.917   1.474   1.070
 7468SOL     OW23302   6.449   3.481   3.971
 7468SOL    HW123303   6.467   3.387   4.001
 7468SOL    HW223304   6.350   3.497   3.973
 7469SOL     OW23305   6.664   1.388   1.806
 7469SOL    HW123306   6.752   1.357   1.842
 7469SOL    HW223307   6.591   1.360   1.869
 7470SOL     OW23308   0.118   2.374   2.649
 7470SOL    HW123309   0.197   2.429   2.678
 7470SOL    HW223310   0.042   2.435   2.627
 7471SOL     OW23311   5.996   5.264   6.224
 7471SOL    HW123312   5.898   5.287   6.224
 7471SOL    HW223313   6.007   5.168   6.250
 7472SOL     OW23314   3.614   5.495   3.621
 7472SOL    HW123315   3.691   5.525   3.677
 7472SOL    HW223316   3.554   5.436   3.674
 7473SOL     OW23317   0.699   3.755   4.872
 7473SOL    HW123318   0.693   3.733   4.775
 7473SOL    HW223319   0.726   3.674   4.923
 7474SOL     OW23320   3.978   1.024   2.581
 7474SOL    HW123321   3.933   0.951   2.632
 7474SOL    HW223322   3.924   1.108   2.588
 7475SOL     OW23323   4.226   1.213   0.079
 7475SOL    HW123324   4.203   1.278   0.152
 7475SOL    HW223325   4.303   1.249   0.026
 7476SOL     OW23326   3.291   6.734   5.020
 7476SOL    HW123327   3.255   6.655   5.070
 7476SOL    HW223328   3.228   6.811   5.030
 7477SOL     OW23329   4.697   2.655   2.955
 7477SOL    HW123330   4.773   2.608   3.001
 7477SOL    HW223331   4.610   2.626   2.997
 7478SOL     OW23332   1.994   4.784   1.074
 7478SOL    HW123333   1.913   4.839   1.055
 7478SOL    HW223334   2.073   4.843   1.085
 7479SOL     OW23335   4.606   0.461   5.891
 7479SOL    HW123336   4.591   0.362   5.890
 7479SOL    HW223337   4.558   0.503   5.814
 7480SOL     OW23338   0.086   4.872   1.522
 7480SOL    HW123339   0.100   4.776   1.499
 7480SOL    HW223340   0.001   4.904   1.482
 7481SOL     OW23341   6.492   5.535   0.314
 7481SOL    HW123342   6.453   5.456   0.266
 7481SOL    HW223343   6.554   5.503   0.386
 7482SOL     OW23344   5.001   0.556   4.261
 7482SOL    HW123345   5.065   0.632   4.262
 7482SOL    HW223346   5.019   0.498   4.181
 7483SOL     OW23347   3.295   0.056   6.162
 7483SOL    HW123348   3.370   0.006   6.119
 7483SOL    HW223349   3.331   0.117   6.231
 7484SOL     OW23350   2.775   0.419   2.405
 7484SOL    HW123351   2.724   0.498   2.371
 7484SOL    HW223352   2.873   0.440   2.404
 7485SOL     OW23353   1.297   7.009   6.035
 7485SOL    HW123354   1.342   0.071   6.063
 7485SOL    HW223355   1.358   6.932   6.051
 7486SOL     OW23356   1.870   0.257   5.295
 7486SOL    HW123357   1.780   0.274   5.336
 7486SOL    HW223358   1.864   0.275   5.196
 7487SOL     OW23359   4.224   4.946   3.325
 7487SOL    HW123360   4.278   5.006   3.267
 7487SOL    HW223361   4.134   4.986   3.340
 7488SOL     OW23362   3.775   0.761   5.667
 7488SOL    HW123363   3.798   0.858   5.658
 7488SOL    HW223364   3.715   0.734   5.592
 7489SOL     OW23365   6.247   3.610   3.318
 7489SOL    HW123366   6.213   3.621   3.225
 7489SOL    HW223367   6.269   3.699   3.357
 7490SOL     OW23368   5.575   1.525   1.669
 7490SOL    HW123369   5.527   1.532   1.581
 7490SOL    HW223370   5.666   1.487   1.654
 7491SOL     OW23371   6.684   5.889   6.540
 7491SOL    HW123372   6.601   5.938   6.514
 7491SOL    HW223373   6.726   5.847   6.460
 7492SOL     OW23374   2.540   2.529   4.282
 7492SOL    HW123375   2.516   2.511   4.377
 7492SOL    HW223376   2.592   2.452   4.245
 7493SOL     OW23377   5.330   3.949   0.203
 7493SOL    HW123378   5.413   3.973   0.253
 7493SOL    HW223379   5.292   3.865   0.240
 7494SOL     OW23380   4.964   1.935   0.960
 7494SOL    HW123381   4.889   1.913   1.022
 7494SOL    HW223382   5.005   2.022   0.987
 7495SOL     OW23383   0.377   1.532   2.189
 7495SOL    HW123384   0.307   1.603   2.193
 7495SOL    HW223385   0.340   1.450   2.145
 7496SOL     OW23386   1.122   4.722   5.416
 7496SOL    HW123387   1.218   4.695   5.404
 7496SOL    HW223388   1.063   4.644   5.394
 7497SOL     OW23389   1.906   4.968   2.037
 7497SOL    HW123390   1.941   4.877   2.061
 7497SOL    HW223391   1.976   5.019   1.987
 7498SOL     OW23392   4.694   1.291   4.360
 7498SOL    HW123393   4.752   1.369   4.382
 7498SOL    HW223394   4.603   1.304   4.399
 7499SOL     OW23395   4.578   5.980   3.718
 7499SOL    HW123396   4.660   5.937   3.754
 7499SOL    HW223397   4.535   6.035   3.790
 7500SOL     OW23398   5.384   4.830   1.447
 7500SOL    HW123399   5.391   4.929   1.439
 7500SOL    HW223400   5.467   4.793   1.488
 7501SOL     OW23401   6.951   4.406   3.797
 7501SOL    HW123402   6.852   4.405   3.785
 7501SOL    HW223403   6.977   4.483   3.855
 7502SOL     OW23404   2.403   1.504   4.280
 7502SOL    HW123405   2.455   1.418   4.289
 7502SOL    HW223406   2.409   1.555   4.365
 7503SOL     OW23407   2.635   2.606   6.498
 7503SOL    HW123408   2.563   2.589   6.431
 7503SOL    HW223409   2.694   2.680   6.466
 7504SOL     OW23410   4.386   5.573   4.102
 7504SOL    HW123411   4.299   5.619   4.121
 7504SOL    HW223412   4.461   5.634   4.127
 7505SOL     OW23413   1.512   1.767   4.773
 7505SOL    HW123414   1.532   1.745   4.868
 7505SOL    HW223415   1.467   1.856   4.767
 7506SOL     OW23416   4.326   1.493   3.609
 7506SOL    HW123417   4.261   1.569   3.613
 7506SOL    HW223418   4.403   1.512   3.670
 7507SOL     OW23419   1.575   6.449   5.959
 7507SOL    HW123420   1.493   6.505   5.953
 7507SOL    HW223421   1.577   6.384   5.883
 7508SOL     OW23422   4.510   0.007   4.058
 7508SOL    HW123423   4.512   6.948   4.000
 7508SOL    HW223424   4.582   0.001   4.127
 7509SOL     OW23425   4.563   3.212   5.897
 7509SOL    HW123426   4.503   3.291   5.886
 7509SOL    HW223427   4.616   3.200   5.813
 7510SOL     OW23428   3.784   3.983   4.926
 7510SOL    HW123429   3.721   3.908   4.944
 7510SOL    HW223430   3.835   4.004   5.010
 7511SOL     OW23431   1.208   1.128   2.437
 7511SOL    HW123432   1.150   1.051   2.410
 7511SOL    HW223433   1.229   1.121   2.534
 7512SOL     OW23434   2.300   2.824   1.910
 7512SOL    HW123435   2.305   2.898   1.842
 7512SOL    HW223436   2.357   2.747   1.879
 7513SOL     OW23437   1.160   3.068   6.636
 7513SOL    HW123438   1.085   3.112   6.684
 7513SOL    HW223439   1.230   3.136   6.613
 7514SOL     OW23440   2.574   6.243   3.452
 7514SOL    HW123441   2.527   6.213   3.535
 7514SOL    HW223442   2.552   6.182   3.376
 7515SOL     OW23443   6.315   5.304   2.886
 7515SOL    HW123444   6.333   5.376   2.952
 7515SOL    HW223445   6.219   5.277   2.891
 7516SOL     OW23446   1.073   0.663   3.359
 7516SOL    HW123447   1.140   0.710   3.418
 7516SOL    HW223448   1.012   0.607   3.416
 7517SOL     OW23449   0.481   4.259   1.534
 7517SOL    HW123450   0.563   4.226   1.581
 7517SOL    HW223451   0.454   4.193   1.464
 7518SOL     OW23452   5.115   6.156   3.181
 7518SOL    HW123453   5.079   6.073   3.139
 7518SOL    HW223454   5.101   6.153   3.280
 7519SOL     OW23455   2.071   5.635   3.766
 7519SOL    HW123456   2.109   5.544   3.755
 7519SOL    HW223457   2.019   5.660   3.683
 7520SOL     OW23458   2.235   0.176   4.364
 7520SOL    HW123459   2.213   0.079   4.354
 7520SOL    HW223460   2.183   0.229   4.297
 7521SOL     OW23461   5.364   4.250   5.942
 7521SOL    HW123462   5.289   4.229   6.005
 7521SOL    HW223463   5.336   4.323   5.880
 7522SOL     OW23464   1.836   0.646   1.927
 7522SOL    HW123465   1.750   0.625   1.974
 7522SOL    HW223466   1.839   0.744   1.906
 7523SOL     OW23467   6.004   6.770   6.825
 7523SOL    HW123468   5.918   6.791   6.780
 7523SOL    HW223469   6.081   6.801   6.768
 7524SOL     OW23470   6.532   1.326   4.170
 7524SOL    HW123471   6.473   1.328   4.089
 7524SOL    HW223472   6.606   1.392   4.159
 7525SOL     OW23473   1.836   6.350   1.055
 7525SOL    HW123474   1.838   6.441   1.098
 7525SOL    HW223475   1.748   6.336   1.012
 7526SOL     OW23476   3.608   3.030   5.348
 7526SOL    HW123477   3.630   3.037   5.251
 7526SOL    HW223478   3.574   2.938   5.368
 7527SOL     OW23479   5.667   4.618   2.052
 7527SOL    HW123480   5.626   4.574   2.132
 7527SOL    HW223481   5.636   4.572   1.969
 7528SOL     OW23482   6.266   3.787   5.817
 7528SOL    HW123483   6.177   3.821   5.845
 7528SOL    HW223484   6.310   3.855   5.758
 7529SOL     OW23485   3.041   0.087   5.343
 7529SOL    HW123486   2.982   0.071   5.422
 7529SOL    HW223487   2.990   0.137   5.273
 7530SOL     OW23488   0.075   3.260   2.383
 7530SOL    HW123489   0.111   3.347   2.350
 7530SOL    HW223490   0.021   3.274   2.466
 7531SOL     OW23491   3.232   1.984   3.378
 7531SOL    HW123492   3.258   2.034   3.460
 7531SOL    HW223493   3.189   2.046   3.312
 7532SOL     OW23494   4.877   4.709   2.248
 7532SOL    HW123495   4.787   4.667   2.240
 7532SOL    HW223496   4.947   4.646   2.213
 7533SOL     OW23497   3.404   0.200   4.543
 7533SOL    HW123498   3.494   0.164   4.564
 7533SOL    HW223499   3.384   0.276   4.605
 7534SOL     OW23500   5.343   6.814   4.537
 7534SOL    HW123501   5.390   6.900   4.558
 7534SOL    HW223502   5.298   6.780   4.619
 7535SOL     OW23503   3.309   3.862   6.550
 7535SOL    HW123504   3.406   3.839   6.545
 7535SOL    HW223505   3.273   3.873   6.458
 7536SOL     OW23506   4.018   6.144   3.714
 7536SOL    HW123507   4.107   6.189   3.703
 7536SOL    HW223508   4.030   6.062   3.771
 7537SOL     OW23509   2.057   4.707   5.921
 7537SOL    HW123510   1.982   4.663   5.873
 7537SOL    HW223511   2.027   4.794   5.959
 7538SOL     OW23512   3.431   3.249   2.738
 7538SOL    HW123513   3.354   3.186   2.729
 7538SOL    HW223514   3.503   3.224   2.673
 7539SOL     OW23515   2.026   2.401   4.783
 7539SOL    HW123516   2.118   2.398   4.746
 7539SOL    HW223517   2.029   2.388   4.882
 7540SOL     OW23518   1.964   1.331   0.378
 7540SOL    HW123519   2.039   1.394   0.358
 7540SOL    HW223520   1.941   1.335   0.475
 7541SOL     OW23521   6.554   2.797   5.580
 7541SOL    HW123522   6.614   2.876   5.571
 7541SOL    HW223523   6.459   2.826   5.573
 7542SOL     OW23524   1.889   0.092   6.764
 7542SOL    HW123525   1.802   0.118   6.805
 7542SOL    HW223526   1.919   0.165   6.701
 7543SOL     OW23527   4.101   2.898   6.855
 7543SOL    HW123528   4.164   2.974   6.871
 7543SOL    HW223529   4.130   2.848   6.774
 7544SOL     OW23530   1.977   2.020   2.963
 7544SOL    HW123531   2.055   2.002   3.023
 7544SOL    HW223532   1.895   2.034   3.019
 7545SOL     OW23533   5.567   0.147   4.130
 7545SOL    HW123534   5.483   0.197   4.109
 7545SOL    HW223535   5.583   0.148   4.228
 7546SOL     OW23536   4.877   0.439   6.590
 7546SOL    HW123537   4.814   0.506   6.628
 7546SOL    HW223538   4.931   0.398   6.663
 7547SOL     OW23539   3.378   0.176   0.310
 7547SOL    HW123540   3.304   0.243   0.316
 7547SOL    HW223541   3.364   0.119   0.228
 7548SOL     OW23542   1.398   2.770   1.563
 7548SOL    HW123543   1.448   2.697   1.609
 7548SOL    HW223544   1.443   2.791   1.476
 7549SOL     OW23545   6.197   2.158   2.131
 7549SOL    HW123546   6.157   2.074   2.168
 7549SOL    HW223547   6.152   2.237   2.173
 7550SOL     OW23548   1.823   4.976   0.992
 7550SOL    HW123549   1.745   4.973   0.929
 7550SOL    HW223550   1.834   5.069   1.026
 7551SOL     OW23551   4.627   3.958   6.374
 7551SOL    HW123552   4.708   3.976   6.429
 7551SOL    HW223553   4.654   3.946   6.278
 7552SOL     OW23554   3.504   5.327   3.805
 7552SOL    HW123555   3.467   5.369   3.889
 7552SOL    HW223556   3.453   5.244   3.784
 7553SOL     OW23557   4.443   4.413   5.949
 7553SOL    HW123558   4.459   4.466   6.033
 7553SOL    HW223559   4.430   4.317   5.972
 7554SOL     OW23560   6.514   1.055   1.281
 7554SOL    HW123561   6.523   1.118   1.204
 7554SOL    HW223562   6.601   1.009   1.297
 7555SOL     OW23563   0.695   5.950   5.768
 7555SOL    HW123564   0.678   5.893   5.849
 7555SOL    HW223565   0.742   5.896   5.698
 7556SOL     OW23566   6.743   2.796   4.217
 7556SOL    HW123567   6.688   2.869   4.259
 7556SOL    HW223568   6.766   2.727   4.286
 7557SOL     OW23569   4.492   4.039   6.991
 7557SOL    HW123570   4.456   4.129   7.016
 7557SOL    HW223571   4.482   4.025   6.893
 7558SOL     OW23572   1.726   3.210   4.052
 7558SOL    HW123573   1.737   3.261   3.967
 7558SOL    HW223574   1.635   3.227   4.089
 7559SOL     OW23575   0.708   4.859   0.619
 7559SOL    HW123576   0.657   4.855   0.533
 7559SOL    HW223577   0.684   4.779   0.675
 7560SOL     OW23578   4.396   6.907   6.415
 7560SOL    HW123579   4.418   6.938   6.507
 7560SOL    HW223580   4.402   6.985   6.352
 7561SOL     OW23581   0.811   3.213   0.840
 7561SOL    HW123582   0.762   3.268   0.908
 7561SOL    HW223583   0.755   3.135   0.814
 7562SOL     OW23584   4.856   5.406   5.593
 7562SOL    HW123585   4.836   5.495   5.552
 7562SOL    HW223586   4.839   5.334   5.526
 7563SOL     OW23587   2.274   1.178   2.501
 7563SOL    HW123588   2.182   1.215   2.494
 7563SOL    HW223589   2.289   1.111   2.428
 7564SOL     OW23590   4.963   6.202   3.849
 7564SOL    HW123591   4.917   6.179   3.764
 7564SOL    HW223592   5.032   6.132   3.870
 7565SOL     OW23593   4.575   4.321   0.879
 7565SOL    HW123594   4.549   4.363   0.966
 7565SOL    HW223595   4.557   4.385   0.805
 7566SOL     OW23596   1.725   5.718   4.980
 7566SOL    HW123597   1.644   5.659   4.989
 7566SOL    HW223598   1.703   5.796   4.922
 7567SOL     OW23599   2.885   3.159   0.091
 7567SOL    HW123600   2.846   3.238   0.139
 7567SOL    HW223601   2.971   3.186   0.049
 7568SOL     OW23602   5.076   4.770   3.187
 7568SOL    HW123603   5.104   4.788   3.281
 7568SOL    HW223604   5.139   4.814   3.124
 7569SOL     OW23605   3.934   0.217   0.981
 7569SOL    HW123606   3.959   0.179   1.071
 7569SOL    HW223607   3.870   0.292   0.994
 7570SOL     OW23608   6.136   4.802   4.880
 7570SOL    HW123609   6.097   4.891   4.902
 7570SOL    HW223610   6.068   4.730   4.898
 7571SOL     OW23611   5.050   4.007   1.857
 7571SOL    HW123612   5.016   4.031   1.948
 7571SOL    HW223613   4.988   3.941   1.814
 7572SOL     OW23614   2.131   2.059   4.197
 7572SOL    HW123615   2.064   2.089   4.264
 7572SOL    HW223616   2.155   1.963   4.214
 7573SOL     OW23617   2.529   5.857   5.095
 7573SOL    HW123618   2.430   5.859   5.106
 7573SOL    HW223619   2.565   5.772   5.133
 7574SOL     OW23620   4.876   5.987   2.783
 7574SOL    HW123621   4.804   5.920   2.763
 7574SOL    HW223622   4.957   5.966   2.729
 7575SOL     OW23623   4.467   2.343   5.011
 7575SOL    HW123624   4.481   2.403   4.932
 7575SOL    HW223625   4.370   2.324   5.022
 7576SOL     OW23626   6.228   3.492   1.312
 7576SOL    HW123627   6.290   3.567   1.335
 7576SOL    HW223628   6.276   3.405   1.321
 7577SOL     OW23629   4.438   0.657   5.194
 7577SOL    HW123630   4.520   0.673   5.138
 7577SOL    HW223631   4.391   0.575   5.163
 7578SOL     OW23632   2.696   4.730   4.580
 7578SOL    HW123633   2.690   4.712   4.678
 7578SOL    HW223634   2.627   4.676   4.532
 7579SOL     OW23635   4.385   2.071   3.281
 7579SOL    HW123636   4.427   2.152   3.240
 7579SOL    HW223637   4.388   2.079   3.381
 7580SOL     OW23638   2.105   3.986   3.420
 7580SOL    HW123639   2.057   3.900   3.440
 7580SOL    HW223640   2.103   4.002   3.321
 7581SOL     OW23641   6.088   0.297   1.200
 7581SOL    HW123642   6.039   0.364   1.143
 7581SOL    HW223643   6.152   0.345   1.260
 7582SOL     OW23644   2.888   1.345   1.180
 7582SOL    HW123645   2.924   1.335   1.272
 7582SOL    HW223646   2.963   1.341   1.114
 7583SOL     OW23647   0.242   3.489   2.356
 7583SOL    HW123648   0.307   3.454   2.424
 7583SOL    HW223649   0.184   3.559   2.398
 7584SOL     OW23650   2.297   1.315   1.353
 7584SOL    HW123651   2.313   1.362   1.439
 7584SOL    HW223652   2.328   1.372   1.277
 7585SOL     OW23653   1.633   5.289   5.862
 7585SOL    HW123654   1.626   5.233   5.944
 7585SOL    HW223655   1.603   5.382   5.881
 7586SOL     OW23656   2.022   1.221   1.680
 7586SOL    HW123657   2.018   1.293   1.611
 7586SOL    HW223658   1.935   1.214   1.728
 7587SOL     OW23659   2.509   1.014   6.070
 7587SOL    HW123660   2.414   1.040   6.057
 7587SOL    HW223661   2.522   0.918   6.046
 7588SOL     OW23662   0.390   4.090   1.340
 7588SOL    HW123663   0.392   4.005   1.394
 7588SOL    HW223664   0.298   4.106   1.306
 7589SOL     OW23665   5.421   6.076   0.258
 7589SOL    HW123666   5.394   6.015   0.183
 7589SOL    HW223667   5.508   6.045   0.296
 7590SOL     OW23668   2.165   1.010   6.269
 7590SOL    HW123669   2.123   0.931   6.225
 7590SOL    HW223670   2.135   1.094   6.223
 7591SOL     OW23671   6.850   5.051   0.449
 7591SOL    HW123672   6.856   5.060   0.549
 7591SOL    HW223673   6.934   5.085   0.407
 7592SOL     OW23674   5.248   5.849   0.505
 7592SOL    HW123675   5.203   5.820   0.589
 7592SOL    HW223676   5.263   5.948   0.507
 7593SOL     OW23677   6.058   2.958   6.604
 7593SOL    HW123678   6.140   2.934   6.553
 7593SOL    HW223679   6.078   2.959   6.702
 7594SOL     OW23680   1.311   6.170   3.925
 7594SOL    HW123681   1.331   6.086   3.976
 7594SOL    HW223682   1.317   6.152   3.827
 7595SOL     OW23683   6.508   2.594   0.084
 7595SOL    HW123684   6.514   2.497   0.058
 7595SOL    HW223685   6.492   2.600   0.183
 7596SOL     OW23686   4.978   4.456   2.166
 7596SOL    HW123687   4.904   4.471   2.101
 7596SOL    HW223688   4.948   4.392   2.237
 7597SOL     OW23689   3.202   5.437   1.765
 7597SOL    HW123690   3.244   5.441   1.675
 7597SOL    HW223691   3.180   5.530   1.795
 7598SOL     OW23692   6.591   0.512   3.286
 7598SOL    HW123693   6.618   0.447   3.215
 7598SOL    HW223694   6.556   0.463   3.365
 7599SOL     OW23695   6.454   2.147   2.025
 7599SOL    HW123696   6.363   2.177   2.054
 7599SOL    HW223697   6.511   2.132   2.106
 7600SOL     OW23698   2.241   2.129   1.510
 7600SOL    HW123699   2.267   2.225   1.519
 7600SOL    HW223700   2.324   2.072   1.507
 7601SOL     OW23701   2.545   6.603   5.238
 7601SOL    HW123702   2.517   6.590   5.143
 7601SOL    HW223703   2.590   6.520   5.271
 7602SOL     OW23704   2.016   3.392   4.947
 7602SOL    HW123705   2.035   3.294   4.948
 7602SOL    HW223706   1.920   3.407   4.967
 7603SOL     OW23707   0.718   0.362   1.908
 7603SOL    HW123708   0.670   0.417   1.976
 7603SOL    HW223709   0.725   0.413   1.822
 7604SOL     OW23710   4.675   6.162   6.305
 7604SOL    HW123711   4.763   6.180   6.261
 7604SOL    HW223712   4.690   6.127   6.397
 7605SOL     OW23713   5.742   4.482   5.953
 7605SOL    HW123714   5.649   4.493   5.919
 7605SOL    HW223715   5.741   4.428   6.037
 7606SOL     OW23716   5.527   1.906   2.480
 7606SOL    HW123717   5.548   1.930   2.385
 7606SOL    HW223718   5.590   1.835   2.511
 7607SOL     OW23719   5.264   6.634   6.836
 7607SOL    HW123720   5.310   6.719   6.812
 7607SOL    HW223721   5.219   6.644   6.924
 7608SOL     OW23722   3.289   2.918   3.591
 7608SOL    HW123723   3.233   2.944   3.513
 7608SOL    HW223724   3.231   2.911   3.673
 7609SOL     OW23725   1.375   3.031   4.275
 7609SOL    HW123726   1.394   2.960   4.343
 7609SOL    HW223727   1.376   2.992   4.183
 7610SOL     OW23728   5.163   0.182   1.351
 7610SOL    HW123729   5.213   0.253   1.301
 7610SOL    HW223730   5.193   0.180   1.446
 7611SOL     OW23731   1.837   1.984   1.372
 7611SOL    HW123732   1.933   1.981   1.347
 7611SOL    HW223733   1.780   1.967   1.291
 7612SOL     OW23734   4.095   1.281   2.478
 7612SOL    HW123735   4.192   1.282   2.453
 7612SOL    HW223736   4.055   1.370   2.458
 7613SOL     OW23737   4.558   1.225   2.213
 7613SOL    HW123738   4.648   1.232   2.169
 7613SOL    HW223739   4.542   1.130   2.240
 7614SOL     OW23740   4.323   1.824   0.229
 7614SOL    HW123741   4.315   1.921   0.206
 7614SOL    HW223742   4.288   1.768   0.153
 7615SOL     OW23743   3.544   5.355   5.440
 7615SOL    HW123744   3.521   5.451   5.423
 7615SOL    HW223745   3.643   5.343   5.430
 7616SOL     OW23746   6.229   5.149   3.923
 7616SOL    HW123747   6.307   5.127   3.982
 7616SOL    HW223748   6.144   5.120   3.967
 7617SOL     OW23749   3.446   5.956   2.406
 7617SOL    HW123750   3.415   6.040   2.452
 7617SOL    HW223751   3.368   5.893   2.396
 7618SOL     OW23752   1.499   2.562   0.778
 7618SOL    HW123753   1.507   2.640   0.715
 7618SOL    HW223754   1.563   2.576   0.854
 7619SOL     OW23755   5.647   3.174   6.089
 7619SOL    HW123756   5.642   3.227   6.174
 7619SOL    HW223757   5.737   3.131   6.083
 7620SOL     OW23758   3.160   6.729   1.697
 7620SOL    HW123759   3.250   6.767   1.674
 7620SOL    HW223760   3.136   6.657   1.633
 7621SOL     OW23761   2.532   1.526   1.848
 7621SOL    HW123762   2.486   1.574   1.923
 7621SOL    HW223763   2.624   1.562   1.836
 7622SOL     OW23764   4.454   2.559   0.532
 7622SOL    HW123765   4.358   2.567   0.559
 7622SOL    HW223766   4.464   2.485   0.466
 7623SOL     OW23767   5.124   0.687   5.557
 7623SOL    HW123768   5.086   0.745   5.485
 7623SOL    HW223769   5.050   0.652   5.614
 7624SOL     OW23770   0.229   0.350   4.023
 7624SOL    HW123771   0.211   0.320   4.116
 7624SOL    HW223772   0.143   0.358   3.973
 7625SOL     OW23773   4.460   0.156   1.308
 7625SOL    HW123774   4.442   0.068   1.351
 7625SOL    HW223775   4.431   0.154   1.213
 7626SOL     OW23776   1.918   4.903   4.690
 7626SOL    HW123777   1.909   4.941   4.782
 7626SOL    HW223778   1.962   4.970   4.630
 7627SOL     OW23779   0.469   2.481   0.392
 7627SOL    HW123780   0.455   2.399   0.448
 7627SOL    HW223781   0.533   2.460   0.318
 7628SOL     OW23782   3.830   2.243   0.831
 7628SOL    HW123783   3.890   2.167   0.855
 7628SOL    HW223784   3.806   2.294   0.914
 7629SOL     OW23785   6.367   5.495   4.166
 7629SOL    HW123786   6.325   5.453   4.247
 7629SOL    HW223787   6.467   5.486   4.173
 7630SOL     OW23788   6.244   0.949   2.331
 7630SOL    HW123789   6.315   0.900   2.381
 7630SOL    HW223790   6.155   0.933   2.374
 7631SOL     OW23791   0.598   2.286   3.679
 7631SOL    HW123792   0.609   2.317   3.584
 7631SOL    HW223793   0.689   2.277   3.721
 7632SOL     OW23794   4.452   1.468   6.528
 7632SOL    HW123795   4.475   1.414   6.447
 7632SOL    HW223796   4.356   1.457   6.550
 7633SOL     OW23797   5.589   4.320   6.722
 7633SOL    HW123798   5.561   4.372   6.803
 7633SOL    HW223799   5.590   4.222   6.744
 7634SOL     OW23800   0.724   1.722   2.215
 7634SOL    HW123801   0.667   1.639   2.218
 7634SOL    HW223802   0.790   1.714   2.140
 7635SOL     OW23803   3.005   4.614   6.048
 7635SOL    HW123804   3.059   4.668   5.983
 7635SOL    HW223805   3.063   4.583   6.123
 7636SOL     OW23806   1.639   0.138   4.130
 7636SOL    HW123807   1.703   0.061   4.123
 7636SOL    HW223808   1.595   0.152   4.041
 7637SOL     OW23809   2.141   5.814   4.378
 7637SOL    HW123810   2.219   5.863   4.340
 7637SOL    HW223811   2.173   5.745   4.442
 7638SOL     OW23812   4.432   4.655   1.728
 7638SOL    HW123813   4.518   4.642   1.776
 7638SOL    HW223814   4.449   4.688   1.635
 7639SOL     OW23815   0.932   1.777   4.349
 7639SOL    HW123816   0.888   1.723   4.421
 7639SOL    HW223817   0.868   1.788   4.272
 7640SOL     OW23818   2.447   2.440   6.827
 7640SOL    HW123819   2.529   2.496   6.833
 7640SOL    HW223820   2.418   2.433   6.731
 7641SOL     OW23821   6.406   3.379   3.119
 7641SOL    HW123822   6.460   3.426   3.188
 7641SOL    HW223823   6.318   3.351   3.158
 7642SOL     OW23824   2.852   1.714   2.449
 7642SOL    HW123825   2.752   1.702   2.445
 7642SOL    HW223826   2.884   1.690   2.541
 7643SOL     OW23827   4.785   3.012   2.840
 7643SOL    HW123828   4.860   2.945   2.836
 7643SOL    HW223829   4.777   3.048   2.933
 7644SOL     OW23830   0.008   3.535   3.736
 7644SOL    HW123831   6.963   3.512   3.666
 7644SOL    HW223832   0.100   3.514   3.702
 7645SOL     OW23833   4.762   3.679   6.605
 7645SOL    HW123834   4.678   3.733   6.617
 7645SOL    HW223835   4.815   3.715   6.529
 7646SOL     OW23836   1.384   2.055   2.167
 7646SOL    HW123837   1.468   2.001   2.174
 7646SOL    HW223838   1.325   2.014   2.098
 7647SOL     OW23839   2.034   4.189   1.523
 7647SOL    HW123840   1.936   4.191   1.503
 7647SOL    HW223841   2.048   4.158   1.617
 7648SOL     OW23842   4.124   0.504   3.245
 7648SOL    HW123843   4.093   0.409   3.240
 7648SOL    HW223844   4.060   0.557   3.301
 7649SOL     OW23845   2.656   0.886   1.230
 7649SOL    HW123846   2.585   0.944   1.270
 7649SOL    HW223847   2.655   0.797   1.274
 7650SOL     OW23848   5.991   4.813   2.884
 7650SOL    HW123849   6.074   4.868   2.891
 7650SOL    HW223850   6.013   4.717   2.903
 7651SOL     OW23851   3.828   1.514   6.413
 7651SOL    HW123852   3.817   1.423   6.453
 7651SOL    HW223853   3.845   1.505   6.315
 7652SOL     OW23854   0.652   2.920   2.523
 7652SOL    HW123855   0.597   2.954   2.446
 7652SOL    HW223856   0.646   2.820   2.526
 7653SOL     OW23857   3.302   2.295   1.522
 7653SOL    HW123858   3.218   2.346   1.541
 7653SOL    HW223859   3.337   2.257   1.608
 7654SOL     OW23860   4.842   3.826   3.780
 7654SOL    HW123861   4.866   3.847   3.685
 7654SOL    HW223862   4.753   3.865   3.801
 7655SOL     OW23863   4.670   6.298   5.465
 7655SOL    HW123864   4.658   6.377   5.526
 7655SOL    HW223865   4.720   6.326   5.383
 7656SOL     OW23866   1.150   6.125   5.077
 7656SOL    HW123867   1.065   6.094   5.035
 7656SOL    HW223868   1.228   6.087   5.026
 7657SOL     OW23869   4.284   1.107   4.577
 7657SOL    HW123870   4.316   1.017   4.607
 7657SOL    HW223871   4.212   1.140   4.639
 7658SOL     OW23872   4.157   0.523   6.174
 7658SOL    HW123873   4.061   0.550   6.164
 7658SOL    HW223874   4.216   0.603   6.168
 7659SOL     OW23875   5.750   6.847   0.593
 7659SOL    HW123876   5.668   6.793   0.571
 7659SOL    HW223877   5.823   6.824   0.528
 7660SOL     OW23878   5.717   4.574   4.152
 7660SOL    HW123879   5.629   4.616   4.128
 7660SOL    HW223880   5.716   4.478   4.127
 7661SOL     OW23881   5.474   3.376   3.102
 7661SOL    HW123882   5.403   3.323   3.056
 7661SOL    HW223883   5.520   3.435   3.036
 7662SOL     OW23884   0.098   5.488   1.995
 7662SOL    HW123885   0.148   5.413   2.037
 7662SOL    HW223886   0.111   5.485   1.895
 7663SOL     OW23887   0.196   5.485   0.376
 7663SOL    HW123888   0.102   5.518   0.375
 7663SOL    HW223889   0.199   5.392   0.415
 7664SOL     OW23890   2.050   5.480   4.476
 7664SOL    HW123891   2.101   5.406   4.432
 7664SOL    HW223892   2.093   5.503   4.563
 7665SOL     OW23893   2.657   6.366   4.963
 7665SOL    HW123894   2.677   6.277   5.004
 7665SOL    HW223895   2.720   6.383   4.887
 7666SOL     OW23896   1.233   1.179   1.115
 7666SOL    HW123897   1.285   1.097   1.091
 7666SOL    HW223898   1.281   1.260   1.082
 7667SOL     OW23899   4.741   5.458   6.292
 7667SOL    HW123900   4.713   5.495   6.380
 7667SOL    HW223901   4.774   5.364   6.304
 7668SOL     OW23902   3.107   3.917   1.547
 7668SOL    HW123903   3.104   3.818   1.565
 7668SOL    HW223904   3.028   3.942   1.490
 7669SOL     OW23905   4.844   6.411   4.471
 7669SOL    HW123906   4.777   6.426   4.398
 7669SOL    HW223907   4.859   6.313   4.484
 7670SOL     OW23908   2.250   4.892   1.135
 7670SOL    HW123909   2.249   4.810   1.192
 7670SOL    HW223910   2.344   4.921   1.118
 7671SOL     OW23911   5.821   2.510   4.735
 7671SOL    HW123912   5.853   2.530   4.642
 7671SOL    HW223913   5.866   2.427   4.769
 7672SOL     OW23914   5.535   0.908   2.249
 7672SOL    HW123915   5.583   0.822   2.234
 7672SOL    HW223916   5.457   0.913   2.186
 7673SOL     OW23917   0.588   4.705   0.979
 7673SOL    HW123918   0.632   4.646   1.046
 7673SOL    HW223919   0.648   4.783   0.958
 7674SOL     OW23920   6.512   0.579   4.904
 7674SOL    HW123921   6.506   0.664   4.852
 7674SOL    HW223922   6.520   0.600   5.002
 7675SOL     OW23923   4.450   6.854   3.643
 7675SOL    HW123924   4.412   6.844   3.550
 7675SOL    HW223925   4.424   6.775   3.698
 7676SOL     OW23926   2.016   6.810   1.203
 7676SOL    HW123927   2.111   6.807   1.232
 7676SOL    HW223928   1.999   6.895   1.153
 7677SOL     OW23929   1.827   2.948   3.099
 7677SOL    HW123930   1.743   3.000   3.086
 7677SOL    HW223931   1.860   2.962   3.193
 7678SOL     OW23932   5.611   0.035   7.022
 7678SOL    HW123933   5.596   0.021   0.097
 7678SOL    HW223934   5.530   0.080   6.983
 7679SOL     OW23935   0.954   5.198   5.302
 7679SOL    HW123936   0.917   5.199   5.395
 7679SOL    HW223937   1.002   5.284   5.285
 7680SOL     OW23938   4.243   1.950   6.790
 7680SOL    HW123939   4.198   1.942   6.701
 7680SOL    HW223940   4.327   1.897   6.790
 7681SOL     OW23941   3.095   1.627   0.073
 7681SOL    HW123942   3.004   1.661   0.047
 7681SOL    HW223943   3.100   1.529   0.054
 7682SOL     OW23944   3.358   6.838   1.009
 7682SOL    HW123945   3.344   6.804   0.916
 7682SOL    HW223946   3.287   6.906   1.030
 7683SOL     OW23947   5.498   1.735   3.309
 7683SOL    HW123948   5.510   1.640   3.278
 7683SOL    HW223949   5.583   1.785   3.294
 7684SOL     OW23950   4.134   1.864   5.930
 7684SOL    HW123951   4.222   1.830   5.897
 7684SOL    HW223952   4.149   1.938   5.995
 7685SOL     OW23953   3.508   3.435   0.689
 7685SOL    HW123954   3.431   3.468   0.635
 7685SOL    HW223955   3.592   3.441   0.635
 7686SOL     OW23956   3.245   0.313   4.002
 7686SOL    HW123957   3.275   0.261   4.083
 7686SOL    HW223958   3.319   0.315   3.936
 7687SOL     OW23959   4.437   4.984   5.245
 7687SOL    HW123960   4.438   4.996   5.146
 7687SOL    HW223961   4.377   5.052   5.286
 7688SOL     OW23962   0.042   6.577   4.168
 7688SOL    HW123963   0.081   6.650   4.224
 7688SOL    HW223964   0.101   6.496   4.172
 7689SOL     OW23965   3.964   6.643   4.429
 7689SOL    HW123966   3.961   6.742   4.421
 7689SOL    HW223967   3.883   6.604   4.385
 7690SOL     OW23968   0.254   5.961   3.446
 7690SOL    HW123969   0.242   5.923   3.538
 7690SOL    HW223970   0.219   5.897   3.379
 7691SOL     OW23971   5.309   4.029   4.743
 7691SOL    HW123972   5.319   3.932   4.765
 7691SOL    HW223973   5.374   4.082   4.797
 7692SOL     OW23974   2.009   6.561   1.876
 7692SOL    HW123975   1.916   6.565   1.913
 7692SOL    HW223976   2.006   6.570   1.777
 7693SOL     OW23977   5.396   1.455   6.635
 7693SOL    HW123978   5.307   1.429   6.672
 7693SOL    HW223979   5.468   1.419   6.694
 7694SOL     OW23980   0.046   5.022   4.390
 7694SOL    HW123981   0.059   4.971   4.475
 7694SOL    HW223982   6.993   4.982   4.339
 7695SOL     OW23983   4.246   0.418   6.855
 7695SOL    HW123984   4.320   0.351   6.860
 7695SOL    HW223985   4.158   0.371   6.855
 7696SOL     OW23986   0.594   3.056   5.674
 7696SOL    HW123987   0.503   3.017   5.662
 7696SOL    HW223988   0.591   3.153   5.652
 7697SOL     OW23989   4.099   1.920   1.930
 7697SOL    HW123990   4.011   1.958   1.902
 7697SOL    HW223991   4.132   1.858   1.860
 7698SOL     OW23992   6.809   3.441   5.480
 7698SOL    HW123993   6.761   3.380   5.544
 7698SOL    HW223994   6.855   3.513   5.531
 7699SOL     OW23995   2.293   4.753   7.004
 7699SOL    HW123996   2.328   4.674   0.030
 7699SOL    HW223997   2.327   4.752   6.910
 7700SOL     OW23998   4.968   6.662   5.188
 7700SOL    HW123999   4.872   6.643   5.209
 7700SOL    HW224000   5.013   6.578   5.158
 7701SOL     OW24001   5.924   1.586   5.019
 7701SOL    HW124002   5.957   1.649   5.090
 7701SOL    HW224003   5.974   1.500   5.024
 7702SOL     OW24004   2.422   6.400   6.361
 7702SOL    HW124005   2.507   6.374   6.314
 7702SOL    HW224006   2.436   6.396   6.460
 7703SOL     OW24007   0.399   1.781   6.650
 7703SOL    HW124008   0.479   1.729   6.621
 7703SOL    HW224009   0.387   1.860   6.589
 7704SOL     OW24010   4.684   4.483   0.057
 7704SOL    HW124011   4.724   4.482   6.988
 7704SOL    HW224012   4.650   4.392   0.079
 7705SOL     OW24013   3.272   5.299   4.760
 7705SOL    HW124014   3.311   5.254   4.841
 7705SOL    HW224015   3.173   5.308   4.772
 7706SOL     OW24016   6.874   0.886   4.827
 7706SOL    HW124017   6.892   0.918   4.735
 7706SOL    HW224018   6.945   0.822   4.855
 7707SOL     OW24019   0.396   4.967   5.958
 7707SOL    HW124020   0.407   4.869   5.975
 7707SOL    HW224021   0.486   5.011   5.957
 7708SOL     OW24022   4.360   6.832   5.049
 7708SOL    HW124023   4.269   6.867   5.069
 7708SOL    HW224024   4.427   6.906   5.058
 7709SOL     OW24025   3.890   2.074   1.879
 7709SOL    HW124026   3.849   2.141   1.940
 7709SOL    HW224027   3.820   2.035   1.819
 7710SOL     OW24028   2.843   1.708   0.025
 7710SOL    HW124029   2.773   1.766   0.067
 7710SOL    HW224030   2.817   1.688   6.954
 7711SOL     OW24031   5.823   6.429   6.014
 7711SOL    HW124032   5.753   6.489   5.974
 7711SOL    HW224033   5.838   6.454   6.109
 7712SOL     OW24034   5.551   5.777   0.955
 7712SOL    HW124035   5.501   5.830   1.023
 7712SOL    HW224036   5.559   5.682   0.985
 7713SOL     OW24037   1.492   4.709   6.641
 7713SOL    HW124038   1.434   4.637   6.603
 7713SOL    HW224039   1.463   4.731   6.734
 7714SOL     OW24040   5.292   4.311   3.686
 7714SOL    HW124041   5.385   4.276   3.692
 7714SOL    HW224042   5.255   4.322   3.779
 7715SOL     OW24043   4.658   1.627   0.976
 7715SOL    HW124044   4.692   1.693   1.044
 7715SOL    HW224045   4.657   1.670   0.886
 7716SOL     OW24046   4.503   2.520   3.131
 7716SOL    HW124047   4.466   2.567   3.211
 7716SOL    HW224048   4.434   2.458   3.094
 7717SOL     OW24049   3.743   1.121   6.344
 7717SOL    HW124050   3.718   1.141   6.439
 7717SOL    HW224051   3.834   1.081   6.341
 7718SOL     OW24052   2.888   5.873   3.806
 7718SOL    HW124053   2.925   5.807   3.872
 7718SOL    HW224054   2.930   5.962   3.822
 7719SOL     OW24055   6.406   1.771   4.879
 7719SOL    HW124056   6.337   1.771   4.951
 7719SOL    HW224057   6.363   1.747   4.792
 7720SOL     OW24058   5.826   5.759   1.398
 7720SOL    HW124059   5.808   5.750   1.300
 7720SOL    HW224060   5.766   5.697   1.449
 7721SOL     OW24061   1.494   4.363   2.632
 7721SOL    HW124062   1.510   4.267   2.657
 7721SOL    HW224063   1.577   4.416   2.648
 7722SOL     OW24064   7.021   5.249   4.036
 7722SOL    HW124065   6.925   5.250   4.010
 7722SOL    HW224066   0.007   5.283   4.130
 7723SOL     OW24067   6.438   3.169   0.261
 7723SOL    HW124068   6.524   3.118   0.256
 7723SOL    HW224069   6.398   3.177   0.170
 7724SOL     OW24070   1.957   4.517   1.228
 7724SOL    HW124071   1.874   4.570   1.218
 7724SOL    HW224072   2.035   4.578   1.239
 7725SOL     OW24073   4.876   3.346   4.688
 7725SOL    HW124074   4.884   3.431   4.740
 7725SOL    HW224075   4.844   3.366   4.595
 7726SOL     OW24076   6.769   4.460   3.568
 7726SOL    HW124077   6.784   4.548   3.612
 7726SOL    HW224078   6.673   4.433   3.578
 7727SOL     OW24079   6.780   2.647   1.675
 7727SOL    HW124080   6.718   2.671   1.749
 7727SOL    HW224081   6.824   2.560   1.697
 7728SOL     OW24082   2.584   2.347   2.652
 7728SOL    HW124083   2.646   2.333   2.575
 7728SOL    HW224084   2.548   2.440   2.650
 7729SOL     OW24085   5.432   2.435   0.483
 7729SOL    HW124086   5.355   2.491   0.452
 7729SOL    HW224087   5.403   2.378   0.560
 7730SOL     OW24088   5.189   0.720   2.037
 7730SOL    HW124089   5.105   0.687   1.994
 7730SOL    HW224090   5.257   0.646   2.036
 7731SOL     OW24091   6.218   1.021   6.389
 7731SOL    HW124092   6.287   1.092   6.384
 7731SOL    HW224093   6.234   0.953   6.317
 7732SOL     OW24094   4.280   4.968   0.826
 7732SOL    HW124095   4.310   4.873   0.810
 7732SOL    HW224096   4.359   5.024   0.851
 7733SOL     OW24097   3.145   0.060   2.167
 7733SOL    HW124098   3.139   0.011   2.254
 7733SOL    HW224099   3.204   0.140   2.177
 7734SOL     OW24100   1.548   1.584   3.461
 7734SOL    HW124101   1.572   1.573   3.364
 7734SOL    HW224102   1.498   1.670   3.472
 7735SOL     OW24103   5.170   4.130   0.466
 7735SOL    HW124104   5.181   4.196   0.392
 7735SOL    HW224105   5.108   4.057   0.438
 7736SOL     OW24106   6.309   4.652   6.423
 7736SOL    HW124107   6.322   4.737   6.372
 7736SOL    HW224108   6.393   4.630   6.473
 7737SOL     OW24109   5.164   1.308   0.575
 7737SOL    HW124110   5.189   1.327   0.480
 7737SOL    HW224111   5.118   1.388   0.614
 7738SOL     OW24112   2.487   4.991   6.625
 7738SOL    HW124113   2.480   5.090   6.612
 7738SOL    HW224114   2.581   4.967   6.648
 7739SOL     OW24115   6.343   3.154   1.595
 7739SOL    HW124116   6.270   3.087   1.585
 7739SOL    HW224117   6.400   3.130   1.673
 7740SOL     OW24118   0.463   6.615   3.261
 7740SOL    HW124119   0.563   6.623   3.263
 7740SOL    HW224120   0.430   6.592   3.353
 7741SOL     OW24121   2.661   5.576   4.506
 7741SOL    HW124122   2.738   5.567   4.443
 7741SOL    HW224123   2.695   5.591   4.599
 7742SOL     OW24124   6.390   0.998   3.510
 7742SOL    HW124125   6.438   0.913   3.531
 7742SOL    HW224126   6.454   1.075   3.519
 7743SOL     OW24127   4.684   2.596   2.669
 7743SOL    HW124128   4.675   2.637   2.760
 7743SOL    HW224129   4.769   2.626   2.626
 7744SOL     OW24130   6.945   0.294   5.194
 7744SOL    HW124131   6.948   0.248   5.105
 7744SOL    HW224132   7.012   0.367   5.196
 7745SOL     OW24133   4.747   3.542   5.628
 7745SOL    HW124134   4.755   3.539   5.728
 7745SOL    HW224135   4.812   3.479   5.587
 7746SOL     OW24136   1.766   1.096   0.475
 7746SOL    HW124137   1.743   1.102   0.572
 7746SOL    HW224138   1.800   1.185   0.443
 7747SOL     OW24139   5.962   5.539   0.800
 7747SOL    HW124140   5.903   5.458   0.804
 7747SOL    HW224141   5.908   5.619   0.773
 7748SOL     OW24142   3.513   3.554   6.976
 7748SOL    HW124143   3.438   3.539   6.912
 7748SOL    HW224144   3.581   3.481   6.966
 7749SOL     OW24145   5.881   3.275   6.300
 7749SOL    HW124146   5.875   3.187   6.253
 7749SOL    HW224147   5.943   3.267   6.378
 7750SOL     OW24148   5.865   4.739   2.611
 7750SOL    HW124149   5.820   4.658   2.650
 7750SOL    HW224150   5.919   4.783   2.682
 7751SOL     OW24151   0.155   2.682   2.250
 7751SOL    HW124152   0.230   2.676   2.316
 7751SOL    HW224153   0.145   2.594   2.203
 7752SOL     OW24154   4.696   2.145   3.427
 7752SOL    HW124155   4.649   2.194   3.354
 7752SOL    HW224156   4.772   2.200   3.460
 7753SOL     OW24157   3.068   1.735   4.759
 7753SOL    HW124158   3.074   1.797   4.837
 7753SOL    HW224159   3.030   1.784   4.680
 7754SOL     OW24160   5.382   6.287   2.533
 7754SOL    HW124161   5.421   6.272   2.442
 7754SOL    HW224162   5.292   6.244   2.538
 7755SOL     OW24163   0.787   4.843   4.137
 7755SOL    HW124164   0.832   4.838   4.226
 7755SOL    HW224165   0.710   4.907   4.142
 7756SOL     OW24166   2.789   5.327   2.079
 7756SOL    HW124167   2.752   5.245   2.035
 7756SOL    HW224168   2.851   5.301   2.152
 7757SOL     OW24169   0.346   4.404   2.047
 7757SOL    HW124170   0.340   4.380   1.950
 7757SOL    HW224171   0.320   4.500   2.059
 7758SOL     OW24172   1.486   1.484   5.083
 7758SOL    HW124173   1.449   1.405   5.034
 7758SOL    HW224174   1.507   1.458   5.178
 7759SOL     OW24175   3.317   2.207   1.262
 7759SOL    HW124176   3.311   2.239   1.357
 7759SOL    HW224177   3.392   2.254   1.215
 7760SOL     OW24178   5.214   3.119   0.031
 7760SOL    HW124179   5.140   3.054   0.052
 7760SOL    HW224180   5.266   3.137   0.115
 7761SOL     OW24181   4.683   5.626   3.796
 7761SOL    HW124182   4.774   5.597   3.768
 7761SOL    HW224183   4.688   5.713   3.844
 7762SOL     OW24184   5.814   1.727   1.971
 7762SOL    HW124185   5.776   1.638   1.998
 7762SOL    HW224186   5.862   1.717   1.884
 7763SOL     OW24187   2.534   0.419   4.095
 7763SOL    HW124188   2.624   0.375   4.104
 7763SOL    HW224189   2.478   0.396   4.175
 7764SOL     OW24190   2.157   3.958   5.854
 7764SOL    HW124191   2.238   3.946   5.797
 7764SOL    HW224192   2.074   3.954   5.798
 7765SOL     OW24193   5.528   3.012   4.728
 7765SOL    HW124194   5.525   3.112   4.737
 7765SOL    HW224195   5.511   2.970   4.817
 7766SOL     OW24196   6.282   4.029   6.390
 7766SOL    HW124197   6.230   4.113   6.405
 7766SOL    HW224198   6.379   4.048   6.395
 7767SOL     OW24199   3.375   0.621   3.998
 7767SOL    HW124200   3.363   0.691   4.068
 7767SOL    HW224201   3.311   0.637   3.923
 7768SOL     OW24202   4.105   5.463   3.781
 7768SOL    HW124203   4.057   5.544   3.816
 7768SOL    HW224204   4.131   5.404   3.857
 7769SOL     OW24205   3.858   2.630   5.629
 7769SOL    HW124206   3.905   2.631   5.540
 7769SOL    HW224207   3.763   2.657   5.617
 7770SOL     OW24208   1.929   2.932   4.392
 7770SOL    HW124209   1.941   2.833   4.403
 7770SOL    HW224210   1.947   2.978   4.479
 7771SOL     OW24211   2.317   3.344   6.748
 7771SOL    HW124212   2.303   3.252   6.712
 7771SOL    HW224213   2.363   3.400   6.680
 7772SOL     OW24214   5.448   6.875   2.025
 7772SOL    HW124215   5.507   6.917   1.956
 7772SOL    HW224216   5.416   6.945   2.088
 7773SOL     OW24217   2.907   6.031   0.112
 7773SOL    HW124218   2.840   6.010   0.184
 7773SOL    HW224219   2.948   6.121   0.129
 7774SOL     OW24220   4.671   1.695   2.606
 7774SOL    HW124221   4.711   1.736   2.524
 7774SOL    HW224222   4.610   1.620   2.580
 7775SOL     OW24223   2.556   2.060   1.622
 7775SOL    HW124224   2.583   2.110   1.539
 7775SOL    HW224225   2.590   1.966   1.616
 7776SOL     OW24226   2.060   1.330   4.471
 7776SOL    HW124227   1.987   1.262   4.482
 7776SOL    HW224228   2.068   1.384   4.555
 7777SOL     OW24229   5.908   6.005   3.854
 7777SOL    HW124230   5.954   6.036   3.771
 7777SOL    HW224231   5.886   5.908   3.847
 7778SOL     OW24232   6.738   4.620   3.102
 7778SOL    HW124233   6.706   4.639   3.195
 7778SOL    HW224234   6.792   4.697   3.069
 7779SOL     OW24235   4.593   5.953   2.078
 7779SOL    HW124236   4.514   6.013   2.083
 7779SOL    HW224237   4.649   5.964   2.161
 7780SOL     OW24238   5.888   6.285   5.115
 7780SOL    HW124239   5.879   6.372   5.163
 7780SOL    HW224240   5.985   6.266   5.099
 7781SOL     OW24241   1.675   2.892   0.951
 7781SOL    HW124242   1.645   2.801   0.981
 7781SOL    HW224243   1.617   2.962   0.992
 7782SOL     OW24244   5.112   3.025   4.985
 7782SOL    HW124245   5.201   3.069   4.995
 7782SOL    HW224246   5.043   3.081   5.031
 7783SOL     OW24247   1.909   6.255   4.419
 7783SOL    HW124248   1.886   6.344   4.459
 7783SOL    HW224249   1.894   6.258   4.320
 7784SOL     OW24250   1.470   2.052   1.816
 7784SOL    HW124251   1.496   2.103   1.734
 7784SOL    HW224252   1.551   2.033   1.871
 7785SOL     OW24253   6.820   6.542   3.298
 7785SOL    HW124254   6.792   6.622   3.245
 7785SOL    HW224255   6.743   6.479   3.306
 7786SOL     OW24256   4.322   1.117   5.616
 7786SOL    HW124257   4.344   1.214   5.608
 7786SOL    HW224258   4.407   1.064   5.618
 7787SOL     OW24259   2.631   2.361   1.815
 7787SOL    HW124260   2.641   2.337   1.718
 7787SOL    HW224261   2.718   2.393   1.851
 7788SOL     OW24262   0.363   5.057   1.385
 7788SOL    HW124263   0.381   4.986   1.317
 7788SOL    HW224264   0.285   5.030   1.441
 7789SOL     OW24265   3.492   1.341   5.814
 7789SOL    HW124266   3.539   1.388   5.888
 7789SOL    HW224267   3.399   1.377   5.806
 7790SOL     OW24268   4.441   4.706   1.447
 7790SOL    HW124269   4.491   4.788   1.474
 7790SOL    HW224270   4.343   4.722   1.455
 7791SOL     OW24271   2.872   5.903   2.630
 7791SOL    HW124272   2.884   5.822   2.688
 7791SOL    HW224273   2.807   5.965   2.673
 7792SOL     OW24274   0.769   1.878   3.374
 7792SOL    HW124275   0.811   1.888   3.464
 7792SOL    HW224276   0.841   1.866   3.305
 7793SOL     OW24277   5.020   0.607   0.416
 7793SOL    HW124278   5.082   0.554   0.474
 7793SOL    HW224279   4.966   0.670   0.473
 7794SOL     OW24280   0.848   6.961   3.077
 7794SOL    HW124281   0.866   6.884   3.015
 7794SOL    HW224282   0.780   7.022   3.036
 7795SOL     OW24283   3.193   4.504   0.602
 7795SOL    HW124284   3.166   4.571   0.533
 7795SOL    HW224285   3.139   4.519   0.685
 7796SOL     OW24286   3.227   2.574   0.214
 7796SOL    HW124287   3.280   2.626   0.147
 7796SOL    HW224288   3.286   2.506   0.258
 7797SOL     OW24289   0.816   5.763   3.303
 7797SOL    HW124290   0.764   5.847   3.299
 7797SOL    HW224291   0.754   5.685   3.315
 7798SOL     OW24292   1.341   3.566   0.591
 7798SOL    HW124293   1.427   3.608   0.619
 7798SOL    HW224294   1.267   3.597   0.651
 7799SOL     OW24295   3.178   5.894   3.645
 7799SOL    HW124296   3.100   5.854   3.693
 7799SOL    HW224297   3.158   5.899   3.547
 7800SOL     OW24298   0.585   6.669   2.142
 7800SOL    HW124299   0.498   6.716   2.157
 7800SOL    HW224300   0.647   6.688   2.219
 7801SOL     OW24301   1.204   1.924   1.990
 7801SOL    HW124302   1.142   1.849   2.013
 7801SOL    HW224303   1.151   2.000   1.953
 7802SOL     OW24304   6.893   3.450   4.523
 7802SOL    HW124305   6.918   3.541   4.557
 7802SOL    HW224306   6.809   3.456   4.469
 7803SOL     OW24307   2.953   2.330   5.725
 7803SOL    HW124308   2.936   2.264   5.798
 7803SOL    HW224309   3.027   2.297   5.667
 7804SOL     OW24310   3.425   1.904   5.008
 7804SOL    HW124311   3.375   1.950   4.935
 7804SOL    HW224312   3.485   1.970   5.054
 7805SOL     OW24313   5.482   3.034   0.086
 7805SOL    HW124314   5.431   3.029   0.172
 7805SOL    HW224315   5.567   2.983   0.095
 7806SOL     OW24316   6.887   1.372   6.113
 7806SOL    HW124317   6.982   1.397   6.129
 7806SOL    HW224318   6.858   1.409   6.024
 7807SOL     OW24319   1.945   4.932   5.981
 7807SOL    HW124320   1.952   4.959   5.884
 7807SOL    HW224321   1.970   5.010   6.038
 7808SOL     OW24322   6.823   3.855   3.335
 7808SOL    HW124323   6.916   3.867   3.370
 7808SOL    HW224324   6.777   3.783   3.388
 7809SOL     OW24325   4.939   5.354   2.385
 7809SOL    HW124326   4.949   5.432   2.448
 7809SOL    HW224327   4.982   5.273   2.426
 7810SOL     OW24328   2.674   6.366   6.260
 7810SOL    HW124329   2.693   6.425   6.339
 7810SOL    HW224330   2.709   6.408   6.177
 7811SOL     OW24331   1.413   5.975   2.929
 7811SOL    HW124332   1.474   6.035   2.980
 7811SOL    HW224333   1.463   5.891   2.903
 7812SOL     OW24334   3.031   1.085   6.297
 7812SOL    HW124335   3.038   1.176   6.338
 7812SOL    HW224336   2.936   1.070   6.268
 7813SOL     OW24337   5.191   0.264   0.774
 7813SOL    HW124338   5.266   0.250   0.709
 7813SOL    HW224339   5.220   0.325   0.847
 7814SOL     OW24340   6.272   2.919   2.564
 7814SOL    HW124341   6.255   3.018   2.573
 7814SOL    HW224342   6.358   2.905   2.515
 7815SOL     OW24343   5.170   4.943   4.910
 7815SOL    HW124344   5.161   5.024   4.968
 7815SOL    HW224345   5.266   4.916   4.906
 7816SOL     OW24346   0.215   1.408   5.349
 7816SOL    HW124347   0.217   1.431   5.446
 7816SOL    HW224348   0.185   1.313   5.338
 7817SOL     OW24349   4.070   2.755   0.056
 7817SOL    HW124350   4.071   2.831   7.014
 7817SOL    HW224351   4.144   2.766   0.122
 7818SOL     OW24352   6.204   0.710   3.165
 7818SOL    HW124353   6.173   0.742   3.255
 7818SOL    HW224354   6.141   0.744   3.095
 7819SOL     OW24355   1.512   3.040   4.588
 7819SOL    HW124356   1.574   3.105   4.543
 7819SOL    HW224357   1.499   2.960   4.530
 7820SOL     OW24358   1.126   0.818   5.119
 7820SOL    HW124359   1.217   0.851   5.143
 7820SOL    HW224360   1.134   0.736   5.061
 7821SOL     OW24361   3.827   6.294   0.189
 7821SOL    HW124362   3.912   6.331   0.227
 7821SOL    HW224363   3.833   6.195   0.184
 7822SOL     OW24364   0.115   1.036   4.778
 7822SOL    HW124365   0.033   1.093   4.781
 7822SOL    HW224366   0.153   1.025   4.870
 7823SOL     OW24367   2.439   3.466   5.519
 7823SOL    HW124368   2.414   3.469   5.422
 7823SOL    HW224369   2.369   3.415   5.569
 7824SOL     OW24370   5.115   3.716   2.486
 7824SOL    HW124371   5.151   3.704   2.579
 7824SOL    HW224372   5.018   3.736   2.490
 7825SOL     OW24373   3.318   3.288   2.432
 7825SOL    HW124374   3.375   3.216   2.469
 7825SOL    HW224375   3.225   3.279   2.466
 7826SOL     OW24376   6.708   0.394   1.302
 7826SOL    HW124377   6.612   0.394   1.331
 7826SOL    HW224378   6.762   0.453   1.362
 7827SOL     OW24379   4.504   3.528   0.607
 7827SOL    HW124380   4.426   3.487   0.560
 7827SOL    HW224381   4.587   3.509   0.554
 7828SOL     OW24382   0.106   5.968   0.429
 7828SOL    HW124383   0.047   5.892   0.456
 7828SOL    HW224384   0.199   5.951   0.461
 7829SOL     OW24385   4.147   3.296   3.081
 7829SOL    HW124386   4.155   3.196   3.077
 7829SOL    HW224387   4.051   3.322   3.076
 7830SOL     OW24388   5.743   3.979   0.511
 7830SOL    HW124389   5.815   4.035   0.554
 7830SOL    HW224390   5.657   4.030   0.512
 7831SOL     OW24391   1.846   2.715   6.533
 7831SOL    HW124392   1.779   2.777   6.492
 7831SOL    HW224393   1.815   2.689   6.625
 7832SOL     OW24394   2.480   2.445   4.824
 7832SOL    HW124395   2.567   2.397   4.836
 7832SOL    HW224396   2.459   2.499   4.906
 7833SOL     OW24397   0.765   0.151   0.993
 7833SOL    HW124398   0.831   0.193   0.931
 7833SOL    HW224399   0.764   0.052   0.978
 7834SOL     OW24400   6.703   0.241   1.625
 7834SOL    HW124401   6.604   0.247   1.609
 7834SOL    HW224402   6.749   0.223   1.538
 7835SOL     OW24403   2.756   2.001   4.311
 7835SOL    HW124404   2.813   1.921   4.289
 7835SOL    HW224405   2.703   2.027   4.231
 7836SOL     OW24406   2.160   1.012   6.686
 7836SOL    HW124407   2.089   0.956   6.643
 7836SOL    HW224408   2.151   1.107   6.655
 7837SOL     OW24409   4.843   6.244   2.913
 7837SOL    HW124410   4.893   6.173   2.863
 7837SOL    HW224411   4.751   6.252   2.876
 7838SOL     OW24412   3.251   6.510   3.992
 7838SOL    HW124413   3.305   6.426   4.001
 7838SOL    HW224414   3.176   6.495   3.927
 7839SOL     OW24415   6.892   4.681   3.852
 7839SOL    HW124416   6.934   4.761   3.895
 7839SOL    HW224417   6.890   4.694   3.752
 7840SOL     OW24418   5.054   2.973   5.664
 7840SOL    HW124419   5.125   2.906   5.641
 7840SOL    HW224420   5.084   3.028   5.741
 7841SOL     OW24421   1.453   1.750   6.170
 7841SOL    HW124422   1.551   1.731   6.173
 7841SOL    HW224423   1.404   1.674   6.213
 7842SOL     OW24424   2.735   0.670   2.060
 7842SOL    HW124425   2.658   0.717   2.018
 7842SOL    HW224426   2.801   0.645   1.990
 7843SOL     OW24427   6.915   3.260   1.118
 7843SOL    HW124428   6.933   3.306   1.204
 7843SOL    HW224429   6.966   3.174   1.114
 7844SOL     OW24430   3.539   1.305   4.139
 7844SOL    HW124431   3.582   1.334   4.224
 7844SOL    HW224432   3.610   1.282   4.072
 7845SOL     OW24433   0.982   0.971   3.886
 7845SOL    HW124434   0.919   1.029   3.936
 7845SOL    HW224435   1.034   1.026   3.821
 7846SOL     OW24436   3.506   6.608   2.261
 7846SOL    HW124437   3.439   6.677   2.287
 7846SOL    HW224438   3.477   6.564   2.176
 7847SOL     OW24439   7.009   0.790   0.224
 7847SOL    HW124440   0.068   0.825   0.181
 7847SOL    HW224441   6.966   0.722   0.165
 7848SOL     OW24442   4.309   3.983   0.832
 7848SOL    HW124443   4.256   3.993   0.748
 7848SOL    HW224444   4.247   3.962   0.908
 7849SOL     OW24445   5.698   4.065   5.079
 7849SOL    HW124446   5.709   3.967   5.098
 7849SOL    HW224447   5.788   4.105   5.061
 7850SOL     OW24448   0.612   1.360   4.316
 7850SOL    HW124449   0.611   1.263   4.291
 7850SOL    HW224450   0.524   1.385   4.356
 7851SOL     OW24451   4.346   6.784   0.757
 7851SOL    HW124452   4.365   6.695   0.714
 7851SOL    HW224453   4.422   6.808   0.818
 7852SOL     OW24454   1.655   6.847   6.980
 7852SOL    HW124455   1.635   6.890   6.892
 7852SOL    HW224456   1.743   6.799   6.974
 7853SOL     OW24457   1.881   2.988   0.811
 7853SOL    HW124458   1.924   2.938   0.736
 7853SOL    HW224459   1.796   2.941   0.837
 7854SOL     OW24460   3.295   4.107   3.079
 7854SOL    HW124461   3.230   4.112   3.156
 7854SOL    HW224462   3.261   4.163   3.004
 7855SOL     OW24463   3.690   0.040   5.597
 7855SOL    HW124464   3.773   0.092   5.575
 7855SOL    HW224465   3.705   6.967   5.574
 7856SOL     OW24466   4.032   3.690   6.250
 7856SOL    HW124467   3.986   3.635   6.181
 7856SOL    HW224468   4.096   3.632   6.301
 7857SOL     OW24469   0.841   2.108   4.532
 7857SOL    HW124470   0.853   2.205   4.511
 7857SOL    HW224471   0.747   2.081   4.511
 7858SOL     OW24472   6.403   4.203   3.070
 7858SOL    HW124473   6.324   4.226   3.125
 7858SOL    HW224474   6.476   4.271   3.085
 7859SOL     OW24475   0.982   5.915   6.708
 7859SOL    HW124476   0.967   5.871   6.797
 7859SOL    HW224477   0.898   5.911   6.654
 7860SOL     OW24478   3.439   0.137   1.713
 7860SOL    HW124479   3.536   0.157   1.701
 7860SOL    HW224480   3.385   0.218   1.691
 7861SOL     OW24481   5.654   4.272   0.513
 7861SOL    HW124482   5.565   4.273   0.559
 7861SOL    HW224483   5.726   4.292   0.580
 7862SOL     OW24484   3.298   4.641   1.386
 7862SOL    HW124485   3.241   4.689   1.319
 7862SOL    HW224486   3.270   4.545   1.390
 7863SOL     OW24487   5.946   5.859   2.776
 7863SOL    HW124488   5.966   5.931   2.710
 7863SOL    HW224489   5.973   5.770   2.738
 7864SOL     OW24490   0.783   5.670   4.254
 7864SOL    HW124491   0.763   5.590   4.196
 7864SOL    HW224492   0.864   5.717   4.218
 7865SOL     OW24493   3.626   0.774   2.690
 7865SOL    HW124494   3.566   0.698   2.669
 7865SOL    HW224495   3.575   0.860   2.686
 7866SOL     OW24496   2.534   2.360   3.917
 7866SOL    HW124497   2.532   2.457   3.943
 7866SOL    HW224498   2.554   2.304   3.997
 7867SOL     OW24499   5.808   3.776   2.110
 7867SOL    HW124500   5.708   3.782   2.109
 7867SOL    HW224501   5.836   3.681   2.100
 7868SOL     OW24502   5.524   6.731   0.956
 7868SOL    HW124503   5.424   6.722   0.953
 7868SOL    HW224504   5.550   6.782   1.037
 7869SOL     OW24505   6.621   2.023   3.855
 7869SOL    HW124506   6.588   1.938   3.896
 7869SOL    HW224507   6.588   2.029   3.761
 7870SOL     OW24508   0.089   6.790   3.111
 7870SOL    HW124509   0.111   6.694   3.129
 7870SOL    HW224510   0.076   6.838   3.198
 7871SOL     OW24511   5.500   3.259   3.772
 7871SOL    HW124512   5.558   3.331   3.733
 7871SOL    HW224513   5.408   3.295   3.787
 7872SOL     OW24514   6.507   3.213   4.043
 7872SOL    HW124515   6.439   3.156   4.088
 7872SOL    HW224516   6.532   3.173   3.955
 7873SOL     OW24517   6.941   5.174   5.242
 7873SOL    HW124518   6.845   5.156   5.222
 7873SOL    HW224519   6.957   5.166   5.341
 7874SOL     OW24520   6.108   1.217   0.587
 7874SOL    HW124521   6.141   1.293   0.643
 7874SOL    HW224522   6.043   1.162   0.640
 7875SOL     OW24523   4.534   3.421   6.702
 7875SOL    HW124524   4.496   3.497   6.648
 7875SOL    HW224525   4.627   3.402   6.671
 7876SOL     OW24526   6.760   0.760   4.414
 7876SOL    HW124527   6.789   0.785   4.322
 7876SOL    HW224528   6.660   0.767   4.421
 7877SOL     OW24529   6.464   2.509   2.617
 7877SOL    HW124530   6.438   2.429   2.563
 7877SOL    HW224531   6.507   2.577   2.557
 7878SOL     OW24532   4.508   4.271   1.251
 7878SOL    HW124533   4.497   4.353   1.195
 7878SOL    HW224534   4.605   4.252   1.265
 7879SOL     OW24535   5.345   0.866   5.506
 7879SOL    HW124536   5.432   0.841   5.547
 7879SOL    HW224537   5.280   0.791   5.518
 7880SOL     OW24538   0.841   6.829   6.200
 7880SOL    HW124539   0.795   6.875   6.123
 7880SOL    HW224540   0.845   6.731   6.183
 7881SOL     OW24541   0.678   5.318   3.475
 7881SOL    HW124542   0.578   5.320   3.479
 7881SOL    HW224543   0.716   5.340   3.565
 7882SOL     OW24544   0.824   4.445   1.834
 7882SOL    HW124545   0.888   4.484   1.901
 7882SOL    HW224546   0.734   4.438   1.876
 7883SOL     OW24547   3.665   2.133   3.487
 7883SOL    HW124548   3.755   2.140   3.443
 7883SOL    HW224549   3.607   2.072   3.433
 7884SOL     OW24550   0.993   3.793   4.651
 7884SOL    HW124551   1.023   3.861   4.717
 7884SOL    HW224552   1.058   3.790   4.575
 7885SOL     OW24553   5.483   5.283   3.336
 7885SOL    HW124554   5.537   5.327   3.264
 7885SOL    HW224555   5.424   5.213   3.295
 7886SOL     OW24556   4.959   3.429   2.946
 7886SOL    HW124557   4.942   3.511   3.001
 7886SOL    HW224558   4.901   3.355   2.979
 7887SOL     OW24559   2.103   2.647   1.547
 7887SOL    HW124560   2.173   2.705   1.507
 7887SOL    HW224561   2.107   2.653   1.647
 7888SOL     OW24562   6.118   0.734   4.851
 7888SOL    HW124563   6.049   0.806   4.857
 7888SOL    HW224564   6.170   0.731   4.936
 7889SOL     OW24565   5.785   4.906   0.059
 7889SOL    HW124566   5.713   4.891   0.128
 7889SOL    HW224567   5.838   4.987   0.084
 7890SOL     OW24568   2.127   3.196   4.302
 7890SOL    HW124569   2.148   3.147   4.386
 7890SOL    HW224570   2.101   3.131   4.231
 7891SOL     OW24571   6.220   2.048   4.245
 7891SOL    HW124572   6.199   1.965   4.193
 7891SOL    HW224573   6.287   2.027   4.316
 7892SOL     OW24574   0.848   1.516   5.215
 7892SOL    HW124575   0.813   1.574   5.142
 7892SOL    HW224576   0.941   1.486   5.192
 7893SOL     OW24577   5.330   0.388   0.039
 7893SOL    HW124578   5.289   0.461   0.093
 7893SOL    HW224579   5.415   0.419   7.022
 7894SOL     OW24580   3.283   1.613   6.061
 7894SOL    HW124581   3.340   1.660   6.128
 7894SOL    HW224582   3.276   1.669   5.978
 7895SOL     OW24583   5.675   6.817   2.900
 7895SOL    HW124584   5.640   6.826   2.993
 7895SOL    HW224585   5.700   6.722   2.883
 7896SOL     OW24586   2.493   2.164   0.761
 7896SOL    HW124587   2.501   2.256   0.799
 7896SOL    HW224588   2.461   2.101   0.831
 7897SOL     OW24589   3.294   2.672   0.583
 7897SOL    HW124590   3.238   2.716   0.653
 7897SOL    HW224591   3.262   2.578   0.568
 7898SOL     OW24592   5.594   6.721   3.560
 7898SOL    HW124593   5.650   6.797   3.593
 7898SOL    HW224594   5.535   6.688   3.634
 7899SOL     OW24595   6.227   4.177   4.247
 7899SOL    HW124596   6.276   4.139   4.169
 7899SOL    HW224597   6.291   4.221   4.310
 7900SOL     OW24598   1.047   3.527   1.184
 7900SOL    HW124599   1.131   3.475   1.198
 7900SOL    HW224600   1.069   3.615   1.140
 7901SOL     OW24601   0.628   1.714   6.523
 7901SOL    HW124602   0.697   1.686   6.589
 7901SOL    HW224603   0.586   1.633   6.482
 7902SOL     OW24604   1.390   0.177   2.513
 7902SOL    HW124605   1.442   0.257   2.544
 7902SOL    HW224606   1.397   0.169   2.413
 7903SOL     OW24607   2.327   2.023   5.285
 7903SOL    HW124608   2.243   2.065   5.321
 7903SOL    HW224609   2.389   2.095   5.254
 7904SOL     OW24610   4.605   1.917   2.747
 7904SOL    HW124611   4.624   1.832   2.698
 7904SOL    HW224612   4.650   1.993   2.701
 7905SOL     OW24613   5.073   1.744   0.795
 7905SOL    HW124614   5.002   1.684   0.758
 7905SOL    HW224615   5.030   1.814   0.852
 7906SOL     OW24616   1.203   5.175   0.719
 7906SOL    HW124617   1.117   5.130   0.696
 7906SOL    HW224618   1.214   5.256   0.662
 7907SOL     OW24619   5.863   6.991   2.749
 7907SOL    HW124620   5.819   6.911   2.789
 7907SOL    HW224621   5.942   6.962   2.695
 7908SOL     OW24622   0.649   0.147   6.521
 7908SOL    HW124623   0.657   0.171   6.425
 7908SOL    HW224624   0.670   0.050   6.533
 7909SOL     OW24625   5.775   3.840   2.410
 7909SOL    HW124626   5.812   3.845   2.318
 7909SOL    HW224627   5.719   3.757   2.419
 7910SOL     OW24628   0.722   3.666   6.555
 7910SOL    HW124629   0.711   3.715   6.642
 7910SOL    HW224630   0.698   3.727   6.479
 7911SOL     OW24631   0.197   4.292   6.297
 7911SOL    HW124632   0.147   4.206   6.286
 7911SOL    HW224633   0.261   4.304   6.221
 7912SOL     OW24634   6.513   5.197   1.074
 7912SOL    HW124635   6.447   5.136   1.118
 7912SOL    HW224636   6.554   5.257   1.143
 7913SOL     OW24637   1.300   4.630   0.832
 7913SOL    HW124638   1.286   4.672   0.742
 7913SOL    HW224639   1.314   4.701   0.900
 7914SOL     OW24640   0.090   6.983   5.064
 7914SOL    HW124641   0.156   6.982   4.989
 7914SOL    HW224642   0.087   6.892   5.106
 7915SOL     OW24643   3.605   5.758   3.005
 7915SOL    HW124644   3.547   5.743   2.926
 7915SOL    HW224645   3.669   5.681   3.015
 7916SOL     OW24646   0.648   0.072   4.629
 7916SOL    HW124647   0.720   0.007   4.654
 7916SOL    HW224648   0.577   0.024   4.577
 7917SOL     OW24649   3.863   2.859   1.226
 7917SOL    HW124650   3.955   2.873   1.261
 7917SOL    HW224651   3.828   2.771   1.256
 7918SOL     OW24652   2.061   2.346   3.599
 7918SOL    HW124653   2.094   2.252   3.602
 7918SOL    HW224654   1.962   2.347   3.582
 7919SOL     OW24655   1.589   6.396   4.990
 7919SOL    HW124656   1.666   6.372   5.050
 7919SOL    HW224657   1.607   6.361   4.898
 7920SOL     OW24658   5.162   0.541   0.976
 7920SOL    HW124659   5.185   0.630   1.016
 7920SOL    HW224660   5.063   0.526   0.983
 7921SOL     OW24661   5.950   2.700   1.220
 7921SOL    HW124662   5.917   2.717   1.312
 7921SOL    HW224663   5.937   2.603   1.197
 7922SOL     OW24664   2.511   6.274   1.727
 7922SOL    HW124665   2.422   6.320   1.726
 7922SOL    HW224666   2.583   6.340   1.746
 7923SOL     OW24667   5.103   1.028   0.171
 7923SOL    HW124668   5.027   1.092   0.176
 7923SOL    HW224669   5.112   0.995   0.077
 7924SOL     OW24670   6.370   6.326   0.388
 7924SOL    HW124671   6.438   6.256   0.410
 7924SOL    HW224672   6.299   6.286   0.330
 7925SOL     OW24673   1.730   5.424   6.539
 7925SOL    HW124674   1.663   5.418   6.613
 7925SOL    HW224675   1.763   5.333   6.515
 7926SOL     OW24676   4.721   5.801   0.033
 7926SOL    HW124677   4.809   5.836   0.066
 7926SOL    HW224678   4.687   5.733   0.098
 7927SOL     OW24679   4.280   6.998   2.459
 7927SOL    HW124680   4.240   0.066   2.464
 7927SOL    HW224681   4.360   6.993   2.518
 7928SOL     OW24682   5.445   2.087   3.470
 7928SOL    HW124683   5.413   2.070   3.377
 7928SOL    HW224684   5.437   2.004   3.524
 7929SOL     OW24685   4.347   4.215   6.482
 7929SOL    HW124686   4.411   4.233   6.408
 7929SOL    HW224687   4.304   4.126   6.469
 7930SOL     OW24688   4.418   6.189   6.291
 7930SOL    HW124689   4.415   6.274   6.240
 7930SOL    HW224690   4.513   6.165   6.311
 7931SOL     OW24691   4.413   2.420   0.939
 7931SOL    HW124692   4.393   2.474   1.021
 7931SOL    HW224693   4.479   2.469   0.883
 7932SOL     OW24694   1.612   3.961   2.091
 7932SOL    HW124695   1.618   3.877   2.037
 7932SOL    HW224696   1.524   3.966   2.137
 7933SOL     OW24697   0.947   1.985   6.779
 7933SOL    HW124698   0.903   2.015   6.694
 7933SOL    HW224699   1.006   1.906   6.761
 7934SOL     OW24700   0.789   5.500   0.952
 7934SOL    HW124701   0.885   5.501   0.925
 7934SOL    HW224702   0.774   5.566   1.025
 7935SOL     OW24703   5.105   3.031   2.979
 7935SOL    HW124704   5.145   2.952   3.025
 7935SOL    HW224705   5.153   3.114   3.008
 7936SOL     OW24706   2.860   5.682   3.607
 7936SOL    HW124707   2.903   5.592   3.602
 7936SOL    HW224708   2.870   5.719   3.699
 7937SOL     OW24709   3.216   0.653   6.924
 7937SOL    HW124710   3.181   0.737   6.884
 7937SOL    HW224711   3.192   0.649   7.021
 7938SOL     OW24712   2.509   6.564   4.154
 7938SOL    HW124713   2.567   6.541   4.076
 7938SOL    HW224714   2.507   6.663   4.166
 7939SOL     OW24715   0.560   1.516   3.693
 7939SOL    HW124716   0.607   1.429   3.681
 7939SOL    HW224717   0.561   1.566   3.606
 7940SOL     OW24718   5.658   1.181   3.897
 7940SOL    HW124719   5.678   1.265   3.948
 7940SOL    HW224720   5.605   1.119   3.955
 7941SOL     OW24721   3.708   7.018   0.988
 7941SOL    HW124722   3.675   0.052   0.913
 7941SOL    HW224723   3.638   7.014   1.060
 7942SOL     OW24724   1.395   5.161   0.414
 7942SOL    HW124725   1.468   5.162   0.345
 7942SOL    HW224726   1.423   5.101   0.490
 7943SOL     OW24727   1.426   6.239   6.128
 7943SOL    HW124728   1.378   6.301   6.066
 7943SOL    HW224729   1.522   6.267   6.134
 7944SOL     OW24730   1.512   2.581   1.728
 7944SOL    HW124731   1.602   2.624   1.738
 7944SOL    HW224732   1.470   2.571   1.818
 7945SOL     OW24733   6.354   4.146   3.717
 7945SOL    HW124734   6.329   4.193   3.801
 7945SOL    HW224735   6.289   4.072   3.699
 7946SOL     OW24736   4.030   0.892   6.536
 7946SOL    HW124737   4.022   0.945   6.451
 7946SOL    HW224738   3.965   0.928   6.603
 7947SOL     OW24739   0.031   3.731   6.513
 7947SOL    HW124740   0.071   3.659   6.569
 7947SOL    HW224741   0.072   3.730   6.422
 7948SOL     OW24742   1.863   5.272   3.066
 7948SOL    HW124743   1.904   5.181   3.064
 7948SOL    HW224744   1.932   5.340   3.041
 7949SOL     OW24745   3.204   5.847   6.693
 7949SOL    HW124746   3.144   5.921   6.662
 7949SOL    HW224747   3.266   5.822   6.619
 7950SOL     OW24748   5.853   4.467   5.449
 7950SOL    HW124749   5.811   4.376   5.453
 7950SOL    HW224750   5.940   4.465   5.497
 7951SOL     OW24751   4.210   5.806   2.548
 7951SOL    HW124752   4.309   5.794   2.554
 7951SOL    HW224753   4.185   5.833   2.456
 7952SOL     OW24754   6.085   4.630   6.583
 7952SOL    HW124755   6.162   4.636   6.519
 7952SOL    HW224756   6.119   4.617   6.676
 7953SOL     OW24757   1.816   6.742   0.538
 7953SOL    HW124758   1.810   6.644   0.559
 7953SOL    HW224759   1.876   6.786   0.605
 7954SOL     OW24760   4.069   4.370   6.852
 7954SOL    HW124761   4.003   4.345   6.781
 7954SOL    HW224762   4.021   4.411   6.929
 7955SOL     OW24763   1.829   1.736   6.640
 7955SOL    HW124764   1.870   1.807   6.698
 7955SOL    HW224765   1.747   1.773   6.596
 7956SOL     OW24766   6.667   6.366   0.595
 7956SOL    HW124767   6.653   6.338   0.690
 7956SOL    HW224768   6.639   6.292   0.533
 7957SOL     OW24769   4.822   1.311   5.818
 7957SOL    HW124770   4.745   1.372   5.836
 7957SOL    HW224771   4.797   1.218   5.842
 7958SOL     OW24772   5.627   2.636   0.185
 7958SOL    HW124773   5.714   2.586   0.185
 7958SOL    HW224774   5.561   2.587   0.127
 7959SOL     OW24775   6.203   1.967   6.740
 7959SOL    HW124776   6.125   2.022   6.711
 7959SOL    HW224777   6.202   1.959   6.840
 7960SOL     OW24778   0.298   1.111   5.375
 7960SOL    HW124779   0.385   1.092   5.421
 7960SOL    HW224780   0.307   1.089   5.278
 7961SOL     OW24781   6.391   6.180   7.003
 7961SOL    HW124782   6.409   6.256   6.941
 7961SOL    HW224783   6.340   6.109   6.954
 7962SOL     OW24784   5.809   6.888   5.635
 7962SOL    HW124785   5.835   6.922   5.545
 7962SOL    HW224786   5.838   6.952   5.706
 7963SOL     OW24787   6.676   6.814   4.277
 7963SOL    HW124788   6.732   6.894   4.299
 7963SOL    HW224789   6.725   6.754   4.214
 7964SOL     OW24790   6.805   3.864   2.140
 7964SOL    HW124791   6.896   3.900   2.118
 7964SOL    HW224792   6.736   3.913   2.085
 7965SOL     OW24793   4.168   2.535   6.170
 7965SOL    HW124794   4.118   2.621   6.182
 7965SOL    HW224795   4.177   2.516   6.072
 7966SOL     OW24796   4.970   3.548   4.824
 7966SOL    HW124797   5.044   3.615   4.838
 7966SOL    HW224798   4.904   3.555   4.899
 7967SOL     OW24799   1.547   4.100   1.414
 7967SOL    HW124800   1.624   4.097   1.478
 7967SOL    HW224801   1.579   4.072   1.323
 7968SOL     OW24802   0.413   2.587   4.987
 7968SOL    HW124803   0.511   2.601   5.006
 7968SOL    HW224804   0.361   2.602   5.071
 7969SOL     OW24805   4.147   5.721   6.337
 7969SOL    HW124806   4.071   5.786   6.338
 7969SOL    HW224807   4.151   5.673   6.424
 7970SOL     OW24808   6.206   2.640   3.333
 7970SOL    HW124809   6.259   2.555   3.329
 7970SOL    HW224810   6.123   2.625   3.387
 7971SOL     OW24811   2.632   1.427   0.064
 7971SOL    HW124812   2.695   1.455   0.135
 7971SOL    HW224813   2.548   1.391   0.105
 7972SOL     OW24814   3.959   3.813   3.892
 7972SOL    HW124815   3.963   3.848   3.986
 7972SOL    HW224816   3.871   3.838   3.851
 7973SOL     OW24817   6.139   4.226   2.398
 7973SOL    HW124818   6.079   4.296   2.358
 7973SOL    HW224819   6.199   4.269   2.466
 7974SOL     OW24820   6.956   2.782   5.808
 7974SOL    HW124821   6.938   2.818   5.899
 7974SOL    HW224822   6.888   2.712   5.785
 7975SOL     OW24823   5.631   7.006   0.873
 7975SOL    HW124824   5.628   6.906   0.885
 7975SOL    HW224825   5.615   0.005   0.777
 7976SOL     OW24826   0.581   0.922   0.997
 7976SOL    HW124827   0.615   0.829   1.011
 7976SOL    HW224828   0.632   0.985   1.056
 7977SOL     OW24829   5.093   5.971   4.050
 7977SOL    HW124830   4.998   5.951   4.075
 7977SOL    HW224831   5.141   6.007   4.130
 7978SOL     OW24832   0.207   4.338   1.613
 7978SOL    HW124833   0.287   4.302   1.565
 7978SOL    HW224834   0.228   4.429   1.649
 7979SOL     OW24835   1.842   2.226   4.652
 7979SOL    HW124836   1.793   2.202   4.736
 7979SOL    HW224837   1.898   2.307   4.668
 7980SOL     OW24838   4.200   5.662   0.208
 7980SOL    HW124839   4.236   5.646   0.116
 7980SOL    HW224840   4.222   5.755   0.237
 7981SOL     OW24841   1.581   4.678   3.891
 7981SOL    HW124842   1.485   4.687   3.915
 7981SOL    HW224843   1.593   4.596   3.835
 7982SOL     OW24844   6.383   1.182   5.726
 7982SOL    HW124845   6.333   1.145   5.804
 7982SOL    HW224846   6.332   1.163   5.642
 7983SOL     OW24847   4.613   0.390   1.918
 7983SOL    HW124848   4.628   0.480   1.959
 7983SOL    HW224849   4.551   0.399   1.840
 7984SOL     OW24850   0.538   2.238   3.027
 7984SOL    HW124851   0.444   2.227   3.060
 7984SOL    HW224852   0.563   2.334   3.028
 7985SOL     OW24853   2.893   2.959   5.595
 7985SOL    HW124854   2.922   2.959   5.691
 7985SOL    HW224855   2.806   3.008   5.587
 7986SOL     OW24856   3.470   1.042   4.276
 7986SOL    HW124857   3.453   1.141   4.274
 7986SOL    HW224858   3.450   1.003   4.186
 7987SOL     OW24859   0.850   3.834   0.116
 7987SOL    HW124860   0.837   3.763   0.046
 7987SOL    HW224861   0.827   3.796   0.206
 7988SOL     OW24862   6.672   1.128   2.326
 7988SOL    HW124863   6.748   1.148   2.389
 7988SOL    HW224864   6.709   1.106   2.236
 7989SOL     OW24865   0.295   4.394   1.206
 7989SOL    HW124866   0.247   4.392   1.118
 7989SOL    HW224867   0.312   4.301   1.238
 7990SOL     OW24868   4.725   5.871   5.372
 7990SOL    HW124869   4.788   5.948   5.359
 7990SOL    HW224870   4.664   5.892   5.449
 7991SOL     OW24871   5.917   0.749   5.138
 7991SOL    HW124872   5.950   0.842   5.124
 7991SOL    HW224873   5.860   0.722   5.061
 7992SOL     OW24874   2.482   6.769   6.970
 7992SOL    HW124875   2.558   6.706   6.987
 7992SOL    HW224876   2.494   6.851   0.002
 7993SOL     OW24877   6.384   5.890   0.471
 7993SOL    HW124878   6.424   5.929   0.387
 7993SOL    HW224879   6.285   5.905   0.470
 7994SOL     OW24880   5.953   0.013   4.036
 7994SOL    HW124881   5.951   6.942   4.070
 7994SOL    HW224882   5.863   0.036   3.999
 7995SOL     OW24883   0.676   4.980   1.445
 7995SOL    HW124884   0.685   4.885   1.416
 7995SOL    HW224885   0.580   5.008   1.439
 7996SOL     OW24886   3.173   6.885   3.412
 7996SOL    HW124887   3.236   6.820   3.369
 7996SOL    HW224888   3.134   6.945   3.342
 7997SOL     OW24889   1.480   1.452   6.051
 7997SOL    HW124890   1.560   1.508   6.075
 7997SOL    HW224891   1.438   1.416   6.134
 7998SOL     OW24892   2.128   0.953   0.368
 7998SOL    HW124893   2.084   0.869   0.336
 7998SOL    HW224894   2.171   1.000   0.291
 7999SOL     OW24895   1.032   0.150   4.433
 7999SOL    HW124896   1.082   0.177   4.516
 7999SOL    HW224897   1.078   0.072   4.391
 8000SOL     OW24898   4.008   5.351   0.460
 8000SOL    HW124899   3.980   5.447   0.458
 8000SOL    HW224900   4.013   5.320   0.555
 8001SOL     OW24901   4.165   5.637   1.021
 8001SOL    HW124902   4.246   5.624   0.962
 8001SOL    HW224903   4.192   5.688   1.103
 8002SOL     OW24904   0.980   0.232   5.756
 8002SOL    HW124905   0.931   0.319   5.750
 8002SOL    HW224906   1.009   0.204   5.664
 8003SOL     OW24907   2.375   5.473   2.240
 8003SOL    HW124908   2.329   5.558   2.216
 8003SOL    HW224909   2.329   5.396   2.194
 8004SOL     OW24910   0.949   3.109   3.960
 8004SOL    HW124911   0.854   3.136   3.943
 8004SOL    HW224912   0.973   3.131   4.055
 8005SOL     OW24913   2.300   0.553   2.921
 8005SOL    HW124914   2.344   0.605   2.848
 8005SOL    HW224915   2.331   0.458   2.917
 8006SOL     OW24916   3.740   4.742   5.266
 8006SOL    HW124917   3.732   4.644   5.248
 8006SOL    HW224918   3.730   4.760   5.363
 8007SOL     OW24919   6.836   0.904   0.592
 8007SOL    HW124920   6.739   0.882   0.595
 8007SOL    HW224921   6.885   0.833   0.541
 8008SOL     OW24922   5.392   6.281   0.085
 8008SOL    HW124923   5.334   6.351   0.128
 8008SOL    HW224924   5.402   6.204   0.148
 8009SOL     OW24925   5.528   1.236   6.812
 8009SOL    HW124926   5.477   1.315   6.846
 8009SOL    HW224927   5.596   1.208   6.880
 8010SOL     OW24928   3.013   0.447   5.689
 8010SOL    HW124929   2.952   0.466   5.766
 8010SOL    HW224930   2.960   0.412   5.612
 8011SOL     OW24931   3.882   2.088   3.287
 8011SOL    HW124932   3.849   2.050   3.201
 8011SOL    HW224933   3.965   2.140   3.270
 8012SOL     OW24934   6.093   1.749   4.239
 8012SOL    HW124935   6.050   1.749   4.148
 8012SOL    HW224936   6.035   1.799   4.303
 8013SOL     OW24937   3.251   1.154   2.204
 8013SOL    HW124938   3.231   1.252   2.203
 8013SOL    HW224939   3.254   1.121   2.298
 8014SOL     OW24940   1.990   2.234   2.794
 8014SOL    HW124941   2.039   2.204   2.713
 8014SOL    HW224942   1.982   2.158   2.859
 8015SOL     OW24943   3.458   6.993   5.068
 8015SOL    HW124944   3.411   6.905   5.063
 8015SOL    HW224945   3.447   0.018   4.981
 8016SOL     OW24946   3.532   2.112   5.181
 8016SOL    HW124947   3.492   2.169   5.252
 8016SOL    HW224948   3.601   2.164   5.131
 8017SOL     OW24949   6.546   6.002   0.792
 8017SOL    HW124950   6.613   5.976   0.722
 8017SOL    HW224951   6.511   6.094   0.773
 8018SOL     OW24952   4.266   2.189   6.947
 8018SOL    HW124953   4.307   2.263   6.894
 8018SOL    HW224954   4.265   2.106   6.892
 8019SOL     OW24955   2.653   3.412   0.763
 8019SOL    HW124956   2.645   3.492   0.822
 8019SOL    HW224957   2.747   3.404   0.730
 8020SOL     OW24958   0.786   0.784   5.548
 8020SOL    HW124959   0.827   0.861   5.498
 8020SOL    HW224960   0.733   0.727   5.484
 8021SOL     OW24961   1.340   2.297   1.185
 8021SOL    HW124962   1.265   2.318   1.248
 8021SOL    HW224963   1.324   2.345   1.098
 8022SOL     OW24964   4.859   0.985   2.076
 8022SOL    HW124965   4.862   0.892   2.112
 8022SOL    HW224966   4.824   0.984   1.982
 8023SOL     OW24967   4.978   5.833   1.366
 8023SOL    HW124968   5.071   5.870   1.368
 8023SOL    HW224969   4.956   5.796   1.456
 8024SOL     OW24970   2.642   1.376   6.582
 8024SOL    HW124971   2.597   1.335   6.502
 8024SOL    HW224972   2.645   1.475   6.571
 8025SOL     OW24973   1.288   5.739   1.905
 8025SOL    HW124974   1.265   5.692   1.990
 8025SOL    HW224975   1.308   5.671   1.834
 8026SOL     OW24976   0.370   6.350   6.508
 8026SOL    HW124977   0.380   6.356   6.607
 8026SOL    HW224978   0.277   6.318   6.486
 8027SOL     OW24979   3.621   0.659   6.732
 8027SOL    HW124980   3.551   0.669   6.802
 8027SOL    HW224981   3.588   0.697   6.646
 8028SOL     OW24982   3.111   5.710   5.206
 8028SOL    HW124983   3.147   5.620   5.225
 8028SOL    HW224984   3.087   5.717   5.109
 8029SOL     OW24985   0.651   0.144   0.378
 8029SOL    HW124986   0.714   0.207   0.334
 8029SOL    HW224987   0.563   0.190   0.392
 8030SOL     OW24988   0.800   4.152   0.854
 8030SOL    HW124989   0.732   4.155   0.781
 8030SOL    HW224990   0.819   4.056   0.878
 8031SOL     OW24991   0.053   0.319   3.430
 8031SOL    HW124992   0.101   0.401   3.462
 8031SOL    HW224993   7.017   0.344   3.353
 8032SOL     OW24994   6.993   3.001   1.060
 8032SOL    HW124995   0.024   2.925   1.098
 8032SOL    HW224996   7.008   3.007   0.962
 8033SOL     OW24997   4.480   4.011   1.057
 8033SOL    HW124998   4.384   4.028   1.034
 8033SOL    HW224999   4.507   4.071   1.132
 8034SOL     OW25000   6.257   0.124   6.153
 8034SOL    HW125001   6.245   0.043   6.210
 8034SOL    HW225002   6.332   0.180   6.189
 8035SOL     OW25003   6.291   1.364   2.965
 8035SOL    HW125004   6.283   1.398   3.059
 8035SOL    HW225005   6.387   1.345   2.945
 8036SOL     OW25006   5.286   2.677   4.452
 8036SOL    HW125007   5.366   2.719   4.495
 8036SOL    HW225008   5.287   2.696   4.354
 8037SOL     OW25009   1.977   1.660   5.715
 8037SOL    HW125010   2.033   1.672   5.797
 8037SOL    HW225011   2.028   1.607   5.647
 8038SOL     OW25012   6.992   5.168   2.210
 8038SOL    HW125013   0.005   5.202   2.297
 8038SOL    HW225014   6.932   5.237   2.170
 8039SOL     OW25015   1.401   2.219   5.312
 8039SOL    HW125016   1.337   2.295   5.298
 8039SOL    HW225017   1.351   2.132   5.307
 8040SOL     OW25018   1.483   5.091   6.698
 8040SOL    HW125019   1.412   5.056   6.759
 8040SOL    HW225020   1.459   5.070   6.603
 8041SOL     OW25021   3.466   1.703   3.016
 8041SOL    HW125022   3.531   1.694   3.091
 8041SOL    HW225023   3.493   1.642   2.941
 8042SOL     OW25024   4.233   4.351   5.759
 8042SOL    HW125025   4.159   4.347   5.826
 8042SOL    HW225026   4.306   4.410   5.793
 8043SOL     OW25027   5.120   5.683   6.527
 8043SOL    HW125028   5.139   5.627   6.446
 8043SOL    HW225029   5.054   5.754   6.503
 8044SOL     OW25030   2.745   3.463   1.764
 8044SOL    HW125031   2.647   3.463   1.744
 8044SOL    HW225032   2.765   3.536   1.829
 8045SOL     OW25033   6.678   2.659   3.812
 8045SOL    HW125034   6.607   2.628   3.875
 8045SOL    HW225035   6.746   2.586   3.801
 8046SOL     OW25036   6.737   4.668   2.317
 8046SOL    HW125037   6.831   4.636   2.327
 8046SOL    HW225038   6.680   4.595   2.278
 8047SOL     OW25039   3.214   5.974   6.930
 8047SOL    HW125040   3.234   5.930   6.842
 8047SOL    HW225041   3.136   5.928   6.973
 8048SOL     OW25042   3.744   2.486   6.032
 8048SOL    HW125043   3.773   2.412   6.092
 8048SOL    HW225044   3.820   2.514   5.973
 8049SOL     OW25045   1.936   2.114   0.836
 8049SOL    HW125046   1.870   2.135   0.908
 8049SOL    HW225047   1.888   2.101   0.750
 8050SOL     OW25048   1.047   5.318   5.658
 8050SOL    HW125049   1.121   5.303   5.723
 8050SOL    HW225050   1.082   5.367   5.579
 8051SOL     OW25051   4.365   6.779   3.362
 8051SOL    HW125052   4.439   6.749   3.302
 8051SOL    HW225053   4.277   6.761   3.318
 8052SOL     OW25054   3.120   1.704   2.350
 8052SOL    HW125055   3.192   1.745   2.406
 8052SOL    HW225056   3.031   1.737   2.381
 8053SOL     OW25057   2.328   2.427   6.581
 8053SOL    HW125058   2.383   2.470   6.509
 8053SOL    HW225059   2.232   2.452   6.569
 8054SOL     OW25060   4.938   3.297   5.327
 8054SOL    HW125061   4.980   3.297   5.418
 8054SOL    HW225062   4.839   3.293   5.336
 8055SOL     OW25063   5.708   0.858   0.032
 8055SOL    HW125064   5.657   0.811   0.103
 8055SOL    HW225065   5.712   0.801   6.973
 8056SOL     OW25066   2.373   0.644   3.910
 8056SOL    HW125067   2.448   0.667   3.849
 8056SOL    HW225068   2.362   0.545   3.915
 8057SOL     OW25069   2.955   2.101   1.872
 8057SOL    HW125070   2.919   2.178   1.924
 8057SOL    HW225071   2.969   2.129   1.777
 8058SOL     OW25072   3.586   6.807   1.971
 8058SOL    HW125073   3.661   6.779   1.911
 8058SOL    HW225074   3.543   6.726   2.010
 8059SOL     OW25075   3.050   2.547   5.914
 8059SOL    HW125076   3.131   2.594   5.879
 8059SOL    HW225077   3.037   2.462   5.863
 8060SOL     OW25078   6.444   0.769   6.402
 8060SOL    HW125079   6.392   0.740   6.483
 8060SOL    HW225080   6.392   0.747   6.320
 8061SOL     OW25081   0.368   0.300   2.660
 8061SOL    HW125082   0.323   0.385   2.633
 8061SOL    HW225083   0.393   0.304   2.756
 8062SOL     OW25084   4.118   5.762   5.280
 8062SOL    HW125085   4.203   5.709   5.289
 8062SOL    HW225086   4.124   5.844   5.337
 8063SOL     OW25087   3.445   5.047   2.750
 8063SOL    HW125088   3.482   5.018   2.661
 8063SOL    HW225089   3.369   4.987   2.775
 8064SOL     OW25090   6.399   1.980   0.354
 8064SOL    HW125091   6.398   2.065   0.406
 8064SOL    HW225092   6.489   1.936   0.363
 8065SOL     OW25093   4.307   5.776   6.116
 8065SOL    HW125094   4.285   5.860   6.066
 8065SOL    HW225095   4.242   5.763   6.191
 8066SOL     OW25096   0.464   6.870   5.800
 8066SOL    HW125097   0.522   6.947   5.771
 8066SOL    HW225098   0.443   6.813   5.721
 8067SOL     OW25099   4.917   2.254   3.545
 8067SOL    HW125100   4.943   2.274   3.639
 8067SOL    HW225101   4.998   2.241   3.489
 8068SOL     OW25102   5.996   3.999   1.391
 8068SOL    HW125103   6.063   3.930   1.365
 8068SOL    HW225104   5.916   3.955   1.431
 8069SOL     OW25105   2.200   4.673   3.087
 8069SOL    HW125106   2.169   4.645   3.178
 8069SOL    HW225107   2.173   4.604   3.020
 8070SOL     OW25108   4.541   4.504   0.655
 8070SOL    HW125109   4.501   4.430   0.602
 8070SOL    HW225110   4.640   4.506   0.641
 8071SOL     OW25111   2.446   0.177   6.119
 8071SOL    HW125112   2.498   0.098   6.152
 8071SOL    HW225113   2.372   0.198   6.183
 8072SOL     OW25114   2.143   1.535   5.543
 8072SOL    HW125115   2.145   1.590   5.459
 8072SOL    HW225116   2.227   1.481   5.549
 8073SOL     OW25117   4.728   0.700   6.490
 8073SOL    HW125118   4.676   0.642   6.427
 8073SOL    HW225119   4.811   0.732   6.443
 8074SOL     OW25120   1.544   1.238   6.472
 8074SOL    HW125121   1.614   1.173   6.443
 8074SOL    HW225122   1.531   1.232   6.571
 8075SOL     OW25123   0.154   6.913   1.099
 8075SOL    HW125124   0.070   6.870   1.067
 8075SOL    HW225125   0.163   6.901   1.198
 8076SOL     OW25126   0.023   6.437   0.247
 8076SOL    HW125127   0.071   6.512   0.200
 8076SOL    HW225128   0.090   6.366   0.272
 8077SOL     OW25129   4.818   4.535   0.599
 8077SOL    HW125130   4.858   4.564   0.513
 8077SOL    HW225131   4.849   4.443   0.622
 8078SOL     OW25132   0.206   1.420   1.564
 8078SOL    HW125133   0.108   1.410   1.548
 8078SOL    HW225134   0.244   1.332   1.592
 8079SOL     OW25135   1.829   1.107   5.714
 8079SOL    HW125136   1.834   1.034   5.782
 8079SOL    HW225137   1.738   1.109   5.674
 8080SOL     OW25138   0.898   3.222   3.204
 8080SOL    HW125139   0.834   3.201   3.131
 8080SOL    HW225140   0.918   3.140   3.257
 8081SOL     OW25141   5.422   6.337   5.075
 8081SOL    HW125142   5.441   6.322   5.172
 8081SOL    HW225143   5.371   6.258   5.039
 8082SOL     OW25144   3.872   1.643   3.470
 8082SOL    HW125145   3.905   1.550   3.455
 8082SOL    HW225146   3.939   1.708   3.434
 8083SOL     OW25147   5.642   2.407   4.495
 8083SOL    HW125148   5.572   2.467   4.532
 8083SOL    HW225149   5.680   2.350   4.567
 8084SOL     OW25150   3.630   1.541   5.969
 8084SOL    HW125151   3.635   1.543   6.069
 8084SOL    HW225152   3.715   1.504   5.932
 8085SOL     OW25153   1.881   6.133   4.661
 8085SOL    HW125154   1.876   6.175   4.570
 8085SOL    HW225155   1.961   6.074   4.666
 8086SOL     OW25156   6.899   0.591   2.165
 8086SOL    HW125157   6.887   0.678   2.118
 8086SOL    HW225158   6.883   0.516   2.100
 8087SOL     OW25159   0.906   0.755   0.138
 8087SOL    HW125160   0.887   0.722   0.231
 8087SOL    HW225161   0.980   0.700   0.098
 8088SOL     OW25162   6.516   0.253   5.085
 8088SOL    HW125163   6.462   0.271   5.167
 8088SOL    HW225164   6.557   0.162   5.092
 8089SOL     OW25165   6.601   2.082   5.745
 8089SOL    HW125166   6.543   2.139   5.804
 8089SOL    HW225167   6.696   2.086   5.778
 8090SOL     OW25168   4.105   2.062   5.077
 8090SOL    HW125169   4.045   2.082   4.999
 8090SOL    HW225170   4.073   1.979   5.123
 8091SOL     OW25171   1.643   5.123   4.084
 8091SOL    HW125172   1.708   5.198   4.089
 8091SOL    HW225173   1.686   5.043   4.042
 8092SOL     OW25174   4.843   1.927   6.209
 8092SOL    HW125175   4.834   1.865   6.287
 8092SOL    HW225176   4.909   1.998   6.230
 8093SOL     OW25177   3.611   5.780   2.610
 8093SOL    HW125178   3.538   5.812   2.550
 8093SOL    HW225179   3.577   5.706   2.669
 8094SOL     OW25180   1.931   4.358   4.125
 8094SOL    HW125181   1.954   4.316   4.213
 8094SOL    HW225182   1.982   4.313   4.052
 8095SOL     OW25183   1.644   5.057   5.397
 8095SOL    HW125184   1.666   5.079   5.493
 8095SOL    HW225185   1.670   4.962   5.379
 8096SOL     OW25186   1.390   6.189   0.823
 8096SOL    HW125187   1.391   6.210   0.725
 8096SOL    HW225188   1.318   6.242   0.868
 8097SOL     OW25189   4.627   6.140   5.777
 8097SOL    HW125190   4.578   6.221   5.745
 8097SOL    HW225191   4.586   6.108   5.862
 8098SOL     OW25192   1.709   5.979   4.817
 8098SOL    HW125193   1.627   6.014   4.863
 8098SOL    HW225194   1.757   6.054   4.773
 8099SOL     OW25195   2.414   4.296   2.831
 8099SOL    HW125196   2.507   4.318   2.860
 8099SOL    HW225197   2.364   4.380   2.810
 8100SOL     OW25198   0.362   1.042   6.822
 8100SOL    HW125199   0.333   1.008   6.732
 8100SOL    HW225200   0.447   0.997   6.849
 8101SOL     OW25201   3.040   5.602   0.648
 8101SOL    HW125202   3.031   5.683   0.590
 8101SOL    HW225203   3.136   5.576   0.654
 8102SOL     OW25204   1.569   3.287   4.871
 8102SOL    HW125205   1.514   3.334   4.802
 8102SOL    HW225206   1.541   3.191   4.877
 8103SOL     OW25207   3.132   0.871   1.511
 8103SOL    HW125208   3.066   0.914   1.449
 8103SOL    HW225209   3.088   0.796   1.559
 8104SOL     OW25210   2.471   5.827   0.359
 8104SOL    HW125211   2.472   5.839   0.260
 8104SOL    HW225212   2.405   5.756   0.384
 8105SOL     OW25213   6.650   0.074   3.343
 8105SOL    HW125214   6.629   0.086   3.440
 8105SOL    HW225215   6.651   0.164   3.298
 8106SOL     OW25216   1.908   0.231   6.152
 8106SOL    HW125217   1.938   0.322   6.123
 8106SOL    HW225218   1.854   0.189   6.079
 8107SOL     OW25219   1.368   6.612   6.464
 8107SOL    HW125220   1.457   6.626   6.420
 8107SOL    HW225221   1.300   6.673   6.422
 8108SOL     OW25222   1.223   1.224   6.828
 8108SOL    HW125223   1.224   1.322   6.849
 8108SOL    HW225224   1.129   1.190   6.834
 8109SOL     OW25225   6.323   3.286   0.843
 8109SOL    HW125226   6.363   3.237   0.766
 8109SOL    HW225227   6.234   3.247   0.866
 8110SOL     OW25228   3.632   5.041   1.357
 8110SOL    HW125229   3.539   5.012   1.338
 8110SOL    HW225230   3.645   5.135   1.327
 8111SOL     OW25231   6.144   1.205   2.523
 8111SOL    HW125232   6.239   1.190   2.496
 8111SOL    HW225233   6.086   1.204   2.441
 8112SOL     OW25234   1.742   3.663   6.054
 8112SOL    HW125235   1.670   3.599   6.028
 8112SOL    HW225236   1.821   3.611   6.087
 8113SOL     OW25237   5.332   3.417   5.931
 8113SOL    HW125238   5.361   3.441   6.024
 8113SOL    HW225239   5.412   3.402   5.874
 8114SOL     OW25240   1.736   4.508   2.192
 8114SOL    HW125241   1.708   4.585   2.135
 8114SOL    HW225242   1.655   4.466   2.233
 8115SOL     OW25243   2.571   1.531   6.308
 8115SOL    HW125244   2.634   1.527   6.230
 8115SOL    HW225245   2.532   1.440   6.324
 8116SOL     OW25246   4.080   3.238   1.158
 8116SOL    HW125247   4.139   3.177   1.106
 8116SOL    HW225248   4.120   3.253   1.248
 8117SOL     OW25249   2.267   6.982   3.372
 8117SOL    HW125250   2.232   6.992   3.465
 8117SOL    HW225251   2.234   6.896   3.333
 8118SOL     OW25252   6.372   3.289   0.503
 8118SOL    HW125253   6.392   3.262   0.409
 8118SOL    HW225254   6.377   3.209   0.563
 8119SOL     OW25255   6.013   6.263   0.511
 8119SOL    HW125256   5.936   6.311   0.553
 8119SOL    HW225257   6.063   6.325   0.452
 8120SOL     OW25258   2.533   6.754   1.028
 8120SOL    HW125259   2.528   6.655   1.040
 8120SOL    HW225260   2.491   6.779   0.940
 8121SOL     OW25261   0.686   3.570   2.963
 8121SOL    HW125262   0.614   3.566   3.032
 8121SOL    HW225263   0.773   3.543   3.003
 8122SOL     OW25264   0.757   4.696   1.338
 8122SOL    HW125265   0.701   4.640   1.276
 8122SOL    HW225266   0.772   4.647   1.424
 8123SOL     OW25267   0.392   1.391   0.085
 8123SOL    HW125268   0.435   1.305   0.055
 8123SOL    HW225269   0.383   1.452   0.006
 8124SOL     OW25270   5.368   4.646   4.730
 8124SOL    HW125271   5.400   4.740   4.725
 8124SOL    HW225272   5.271   4.641   4.703
 8125SOL     OW25273   1.740   6.092   2.946
 8125SOL    HW125274   1.811   6.036   2.902
 8125SOL    HW225275   1.754   6.188   2.923
 8126SOL     OW25276   3.693   4.930   4.363
 8126SOL    HW125277   3.640   4.918   4.279
 8126SOL    HW225278   3.790   4.933   4.341
 8127SOL     OW25279   3.518   2.808   0.384
 8127SOL    HW125280   3.594   2.755   0.422
 8127SOL    HW225281   3.438   2.797   0.443
 8128SOL     OW25282   3.637   3.338   1.734
 8128SOL    HW125283   3.725   3.382   1.712
 8128SOL    HW225284   3.591   3.391   1.806
 8129SOL     OW25285   1.662   2.574   2.211
 8129SOL    HW125286   1.651   2.502   2.280
 8129SOL    HW225287   1.601   2.556   2.134
 8130SOL     OW25288   1.043   5.542   6.723
 8130SOL    HW125289   0.954   5.575   6.755
 8130SOL    HW225290   1.030   5.459   6.669
 8131SOL     OW25291   1.772   3.879   6.676
 8131SOL    HW125292   1.777   3.785   6.640
 8131SOL    HW225293   1.750   3.942   6.602
 8132SOL     OW25294   0.263   0.298   5.477
 8132SOL    HW125295   0.255   0.278   5.575
 8132SOL    HW225296   0.221   0.224   5.425
 8133SOL     OW25297   3.752   5.024   0.599
 8133SOL    HW125298   3.673   5.084   0.607
 8133SOL    HW225299   3.780   5.018   0.503
 8134SOL     OW25300   5.601   1.384   6.128
 8134SOL    HW125301   5.554   1.459   6.082
 8134SOL    HW225302   5.591   1.393   6.227
 8135SOL     OW25303   2.354   0.088   1.632
 8135SOL    HW125304   2.395   0.030   1.561
 8135SOL    HW225305   2.420   0.102   1.706
 8136SOL     OW25306   4.757   4.500   1.993
 8136SOL    HW125307   4.730   4.568   1.925
 8136SOL    HW225308   4.679   4.441   2.014
 8137SOL     OW25309   3.962   1.372   4.871
 8137SOL    HW125310   4.056   1.348   4.894
 8137SOL    HW225311   3.936   1.328   4.785
 8138SOL     OW25312   5.349   1.396   1.805
 8138SOL    HW125313   5.304   1.473   1.850
 8138SOL    HW225314   5.439   1.425   1.771
 8139SOL     OW25315   1.338   2.356   3.834
 8139SOL    HW125316   1.287   2.438   3.859
 8139SOL    HW225317   1.285   2.303   3.767
 8140SOL     OW25318   3.993   0.863   3.055
 8140SOL    HW125319   3.985   0.764   3.044
 8140SOL    HW225320   4.068   0.897   2.997
 8141SOL     OW25321   4.904   4.533   4.881
 8141SOL    HW125322   4.883   4.631   4.888
 8141SOL    HW225323   4.931   4.498   4.971
 8142SOL     OW25324   6.571   6.144   0.437
 8142SOL    HW125325   6.550   6.103   0.348
 8142SOL    HW225326   6.619   6.077   0.494
 8143SOL     OW25327   6.182   3.635   4.969
 8143SOL    HW125328   6.181   3.721   5.020
 8143SOL    HW225329   6.142   3.562   5.025
 8144SOL     OW25330   5.841   6.715   6.290
 8144SOL    HW125331   5.871   6.742   6.381
 8144SOL    HW225332   5.825   6.616   6.287
 8145SOL     OW25333   5.459   5.880   2.625
 8145SOL    HW125334   5.399   5.904   2.549
 8145SOL    HW225335   5.435   5.937   2.705
 8146SOL     OW25336   2.941   1.298   3.850
 8146SOL    HW125337   2.898   1.379   3.888
 8146SOL    HW225338   3.017   1.325   3.791
 8147SOL     OW25339   4.986   0.854   3.689
 8147SOL    HW125340   4.973   0.757   3.665
 8147SOL    HW225341   4.997   0.862   3.787
 8148SOL     OW25342   5.388   3.774   3.361
 8148SOL    HW125343   5.453   3.754   3.434
 8148SOL    HW225344   5.303   3.724   3.378
 8149SOL     OW25345   4.625   4.455   3.214
 8149SOL    HW125346   4.633   4.553   3.231
 8149SOL    HW225347   4.591   4.440   3.121
 8150SOL     OW25348   0.798   5.677   1.142
 8150SOL    HW125349   0.821   5.646   1.235
 8150SOL    HW225350   0.710   5.725   1.143
 8151SOL     OW25351   1.283   1.614   4.804
 8151SOL    HW125352   1.262   1.647   4.896
 8151SOL    HW225353   1.368   1.657   4.772
 8152SOL     OW25354   1.473   1.328   3.615
 8152SOL    HW125355   1.503   1.234   3.634
 8152SOL    HW225356   1.544   1.375   3.564
 8153SOL     OW25357   2.040   6.440   0.624
 8153SOL    HW125358   1.964   6.486   0.670
 8153SOL    HW225359   2.005   6.383   0.549
 8154SOL     OW25360   1.899   0.004   3.813
 8154SOL    HW125361   1.948   6.974   3.882
 8154SOL    HW225362   1.956   0.081   3.783
 8155SOL     OW25363   2.962   3.246   3.448
 8155SOL    HW125364   3.015   3.218   3.529
 8155SOL    HW225365   2.981   3.183   3.373
 8156SOL     OW25366   6.475   0.258   6.246
 8156SOL    HW125367   6.569   0.226   6.261
 8156SOL    HW225368   6.473   0.320   6.168
 8157SOL     OW25369   6.120   3.305   6.957
 8157SOL    HW125370   6.138   3.212   6.927
 8157SOL    HW225371   6.125   3.367   6.878
 8158SOL     OW25372   1.632   5.461   2.127
 8158SOL    HW125373   1.635   5.427   2.221
 8158SOL    HW225374   1.612   5.559   2.128
 8159SOL     OW25375   1.541   6.042   2.107
 8159SOL    HW125376   1.617   5.995   2.062
 8159SOL    HW225377   1.457   6.030   2.053
 8160SOL     OW25378   4.376   2.543   1.781
 8160SOL    HW125379   4.365   2.500   1.871
 8160SOL    HW225380   4.466   2.585   1.774
 8161SOL     OW25381   4.613   1.745   0.714
 8161SOL    HW125382   4.591   1.671   0.652
 8161SOL    HW225383   4.560   1.826   0.690
 8162SOL     OW25384   5.736   0.536   1.419
 8162SOL    HW125385   5.803   0.581   1.361
 8162SOL    HW225386   5.729   0.585   1.506
 8163SOL     OW25387   2.289   4.221   5.398
 8163SOL    HW125388   2.338   4.195   5.315
 8163SOL    HW225389   2.240   4.143   5.435
 8164SOL     OW25390   4.739   2.156   1.572
 8164SOL    HW125391   4.734   2.236   1.631
 8164SOL    HW225392   4.707   2.180   1.480
 8165SOL     OW25393   2.360   4.647   1.692
 8165SOL    HW125394   2.304   4.576   1.649
 8165SOL    HW225395   2.455   4.617   1.696
 8166SOL     OW25396   3.071   6.998   1.756
 8166SOL    HW125397   3.071   6.902   1.731
 8166SOL    HW225398   3.158   7.022   1.798
 8167SOL     OW25399   5.213   2.789   4.187
 8167SOL    HW125400   5.276   2.862   4.161
 8167SOL    HW225401   5.119   2.825   4.186
 8168SOL     OW25402   3.462   0.966   2.720
 8168SOL    HW125403   3.376   0.916   2.731
 8168SOL    HW225404   3.471   0.997   2.626
 8169SOL     OW25405   4.905   4.088   6.187
 8169SOL    HW125406   4.837   4.021   6.155
 8169SOL    HW225407   4.918   4.157   6.116
 8170SOL     OW25408   0.725   5.715   3.917
 8170SOL    HW125409   0.719   5.796   3.976
 8170SOL    HW225410   0.732   5.633   3.974
 8171SOL     OW25411   1.120   1.459   5.785
 8171SOL    HW125412   1.092   1.365   5.766
 8171SOL    HW225413   1.044   1.521   5.763
 8172SOL     OW25414   0.115   6.334   0.620
 8172SOL    HW125415   0.041   6.402   0.626
 8172SOL    HW225416   0.076   6.245   0.595
 8173SOL     OW25417   5.244   2.886   6.607
 8173SOL    HW125418   5.160   2.920   6.649
 8173SOL    HW225419   5.259   2.790   6.632
 8174SOL     OW25420   5.358   0.484   2.129
 8174SOL    HW125421   5.448   0.474   2.172
 8174SOL    HW225422   5.286   0.472   2.198
 8175SOL     OW25423   0.807   3.628   5.819
 8175SOL    HW125424   0.776   3.704   5.763
 8175SOL    HW225425   0.739   3.555   5.817
 8176SOL     OW25426   2.944   5.793   3.196
 8176SOL    HW125427   2.876   5.851   3.151
 8176SOL    HW225428   2.979   5.726   3.131
 8177SOL     OW25429   1.289   0.289   6.485
 8177SOL    HW125430   1.382   0.302   6.522
 8177SOL    HW225431   1.289   0.311   6.387
 8178SOL     OW25432   2.181   6.372   6.493
 8178SOL    HW125433   2.272   6.386   6.454
 8178SOL    HW225434   2.158   6.275   6.489
 8179SOL     OW25435   3.080   1.049   0.314
 8179SOL    HW125436   2.981   1.053   0.327
 8179SOL    HW225437   3.125   1.028   0.401
 8180SOL     OW25438   4.906   5.370   4.727
 8180SOL    HW125439   4.844   5.375   4.805
 8180SOL    HW225440   4.998   5.348   4.759
 8181SOL     OW25441   2.798   2.159   2.463
 8181SOL    HW125442   2.721   2.185   2.404
 8181SOL    HW225443   2.881   2.152   2.407
 8182SOL     OW25444   3.840   2.022   5.948
 8182SOL    HW125445   3.872   2.116   5.952
 8182SOL    HW225446   3.915   1.960   5.972
 8183SOL     OW25447   1.875   3.321   4.341
 8183SOL    HW125448   1.963   3.276   4.355
 8183SOL    HW225449   1.871   3.404   4.396
 8184SOL     OW25450   6.149   5.895   5.615
 8184SOL    HW125451   6.112   5.847   5.694
 8184SOL    HW225452   6.079   5.958   5.579
 8185SOL     OW25453   1.213   1.738   3.171
 8185SOL    HW125454   1.282   1.804   3.140
 8185SOL    HW225455   1.236   1.647   3.137
 8186SOL     OW25456   3.630   4.777   5.968
 8186SOL    HW125457   3.606   4.748   5.875
 8186SOL    HW225458   3.569   4.851   5.997
 8187SOL     OW25459   1.551   1.427   5.682
 8187SOL    HW125460   1.469   1.466   5.725
 8187SOL    HW225461   1.548   1.443   5.583
 8188SOL     OW25462   5.974   3.767   2.970
 8188SOL    HW125463   6.025   3.852   2.974
 8188SOL    HW225464   6.028   3.694   3.012
 8189SOL     OW25465   6.060   4.909   2.395
 8189SOL    HW125466   5.985   4.863   2.444
 8189SOL    HW225467   6.031   4.931   2.302
 8190SOL     OW25468   5.341   3.381   2.521
 8190SOL    HW125469   5.321   3.340   2.432
 8190SOL    HW225470   5.295   3.330   2.593
 8191SOL     OW25471   0.328   5.298   2.062
 8191SOL    HW125472   0.386   5.361   2.113
 8191SOL    HW225473   0.366   5.284   1.970
 8192SOL     OW25474   1.621   3.696   1.019
 8192SOL    HW125475   1.700   3.686   0.959
 8192SOL    HW225476   1.542   3.724   0.966
 8193SOL     OW25477   3.369   0.434   6.030
 8193SOL    HW125478   3.410   0.476   6.111
 8193SOL    HW225479   3.300   0.367   6.058
 8194SOL     OW25480   1.650   0.737   0.935
 8194SOL    HW125481   1.593   0.704   1.011
 8194SOL    HW225482   1.594   0.790   0.872
 8195SOL     OW25483   6.536   0.321   0.756
 8195SOL    HW125484   6.454   0.272   0.724
 8195SOL    HW225485   6.568   0.280   0.841
 8196SOL     OW25486   1.969   0.833   6.586
 8196SOL    HW125487   1.895   0.869   6.642
 8196SOL    HW225488   1.940   0.746   6.546
 8197SOL     OW25489   0.955   6.919   0.327
 8197SOL    HW125490   0.886   6.939   0.396
 8197SOL    HW225491   1.039   6.888   0.372
 8198SOL     OW25492   4.183   6.266   3.042
 8198SOL    HW125493   4.171   6.342   3.106
 8198SOL    HW225494   4.271   6.222   3.058
 8199SOL     OW25495   6.113   4.000   0.743
 8199SOL    HW125496   6.022   4.026   0.776
 8199SOL    HW225497   6.120   4.019   0.645
 8200SOL     OW25498   4.715   3.562   1.303
 8200SOL    HW125499   4.620   3.579   1.330
 8200SOL    HW225500   4.733   3.464   1.301
 8201SOL     OW25501   6.336   1.039   4.377
 8201SOL    HW125502   6.318   1.136   4.368
 8201SOL    HW225503   6.381   1.021   4.464
 8202SOL     OW25504   1.592   4.038   3.891
 8202SOL    HW125505   1.633   4.111   3.838
 8202SOL    HW225506   1.625   3.949   3.859
 8203SOL     OW25507   6.292   3.913   1.097
 8203SOL    HW125508   6.347   3.910   1.180
 8203SOL    HW225509   6.282   4.008   1.067
 8204SOL     OW25510   3.576   0.336   0.433
 8204SOL    HW125511   3.656   0.342   0.373
 8204SOL    HW225512   3.501   0.291   0.384
 8205SOL     OW25513   5.733   5.520   3.264
 8205SOL    HW125514   5.691   5.469   3.189
 8205SOL    HW225515   5.663   5.575   3.310
 8206SOL     OW25516   4.253   2.035   4.408
 8206SOL    HW125517   4.328   2.021   4.342
 8206SOL    HW225518   4.208   2.122   4.388
 8207SOL     OW25519   2.604   6.101   7.008
 8207SOL    HW125520   2.688   6.046   6.997
 8207SOL    HW225521   2.555   6.070   0.066
 8208SOL     OW25522   1.638   5.146   6.110
 8208SOL    HW125523   1.658   5.056   6.148
 8208SOL    HW225524   1.605   5.206   6.182
 8209SOL     OW25525   0.937   6.596   5.367
 8209SOL    HW125526   0.961   6.684   5.326
 8209SOL    HW225527   0.942   6.524   5.298
 8210SOL     OW25528   3.742   1.727   0.203
 8210SOL    HW125529   3.692   1.688   0.280
 8210SOL    HW225530   3.787   1.812   0.232
 8211SOL     OW25531   2.867   3.660   4.801
 8211SOL    HW125532   2.883   3.644   4.899
 8211SOL    HW225533   2.791   3.723   4.790
 8212SOL     OW25534   3.702   6.409   1.509
 8212SOL    HW125535   3.746   6.348   1.443
 8212SOL    HW225536   3.609   6.429   1.479
 8213SOL     OW25537   4.274   4.446   1.739
 8213SOL    HW125538   4.329   4.371   1.775
 8213SOL    HW225539   4.327   4.531   1.741
 8214SOL     OW25540   4.264   5.023   3.903
 8214SOL    HW125541   4.315   5.073   3.973
 8214SOL    HW225542   4.307   5.037   3.814
 8215SOL     OW25543   3.502   5.933   6.257
 8215SOL    HW125544   3.552   5.853   6.223
 8215SOL    HW225545   3.542   6.016   6.219
 8216SOL     OW25546   5.621   4.726   1.488
 8216SOL    HW125547   5.649   4.673   1.408
 8216SOL    HW225548   5.658   4.683   1.571
 8217SOL     OW25549   2.070   6.672   3.673
 8217SOL    HW125550   2.081   6.675   3.574
 8217SOL    HW225551   2.129   6.601   3.712
 8218SOL     OW25552   2.324   5.899   4.765
 8218SOL    HW125553   2.241   5.905   4.709
 8218SOL    HW225554   2.404   5.898   4.705
 8219SOL     OW25555   4.177   3.364   1.857
 8219SOL    HW125556   4.153   3.273   1.888
 8219SOL    HW225557   4.244   3.358   1.783
 8220SOL     OW25558   3.175   4.035   4.673
 8220SOL    HW125559   3.147   4.050   4.578
 8220SOL    HW225560   3.265   3.992   4.675
 8221SOL     OW25561   6.123   4.252   3.170
 8221SOL    HW125562   6.074   4.172   3.204
 8221SOL    HW225563   6.108   4.330   3.232
 8222SOL     OW25564   0.023   3.172   0.391
 8222SOL    HW125565   0.122   3.173   0.409
 8222SOL    HW225566   0.003   3.102   0.322
 8223SOL     OW25567   2.234   6.461   6.140
 8223SOL    HW125568   2.308   6.441   6.077
 8223SOL    HW225569   2.257   6.427   6.231
 8224SOL     OW25570   5.141   0.939   6.535
 8224SOL    HW125571   5.154   0.978   6.626
 8224SOL    HW225572   5.209   0.977   6.472
 8225SOL     OW25573   5.552   2.147   6.844
 8225SOL    HW125574   5.582   2.242   6.847
 8225SOL    HW225575   5.597   2.095   6.916
 8226SOL     OW25576   3.706   0.818   6.984
 8226SOL    HW125577   3.783   0.755   6.992
 8226SOL    HW225578   3.641   0.800   0.035
 8227SOL     OW25579   4.396   2.409   2.727
 8227SOL    HW125580   4.357   2.482   2.783
 8227SOL    HW225581   4.476   2.370   2.772
 8228SOL     OW25582   2.771   6.955   4.508
 8228SOL    HW125583   2.787   6.927   4.413
 8228SOL    HW225584   2.833   6.905   4.568
 8229SOL     OW25585   4.560   4.064   0.756
 8229SOL    HW125586   4.466   4.037   0.779
 8229SOL    HW225587   4.580   4.153   0.798
 8230SOL     OW25588   5.934   0.007   5.845
 8230SOL    HW125589   5.925   6.985   5.934
 8230SOL    HW225590   5.924   0.106   5.856
 8231SOL     OW25591   3.054   0.983   2.125
 8231SOL    HW125592   3.140   1.031   2.141
 8231SOL    HW225593   2.981   1.050   2.106
 8232SOL     OW25594   3.511   5.764   3.661
 8232SOL    HW125595   3.531   5.676   3.619
 8232SOL    HW225596   3.589   5.825   3.650
 8233SOL     OW25597   1.794   1.076   6.387
 8233SOL    HW125598   1.782   0.989   6.435
 8233SOL    HW225599   1.889   1.084   6.357
 8234SOL     OW25600   1.419   2.334   0.681
 8234SOL    HW125601   1.448   2.334   0.586
 8234SOL    HW225602   1.432   2.425   0.721
 8235SOL     OW25603   0.815   0.876   1.342
 8235SOL    HW125604   0.855   0.921   1.422
 8235SOL    HW225605   0.730   0.829   1.369
 8236SOL     OW25606   1.445   0.152   1.570
 8236SOL    HW125607   1.435   0.251   1.564
 8236SOL    HW225608   1.415   0.121   1.661
 8237SOL     OW25609   3.987   4.610   5.983
 8237SOL    HW125610   3.954   4.661   5.903
 8237SOL    HW225611   4.042   4.671   6.040
 8238SOL     OW25612   0.604   5.178   1.194
 8238SOL    HW125613   0.594   5.079   1.185
 8238SOL    HW225614   0.624   5.201   1.289
 8239SOL     OW25615   1.993   1.454   5.985
 8239SOL    HW125616   1.918   1.493   5.932
 8239SOL    HW225617   2.032   1.376   5.936
 8240SOL     OW25618   3.414   3.071   4.757
 8240SOL    HW125619   3.330   3.018   4.743
 8240SOL    HW225620   3.396   3.144   4.824
 8241SOL     OW25621   1.814   3.544   5.564
 8241SOL    HW125622   1.743   3.614   5.557
 8241SOL    HW225623   1.892   3.581   5.615
 8242SOL     OW25624   0.618   3.130   2.738
 8242SOL    HW125625   0.537   3.156   2.685
 8242SOL    HW225626   0.661   3.050   2.696
 8243SOL     OW25627   1.093   5.864   3.883
 8243SOL    HW125628   1.181   5.879   3.928
 8243SOL    HW225629   1.045   5.951   3.873
 8244SOL     OW25630   6.825   1.405   3.551
 8244SOL    HW125631   6.797   1.459   3.472
 8244SOL    HW225632   6.923   1.416   3.566
 8245SOL     OW25633   5.238   2.682   2.310
 8245SOL    HW125634   5.233   2.740   2.392
 8245SOL    HW225635   5.152   2.689   2.259
 8246SOL     OW25636   1.955   5.255   6.724
 8246SOL    HW125637   1.878   5.276   6.783
 8246SOL    HW225638   1.991   5.164   6.747
 8247SOL     OW25639   2.943   5.383   2.748
 8247SOL    HW125640   2.886   5.464   2.738
 8247SOL    HW225641   2.903   5.321   2.815
 8248SOL     OW25642   6.418   5.730   4.319
 8248SOL    HW125643   6.417   5.829   4.306
 8248SOL    HW225644   6.349   5.688   4.259
 8249SOL     OW25645   3.263   1.420   6.813
 8249SOL    HW125646   3.287   1.323   6.814
 8249SOL    HW225647   3.347   1.475   6.817
 8250SOL     OW25648   1.051   1.991   6.407
 8250SOL    HW125649   1.071   1.975   6.311
 8250SOL    HW225650   1.092   2.077   6.437
 8251SOL     OW25651   0.914   2.241   5.010
 8251SOL    HW125652   0.937   2.275   4.919
 8251SOL    HW225653   0.894   2.143   5.007
 8252SOL     OW25654   0.803   1.937   6.552
 8252SOL    HW125655   0.882   1.932   6.491
 8252SOL    HW225656   0.756   1.848   6.554
 8253SOL     OW25657   4.714   5.645   6.660
 8253SOL    HW125658   4.811   5.637   6.679
 8253SOL    HW225659   4.678   5.555   6.633
 8254SOL     OW25660   6.422   5.291   0.193
 8254SOL    HW125661   6.407   5.261   0.099
 8254SOL    HW225662   6.477   5.223   0.241
 8255SOL     OW25663   2.388   0.234   5.195
 8255SOL    HW125664   2.417   0.270   5.284
 8255SOL    HW225665   2.438   0.280   5.122
 8256SOL     OW25666   1.174   5.373   4.749
 8256SOL    HW125667   1.271   5.383   4.728
 8256SOL    HW225668   1.141   5.458   4.791
 8257SOL     OW25669   5.157   4.113   3.040
 8257SOL    HW125670   5.157   4.017   3.066
 8257SOL    HW225671   5.251   4.147   3.039
 8258SOL     OW25672   0.439   2.902   3.485
 8258SOL    HW125673   0.497   2.983   3.479
 8258SOL    HW225674   0.459   2.853   3.570
 8259SOL     OW25675   5.572   2.399   4.101
 8259SOL    HW125676   5.482   2.415   4.140
 8259SOL    HW225677   5.622   2.334   4.158
 8260SOL     OW25678   5.372   2.860   1.058
 8260SOL    HW125679   5.343   2.922   1.130
 8260SOL    HW225680   5.374   2.908   0.970
 8261SOL     OW25681   5.411   1.663   2.695
 8261SOL    HW125682   5.349   1.729   2.653
 8261SOL    HW225683   5.359   1.583   2.724
 8262SOL     OW25684   5.294   3.845   1.879
 8262SOL    HW125685   5.221   3.876   1.940
 8262SOL    HW225686   5.258   3.835   1.786
 8263SOL     OW25687   6.741   1.481   5.895
 8263SOL    HW125688   6.646   1.496   5.924
 8263SOL    HW225689   6.793   1.565   5.909
 8264SOL     OW25690   3.050   0.289   2.598
 8264SOL    HW125691   3.149   0.279   2.586
 8264SOL    HW225692   3.025   0.386   2.590
 8265SOL     OW25693   4.897   5.866   0.519
 8265SOL    HW125694   4.877   5.913   0.606
 8265SOL    HW225695   4.916   5.770   0.537
 8266SOL     OW25696   3.577   0.938   3.638
 8266SOL    HW125697   3.593   0.839   3.641
 8266SOL    HW225698   3.521   0.965   3.716
 8267SOL     OW25699   2.082   3.175   2.785
 8267SOL    HW125700   2.092   3.189   2.687
 8267SOL    HW225701   2.150   3.108   2.816
 8268SOL     OW25702   3.265   4.454   6.538
 8268SOL    HW125703   3.271   4.355   6.547
 8268SOL    HW225704   3.205   4.490   6.610
 8269SOL     OW25705   6.385   2.978   5.072
 8269SOL    HW125706   6.418   3.068   5.097
 8269SOL    HW225707   6.423   2.952   4.983
 8270SOL     OW25708   4.513   5.847   6.614
 8270SOL    HW125709   4.597   5.796   6.633
 8270SOL    HW225710   4.459   5.800   6.545
 8271SOL     OW25711   3.492   6.717   6.281
 8271SOL    HW125712   3.432   6.647   6.241
 8271SOL    HW225713   3.441   6.770   6.348
 8272SOL     OW25714   1.203   0.820   2.190
 8272SOL    HW125715   1.279   0.883   2.176
 8272SOL    HW225716   1.173   0.784   2.101
 8273SOL     OW25717   4.144   0.602   0.035
 8273SOL    HW125718   4.183   0.574   6.971
 8273SOL    HW225719   4.205   0.576   0.110
 8274SOL     OW25720   5.164   6.254   5.699
 8274SOL    HW125721   5.065   6.264   5.693
 8274SOL    HW225722   5.209   6.322   5.641
 8275SOL     OW25723   5.402   1.130   4.624
 8275SOL    HW125724   5.306   1.160   4.617
 8275SOL    HW225725   5.408   1.053   4.688
 8276SOL     OW25726   6.360   2.194   6.752
 8276SOL    HW125727   6.341   2.096   6.739
 8276SOL    HW225728   6.278   2.239   6.787
 8277SOL     OW25729   1.512   7.023   0.698
 8277SOL    HW125730   1.583   7.011   0.768
 8277SOL    HW225731   1.422   7.013   0.741
 8278SOL     OW25732   2.609   1.213   0.849
 8278SOL    HW125733   2.629   1.259   0.763
 8278SOL    HW225734   2.645   1.120   0.847
 8279SOL     OW25735   4.333   5.910   5.129
 8279SOL    HW125736   4.254   5.922   5.190
 8279SOL    HW225737   4.316   5.957   5.043
 8280SOL     OW25738   5.461   3.937   6.997
 8280SOL    HW125739   5.405   3.945   0.057
 8280SOL    HW225740   5.500   3.845   6.994
 8281SOL     OW25741   2.995   5.713   6.834
 8281SOL    HW125742   3.036   5.633   6.877
 8281SOL    HW225743   3.032   5.724   6.742
 8282SOL     OW25744   2.845   3.182   1.835
 8282SOL    HW125745   2.831   3.124   1.755
 8282SOL    HW225746   2.818   3.276   1.814
 8283SOL     OW25747   0.660   6.994   3.697
 8283SOL    HW125748   0.600   6.924   3.657
 8283SOL    HW225749   0.613   0.059   3.697
 8284SOL     OW25750   4.181   1.315   1.436
 8284SOL    HW125751   4.270   1.315   1.389
 8284SOL    HW225752   4.167   1.405   1.478
 8285SOL     OW25753   1.737   4.202   0.036
 8285SOL    HW125754   1.770   4.144   6.984
 8285SOL    HW225755   1.693   4.144   0.105
 8286SOL     OW25756   6.546   2.665   5.929
 8286SOL    HW125757   6.607   2.586   5.936
 8286SOL    HW225758   6.595   2.747   5.958
 8287SOL     OW25759   2.096   0.967   3.366
 8287SOL    HW125760   2.189   1.003   3.358
 8287SOL    HW225761   2.049   0.976   3.278
 8288SOL     OW25762   1.669   6.901   3.232
 8288SOL    HW125763   1.623   6.816   3.205
 8288SOL    HW225764   1.601   6.967   3.264
 8289SOL     OW25765   5.572   0.451   6.884
 8289SOL    HW125766   5.632   0.530   6.870
 8289SOL    HW225767   5.564   0.400   6.799
 8290SOL     OW25768   4.705   2.885   1.666
 8290SOL    HW125769   4.636   2.946   1.706
 8290SOL    HW225770   4.795   2.910   1.702
 8291SOL     OW25771   5.170   5.869   6.182
 8291SOL    HW125772   5.135   5.851   6.274
 8291SOL    HW225773   5.094   5.898   6.123
 8292SOL     OW25774   0.678   2.362   5.125
 8292SOL    HW125775   0.773   2.389   5.113
 8292SOL    HW225776   0.674   2.269   5.161
 8293SOL     OW25777   2.650   5.321   4.157
 8293SOL    HW125778   2.609   5.264   4.086
 8293SOL    HW225779   2.716   5.267   4.209
 8294SOL     OW25780   5.138   4.003   5.900
 8294SOL    HW125781   5.057   3.956   5.864
 8294SOL    HW225782   5.178   3.949   5.974
 8295SOL     OW25783   4.976   4.517   2.501
 8295SOL    HW125784   4.931   4.447   2.446
 8295SOL    HW225785   4.920   4.600   2.501
 8296SOL     OW25786   3.853   6.757   2.570
 8296SOL    HW125787   3.811   6.667   2.558
 8296SOL    HW225788   3.953   6.749   2.563
 8297SOL     OW25789   5.495   4.596   2.587
 8297SOL    HW125790   5.523   4.547   2.670
 8297SOL    HW225791   5.408   4.559   2.554
 8298SOL     OW25792   0.064   0.063   0.605
 8298SOL    HW125793   0.021   0.153   0.607
 8298SOL    HW225794   0.000   7.019   0.565
 8299SOL     OW25795   1.195   2.919   6.913
 8299SOL    HW125796   1.249   2.835   6.907
 8299SOL    HW225797   1.175   2.939   7.009
 8300SOL     OW25798   6.179   5.410   3.998
 8300SOL    HW125799   6.180   5.317   3.961
 8300SOL    HW225800   6.261   5.424   4.054
 8301SOL     OW25801   5.642   5.976   0.414
 8301SOL    HW125802   5.685   5.905   0.359
 8301SOL    HW225803   5.680   6.065   0.389
 8302SOL     OW25804   3.760   0.042   5.237
 8302SOL    HW125805   3.830   0.102   5.278
 8302SOL    HW225806   3.798   7.020   5.157
 8303SOL     OW25807   0.191   5.442   2.790
 8303SOL    HW125808   0.224   5.464   2.698
 8303SOL    HW225809   0.179   5.527   2.841
 8304SOL     OW25810   6.411   3.917   3.149
 8304SOL    HW125811   6.390   4.015   3.153
 8304SOL    HW225812   6.377   3.872   3.232
 8305SOL     OW25813   5.331   0.066   6.044
 8305SOL    HW125814   5.343   0.163   6.065
 8305SOL    HW225815   5.418   0.026   6.019
 8306SOL     OW25816   6.423   1.331   3.542
 8306SOL    HW125817   6.439   1.394   3.618
 8306SOL    HW225818   6.324   1.318   3.531
 8307SOL     OW25819   1.295   3.701   3.326
 8307SOL    HW125820   1.354   3.621   3.319
 8307SOL    HW225821   1.230   3.687   3.401
 8308SOL     OW25822   1.246   5.705   0.920
 8308SOL    HW125823   1.314   5.679   0.988
 8308SOL    HW225824   1.226   5.803   0.930
 8309SOL     OW25825   6.035   5.238   4.434
 8309SOL    HW125826   6.034   5.152   4.383
 8309SOL    HW225827   6.009   5.220   4.529
 8310SOL     OW25828   1.974   0.291   2.170
 8310SOL    HW125829   2.056   0.261   2.219
 8310SOL    HW225830   1.976   0.251   2.078
 8311SOL     OW25831   4.506   5.421   3.188
 8311SOL    HW125832   4.592   5.463   3.217
 8311SOL    HW225833   4.475   5.356   3.258
 8312SOL     OW25834   5.772   1.728   0.390
 8312SOL    HW125835   5.834   1.659   0.428
 8312SOL    HW225836   5.755   1.798   0.459
 8313SOL     OW25837   6.008   2.271   5.904
 8313SOL    HW125838   5.996   2.241   5.810
 8313SOL    HW225839   6.092   2.325   5.912
 8314SOL     OW25840   4.529   6.226   4.460
 8314SOL    HW125841   4.433   6.254   4.466
 8314SOL    HW225842   4.562   6.201   4.551
 8315SOL     OW25843   3.554   3.105   5.063
 8315SOL    HW125844   3.648   3.091   5.031
 8315SOL    HW225845   3.521   3.194   5.032
 8316SOL     OW25846   2.640   1.532   5.449
 8316SOL    HW125847   2.574   1.534   5.374
 8316SOL    HW225848   2.606   1.471   5.521
 8317SOL     OW25849   1.165   1.844   4.003
 8317SOL    HW125850   1.208   1.892   3.927
 8317SOL    HW225851   1.099   1.904   4.047
 8318SOL     OW25852   4.124   6.497   5.720
 8318SOL    HW125853   4.155   6.403   5.706
 8318SOL    HW225854   4.073   6.503   5.806
 8319SOL     OW25855   1.811   5.583   6.157
 8319SOL    HW125856   1.845   5.659   6.102
 8319SOL    HW225857   1.811   5.609   6.254
 8320SOL     OW25858   3.855   3.739   5.332
 8320SOL    HW125859   3.938   3.753   5.386
 8320SOL    HW225860   3.852   3.806   5.258
 8321SOL     OW25861   0.924   0.516   0.736
 8321SOL    HW125862   0.864   0.532   0.814
 8321SOL    HW225863   0.900   0.580   0.662
 8322SOL     OW25864   1.071   0.310   0.629
 8322SOL    HW125865   1.145   0.347   0.573
 8322SOL    HW225866   1.016   0.386   0.666
 8323SOL     OW25867   6.085   4.403   0.031
 8323SOL    HW125868   6.053   4.383   6.962
 8323SOL    HW225869   6.184   4.417   0.030
 8324SOL     OW25870   5.455   6.758   0.051
 8324SOL    HW125871   5.502   6.670   0.051
 8324SOL    HW225872   5.435   6.785   0.146
 8325SOL     OW25873   1.375   6.938   5.056
 8325SOL    HW125874   1.281   6.905   5.065
 8325SOL    HW225875   1.439   6.862   5.073
 8326SOL     OW25876   2.302   2.729   6.584
 8326SOL    HW125877   2.333   2.807   6.639
 8326SOL    HW225878   2.253   2.665   6.643
 8327SOL     OW25879   0.905   6.043   4.950
 8327SOL    HW125880   0.874   5.966   4.893
 8327SOL    HW225881   0.932   6.119   4.891
 8328SOL     OW25882   0.904   6.635   0.254
 8328SOL    HW125883   0.966   6.602   0.325
 8328SOL    HW225884   0.903   6.735   0.255
 8329SOL     OW25885   1.649   2.684   4.943
 8329SOL    HW125886   1.618   2.724   4.857
 8329SOL    HW225887   1.592   2.603   4.964
 8330SOL     OW25888   3.106   0.235   6.756
 8330SOL    HW125889   3.115   0.268   6.662
 8330SOL    HW225890   3.182   0.268   6.811
 8331SOL     OW25891   2.097   2.201   6.937
 8331SOL    HW125892   2.136   2.289   6.963
 8331SOL    HW225893   2.170   2.135   6.924
 8332SOL     OW25894   6.619   4.157   1.522
 8332SOL    HW125895   6.681   4.088   1.560
 8332SOL    HW225896   6.528   4.144   1.561
 8333SOL     OW25897   1.918   4.067   6.864
 8333SOL    HW125898   1.859   4.002   6.817
 8333SOL    HW225899   1.980   4.018   6.924
 8334SOL     OW25900   3.162   1.728   5.123
 8334SOL    HW125901   3.184   1.822   5.150
 8334SOL    HW225902   3.237   1.691   5.068
 8335SOL     OW25903   5.504   4.880   5.607
 8335SOL    HW125904   5.443   4.936   5.664
 8335SOL    HW225905   5.562   4.824   5.667
 8336SOL     OW25906   0.863   3.721   3.563
 8336SOL    HW125907   0.876   3.792   3.632
 8336SOL    HW225908   0.792   3.657   3.593
 8337SOL     OW25909   6.449   1.127   3.785
 8337SOL    HW125910   6.430   1.074   3.702
 8337SOL    HW225911   6.536   1.175   3.774
 8338SOL     OW25912   3.074   5.116   0.799
 8338SOL    HW125913   3.161   5.165   0.791
 8338SOL    HW225914   3.010   5.172   0.852
 8339SOL     OW25915   5.888   6.992   1.806
 8339SOL    HW125916   5.941   6.995   1.722
 8339SOL    HW225917   5.932   0.026   1.875
 8340SOL     OW25918   6.283   2.636   6.146
 8340SOL    HW125919   6.305   2.592   6.234
 8340SOL    HW225920   6.284   2.567   6.074
 8341SOL     OW25921   4.108   1.580   0.611
 8341SOL    HW125922   4.024   1.571   0.557
 8341SOL    HW225923   4.182   1.613   0.553
 8342SOL     OW25924   4.441   0.264   0.264
 8342SOL    HW125925   4.516   0.208   0.228
 8342SOL    HW225926   4.354   0.231   0.228
 8343SOL     OW25927   5.835   5.106   3.747
 8343SOL    HW125928   5.740   5.118   3.718
 8343SOL    HW225929   5.894   5.165   3.693
 8344SOL     OW25930   1.450   4.716   6.132
 8344SOL    HW125931   1.495   4.673   6.054
 8344SOL    HW225932   1.372   4.770   6.100
 8345SOL     OW25933   5.714   0.181   3.651
 8345SOL    HW125934   5.721   0.277   3.624
 8345SOL    HW225935   5.789   0.129   3.609
 8346SOL     OW25936   5.588   2.931   4.321
 8346SOL    HW125937   5.564   2.888   4.408
 8346SOL    HW225938   5.674   2.980   4.331
 8347SOL     OW25939   2.644   1.894   6.623
 8347SOL    HW125940   2.554   1.904   6.580
 8347SOL    HW225941   2.684   1.806   6.597
 8348SOL     OW25942   3.226   5.998   1.827
 8348SOL    HW125943   3.151   5.991   1.893
 8348SOL    HW225944   3.274   6.085   1.841
 8349SOL     OW25945   5.461   6.242   2.262
 8349SOL    HW125946   5.419   6.233   2.172
 8349SOL    HW225947   5.557   6.215   2.257
 8350SOL     OW25948   1.793   1.247   0.183
 8350SOL    HW125949   1.820   1.182   0.112
 8350SOL    HW225950   1.871   1.266   0.242
 8351SOL     OW25951   7.010   2.610   3.272
 8351SOL    HW125952   0.053   2.539   3.249
 8351SOL    HW225953   0.029   2.676   3.335
 8352SOL     OW25954   2.642   5.643   0.488
 8352SOL    HW125955   2.711   5.661   0.419
 8352SOL    HW225956   2.582   5.723   0.497
 8353SOL     OW25957   0.846   5.627   1.402
 8353SOL    HW125958   0.791   5.688   1.460
 8353SOL    HW225959   0.868   5.544   1.453
 8354SOL     OW25960   3.492   0.717   3.059
 8354SOL    HW125961   3.524   0.807   3.032
 8354SOL    HW225962   3.570   0.661   3.087
 8355SOL     OW25963   3.363   5.548   6.274
 8355SOL    HW125964   3.267   5.564   6.248
 8355SOL    HW225965   3.421   5.554   6.194
 8356SOL     OW25966   2.562   4.368   1.002
 8356SOL    HW125967   2.638   4.387   1.064
 8356SOL    HW225968   2.541   4.450   0.949
 8357SOL     OW25969   4.865   6.907   5.427
 8357SOL    HW125970   4.872   6.950   5.516
 8357SOL    HW225971   4.779   6.857   5.420
 8358SOL     OW25972   1.014   1.001   5.345
 8358SOL    HW125973   0.917   1.019   5.329
 8358SOL    HW225974   1.051   0.949   5.269
 8359SOL     OW25975   4.363   1.793   5.734
 8359SOL    HW125976   4.401   1.732   5.805
 8359SOL    HW225977   4.400   1.767   5.645
 8360SOL     OW25978   4.433   0.256   0.550
 8360SOL    HW125979   4.404   0.284   0.459
 8360SOL    HW225980   4.397   0.320   0.618
 8361SOL     OW25981   4.379   1.317   6.904
 8361SOL    HW125982   4.315   1.284   6.835
 8361SOL    HW225983   4.378   1.417   6.907
 8362SOL     OW25984   0.074   3.901   1.552
 8362SOL    HW125985   0.021   3.985   1.538
 8362SOL    HW225986   0.050   3.862   1.641
 8363SOL     OW25987   1.871   2.689   1.401
 8363SOL    HW125988   1.896   2.782   1.375
 8363SOL    HW225989   1.944   2.648   1.455
 8364SOL     OW25990   6.911   2.319   4.243
 8364SOL    HW125991   6.811   2.317   4.240
 8364SOL    HW225992   6.943   2.278   4.328
 8365SOL     OW25993   1.478   2.337   2.199
 8365SOL    HW125994   1.437   2.299   2.116
 8365SOL    HW225995   1.420   2.410   2.235
 8366SOL     OW25996   5.534   4.490   1.849
 8366SOL    HW125997   5.498   4.438   1.771
 8366SOL    HW225998   5.461   4.546   1.888
 8367SOL     OW25999   1.960   4.619   3.992
 8367SOL    HW126000   1.989   4.603   3.898
 8367SOL    HW226001   1.958   4.532   4.042
 8368SOL     OW26002   6.177   6.339   5.734
 8368SOL    HW126003   6.208   6.434   5.745
 8368SOL    HW226004   6.127   6.331   5.648
 8369SOL     OW26005   2.317   6.465   0.212
 8369SOL    HW126006   2.356   6.426   0.128
 8369SOL    HW226007   2.249   6.402   0.249
 8370SOL     OW26008   3.019   3.720   0.234
 8370SOL    HW126009   3.013   3.621   0.241
 8370SOL    HW226010   3.074   3.744   0.153
 8371SOL     OW26011   2.287   4.289   5.846
 8371SOL    HW126012   2.194   4.296   5.881
 8371SOL    HW226013   2.328   4.203   5.876
 8372SOL     OW26014   2.115   6.203   0.687
 8372SOL    HW126015   2.076   6.181   0.776
 8372SOL    HW226016   2.109   6.302   0.671
 8373SOL     OW26017   6.046   1.764   3.959
 8373SOL    HW126018   6.109   1.687   3.959
 8373SOL    HW226019   6.020   1.786   3.865
 8374SOL     OW26020   6.702   0.759   3.939
 8374SOL    HW126021   6.622   0.708   3.906
 8374SOL    HW226022   6.778   0.745   3.877
 8375SOL     OW26023   2.518   1.496   4.846
 8375SOL    HW126024   2.551   1.571   4.904
 8375SOL    HW226025   2.557   1.410   4.878
 8376SOL     OW26026   0.829   1.766   4.025
 8376SOL    HW126027   0.791   1.677   4.052
 8376SOL    HW226028   0.783   1.838   4.076
 8377SOL     OW26029   4.519   5.188   6.729
 8377SOL    HW126030   4.616   5.183   6.752
 8377SOL    HW226031   4.471   5.110   6.770
 8378SOL     OW26032   4.880   5.953   4.707
 8378SOL    HW126033   4.803   5.916   4.654
 8378SOL    HW226034   4.877   5.915   4.799
 8379SOL     OW26035   5.899   1.901   1.747
 8379SOL    HW126036   5.817   1.937   1.702
 8379SOL    HW226037   5.947   1.975   1.792
 8380SOL     OW26038   0.289   6.245   0.926
 8380SOL    HW126039   0.230   6.174   0.887
 8380SOL    HW226040   0.254   6.335   0.901
 8381SOL     OW26041   0.617   1.644   3.030
 8381SOL    HW126042   0.688   1.713   3.014
 8381SOL    HW226043   0.625   1.572   2.962
 8382SOL     OW26044   1.366   0.924   1.086
 8382SOL    HW126045   1.466   0.926   1.087
 8382SOL    HW226046   1.334   0.847   1.031
 8383SOL     OW26047   2.841   0.024   6.125
 8383SOL    HW126048   2.744   0.005   6.133
 8383SOL    HW226049   2.870   0.010   6.030
 8384SOL     OW26050   0.880   3.770   3.197
 8384SOL    HW126051   0.822   3.765   3.279
 8384SOL    HW226052   0.905   3.677   3.169
 8385SOL     OW26053   4.112   2.912   1.295
 8385SOL    HW126054   4.155   2.957   1.373
 8385SOL    HW226055   4.180   2.891   1.226
 8386SOL     OW26056   2.670   6.040   1.663
 8386SOL    HW126057   2.766   6.019   1.646
 8386SOL    HW226058   2.662   6.123   1.718
 8387SOL     OW26059   0.895   1.898   3.597
 8387SOL    HW126060   0.843   1.942   3.671
 8387SOL    HW226061   0.985   1.872   3.630
 8388SOL     OW26062   4.130   5.784   0.621
 8388SOL    HW126063   4.190   5.743   0.690
 8388SOL    HW226064   4.046   5.816   0.664
 8389SOL     OW26065   0.368   2.756   4.121
 8389SOL    HW126066   0.442   2.761   4.188
 8389SOL    HW226067   0.334   2.662   4.116
 8390SOL     OW26068   2.599   0.092   5.738
 8390SOL    HW126069   2.503   0.099   5.708
 8390SOL    HW226070   2.629   7.020   5.731
 8391SOL     OW26071   5.698   5.681   0.508
 8391SOL    HW126072   5.602   5.662   0.489
 8391SOL    HW226073   5.712   5.689   0.606
 8392SOL     OW26074   4.992   6.369   5.930
 8392SOL    HW126075   5.079   6.387   5.884
 8392SOL    HW226076   4.926   6.337   5.863
 8393SOL     OW26077   6.977   5.212   2.849
 8393SOL    HW126078   6.972   5.267   2.766
 8393SOL    HW226079   6.973   5.272   2.929
 8394SOL     OW26080   0.397   1.758   3.131
 8394SOL    HW126081   0.445   1.845   3.148
 8394SOL    HW226082   0.458   1.694   3.085
 8395SOL     OW26083   1.252   6.179   5.347
 8395SOL    HW126084   1.233   6.162   5.251
 8395SOL    HW226085   1.172   6.156   5.402
 8396SOL     OW26086   4.263   3.049   1.072
 8396SOL    HW126087   4.275   2.956   1.039
 8396SOL    HW226088   4.340   3.106   1.041
 8397SOL     OW26089   2.203   4.909   3.684
 8397SOL    HW126090   2.247   4.897   3.774
 8397SOL    HW226091   2.145   4.990   3.687
 8398SOL     OW26092   5.300   1.351   0.147
 8398SOL    HW126093   5.371   1.362   0.077
 8398SOL    HW226094   5.294   1.255   0.173
 8399SOL     OW26095   5.790   6.124   6.934
 8399SOL    HW126096   5.845   6.070   6.869
 8399SOL    HW226097   5.714   6.068   6.967
 8400SOL     OW26098   6.032   7.012   4.717
 8400SOL    HW126099   6.129   7.004   4.742
 8400SOL    HW226100   5.978   6.954   4.778
 8401SOL     OW26101   2.811   4.341   6.113
 8401SOL    HW126102   2.809   4.416   6.180
 8401SOL    HW226103   2.726   4.341   6.060
 8402SOL     OW26104   4.543   1.265   6.299
 8402SOL    HW126105   4.614   1.214   6.347
 8402SOL    HW226106   4.583   1.347   6.259
 8403SOL     OW26107   1.314   1.839   4.464
 8403SOL    HW126108   1.306   1.845   4.563
 8403SOL    HW226109   1.226   1.862   4.422
 8404SOL     OW26110   4.775   5.039   5.033
 8404SOL    HW126111   4.685   5.003   5.054
 8404SOL    HW226112   4.824   4.976   4.973
 8405SOL     OW26113   1.344   2.514   5.065
 8405SOL    HW126114   1.392   2.475   4.986
 8405SOL    HW226115   1.410   2.558   5.126
 8406SOL     OW26116   5.080   3.663   1.110
 8406SOL    HW126117   5.126   3.662   1.022
 8406SOL    HW226118   5.098   3.750   1.156
 8407SOL     OW26119   5.052   3.229   2.395
 8407SOL    HW126120   5.139   3.238   2.346
 8407SOL    HW226121   4.990   3.302   2.368
 8408SOL     OW26122   4.824   3.039   4.094
 8408SOL    HW126123   4.884   3.051   4.173
 8408SOL    HW226124   4.853   3.101   4.020
 8409SOL     OW26125   0.651   1.941   4.139
 8409SOL    HW126126   0.703   2.022   4.114
 8409SOL    HW226127   0.585   1.965   4.210
 8410SOL     OW26128   2.624   6.457   2.481
 8410SOL    HW126129   2.623   6.408   2.569
 8410SOL    HW226130   2.553   6.527   2.481
 8411SOL     OW26131   1.901   3.020   3.365
 8411SOL    HW126132   1.924   3.070   3.449
 8411SOL    HW226133   1.934   2.926   3.373
 8412SOL     OW26134   5.908   3.208   2.155
 8412SOL    HW126135   5.922   3.122   2.107
 8412SOL    HW226136   5.952   3.203   2.245
 8413SOL     OW26137   2.554   4.534   1.496
 8413SOL    HW126138   2.559   4.534   1.595
 8413SOL    HW226139   2.570   4.442   1.462
 8414SOL     OW26140   5.439   6.796   2.344
 8414SOL    HW126141   5.432   6.777   2.442
 8414SOL    HW226142   5.438   6.709   2.293
 8415SOL     OW26143   6.853   3.679   1.670
 8415SOL    HW126144   6.762   3.642   1.690
 8415SOL    HW226145   6.913   3.605   1.640
 8416SOL     OW26146   5.203   4.237   2.745
 8416SOL    HW126147   5.229   4.150   2.702
 8416SOL    HW226148   5.215   4.230   2.844
 8417SOL     OW26149   2.509   5.717   6.187
 8417SOL    HW126150   2.555   5.643   6.137
 8417SOL    HW226151   2.574   5.792   6.203
 8418SOL     OW26152   5.991   5.620   2.666
 8418SOL    HW126153   5.930   5.558   2.616
 8418SOL    HW226154   6.084   5.584   2.664
 8419SOL     OW26155   4.098   6.734   3.658
 8419SOL    HW126156   4.063   6.822   3.628
 8419SOL    HW226157   4.085   6.666   3.586
 8420SOL     OW26158   3.600   1.988   5.816
 8420SOL    HW126159   3.675   1.993   5.882
 8420SOL    HW226160   3.606   2.065   5.752
 8421SOL     OW26161   1.446   6.727   1.726
 8421SOL    HW126162   1.526   6.667   1.718
 8421SOL    HW226163   1.365   6.678   1.695
 8422SOL     OW26164   4.123   6.452   1.296
 8422SOL    HW126165   4.102   6.531   1.353
 8422SOL    HW226166   4.098   6.368   1.344
 8423SOL     OW26167   1.845   3.933   1.408
 8423SOL    HW126168   1.776   3.869   1.374
 8423SOL    HW226169   1.885   3.983   1.332
 8424SOL     OW26170   3.255   2.105   2.371
 8424SOL    HW126171   3.237   2.111   2.469
 8424SOL    HW226172   3.170   2.122   2.320
 8425SOL     OW26173   6.376   4.741   0.161
 8425SOL    HW126174   6.427   4.824   0.140
 8425SOL    HW226175   6.279   4.763   0.175
 8426SOL     OW26176   3.875   3.767   2.518
 8426SOL    HW126177   3.922   3.767   2.606
 8426SOL    HW226178   3.884   3.677   2.475
 8427SOL     OW26179   2.459   2.830   6.319
 8427SOL    HW126180   2.406   2.800   6.398
 8427SOL    HW226181   2.556   2.808   6.333
 8428SOL     OW26182   6.050   4.330   1.920
 8428SOL    HW126183   6.046   4.240   1.962
 8428SOL    HW226184   6.029   4.401   1.987
 8429SOL     OW26185   2.329   0.267   2.918
 8429SOL    HW126186   2.275   0.242   2.838
 8429SOL    HW226187   2.423   0.235   2.905
 8430SOL     OW26188   5.132   4.249   3.305
 8430SOL    HW126189   5.082   4.202   3.232
 8430SOL    HW226190   5.199   4.187   3.345
 8431SOL     OW26191   2.840   4.014   1.486
 8431SOL    HW126192   2.789   3.941   1.530
 8431SOL    HW226193   2.808   4.103   1.519
 8432SOL     OW26194   4.720   6.440   0.419
 8432SOL    HW126195   4.642   6.388   0.385
 8432SOL    HW226196   4.725   6.528   0.371
 8433SOL     OW26197   1.596   1.331   4.687
 8433SOL    HW126198   1.644   1.245   4.704
 8433SOL    HW226199   1.593   1.348   4.588
 8434SOL     OW26200   5.692   6.144   6.307
 8434SOL    HW126201   5.722   6.221   6.250
 8434SOL    HW226202   5.593   6.146   6.318
 8435SOL     OW26203   5.053   2.931   1.330
 8435SOL    HW126204   5.007   2.996   1.269
 8435SOL    HW226205   5.124   2.979   1.382
 8436SOL     OW26206   3.334   4.296   1.689
 8436SOL    HW126207   3.308   4.212   1.643
 8436SOL    HW226208   3.280   4.306   1.773
 8437SOL     OW26209   7.016   2.263   1.482
 8437SOL    HW126210   0.055   2.210   1.540
 8437SOL    HW226211   6.922   2.251   1.514
 8438SOL     OW26212   2.125   6.605   1.379
 8438SOL    HW126213   2.136   6.519   1.328
 8438SOL    HW226214   2.065   6.666   1.328
 8439SOL     OW26215   6.077   6.683   2.185
 8439SOL    HW126216   6.084   6.760   2.122
 8439SOL    HW226217   6.102   6.598   2.138
 8440SOL     OW26218   0.270   2.332   3.390
 8440SOL    HW126219   0.302   2.309   3.482
 8440SOL    HW226220   0.223   2.253   3.350
 8441SOL     OW26221   4.398   5.259   1.460
 8441SOL    HW126222   4.392   5.206   1.375
 8441SOL    HW226223   4.343   5.342   1.452
 8442SOL     OW26224   1.567   3.723   0.522
 8442SOL    HW126225   1.588   3.817   0.494
 8442SOL    HW226226   1.606   3.659   0.455
 8443SOL     OW26227   0.940   1.752   2.385
 8443SOL    HW126228   0.916   1.695   2.463
 8443SOL    HW226229   0.865   1.752   2.319
 8444SOL     OW26230   4.265   0.485   2.712
 8444SOL    HW126231   4.264   0.542   2.795
 8444SOL    HW226232   4.187   0.509   2.655
 8445SOL     OW26233   4.017   5.851   2.033
 8445SOL    HW126234   4.106   5.807   2.042
 8445SOL    HW226235   4.017   5.937   2.085
 8446SOL     OW26236   6.509   4.813   3.839
 8446SOL    HW126237   6.597   4.851   3.811
 8446SOL    HW226238   6.448   4.810   3.760
 8447SOL     OW26239   4.920   3.384   1.080
 8447SOL    HW126240   4.932   3.478   1.110
 8447SOL    HW226241   4.822   3.363   1.072
 8448SOL     OW26242   0.806   2.358   6.137
 8448SOL    HW126243   0.821   2.448   6.096
 8448SOL    HW226244   0.892   2.326   6.177
 8449SOL     OW26245   1.261   1.701   5.064
 8449SOL    HW126246   1.343   1.672   5.115
 8449SOL    HW226247   1.263   1.800   5.052
 8450SOL     OW26248   2.562   5.175   2.238
 8450SOL    HW126249   2.602   5.166   2.147
 8450SOL    HW226250   2.463   5.178   2.231
 8451SOL     OW26251   4.530   3.346   0.302
 8451SOL    HW126252   4.556   3.266   0.357
 8451SOL    HW226253   4.513   3.423   0.364
 8452SOL     OW26254   6.716   5.948   0.567
 8452SOL    HW126255   6.662   5.864   0.558
 8452SOL    HW226256   6.811   5.924   0.585
 8453SOL     OW26257   0.688   4.692   5.542
 8453SOL    HW126258   0.670   4.781   5.583
 8453SOL    HW226259   0.602   4.642   5.533
 8454SOL     OW26260   1.826   6.478   4.557
 8454SOL    HW126261   1.731   6.506   4.576
 8454SOL    HW226262   1.878   6.479   4.643
 8455SOL     OW26263   6.233   2.420   0.780
 8455SOL    HW126264   6.273   2.352   0.842
 8455SOL    HW226265   6.133   2.415   0.784
 8456SOL     OW26266   5.655   5.888   3.071
 8456SOL    HW126267   5.723   5.959   3.093
 8456SOL    HW226268   5.576   5.898   3.131
 8457SOL     OW26269   6.340   6.238   6.460
 8457SOL    HW126270   6.242   6.219   6.452
 8457SOL    HW226271   6.353   6.332   6.489
 8458SOL     OW26272   1.356   1.842   1.679
 8458SOL    HW126273   1.389   1.885   1.763
 8458SOL    HW226274   1.353   1.743   1.691
 8459SOL     OW26275   2.995   5.729   2.352
 8459SOL    HW126276   3.044   5.667   2.290
 8459SOL    HW226277   2.896   5.716   2.340
 8460SOL     OW26278   4.031   1.261   0.428
 8460SOL    HW126279   4.024   1.361   0.423
 8460SOL    HW226280   3.983   1.229   0.510
 8461SOL     OW26281   5.515   4.064   2.791
 8461SOL    HW126282   5.609   4.038   2.771
 8461SOL    HW226283   5.513   4.117   2.876
 8462SOL     OW26284   2.720   4.097   0.507
 8462SOL    HW126285   2.776   4.029   0.459
 8462SOL    HW226286   2.633   4.109   0.458
 8463SOL     OW26287   6.296   0.969   6.830
 8463SOL    HW126288   6.381   1.008   6.794
 8463SOL    HW226289   6.296   0.977   6.930
 8464SOL     OW26290   6.810   3.738   6.173
 8464SOL    HW126291   6.774   3.645   6.178
 8464SOL    HW226292   6.778   3.791   6.252
 8465SOL     OW26293   5.103   3.062   0.811
 8465SOL    HW126294   5.066   3.155   0.807
 8465SOL    HW226295   5.166   3.049   0.735
 8466SOL     OW26296   6.307   1.412   5.538
 8466SOL    HW126297   6.275   1.319   5.518
 8466SOL    HW226298   6.262   1.446   5.621
 8467SOL     OW26299   3.604   1.153   0.606
 8467SOL    HW126300   3.612   1.100   0.691
 8467SOL    HW226301   3.601   1.251   0.629
 8468SOL     OW26302   5.933   3.097   0.190
 8468SOL    HW126303   5.893   3.121   0.102
 8468SOL    HW226304   5.974   3.179   0.232
 8469SOL     OW26305   4.420   3.424   5.785
 8469SOL    HW126306   4.437   3.442   5.688
 8469SOL    HW226307   4.430   3.508   5.837
 8470SOL     OW26308   1.153   5.222   1.472
 8470SOL    HW126309   1.232   5.198   1.416
 8470SOL    HW226310   1.084   5.151   1.465
 8471SOL     OW26311   3.575   1.762   4.018
 8471SOL    HW126312   3.567   1.776   3.919
 8471SOL    HW226313   3.484   1.752   4.058
 8472SOL     OW26314   6.487   1.622   6.035
 8472SOL    HW126315   6.471   1.529   6.003
 8472SOL    HW226316   6.467   1.687   5.961
 8473SOL     OW26317   5.152   4.338   0.254
 8473SOL    HW126318   5.065   4.368   0.293
 8473SOL    HW226319   5.136   4.295   0.165
 8474SOL     OW26320   4.088   3.705   3.639
 8474SOL    HW126321   4.044   3.795   3.633
 8474SOL    HW226322   4.126   3.693   3.731
 8475SOL     OW26323   6.702   2.741   2.838
 8475SOL    HW126324   6.646   2.659   2.844
 8475SOL    HW226325   6.685   2.799   2.918
 8476SOL     OW26326   6.108   1.029   1.372
 8476SOL    HW126327   6.090   0.976   1.455
 8476SOL    HW226328   6.079   0.976   1.292
 8477SOL     OW26329   5.548   6.554   1.663
 8477SOL    HW126330   5.573   6.639   1.617
 8477SOL    HW226331   5.625   6.521   1.718
 8478SOL     OW26332   6.867   0.486   5.681
 8478SOL    HW126333   6.880   0.387   5.670
 8478SOL    HW226334   6.896   0.513   5.773
 8479SOL     OW26335   1.136   2.695   0.769
 8479SOL    HW126336   1.126   2.596   0.771
 8479SOL    HW226337   1.191   2.721   0.690
 8480SOL     OW26338   4.322   3.633   0.034
 8480SOL    HW126339   4.271   3.582   0.104
 8480SOL    HW226340   4.302   3.731   0.044
 8481SOL     OW26341   4.558   2.267   3.232
 8481SOL    HW126342   4.614   2.350   3.233
 8481SOL    HW226343   4.529   2.247   3.138
 8482SOL     OW26344   4.707   0.785   0.755
 8482SOL    HW126345   4.666   0.694   0.746
 8482SOL    HW226346   4.731   0.801   0.851
 8483SOL     OW26347   3.784   5.022   2.792
 8483SOL    HW126348   3.692   5.035   2.829
 8483SOL    HW226349   3.817   4.931   2.817
 8484SOL     OW26350   4.886   5.880   4.979
 8484SOL    HW126351   4.798   5.896   5.024
 8484SOL    HW226352   4.918   5.788   5.000
 8485SOL     OW26353   3.879   1.969   0.289
 8485SOL    HW126354   3.914   2.061   0.304
 8485SOL    HW226355   3.805   1.950   0.353
 8486SOL     OW26356   6.301   2.364   3.336
 8486SOL    HW126357   6.207   2.344   3.363
 8486SOL    HW226358   6.319   2.323   3.246
 8487SOL     OW26359   6.933   2.021   6.428
 8487SOL    HW126360   6.972   1.933   6.455
 8487SOL    HW226361   6.996   2.094   6.453
 8488SOL     OW26362   4.875   5.404   1.901
 8488SOL    HW126363   4.920   5.415   1.812
 8488SOL    HW226364   4.933   5.350   1.961
 8489SOL     OW26365   6.044   2.161   1.418
 8489SOL    HW126366   5.974   2.093   1.398
 8489SOL    HW226367   6.000   2.249   1.436
 8490SOL     OW26368   3.160   0.302   6.503
 8490SOL    HW126369   3.228   0.239   6.466
 8490SOL    HW226370   3.146   0.378   6.440
 8491SOL     OW26371   2.964   5.803   1.780
 8491SOL    HW126372   2.907   5.822   1.860
 8491SOL    HW226373   3.050   5.760   1.809
 8492SOL     OW26374   6.513   6.314   4.624
 8492SOL    HW126375   6.466   6.347   4.705
 8492SOL    HW226376   6.451   6.317   4.545
 8493SOL     OW26377   5.148   1.383   6.755
 8493SOL    HW126378   5.087   1.431   6.819
 8493SOL    HW226379   5.108   1.295   6.731
 8494SOL     OW26380   6.621   4.660   2.562
 8494SOL    HW126381   6.651   4.659   2.467
 8494SOL    HW226382   6.685   4.713   2.617
 8495SOL     OW26383   6.432   5.403   6.205
 8495SOL    HW126384   6.338   5.431   6.224
 8495SOL    HW226385   6.443   5.387   6.107
 8496SOL     OW26386   5.190   2.892   1.962
 8496SOL    HW126387   5.185   2.794   1.978
 8496SOL    HW226388   5.192   2.940   2.050
 8497SOL     OW26389   6.663   0.807   3.296
 8497SOL    HW126390   6.696   0.715   3.274
 8497SOL    HW226391   6.572   0.820   3.258
 8498SOL     OW26392   4.935   0.142   3.994
 8498SOL    HW126393   5.033   0.140   3.972
 8498SOL    HW226394   4.882   0.119   3.913
 8499SOL     OW26395   5.623   6.556   5.301
 8499SOL    HW126396   5.673   6.568   5.387
 8499SOL    HW226397   5.601   6.460   5.289
 8500SOL     OW26398   1.108   0.695   6.008
 8500SOL    HW126399   1.149   0.611   5.972
 8500SOL    HW226400   1.014   0.704   5.974
 8501SOL     OW26401   1.774   1.437   6.651
 8501SOL    HW126402   1.743   1.430   6.746
 8501SOL    HW226403   1.793   1.533   6.630
 8502SOL     OW26404   0.623   4.067   6.618
 8502SOL    HW126405   0.632   4.119   6.703
 8502SOL    HW226406   0.551   4.106   6.561
 8503SOL     OW26407   5.142   1.126   4.726
 8503SOL    HW126408   5.170   1.178   4.806
 8503SOL    HW226409   5.096   1.042   4.756
 8504SOL     OW26410   1.393   0.147   1.862
 8504SOL    HW126411   1.476   0.191   1.897
 8504SOL    HW226412   1.386   0.055   1.900
 8505SOL     OW26413   5.270   3.327   2.257
 8505SOL    HW126414   5.326   3.284   2.186
 8505SOL    HW226415   5.203   3.389   2.215
 8506SOL     OW26416   1.727   1.003   6.123
 8506SOL    HW126417   1.752   1.048   6.209
 8506SOL    HW226418   1.630   1.020   6.103
 8507SOL     OW26419   3.068   6.110   5.405
 8507SOL    HW126420   3.161   6.090   5.436
 8507SOL    HW226421   3.026   6.177   5.467
 8508SOL     OW26422   3.237   1.149   0.109
 8508SOL    HW126423   3.179   1.207   0.052
 8508SOL    HW226424   3.183   1.109   0.183
 8509SOL     OW26425   5.632   2.173   2.935
 8509SOL    HW126426   5.607   2.245   2.870
 8509SOL    HW226427   5.652   2.088   2.885
 8510SOL     OW26428   7.021   2.159   4.451
 8510SOL    HW126429   0.080   2.113   4.417
 8510SOL    HW226430   6.964   2.093   4.499
 8511SOL     OW26431   5.378   1.956   2.708
 8511SOL    HW126432   5.452   1.917   2.762
 8511SOL    HW226433   5.415   1.990   2.621
 8512SOL     OW26434   2.249   6.698   5.899
 8512SOL    HW126435   2.161   6.656   5.923
 8512SOL    HW226436   2.307   6.630   5.855
 8513SOL     OW26437   4.751   6.758   6.665
 8513SOL    HW126438   4.848   6.739   6.677
 8513SOL    HW226439   4.733   6.789   6.572
 8514SOL     OW26440   2.990   6.078   4.197
 8514SOL    HW126441   3.079   6.034   4.212
 8514SOL    HW226442   3.004   6.176   4.183
 8515SOL     OW26443   5.480   1.955   0.643
 8515SOL    HW126444   5.537   2.006   0.578
 8515SOL    HW226445   5.534   1.879   0.681
 8516SOL     OW26446   0.059   1.828   2.450
 8516SOL    HW126447   0.051   1.734   2.481
 8516SOL    HW226448   0.018   1.889   2.518
 8517SOL     OW26449   0.967   3.397   0.320
 8517SOL    HW126450   0.950   3.311   0.367
 8517SOL    HW226451   1.065   3.416   0.316
 8518SOL     OW26452   3.183   5.944   0.366
 8518SOL    HW126453   3.102   5.886   0.370
 8518SOL    HW226454   3.226   5.948   0.456
 8519SOL     OW26455   2.039   5.491   3.034
 8519SOL    HW126456   2.056   5.521   2.940
 8519SOL    HW226457   1.973   5.553   3.077
 8520SOL     OW26458   3.408   0.239   6.800
 8520SOL    HW126459   3.443   0.152   6.767
 8520SOL    HW226460   3.460   0.314   6.759
 8521SOL     OW26461   1.268   0.377   0.479
 8521SOL    HW126462   1.227   0.455   0.433
 8521SOL    HW226463   1.345   0.342   0.425
 8522SOL     OW26464   2.252   6.245   4.612
 8522SOL    HW126465   2.319   6.247   4.686
 8522SOL    HW226466   2.299   6.232   4.525
 8523SOL     OW26467   1.601   6.561   0.237
 8523SOL    HW126468   1.547   6.640   0.207
 8523SOL    HW226469   1.690   6.592   0.269
 8524SOL     OW26470   1.931   1.990   6.324
 8524SOL    HW126471   2.010   1.990   6.386
 8524SOL    HW226472   1.850   2.021   6.374
 8525SOL     OW26473   4.874   3.173   3.045
 8525SOL    HW126474   4.937   3.113   2.995
 8525SOL    HW226475   4.872   3.148   3.141
 8526SOL     OW26476   1.815   3.075   2.733
 8526SOL    HW126477   1.787   3.171   2.722
 8526SOL    HW226478   1.915   3.070   2.735
 8527SOL     OW26479   4.115   0.139   3.954
 8527SOL    HW126480   4.100   0.043   3.978
 8527SOL    HW226481   4.061   0.198   4.015
 8528SOL     OW26482   5.129   2.651   6.920
 8528SOL    HW126483   5.192   2.722   6.890
 8528SOL    HW226484   5.041   2.692   6.944
 8529SOL     OW26485   0.328   5.271   6.642
 8529SOL    HW126486   0.306   5.196   6.704
 8529SOL    HW226487   0.409   5.247   6.588
 8530SOL     OW26488   1.261   3.872   5.789
 8530SOL    HW126489   1.336   3.819   5.750
 8530SOL    HW226490   1.189   3.882   5.720
 8531SOL     OW26491   4.037   4.874   2.045
 8531SOL    HW126492   3.955   4.892   1.992
 8531SOL    HW226493   4.041   4.936   2.123
 8532SOL     OW26494   1.580   4.049   6.777
 8532SOL    HW126495   1.654   4.001   6.730
 8532SOL    HW226496   1.555   4.131   6.726
 8533SOL     OW26497   3.881   0.204   5.996
 8533SOL    HW126498   3.831   0.270   5.941
 8533SOL    HW226499   3.967   0.243   6.027
 8534SOL     OW26500   1.439   2.763   2.556
 8534SOL    HW126501   1.526   2.799   2.589
 8534SOL    HW226502   1.368   2.782   2.624
 8535SOL     OW26503   6.656   3.261   5.084
 8535SOL    HW126504   6.712   3.188   5.123
 8535SOL    HW226505   6.625   3.235   4.993
 8536SOL     OW26506   0.065   1.160   4.111
 8536SOL    HW126507   0.071   1.195   4.017
 8536SOL    HW226508   0.085   1.234   4.175
 8537SOL     OW26509   5.364   6.906   2.891
 8537SOL    HW126510   5.441   6.854   2.928
 8537SOL    HW226511   5.292   6.913   2.961
 8538SOL     OW26512   5.760   0.980   5.462
 8538SOL    HW126513   5.699   1.036   5.406
 8538SOL    HW226514   5.730   0.885   5.460
 8539SOL     OW26515   0.265   3.167   3.227
 8539SOL    HW126516   0.359   3.197   3.215
 8539SOL    HW226517   0.258   3.069   3.207
 8540SOL     OW26518   4.125   6.974   6.812
 8540SOL    HW126519   4.084   0.042   6.817
 8540SOL    HW226520   4.054   6.905   6.823
 8541SOL     OW26521   3.125   6.086   5.142
 8541SOL    HW126522   3.043   6.075   5.087
 8541SOL    HW226523   3.100   6.106   5.237
 8542SOL     OW26524   1.297   6.044   5.978
 8542SOL    HW126525   1.357   6.101   6.035
 8542SOL    HW226526   1.344   6.021   5.893
 8543SOL     OW26527   2.660   2.813   6.132
 8543SOL    HW126528   2.683   2.738   6.070
 8543SOL    HW226529   2.629   2.892   6.079
 8544SOL     OW26530   5.382   5.298   5.275
 8544SOL    HW126531   5.479   5.271   5.278
 8544SOL    HW226532   5.376   5.398   5.278
 8545SOL     OW26533   2.439   0.115   6.607
 8545SOL    HW126534   2.484   0.087   6.522
 8545SOL    HW226535   2.378   0.192   6.588
 8546SOL     OW26536   4.583   1.047   3.111
 8546SOL    HW126537   4.578   1.145   3.130
 8546SOL    HW226538   4.676   1.014   3.128
 8547SOL     OW26539   5.628   6.443   5.743
 8547SOL    HW126540   5.654   6.353   5.777
 8547SOL    HW226541   5.632   6.509   5.818
 8548SOL     OW26542   0.970   3.572   4.833
 8548SOL    HW126543   0.970   3.655   4.777
 8548SOL    HW226544   1.047   3.514   4.805
 8549SOL     OW26545   0.992   0.416   4.319
 8549SOL    HW126546   1.003   0.318   4.335
 8549SOL    HW226547   1.003   0.436   4.222
 8550SOL     OW26548   6.846   5.329   5.752
 8550SOL    HW126549   6.874   5.274   5.673
 8550SOL    HW226550   6.907   5.311   5.829
 8551SOL     OW26551   2.457   0.308   5.477
 8551SOL    HW126552   2.534   0.322   5.539
 8551SOL    HW226553   2.424   0.397   5.445
 8552SOL     OW26554   2.865   1.455   2.009
 8552SOL    HW126555   2.828   1.404   1.932
 8552SOL    HW226556   2.949   1.502   1.982
 8553SOL     OW26557   5.229   3.816   0.433
 8553SOL    HW126558   5.194   3.746   0.496
 8553SOL    HW226559   5.152   3.873   0.402
 8554SOL     OW26560   2.028   0.757   0.229
 8554SOL    HW126561   1.964   0.792   0.160
 8554SOL    HW226562   2.088   0.689   0.187
 8555SOL     OW26563   4.188   1.775   4.097
 8555SOL    HW126564   4.100   1.789   4.142
 8555SOL    HW226565   4.174   1.768   3.998
 8556SOL     OW26566   0.584   5.769   5.987
 8556SOL    HW126567   0.584   5.762   6.087
 8556SOL    HW226568   0.490   5.756   5.954
 8557SOL     OW26569   6.962   0.837   6.634
 8557SOL    HW126570   6.905   0.840   6.716
 8557SOL    HW226571   0.035   0.827   6.660
 8558SOL     OW26572   2.753   5.981   4.254
 8558SOL    HW126573   2.830   6.038   4.226
 8558SOL    HW226574   2.707   6.023   4.332
 8559SOL     OW26575   2.139   4.356   2.645
 8559SOL    HW126576   2.133   4.392   2.738
 8559SOL    HW226577   2.181   4.265   2.647
 8560SOL     OW26578   2.712   4.264   0.720
 8560SOL    HW126579   2.689   4.195   0.651
 8560SOL    HW226580   2.630   4.313   0.747
 8561SOL     OW26581   3.711   0.403   2.813
 8561SOL    HW126582   3.631   0.463   2.820
 8561SOL    HW226583   3.684   0.308   2.830
 8562SOL     OW26584   5.463   2.222   0.180
 8562SOL    HW126585   5.482   2.126   0.159
 8562SOL    HW226586   5.530   2.255   0.247
 8563SOL     OW26587   3.044   5.232   2.234
 8563SOL    HW126588   3.125   5.234   2.176
 8563SOL    HW226589   3.071   5.221   2.329
 8564SOL     OW26590   4.385   6.708   0.397
 8564SOL    HW126591   4.301   6.686   0.447
 8564SOL    HW226592   4.456   6.641   0.420
 8565SOL     OW26593   1.633   4.533   1.502
 8565SOL    HW126594   1.595   4.607   1.558
 8565SOL    HW226595   1.561   4.466   1.483
 8566SOL     OW26596   3.322   0.780   2.365
 8566SOL    HW126597   3.373   0.864   2.382
 8566SOL    HW226598   3.335   0.751   2.270
 8567SOL     OW26599   1.438   2.566   2.387
 8567SOL    HW126600   1.520   2.511   2.404
 8567SOL    HW226601   1.431   2.638   2.457
 8568SOL     OW26602   6.054   0.446   6.223
 8568SOL    HW126603   6.118   0.461   6.147
 8568SOL    HW226604   6.003   0.531   6.241
 8569SOL     OW26605   4.556   2.163   0.390
 8569SOL    HW126606   4.651   2.194   0.387
 8569SOL    HW226607   4.495   2.239   0.367
 8570SOL     OW26608   2.464   2.095   1.875
 8570SOL    HW126609   2.503   2.085   1.783
 8570SOL    HW226610   2.423   2.186   1.884
 8571SOL     OW26611   1.756   0.908   2.875
 8571SOL    HW126612   1.731   0.811   2.869
 8571SOL    HW226613   1.675   0.962   2.899
 8572SOL     OW26614   2.605   4.154   5.818
 8572SOL    HW126615   2.610   4.240   5.869
 8572SOL    HW226616   2.653   4.164   5.731
 8573SOL     OW26617   3.110   6.257   6.909
 8573SOL    HW126618   3.055   6.280   6.989
 8573SOL    HW226619   3.152   6.167   6.921
 8574SOL     OW26620   4.752   0.666   5.419
 8574SOL    HW126621   4.832   0.704   5.372
 8574SOL    HW226622   4.675   0.728   5.408
 8575SOL     OW26623   3.667   6.037   3.854
 8575SOL    HW126624   3.598   6.023   3.783
 8575SOL    HW226625   3.622   6.046   3.943
 8576SOL     OW26626   1.541   4.510   4.523
 8576SOL    HW126627   1.623   4.452   4.523
 8576SOL    HW226628   1.566   4.604   4.500
 8577SOL     OW26629   2.122   1.688   0.849
 8577SOL    HW126630   2.057   1.657   0.779
 8577SOL    HW226631   2.211   1.645   0.833
 8578SOL     OW26632   0.535   0.316   0.060
 8578SOL    HW126633   0.627   0.281   0.043
 8578SOL    HW226634   0.503   0.369   7.005
 8579SOL     OW26635   2.556   6.734   2.426
 8579SOL    HW126636   2.636   6.783   2.461
 8579SOL    HW226637   2.474   6.766   2.474
 8580SOL     OW26638   1.642   0.236   1.974
 8580SOL    HW126639   1.680   0.184   2.051
 8580SOL    HW226640   1.707   0.235   1.899
 8581SOL     OW26641   3.423   4.708   0.808
 8581SOL    HW126642   3.480   4.703   0.726
 8581SOL    HW226643   3.347   4.771   0.793
 8582SOL     OW26644   3.811   5.332   5.355
 8582SOL    HW126645   3.844   5.266   5.287
 8582SOL    HW226646   3.857   5.420   5.341
 8583SOL     OW26647   3.852   6.439   2.741
 8583SOL    HW126648   3.803   6.440   2.654
 8583SOL    HW226649   3.795   6.396   2.811
 8584SOL     OW26650   6.690   1.259   4.593
 8584SOL    HW126651   6.680   1.216   4.503
 8584SOL    HW226652   6.611   1.236   4.650
 8585SOL     OW26653   5.549   3.002   2.861
 8585SOL    HW126654   5.599   3.080   2.898
 8585SOL    HW226655   5.502   3.029   2.777
 8586SOL     OW26656   6.613   6.363   6.743
 8586SOL    HW126657   6.677   6.328   6.812
 8586SOL    HW226658   6.521   6.366   6.782
 8587SOL     OW26659   0.376   2.076   0.064
 8587SOL    HW126660   0.312   2.119   0.128
 8587SOL    HW226661   0.469   2.105   0.086
 8588SOL     OW26662   2.728   0.806   5.701
 8588SOL    HW126663   2.778   0.801   5.788
 8588SOL    HW226664   2.633   0.782   5.716
 8589SOL     OW26665   5.781   2.865   6.848
 8589SOL    HW126666   5.776   2.940   6.782
 8589SOL    HW226667   5.787   2.903   6.941
 8590SOL     OW26668   0.753   0.652   4.218
 8590SOL    HW126669   0.717   0.561   4.241
 8590SOL    HW226670   0.679   0.711   4.189
 8591SOL     OW26671   6.784   4.420   6.566
 8591SOL    HW126672   6.848   4.496   6.551
 8591SOL    HW226673   6.810   4.343   6.508
 8592SOL     OW26674   0.536   1.606   4.638
 8592SOL    HW126675   0.521   1.573   4.731
 8592SOL    HW226676   0.483   1.550   4.574
 8593SOL     OW26677   5.465   1.466   6.980
 8593SOL    HW126678   5.563   1.456   6.992
 8593SOL    HW226679   5.432   1.542   0.013
 8594SOL     OW26680   5.986   3.606   6.408
 8594SOL    HW126681   5.941   3.621   6.496
 8594SOL    HW226682   5.983   3.509   6.385
 8595SOL     OW26683   6.181   6.375   3.173
 8595SOL    HW126684   6.198   6.458   3.119
 8595SOL    HW226685   6.120   6.397   3.249
 8596SOL     OW26686   0.349   1.322   4.052
 8596SOL    HW126687   0.265   1.332   3.998
 8596SOL    HW226688   0.325   1.290   4.144
 8597SOL     OW26689   6.110   2.898   5.841
 8597SOL    HW126690   6.085   2.841   5.763
 8597SOL    HW226691   6.209   2.897   5.852
 8598SOL     OW26692   6.165   0.078   5.062
 8598SOL    HW126693   6.073   0.116   5.053
 8598SOL    HW226694   6.202   0.101   5.152
 8599SOL     OW26695   6.667   4.028   4.192
 8599SOL    HW126696   6.697   4.008   4.285
 8599SOL    HW226697   6.722   3.975   4.127
 8600SOL     OW26698   4.838   2.498   0.797
 8600SOL    HW126699   4.924   2.548   0.800
 8600SOL    HW226700   4.845   2.417   0.855
 8601SOL     OW26701   6.665   5.902   3.486
 8601SOL    HW126702   6.747   5.955   3.507
 8601SOL    HW226703   6.584   5.952   3.517
 8602SOL     OW26704   1.999   6.635   6.119
 8602SOL    HW126705   1.957   6.595   6.037
 8602SOL    HW226706   2.088   6.593   6.134
 8603SOL     OW26707   1.062   0.557   0.049
 8603SOL    HW126708   0.988   0.567   7.006
 8603SOL    HW226709   1.077   0.460   0.069
 8604SOL     OW26710   1.213   4.635   5.919
 8604SOL    HW126711   1.280   4.645   5.846
 8604SOL    HW226712   1.205   4.722   5.969
 8605SOL     OW26713   6.800   4.499   4.299
 8605SOL    HW126714   6.787   4.477   4.396
 8605SOL    HW226715   6.749   4.434   4.243
 8606SOL     OW26716   1.506   2.366   0.437
 8606SOL    HW126717   1.494   2.315   0.352
 8606SOL    HW226718   1.542   2.457   0.416
 8607SOL     OW26719   2.107   3.986   1.723
 8607SOL    HW126720   2.132   3.892   1.747
 8607SOL    HW226721   2.026   4.014   1.775
 8608SOL     OW26722   1.656   5.802   2.828
 8608SOL    HW126723   1.670   5.706   2.805
 8608SOL    HW226724   1.671   5.815   2.926
 8609SOL     OW26725   4.488   1.557   4.611
 8609SOL    HW126726   4.445   1.480   4.564
 8609SOL    HW226727   4.441   1.641   4.586
 8610SOL     OW26728   6.931   6.057   3.189
 8610SOL    HW126729   6.918   5.997   3.110
 8610SOL    HW226730   6.846   6.105   3.209
 8611SOL     OW26731   2.710   1.228   4.679
 8611SOL    HW126732   2.636   1.212   4.743
 8611SOL    HW226733   2.684   1.195   4.588
 8612SOL     OW26734   3.465   2.924   4.096
 8612SOL    HW126735   3.465   2.825   4.082
 8612SOL    HW226736   3.498   2.969   4.014
 8613SOL     OW26737   4.065   3.245   2.441
 8613SOL    HW126738   4.091   3.255   2.346
 8613SOL    HW226739   4.095   3.325   2.493
 8614SOL     OW26740   1.147   2.690   3.255
 8614SOL    HW126741   1.199   2.730   3.181
 8614SOL    HW226742   1.185   2.719   3.343
 8615SOL     OW26743   3.519   1.641   4.756
 8615SOL    HW126744   3.466   1.625   4.838
 8615SOL    HW226745   3.513   1.738   4.730
 8616SOL     OW26746   5.512   4.435   3.872
 8616SOL    HW126747   5.585   4.404   3.933
 8616SOL    HW226748   5.551   4.487   3.797
 8617SOL     OW26749   2.133   0.366   3.578
 8617SOL    HW126750   2.057   0.431   3.580
 8617SOL    HW226751   2.219   0.417   3.572
 8618SOL     OW26752   5.723   3.877   1.556
 8618SOL    HW126753   5.679   3.966   1.542
 8618SOL    HW226754   5.712   3.849   1.651
 8619SOL     OW26755   5.119   5.671   0.312
 8619SOL    HW126756   5.031   5.707   0.344
 8619SOL    HW226757   5.193   5.722   0.356
 8620SOL     OW26758   2.421   0.380   4.347
 8620SOL    HW126759   2.438   0.478   4.356
 8620SOL    HW226760   2.323   0.361   4.359
 8621SOL     OW26761   5.607   3.368   1.489
 8621SOL    HW126762   5.543   3.444   1.498
 8621SOL    HW226763   5.698   3.403   1.470
 8622SOL     OW26764   0.035   5.300   2.450
 8622SOL    HW126765   6.992   5.324   2.521
 8622SOL    HW226766   0.120   5.350   2.466
 8623SOL     OW26767   1.251   3.181   3.977
 8623SOL    HW126768   1.287   3.271   3.953
 8623SOL    HW226769   1.185   3.152   3.908
 8624SOL     OW26770   3.105   4.099   4.946
 8624SOL    HW126771   3.092   4.198   4.957
 8624SOL    HW226772   3.091   4.074   4.851
 8625SOL     OW26773   3.507   2.748   5.257
 8625SOL    HW126774   3.516   2.768   5.160
 8625SOL    HW226775   3.417   2.708   5.275
 8626SOL     OW26776   4.030   2.785   0.992
 8626SOL    HW126777   3.999   2.842   1.067
 8626SOL    HW226778   4.046   2.692   1.025
 8627SOL     OW26779   1.979   1.082   2.397
 8627SOL    HW126780   2.008   0.993   2.361
 8627SOL    HW226781   1.886   1.101   2.368
 8628SOL     OW26782   0.682   6.199   0.505
 8628SOL    HW126783   0.615   6.270   0.484
 8628SOL    HW226784   0.673   6.125   0.438
 8629SOL     OW26785   6.994   6.588   5.285
 8629SOL    HW126786   6.961   6.495   5.298
 8629SOL    HW226787   7.010   6.604   5.187
 8630SOL     OW26788   4.705   2.748   2.007
 8630SOL    HW126789   4.675   2.733   2.102
 8630SOL    HW226790   4.728   2.845   1.994
 8631SOL     OW26791   2.613   6.096   6.552
 8631SOL    HW126792   2.552   6.025   6.589
 8631SOL    HW226793   2.635   6.162   6.625
 8632SOL     OW26794   5.586   5.419   4.481
 8632SOL    HW126795   5.527   5.362   4.538
 8632SOL    HW226796   5.619   5.366   4.403
 8633SOL     OW26797   6.001   4.170   5.350
 8633SOL    HW126798   5.915   4.218   5.364
 8633SOL    HW226799   6.046   4.204   5.267
 8634SOL     OW26800   4.979   3.585   0.060
 8634SOL    HW126801   5.077   3.574   0.039
 8634SOL    HW226802   4.952   3.516   0.127
 8635SOL     OW26803   6.085   2.411   6.859
 8635SOL    HW126804   6.123   2.476   6.793
 8635SOL    HW226805   5.994   2.442   6.888
 8636SOL     OW26806   4.722   6.752   1.583
 8636SOL    HW126807   4.759   6.726   1.672
 8636SOL    HW226808   4.667   6.678   1.546
 8637SOL     OW26809   2.413   2.015   6.159
 8637SOL    HW126810   2.427   1.921   6.189
 8637SOL    HW226811   2.317   2.028   6.134
 8638SOL     OW26812   4.769   2.882   3.181
 8638SOL    HW126813   4.750   2.831   3.265
 8638SOL    HW226814   4.720   2.839   3.105
 8639SOL     OW26815   3.848   3.491   6.908
 8639SOL    HW126816   3.799   3.431   6.971
 8639SOL    HW226817   3.877   3.574   6.957
 8640SOL     OW26818   3.096   3.070   0.794
 8640SOL    HW126819   3.076   3.013   0.714
 8640SOL    HW226820   3.144   3.153   0.765
 8641SOL     OW26821   4.068   5.036   2.252
 8641SOL    HW126822   4.108   5.115   2.206
 8641SOL    HW226823   4.089   5.039   2.349
 8642SOL     OW26824   1.195   5.221   2.938
 8642SOL    HW126825   1.107   5.241   2.894
 8642SOL    HW226826   1.229   5.303   2.983
 8643SOL     OW26827   4.166   6.587   1.045
 8643SOL    HW126828   4.155   6.577   1.144
 8643SOL    HW226829   4.078   6.573   1.000
 8644SOL     OW26830   6.337   2.121   5.951
 8644SOL    HW126831   6.414   2.095   6.009
 8644SOL    HW226832   6.252   2.089   5.992
 8645SOL     OW26833   5.590   5.171   2.844
 8645SOL    HW126834   5.643   5.092   2.875
 8645SOL    HW226835   5.646   5.254   2.850
 8646SOL     OW26836   6.294   2.180   4.610
 8646SOL    HW126837   6.256   2.270   4.589
 8646SOL    HW226838   6.220   2.119   4.638
 8647SOL     OW26839   1.910   5.562   1.855
 8647SOL    HW126840   1.863   5.473   1.860
 8647SOL    HW226841   1.996   5.551   1.805
 8648SOL     OW26842   4.962   4.694   0.786
 8648SOL    HW126843   4.907   4.645   0.719
 8648SOL    HW226844   4.984   4.634   0.863
 8649SOL     OW26845   5.753   0.784   1.239
 8649SOL    HW126846   5.665   0.817   1.274
 8649SOL    HW226847   5.742   0.692   1.202
 8650SOL     OW26848   2.316   6.654   5.384
 8650SOL    HW126849   2.381   6.647   5.308
 8650SOL    HW226850   2.290   6.563   5.415
 8651SOL     OW26851   4.009   2.618   1.720
 8651SOL    HW126852   4.024   2.523   1.745
 8651SOL    HW226853   4.092   2.656   1.679
 8652SOL     OW26854   1.232   2.971   3.693
 8652SOL    HW126855   1.306   3.038   3.690
 8652SOL    HW226856   1.241   2.908   3.616
 8653SOL     OW26857   6.561   1.906   6.783
 8653SOL    HW126858   6.591   2.000   6.766
 8653SOL    HW226859   6.544   1.860   6.696
 8654SOL     OW26860   0.608   4.511   2.553
 8654SOL    HW126861   0.576   4.606   2.552
 8654SOL    HW226862   0.589   4.468   2.466
 8655SOL     OW26863   0.117   0.367   4.677
 8655SOL    HW126864   0.122   0.317   4.764
 8655SOL    HW226865   0.205   0.412   4.660
 8656SOL     OW26866   4.759   6.657   1.192
 8656SOL    HW126867   4.764   6.613   1.103
 8656SOL    HW226868   4.781   6.754   1.182
 8657SOL     OW26869   3.870   1.591   3.176
 8657SOL    HW126870   3.927   1.512   3.151
 8657SOL    HW226871   3.879   1.609   3.274
 8658SOL     OW26872   5.561   4.252   1.112
 8658SOL    HW126873   5.517   4.184   1.171
 8658SOL    HW226874   5.651   4.275   1.149
 8659SOL     OW26875   3.083   0.898   2.529
 8659SOL    HW126876   3.041   0.974   2.479
 8659SOL    HW226877   3.145   0.849   2.468
 8660SOL     OW26878   0.712   4.764   1.975
 8660SOL    HW126879   0.805   4.734   1.994
 8660SOL    HW226880   0.697   4.766   1.876
 8661SOL     OW26881   7.008   3.776   2.745
 8661SOL    HW126882   0.064   3.837   2.743
 8661SOL    HW226883   6.927   3.826   2.712
 8662SOL     OW26884   1.948   3.445   3.762
 8662SOL    HW126885   1.982   3.528   3.808
 8662SOL    HW226886   1.965   3.366   3.820
 8663SOL     OW26887   4.003   5.361   2.433
 8663SOL    HW126888   4.040   5.373   2.341
 8663SOL    HW226889   4.066   5.400   2.501
 8664SOL     OW26890   4.008   5.959   3.320
 8664SOL    HW126891   4.083   6.021   3.296
 8664SOL    HW226892   4.036   5.901   3.396
 8665SOL     OW26893   5.450   3.885   6.293
 8665SOL    HW126894   5.545   3.862   6.274
 8665SOL    HW226895   5.425   3.852   6.384
 8666SOL     OW26896   4.705   6.919   2.543
 8666SOL    HW126897   4.627   6.961   2.588
 8666SOL    HW226898   4.749   6.854   2.606
 8667SOL     OW26899   4.958   2.315   2.877
 8667SOL    HW126900   5.035   2.324   2.814
 8667SOL    HW226901   4.951   2.220   2.908
 8668SOL     OW26902   4.793   2.500   5.059
 8668SOL    HW126903   4.717   2.563   5.038
 8668SOL    HW226904   4.807   2.496   5.158
 8669SOL     OW26905   6.662   6.216   6.148
 8669SOL    HW126906   6.587   6.190   6.208
 8669SOL    HW226907   6.663   6.315   6.137
 8670SOL     OW26908   6.513   4.582   5.727
 8670SOL    HW126909   6.558   4.616   5.809
 8670SOL    HW226910   6.415   4.573   5.744
 8671SOL     OW26911   0.901   3.482   3.133
 8671SOL    HW126912   0.896   3.392   3.175
 8671SOL    HW226913   0.997   3.508   3.119
 8672SOL     OW26914   0.309   1.295   2.080
 8672SOL    HW126915   0.401   1.259   2.096
 8672SOL    HW226916   0.253   1.225   2.035
 8673SOL     OW26917   0.934   2.031   1.592
 8673SOL    HW126918   1.014   1.973   1.573
 8673SOL    HW226919   0.951   2.087   1.673
 8674SOL     OW26920   0.021   4.002   3.450
 8674SOL    HW126921   0.018   4.069   3.375
 8674SOL    HW226922   0.012   4.050   3.537
 8675SOL     OW26923   4.042   2.235   4.816
 8675SOL    HW126924   4.112   2.234   4.744
 8675SOL    HW226925   4.072   2.295   4.891
 8676SOL     OW26926   5.239   1.258   0.983
 8676SOL    HW126927   5.324   1.208   1.000
 8676SOL    HW226928   5.238   1.340   1.040
 8677SOL     OW26929   2.456   6.840   5.580
 8677SOL    HW126930   2.477   6.926   5.533
 8677SOL    HW226931   2.373   6.801   5.541
 8678SOL     OW26932   1.752   2.130   0.598
 8678SOL    HW126933   1.841   2.173   0.584
 8678SOL    HW226934   1.679   2.196   0.577
 8679SOL     OW26935   1.530   2.151   6.305
 8679SOL    HW126936   1.487   2.102   6.230
 8679SOL    HW226937   1.486   2.240   6.315
 8680SOL     OW26938   6.857   1.016   0.274
 8680SOL    HW126939   6.894   0.924   0.288
 8680SOL    HW226940   6.757   1.011   0.264
 8681SOL     OW26941   5.220   6.201   1.312
 8681SOL    HW126942   5.287   6.225   1.242
 8681SOL    HW226943   5.128   6.203   1.272
 8682SOL     OW26944   2.019   0.567   2.135
 8682SOL    HW126945   1.958   0.588   2.059
 8682SOL    HW226946   2.013   0.469   2.156
 8683SOL     OW26947   2.394   4.838   4.753
 8683SOL    HW126948   2.331   4.773   4.712
 8683SOL    HW226949   2.454   4.791   4.817
 8684SOL     OW26950   2.517   4.616   4.420
 8684SOL    HW126951   2.502   4.518   4.427
 8684SOL    HW226952   2.435   4.665   4.452
 8685SOL     OW26953   4.901   2.596   4.838
 8685SOL    HW126954   4.879   2.551   4.924
 8685SOL    HW226955   4.869   2.541   4.761
 8686SOL     OW26956   0.907   4.822   3.145
 8686SOL    HW126957   0.884   4.762   3.068
 8686SOL    HW226958   0.832   4.887   3.160
 8687SOL     OW26959   5.385   4.170   5.505
 8687SOL    HW126960   5.396   4.133   5.413
 8687SOL    HW226961   5.292   4.152   5.538
 8688SOL     OW26962   1.349   3.667   5.029
 8688SOL    HW126963   1.366   3.592   4.966
 8688SOL    HW226964   1.318   3.748   4.978
 8689SOL     OW26965   4.078   3.319   7.001
 8689SOL    HW126966   4.070   3.393   6.933
 8689SOL    HW226967   4.155   3.260   6.976
 8690SOL     OW26968   1.410   2.233   2.546
 8690SOL    HW126969   1.346   2.180   2.490
 8690SOL    HW226970   1.470   2.286   2.487
 8691SOL     OW26971   3.563   2.442   5.468
 8691SOL    HW126972   3.559   2.539   5.492
 8691SOL    HW226973   3.658   2.415   5.455
 8692SOL     OW26974   4.496   1.863   4.961
 8692SOL    HW126975   4.439   1.787   4.931
 8692SOL    HW226976   4.457   1.950   4.928
 8693SOL     OW26977   6.873   0.045   6.028
 8693SOL    HW126978   6.957   0.035   5.975
 8693SOL    HW226979   6.796   0.010   5.976
 8694SOL     OW26980   4.966   2.783   5.273
 8694SOL    HW126981   5.001   2.855   5.333
 8694SOL    HW226982   5.018   2.782   5.187
 8695SOL     OW26983   3.596   4.461   0.104
 8695SOL    HW126984   3.591   4.455   0.004
 8695SOL    HW226985   3.676   4.515   0.130
 8696SOL     OW26986   3.092   5.460   5.530
 8696SOL    HW126987   3.023   5.416   5.472
 8696SOL    HW226988   3.110   5.403   5.611
 8697SOL     OW26989   1.597   3.762   5.497
 8697SOL    HW126990   1.511   3.776   5.448
 8697SOL    HW226991   1.594   3.813   5.583
 8698SOL     OW26992   4.718   5.093   6.050
 8698SOL    HW126993   4.689   5.072   5.956
 8698SOL    HW226994   4.647   5.149   6.094
 8699SOL     OW26995   1.698   2.406   6.774
 8699SOL    HW126996   1.650   2.434   6.690
 8699SOL    HW226997   1.797   2.408   6.758
 8700SOL     OW26998   1.300   0.743   4.126
 8700SOL    HW126999   1.341   0.822   4.081
 8700SOL    HW227000   1.318   0.747   4.224
 8701SOL     OW27001   1.587   2.492   6.518
 8701SOL    HW127002   1.490   2.504   6.540
 8701SOL    HW227003   1.606   2.535   6.430
 8702SOL     OW27004   5.316   4.806   1.035
 8702SOL    HW127005   5.386   4.866   1.076
 8702SOL    HW227006   5.250   4.780   1.105
 8703SOL     OW27007   2.947   5.966   0.903
 8703SOL    HW127008   2.875   5.923   0.849
 8703SOL    HW227009   2.935   5.943   1.000
 8704SOL     OW27010   0.444   1.147   5.102
 8704SOL    HW127011   0.500   1.182   5.177
 8704SOL    HW227012   0.500   1.091   5.041
 8705SOL     OW27013   3.950   2.238   6.882
 8705SOL    HW127014   3.888   2.212   6.956
 8705SOL    HW227015   4.042   2.207   6.904
 8706SOL     OW27016   4.771   2.876   6.427
 8706SOL    HW127017   4.712   2.956   6.425
 8706SOL    HW227018   4.719   2.795   6.399
 8707SOL     OW27019   2.747   1.431   4.385
 8707SOL    HW127020   2.751   1.334   4.408
 8707SOL    HW227021   2.672   1.474   4.435
 8708SOL     OW27022   5.764   2.792   0.804
 8708SOL    HW127023   5.673   2.759   0.782
 8708SOL    HW227024   5.812   2.816   0.719
 8709SOL     OW27025   5.710   7.003   5.203
 8709SOL    HW127026   5.646   6.946   5.253
 8709SOL    HW227027   5.661   0.035   5.136
 8710SOL     OW27028   1.800   1.658   3.225
 8710SOL    HW127029   1.771   1.620   3.138
 8710SOL    HW227030   1.867   1.598   3.268
 8711SOL     OW27031   1.350   1.587   1.723
 8711SOL    HW127032   1.389   1.541   1.804
 8711SOL    HW227033   1.322   1.518   1.656
 8712SOL     OW27034   1.242   3.992   5.206
 8712SOL    HW127035   1.188   4.068   5.242
 8712SOL    HW227036   1.218   3.976   5.111
 8713SOL     OW27037   0.318   3.511   1.116
 8713SOL    HW127038   0.237   3.483   1.065
 8713SOL    HW227039   0.380   3.433   1.124
 8714SOL     OW27040   6.918   5.172   6.773
 8714SOL    HW127041   6.830   5.206   6.741
 8714SOL    HW227042   6.954   5.233   6.844
 8715SOL     OW27043   1.866   3.645   1.808
 8715SOL    HW127044   1.819   3.709   1.749
 8715SOL    HW227045   1.937   3.693   1.861
 8716SOL     OW27046   6.414   0.331   2.154
 8716SOL    HW127047   6.448   0.343   2.061
 8716SOL    HW227048   6.468   0.387   2.217
 8717SOL     OW27049   2.977   2.834   6.866
 8717SOL    HW127050   2.927   2.764   6.917
 8717SOL    HW227051   2.923   2.864   6.788
 8718SOL     OW27052   2.526   4.928   6.195
 8718SOL    HW127053   2.437   4.961   6.224
 8718SOL    HW227054   2.553   4.975   6.111
 8719SOL     OW27055   3.228   0.444   4.777
 8719SOL    HW127056   3.163   0.385   4.730
 8719SOL    HW227057   3.305   0.463   4.717
 8720SOL     OW27058   7.013   4.911   4.952
 8720SOL    HW127059   0.027   5.002   4.964
 8720SOL    HW227060   6.942   4.913   4.881
 8721SOL     OW27061   0.786   0.155   0.076
 8721SOL    HW127062   0.766   0.145   7.001
 8721SOL    HW227063   0.879   0.126   0.095
 8722SOL     OW27064   3.085   1.088   0.714
 8722SOL    HW127065   3.017   1.021   0.683
 8722SOL    HW227066   3.094   1.160   0.646
 8723SOL     OW27067   3.684   6.955   2.473
 8723SOL    HW127068   3.752   6.885   2.493
 8723SOL    HW227069   3.624   6.924   2.399
 8724SOL     OW27070   3.698   1.303   4.366
 8724SOL    HW127071   3.681   1.352   4.451
 8724SOL    HW227072   3.706   1.205   4.386
 8725SOL     OW27073   6.932   6.808   3.777
 8725SOL    HW127074   6.958   6.821   3.873
 8725SOL    HW227075   6.916   6.710   3.760
 8726SOL     OW27076   6.743   1.421   0.911
 8726SOL    HW127077   6.734   1.381   1.002
 8726SOL    HW227078   6.816   1.375   0.861
 8727SOL     OW27079   4.925   6.402   6.405
 8727SOL    HW127080   4.945   6.499   6.391
 8727SOL    HW227081   4.925   6.355   6.317
 8728SOL     OW27082   6.456   0.100   4.651
 8728SOL    HW127083   6.520   0.176   4.635
 8728SOL    HW227084   6.433   0.057   4.564
 8729SOL     OW27085   5.645   5.658   6.334
 8729SOL    HW127086   5.557   5.615   6.356
 8729SOL    HW227087   5.635   5.757   6.335
 8730SOL     OW27088   5.313   5.457   1.128
 8730SOL    HW127089   5.323   5.465   1.029
 8730SOL    HW227090   5.219   5.479   1.154
 8731SOL     OW27091   6.360   1.564   3.717
 8731SOL    HW127092   6.393   1.619   3.794
 8731SOL    HW227093   6.311   1.622   3.652
 8732SOL     OW27094   5.735   6.772   6.740
 8732SOL    HW127095   5.679   6.763   6.657
 8732SOL    HW227096   5.677   6.761   6.821
 8733SOL     OW27097   6.542   4.406   2.406
 8733SOL    HW127098   6.561   4.385   2.310
 8733SOL    HW227099   6.464   4.353   2.437
 8734SOL     OW27100   0.874   4.193   1.464
 8734SOL    HW127101   0.941   4.189   1.390
 8734SOL    HW227102   0.920   4.221   1.549
 8735SOL     OW27103   0.219   2.771   4.810
 8735SOL    HW127104   0.233   2.783   4.712
 8735SOL    HW227105   0.230   2.674   4.834
 8736SOL     OW27106   1.159   6.009   3.300
 8736SOL    HW127107   1.210   6.091   3.323
 8736SOL    HW227108   1.222   5.932   3.292
 8737SOL     OW27109   1.219   5.683   0.426
 8737SOL    HW127110   1.214   5.590   0.390
 8737SOL    HW227111   1.133   5.730   0.410
 8738SOL     OW27112   1.305   3.090   2.901
 8738SOL    HW127113   1.209   3.073   2.878
 8738SOL    HW227114   1.353   3.002   2.906
 8739SOL     OW27115   5.927   4.959   4.713
 8739SOL    HW127116   5.980   5.004   4.785
 8739SOL    HW227117   5.976   4.967   4.626
 8740SOL     OW27118   3.104   0.958   4.804
 8740SOL    HW127119   3.090   0.902   4.722
 8740SOL    HW227120   3.057   1.045   4.794
 8741SOL     OW27121   0.662   1.526   3.246
 8741SOL    HW127122   0.622   1.568   3.164
 8741SOL    HW227123   0.761   1.530   3.240
 8742SOL     OW27124   2.974   1.850   1.990
 8742SOL    HW127125   2.988   1.940   1.948
 8742SOL    HW227126   2.914   1.860   2.070
 8743SOL     OW27127   0.877   2.764   1.664
 8743SOL    HW127128   0.955   2.806   1.712
 8743SOL    HW227129   0.835   2.694   1.723
 8744SOL     OW27130   3.402   4.094   5.767
 8744SOL    HW127131   3.361   4.032   5.833
 8744SOL    HW227132   3.491   4.125   5.800
 8745SOL     OW27133   5.905   1.651   5.964
 8745SOL    HW127134   5.923   1.591   6.041
 8745SOL    HW227135   5.979   1.718   5.956
 8746SOL     OW27136   4.076   4.700   5.622
 8746SOL    HW127137   4.046   4.771   5.559
 8746SOL    HW227138   3.999   4.669   5.678
 8747SOL     OW27139   0.853   0.557   2.781
 8747SOL    HW127140   0.891   0.645   2.753
 8747SOL    HW227141   0.928   0.493   2.799
 8748SOL     OW27142   5.751   1.796   4.398
 8748SOL    HW127143   5.747   1.773   4.301
 8748SOL    HW227144   5.825   1.861   4.414
 8749SOL     OW27145   2.505   1.125   3.873
 8749SOL    HW127146   2.552   1.180   3.942
 8749SOL    HW227147   2.411   1.156   3.863
 8750SOL     OW27148   3.510   4.063   0.914
 8750SOL    HW127149   3.518   4.057   0.814
 8750SOL    HW227150   3.414   4.080   0.938
 8751SOL     OW27151   2.787   6.543   0.515
 8751SOL    HW127152   2.788   6.494   0.602
 8751SOL    HW227153   2.742   6.632   0.528
 8752SOL     OW27154   6.565   2.571   5.441
 8752SOL    HW127155   6.654   2.586   5.398
 8752SOL    HW227156   6.541   2.650   5.496
 8753SOL     OW27157   2.878   2.311   0.822
 8753SOL    HW127158   2.860   2.321   0.724
 8753SOL    HW227159   2.800   2.346   0.874
 8754SOL     OW27160   1.372   5.707   0.106
 8754SOL    HW127161   1.365   5.725   0.008
 8754SOL    HW227162   1.284   5.673   0.140
 8755SOL     OW27163   0.656   2.744   2.186
 8755SOL    HW127164   0.720   2.676   2.151
 8755SOL    HW227165   0.569   2.700   2.208
 8756SOL     OW27166   1.561   1.636   1.953
 8756SOL    HW127167   1.581   1.729   1.922
 8756SOL    HW227168   1.486   1.638   2.019
 8757SOL     OW27169   5.386   5.956   5.788
 8757SOL    HW127170   5.442   6.029   5.748
 8757SOL    HW227171   5.299   5.950   5.738
 8758SOL     OW27172   3.683   5.532   5.163
 8758SOL    HW127173   3.782   5.541   5.174
 8758SOL    HW227174   3.641   5.511   5.251
 8759SOL     OW27175   5.946   1.080   0.767
 8759SOL    HW127176   5.895   1.006   0.810
 8759SOL    HW227177   5.889   1.163   0.765
 8760SOL     OW27178   2.722   2.317   4.153
 8760SOL    HW127179   2.736   2.227   4.110
 8760SOL    HW227180   2.774   2.386   4.102
 8761SOL     OW27181   4.896   1.892   2.724
 8761SOL    HW127182   4.860   1.962   2.663
 8761SOL    HW227183   4.834   1.814   2.726
 8762SOL     OW27184   2.858   5.044   3.208
 8762SOL    HW127185   2.850   4.944   3.213
 8762SOL    HW227186   2.955   5.069   3.212
 8763SOL     OW27187   0.570   0.825   6.797
 8763SOL    HW127188   0.640   0.897   6.792
 8763SOL    HW227189   0.568   0.775   6.710
 8764SOL     OW27190   3.069   5.129   5.576
 8764SOL    HW127191   3.065   5.196   5.650
 8764SOL    HW227192   2.978   5.120   5.534
 8765SOL     OW27193   3.877   6.930   3.809
 8765SOL    HW127194   3.977   6.925   3.813
 8765SOL    HW227195   3.842   6.851   3.758
 8766SOL     OW27196   5.115   6.928   6.176
 8766SOL    HW127197   5.162   7.001   6.126
 8766SOL    HW227198   5.151   6.839   6.147
 8767SOL     OW27199   1.704   1.042   3.570
 8767SOL    HW127200   1.656   1.094   3.500
 8767SOL    HW227201   1.677   1.075   3.661
 8768SOL     OW27202   6.979   2.029   6.811
 8768SOL    HW127203   0.041   2.073   6.842
 8768SOL    HW227204   6.993   1.930   6.805
 8769SOL     OW27205   6.006   0.383   0.023
 8769SOL    HW127206   6.034   0.471   0.062
 8769SOL    HW227207   5.908   0.369   0.040
 8770SOL     OW27208   5.213   2.553   0.362
 8770SOL    HW127209   5.161   2.624   0.409
 8770SOL    HW227210   5.231   2.581   0.268
 8771SOL     OW27211   0.327   2.575   6.815
 8771SOL    HW127212   0.352   2.639   6.742
 8771SOL    HW227213   0.230   2.550   6.805
 8772SOL     OW27214   6.918   6.977   4.563
 8772SOL    HW127215   6.893   6.932   4.649
 8772SOL    HW227216   6.850   0.023   4.541
 8773SOL     OW27217   0.086   0.544   4.259
 8773SOL    HW127218   0.107   0.598   4.178
 8773SOL    HW227219   0.170   0.532   4.313
 8774SOL     OW27220   1.156   1.624   0.175
 8774SOL    HW127221   1.244   1.579   0.186
 8774SOL    HW227222   1.166   1.701   0.111
 8775SOL     OW27223   5.537   2.678   3.534
 8775SOL    HW127224   5.607   2.684   3.606
 8775SOL    HW227225   5.566   2.611   3.465
 8776SOL     OW27226   4.664   2.883   0.304
 8776SOL    HW127227   4.724   2.846   0.374
 8776SOL    HW227228   4.578   2.912   0.345
 8777SOL     OW27229   6.863   2.184   3.252
 8777SOL    HW127230   6.805   2.111   3.218
 8777SOL    HW227231   6.810   2.268   3.261
 8778SOL     OW27232   3.269   4.270   6.826
 8778SOL    HW127233   3.363   4.302   6.821
 8778SOL    HW227234   3.231   4.262   6.734
 8779SOL     OW27235   4.457   4.768   2.655
 8779SOL    HW127236   4.465   4.697   2.585
 8779SOL    HW227237   4.362   4.794   2.665
 8780SOL     OW27238   0.469   4.697   3.713
 8780SOL    HW127239   0.533   4.715   3.787
 8780SOL    HW227240   0.428   4.607   3.725
 8781SOL     OW27241   2.499   1.110   1.287
 8781SOL    HW127242   2.430   1.166   1.334
 8781SOL    HW227243   2.552   1.168   1.225
 8782SOL     OW27244   5.903   2.180   0.532
 8782SOL    HW127245   5.832   2.124   0.489
 8782SOL    HW227246   5.860   2.257   0.579
 8783SOL     OW27247   5.348   3.727   4.616
 8783SOL    HW127248   5.399   3.749   4.533
 8783SOL    HW227249   5.336   3.628   4.622
 8784SOL     OW27250   5.354   0.528   0.789
 8784SOL    HW127251   5.371   0.616   0.745
 8784SOL    HW227252   5.268   0.532   0.840
 8785SOL     OW27253   0.008   5.428   5.189
 8785SOL    HW127254   0.019   5.346   5.245
 8785SOL    HW227255   6.961   5.411   5.119
 8786SOL     OW27256   4.872   1.381   2.164
 8786SOL    HW127257   4.960   1.386   2.211
 8786SOL    HW227258   4.887   1.365   2.067
 8787SOL     OW27259   3.440   5.604   1.004
 8787SOL    HW127260   3.504   5.548   1.056
 8787SOL    HW227261   3.486   5.641   0.923
 8788SOL     OW27262   0.726   6.627   3.898
 8788SOL    HW127263   0.722   6.621   3.798
 8788SOL    HW227264   0.640   6.593   3.937
 8789SOL     OW27265   0.758   2.233   5.880
 8789SOL    HW127266   0.829   2.272   5.821
 8789SOL    HW227267   0.757   2.282   5.967
 8790SOL     OW27268   4.155   2.862   5.395
 8790SOL    HW127269   4.083   2.927   5.418
 8790SOL    HW227270   4.242   2.910   5.388
 8791SOL     OW27271   3.406   6.141   4.372
 8791SOL    HW127272   3.498   6.128   4.336
 8791SOL    HW227273   3.401   6.104   4.465
 8792SOL     OW27274   5.231   4.350   2.038
 8792SOL    HW127275   5.256   4.375   2.132
 8792SOL    HW227276   5.306   4.297   1.997
 8793SOL     OW27277   6.795   6.521   4.779
 8793SOL    HW127278   6.849   6.545   4.698
 8793SOL    HW227279   6.752   6.432   4.766
 8794SOL     OW27280   6.434   1.180   2.469
 8794SOL    HW127281   6.443   1.135   2.558
 8794SOL    HW227282   6.515   1.160   2.414
 8795SOL     OW27283   1.409   6.654   6.750
 8795SOL    HW127284   1.457   6.739   6.772
 8795SOL    HW227285   1.411   6.638   6.651
 8796SOL     OW27286   5.737   3.778   4.759
 8796SOL    HW127287   5.818   3.745   4.710
 8796SOL    HW227288   5.703   3.860   4.715
 8797SOL     OW27289   4.647   6.521   4.069
 8797SOL    HW127290   4.641   6.450   3.999
 8797SOL    HW227291   4.650   6.479   4.160
 8798SOL     OW27292   2.991   6.599   5.724
 8798SOL    HW127293   2.942   6.648   5.652
 8798SOL    HW227294   2.938   6.519   5.751
 8799SOL     OW27295   1.617   5.807   1.821
 8799SOL    HW127296   1.648   5.723   1.775
 8799SOL    HW227297   1.519   5.802   1.837
 8800SOL     OW27298   6.308   6.383   5.262
 8800SOL    HW127299   6.376   6.419   5.198
 8800SOL    HW227300   6.284   6.454   5.328
 8801SOL     OW27301   5.795   3.588   5.659
 8801SOL    HW127302   5.761   3.646   5.733
 8801SOL    HW227303   5.810   3.495   5.693
 8802SOL     OW27304   1.494   5.611   6.392
 8802SOL    HW127305   1.430   5.669   6.442
 8802SOL    HW227306   1.588   5.641   6.411
 8803SOL     OW27307   6.386   6.140   6.223
 8803SOL    HW127308   6.331   6.174   6.146
 8803SOL    HW227309   6.370   6.197   6.303
 8804SOL     OW27310   1.755   6.385   2.173
 8804SOL    HW127311   1.764   6.432   2.261
 8804SOL    HW227312   1.845   6.369   2.134
 8805SOL     OW27313   5.427   4.832   3.609
 8805SOL    HW127314   5.502   4.771   3.634
 8805SOL    HW227315   5.462   4.925   3.594
 8806SOL     OW27316   1.717   0.126   1.583
 8806SOL    HW127317   1.625   0.152   1.556
 8806SOL    HW227318   1.742   0.040   1.538
 8807SOL     OW27319   5.655   3.121   0.987
 8807SOL    HW127320   5.716   3.042   0.998
 8807SOL    HW227321   5.617   3.147   1.075
 8808SOL     OW27322   1.710   2.046   6.466
 8808SOL    HW127323   1.694   2.070   6.562
 8808SOL    HW227324   1.638   2.085   6.409
 8809SOL     OW27325   0.273   3.632   3.288
 8809SOL    HW127326   0.233   3.560   3.346
 8809SOL    HW227327   0.336   3.687   3.343
 8810SOL     OW27328   0.773   1.074   5.257
 8810SOL    HW127329   0.724   0.997   5.217
 8810SOL    HW227330   0.715   1.156   5.254
 8811SOL     OW27331   4.452   4.572   2.452
 8811SOL    HW127332   4.462   4.628   2.370
 8811SOL    HW227333   4.362   4.529   2.452
 8812SOL     OW27334   4.968   1.042   6.323
 8812SOL    HW127335   4.988   0.945   6.336
 8812SOL    HW227336   5.006   1.072   6.235
 8813SOL     OW27337   2.146   3.588   3.323
 8813SOL    HW127338   2.123   3.501   3.367
 8813SOL    HW227339   2.123   3.584   3.226
 8814SOL     OW27340   5.125   0.173   5.233
 8814SOL    HW127341   5.048   0.111   5.220
 8814SOL    HW227342   5.104   0.261   5.191
 8815SOL     OW27343   5.485   1.166   1.058
 8815SOL    HW127344   5.532   1.252   1.082
 8815SOL    HW227345   5.553   1.097   1.035
 8816SOL     OW27346   0.904   5.842   4.753
 8816SOL    HW127347   0.978   5.783   4.720
 8816SOL    HW227348   0.824   5.786   4.774
 8817SOL     OW27349   1.400   3.192   3.649
 8817SOL    HW127350   1.315   3.238   3.672
 8817SOL    HW227351   1.453   3.249   3.586
 8818SOL     OW27352   0.609   0.050   5.723
 8818SOL    HW127353   0.569   0.142   5.730
 8818SOL    HW227354   0.694   0.055   5.671
 8819SOL     OW27355   4.889   4.949   6.195
 8819SOL    HW127356   4.962   4.907   6.142
 8819SOL    HW227357   4.834   5.008   6.135
 8820SOL     OW27358   4.220   6.742   5.732
 8820SOL    HW127359   4.181   6.650   5.730
 8820SOL    HW227360   4.201   6.785   5.821
 8821SOL     OW27361   0.266   4.586   6.249
 8821SOL    HW127362   0.250   4.592   6.151
 8821SOL    HW227363   0.203   4.519   6.289
 8822SOL     OW27364   6.309   0.405   4.642
 8822SOL    HW127365   6.328   0.354   4.726
 8822SOL    HW227366   6.301   0.502   4.663
 8823SOL     OW27367   3.586   1.282   2.873
 8823SOL    HW127368   3.632   1.288   2.961
 8823SOL    HW227369   3.489   1.302   2.885
 8824SOL     OW27370   1.155   0.053   2.619
 8824SOL    HW127371   1.177   0.069   2.715
 8824SOL    HW227372   1.220   0.102   2.561
 8825SOL     OW27373   0.387   0.210   0.443
 8825SOL    HW127374   0.403   0.138   0.511
 8825SOL    HW227375   0.296   0.197   0.402
 8826SOL     OW27376   0.990   4.334   0.741
 8826SOL    HW127377   0.924   4.272   0.783
 8826SOL    HW227378   0.962   4.428   0.757
 8827SOL     OW27379   4.769   0.239   2.798
 8827SOL    HW127380   4.727   0.308   2.856
 8827SOL    HW227381   4.821   0.284   2.724
 8828SOL     OW27382   5.296   2.640   6.665
 8828SOL    HW127383   5.359   2.619   6.591
 8828SOL    HW227384   5.347   2.656   6.749
 8829SOL     OW27385   6.755   0.673   2.410
 8829SOL    HW127386   6.794   0.642   2.323
 8829SOL    HW227387   6.814   0.643   2.485
 8830SOL     OW27388   3.420   0.283   3.169
 8830SOL    HW127389   3.375   0.321   3.088
 8830SOL    HW227390   3.481   0.351   3.209
 8831SOL     OW27391   0.269   3.063   1.962
 8831SOL    HW127392   0.304   2.972   1.986
 8831SOL    HW227393   0.285   3.125   2.039
 8832SOL     OW27394   5.665   0.178   5.694
 8832SOL    HW127395   5.760   0.197   5.719
 8832SOL    HW227396   5.604   0.229   5.754
 8833SOL     OW27397   4.989   2.108   1.335
 8833SOL    HW127398   4.938   2.189   1.363
 8833SOL    HW227399   5.005   2.049   1.414
 8834SOL     OW27400   5.944   3.895   5.809
 8834SOL    HW127401   5.847   3.919   5.801
 8834SOL    HW227402   5.991   3.915   5.723
 8835SOL     OW27403   6.892   0.763   5.613
 8835SOL    HW127404   6.801   0.773   5.572
 8835SOL    HW227405   6.904   0.669   5.645
 8836SOL     OW27406   4.538   1.061   1.536
 8836SOL    HW127407   4.571   0.986   1.479
 8836SOL    HW227408   4.490   1.128   1.478
 8837SOL     OW27409   3.904   6.686   0.550
 8837SOL    HW127410   3.952   6.601   0.572
 8837SOL    HW227411   3.928   6.714   0.457
 8838SOL     OW27412   1.884   3.677   4.008
 8838SOL    HW127413   1.941   3.644   4.083
 8838SOL    HW227414   1.814   3.740   4.044
 8839SOL     OW27415   5.170   5.997   2.431
 8839SOL    HW127416   5.146   5.992   2.334
 8839SOL    HW227417   5.170   5.904   2.470
 8840SOL     OW27418   6.593   0.784   0.788
 8840SOL    HW127419   6.606   0.729   0.706
 8840SOL    HW227420   6.667   0.766   0.853
 8841SOL     OW27421   3.605   0.710   0.610
 8841SOL    HW127422   3.540   0.634   0.595
 8841SOL    HW227423   3.677   0.680   0.671
 8842SOL     OW27424   3.572   3.785   4.469
 8842SOL    HW127425   3.584   3.696   4.513
 8842SOL    HW227426   3.570   3.774   4.370
 8843SOL     OW27427   2.991   5.991   6.618
 8843SOL    HW127428   2.978   6.088   6.596
 8843SOL    HW227429   2.921   5.962   6.684
 8844SOL     OW27430   3.455   2.386   6.098
 8844SOL    HW127431   3.555   2.394   6.098
 8844SOL    HW227432   3.415   2.466   6.142
 8845SOL     OW27433   0.213   3.647   2.136
 8845SOL    HW127434   0.203   3.593   2.219
 8845SOL    HW227435   0.149   3.615   2.067
 8846SOL     OW27436   5.691   4.011   4.598
 8846SOL    HW127437   5.643   4.095   4.622
 8846SOL    HW227438   5.778   4.007   4.647
 8847SOL     OW27439   1.491   2.297   3.477
 8847SOL    HW127440   1.549   2.346   3.413
 8847SOL    HW227441   1.544   2.272   3.558
 8848SOL     OW27442   5.489   1.100   0.175
 8848SOL    HW127443   5.536   1.186   0.192
 8848SOL    HW227444   5.542   1.044   0.111
 8849SOL     OW27445   3.258   4.942   4.119
 8849SOL    HW127446   3.322   5.018   4.132
 8849SOL    HW227447   3.234   4.904   4.208
 8850SOL     OW27448   3.233   1.247   1.516
 8850SOL    HW127449   3.299   1.193   1.463
 8850SOL    HW227450   3.277   1.331   1.546
 8851SOL     OW27451   6.325   4.982   2.258
 8851SOL    HW127452   6.390   5.057   2.271
 8851SOL    HW227453   6.337   4.944   2.166
 8852SOL     OW27454   4.426   2.459   4.759
 8852SOL    HW127455   4.477   2.511   4.690
 8852SOL    HW227456   4.328   2.475   4.746
 8853SOL     OW27457   4.262   1.633   5.449
 8853SOL    HW127458   4.172   1.649   5.409
 8853SOL    HW227459   4.331   1.630   5.377
 8854SOL     OW27460   1.396   1.515   0.136
 8854SOL    HW127461   1.429   1.437   0.190
 8854SOL    HW227462   1.474   1.572   0.110
 8855SOL     OW27463   6.529   4.989   0.093
 8855SOL    HW127464   6.576   5.060   0.145
 8855SOL    HW227465   6.588   4.957   0.019
 8856SOL     OW27466   5.420   1.043   5.009
 8856SOL    HW127467   5.505   1.095   5.001
 8856SOL    HW227468   5.417   0.999   5.099
 8857SOL     OW27469   0.081   2.456   4.501
 8857SOL    HW127470   7.017   2.490   4.466
 8857SOL    HW227471   0.085   2.357   4.489
 8858SOL     OW27472   6.657   4.077   5.920
 8858SOL    HW127473   6.738   4.135   5.929
 8858SOL    HW227474   6.645   4.052   5.824
 8859SOL     OW27475   2.840   5.076   5.411
 8859SOL    HW127476   2.752   5.101   5.452
 8859SOL    HW227477   2.831   4.990   5.362
 8860SOL     OW27478   1.721   2.303   1.885
 8860SOL    HW127479   1.671   2.385   1.913
 8860SOL    HW227480   1.800   2.291   1.945
 8861SOL     OW27481   2.635   2.707   0.750
 8861SOL    HW127482   2.658   2.716   0.847
 8861SOL    HW227483   2.597   2.617   0.733
 8862SOL     OW27484   6.416   1.995   4.437
 8862SOL    HW127485   6.501   1.958   4.475
 8862SOL    HW227486   6.378   2.063   4.501
 8863SOL     OW27487   1.184   5.659   4.802
 8863SOL    HW127488   1.183   5.699   4.893
 8863SOL    HW227489   1.276   5.664   4.764
 8864SOL     OW27490   1.556   3.357   5.829
 8864SOL    HW127491   1.563   3.340   5.730
 8864SOL    HW227492   1.628   3.421   5.856
 8865SOL     OW27493   2.328   2.174   5.797
 8865SOL    HW127494   2.278   2.254   5.829
 8865SOL    HW227495   2.274   2.127   5.727
 8866SOL     OW27496   3.920   6.503   5.519
 8866SOL    HW127497   4.004   6.515   5.571
 8866SOL    HW227498   3.927   6.554   5.433
 8867SOL     OW27499   6.243   1.960   3.712
 8867SOL    HW127500   6.143   1.960   3.705
 8867SOL    HW227501   6.271   2.015   3.791
 8868SOL     OW27502   4.763   3.827   1.281
 8868SOL    HW127503   4.708   3.850   1.201
 8868SOL    HW227504   4.768   3.728   1.291
 8869SOL     OW27505   4.903   3.089   3.312
 8869SOL    HW127506   4.987   3.050   3.349
 8869SOL    HW227507   4.846   3.015   3.275
 8870SOL     OW27508   4.013   1.073   1.178
 8870SOL    HW127509   4.007   0.975   1.159
 8870SOL    HW227510   4.102   1.107   1.149
 8871SOL     OW27511   1.396   2.226   4.654
 8871SOL    HW127512   1.326   2.212   4.584
 8871SOL    HW227513   1.475   2.271   4.614
 8872SOL     OW27514   1.888   3.315   3.266
 8872SOL    HW127515   1.933   3.318   3.177
 8872SOL    HW227516   1.889   3.221   3.300
 8873SOL     OW27517   6.969   6.157   4.924
 8873SOL    HW127518   0.045   6.151   4.939
 8873SOL    HW227519   6.944   6.252   4.905
 8874SOL     OW27520   1.635   1.706   0.387
 8874SOL    HW127521   1.650   1.761   0.470
 8874SOL    HW227522   1.543   1.721   0.353
 8875SOL     OW27523   1.806   1.474   3.897
 8875SOL    HW127524   1.772   1.409   3.965
 8875SOL    HW227525   1.728   1.520   3.854
 8876SOL     OW27526   2.188   0.605   4.304
 8876SOL    HW127527   2.129   0.666   4.252
 8876SOL    HW227528   2.133   0.536   4.350
 8877SOL     OW27529   3.374   6.414   4.430
 8877SOL    HW127530   3.365   6.316   4.414
 8877SOL    HW227531   3.344   6.464   4.349
 8878SOL     OW27532   5.835   4.602   6.503
 8878SOL    HW127533   5.934   4.592   6.501
 8878SOL    HW227534   5.793   4.521   6.462
 8879SOL     OW27535   4.152   5.749   4.833
 8879SOL    HW127536   4.171   5.770   4.738
 8879SOL    HW227537   4.238   5.742   4.884
 8880SOL     OW27538   0.502   5.718   5.617
 8880SOL    HW127539   0.458   5.724   5.527
 8880SOL    HW227540   0.433   5.699   5.687
 8881SOL     OW27541   6.971   0.867   1.782
 8881SOL    HW127542   6.926   0.904   1.701
 8881SOL    HW227543   0.043   0.845   1.760
 8882SOL     OW27544   6.109   1.793   6.239
 8882SOL    HW127545   6.014   1.771   6.217
 8882SOL    HW227546   6.152   1.714   6.283
 8883SOL     OW27547   6.703   1.272   5.510
 8883SOL    HW127548   6.666   1.197   5.566
 8883SOL    HW227549   6.744   1.234   5.427
 8884SOL     OW27550   6.648   0.808   5.468
 8884SOL    HW127551   6.566   0.860   5.446
 8884SOL    HW227552   6.691   0.778   5.383
 8885SOL     OW27553   4.981   3.515   1.774
 8885SOL    HW127554   4.936   3.494   1.687
 8885SOL    HW227555   5.080   3.523   1.758
 8886SOL     OW27556   3.012   6.235   6.490
 8886SOL    HW127557   2.982   6.226   6.395
 8886SOL    HW227558   3.112   6.240   6.494
 8887SOL     OW27559   1.800   0.502   1.205
 8887SOL    HW127560   1.795   0.601   1.218
 8887SOL    HW227561   1.800   0.481   1.107
 8888SOL     OW27562   3.654   1.353   3.380
 8888SOL    HW127563   3.687   1.267   3.418
 8888SOL    HW227564   3.647   1.421   3.453
 8889SOL     OW27565   3.678   6.792   4.828
 8889SOL    HW127566   3.578   6.798   4.826
 8889SOL    HW227567   3.715   6.814   4.738
 8890SOL     OW27568   1.217   4.613   4.489
 8890SOL    HW127569   1.308   4.593   4.528
 8890SOL    HW227570   1.208   4.711   4.475
 8891SOL     OW27571   2.572   1.802   0.112
 8891SOL    HW127572   2.475   1.776   0.112
 8891SOL    HW227573   2.586   1.876   0.178
 8892SOL     OW27574   1.141   6.978   2.322
 8892SOL    HW127575   1.130   6.979   2.421
 8892SOL    HW227576   1.238   6.969   2.299
 8893SOL     OW27577   0.880   1.392   1.750
 8893SOL    HW127578   0.967   1.348   1.773
 8893SOL    HW227579   0.804   1.336   1.784
 8894SOL     OW27580   3.713   3.478   6.644
 8894SOL    HW127581   3.751   3.490   6.736
 8894SOL    HW227582   3.644   3.405   6.646
 8895SOL     OW27583   0.607   0.523   2.111
 8895SOL    HW127584   0.660   0.497   2.192
 8895SOL    HW227585   0.525   0.573   2.139
 8896SOL     OW27586   1.868   4.082   5.088
 8896SOL    HW127587   1.961   4.065   5.121
 8896SOL    HW227588   1.870   4.098   4.989
 8897SOL     OW27589   1.363   2.386   1.564
 8897SOL    HW127590   1.364   2.470   1.617
 8897SOL    HW227591   1.450   2.338   1.576
 8898SOL     OW27592   6.537   2.851   4.896
 8898SOL    HW127593   6.508   2.860   4.800
 8898SOL    HW227594   6.550   2.754   4.917
 8899SOL     OW27595   2.569   4.374   0.394
 8899SOL    HW127596   2.652   4.365   0.450
 8899SOL    HW227597   2.529   4.465   0.408
 8900SOL     OW27598   5.748   1.891   3.206
 8900SOL    HW127599   5.782   1.984   3.220
 8900SOL    HW227600   5.795   1.851   3.127
 8901SOL     OW27601   2.286   6.549   2.504
 8901SOL    HW127602   2.188   6.559   2.522
 8901SOL    HW227603   2.299   6.524   2.408
 8902SOL     OW27604   2.017   5.164   6.106
 8902SOL    HW127605   1.968   5.232   6.162
 8902SOL    HW227606   2.059   5.210   6.028
 8903SOL     OW27607   0.735   1.949   3.829
 8903SOL    HW127608   0.783   1.892   3.896
 8903SOL    HW227609   0.687   2.023   3.876
 8904SOL     OW27610   1.075   5.176   3.290
 8904SOL    HW127611   0.980   5.174   3.259
 8904SOL    HW227612   1.081   5.226   3.376
 8905SOL     OW27613   2.657   4.121   5.291
 8905SOL    HW127614   2.576   4.084   5.245
 8905SOL    HW227615   2.667   4.078   5.381
 8906SOL     OW27616   1.151   4.856   4.736
 8906SOL    HW127617   1.217   4.794   4.778
 8906SOL    HW227618   1.183   4.950   4.746
 8907SOL     OW27619   3.801   2.898   5.904
 8907SOL    HW127620   3.828   2.968   5.838
 8907SOL    HW227621   3.842   2.810   5.878
 8908SOL     OW27622   0.428   3.018   1.652
 8908SOL    HW127623   0.464   3.075   1.726
 8908SOL    HW227624   0.331   3.001   1.668
 8909SOL     OW27625   2.797   6.425   5.861
 8909SOL    HW127626   2.708   6.455   5.828
 8909SOL    HW227627   2.787   6.344   5.919
 8910SOL     OW27628   3.729   4.019   6.645
 8910SOL    HW127629   3.679   4.006   6.731
 8910SOL    HW227630   3.819   3.976   6.652
 8911SOL     OW27631   3.898   2.097   4.218
 8911SOL    HW127632   3.866   2.139   4.303
 8911SOL    HW227633   3.993   2.123   4.201
 8912SOL     OW27634   5.170   2.574   6.354
 8912SOL    HW127635   5.105   2.564   6.429
 8912SOL    HW227636   5.149   2.656   6.301
 8913SOL     OW27637   4.915   3.631   0.847
 8913SOL    HW127638   4.842   3.697   0.829
 8913SOL    HW227639   4.934   3.628   0.945
 8914SOL     OW27640   4.627   2.288   3.829
 8914SOL    HW127641   4.565   2.359   3.796
 8914SOL    HW227642   4.609   2.202   3.781
 8915SOL     OW27643   1.230   4.811   1.453
 8915SOL    HW127644   1.267   4.721   1.476
 8915SOL    HW227645   1.281   4.882   1.503
 8916SOL     OW27646   0.026   3.948   2.049
 8916SOL    HW127647   0.102   3.892   2.018
 8916SOL    HW227648   0.054   4.044   2.053
 8917SOL     OW27649   6.061   5.380   5.774
 8917SOL    HW127650   5.991   5.452   5.774
 8917SOL    HW227651   6.068   5.340   5.865
 8918SOL     OW27652   4.657   4.564   6.496
 8918SOL    HW127653   4.697   4.477   6.524
 8918SOL    HW227654   4.711   4.601   6.420
 8919SOL     OW27655   2.106   3.770   1.455
 8919SOL    HW127656   2.013   3.807   1.448
 8919SOL    HW227657   2.172   3.845   1.451
 8920SOL     OW27658   6.272   5.578   5.744
 8920SOL    HW127659   6.222   5.655   5.784
 8920SOL    HW227660   6.208   5.504   5.725
 8921SOL     OW27661   1.622   6.291   3.538
 8921SOL    HW127662   1.545   6.254   3.485
 8921SOL    HW227663   1.643   6.228   3.613
 8922SOL     OW27664   6.449   4.171   0.504
 8922SOL    HW127665   6.479   4.265   0.514
 8922SOL    HW227666   6.525   4.114   0.474
 8923SOL     OW27667   1.751   4.370   5.208
 8923SOL    HW127668   1.813   4.299   5.243
 8923SOL    HW227669   1.678   4.387   5.274
 8924SOL     OW27670   2.712   5.952   5.271
 8924SOL    HW127671   2.743   6.041   5.240
 8924SOL    HW227672   2.661   5.907   5.197
 8925SOL     OW27673   5.769   6.534   1.440
 8925SOL    HW127674   5.824   6.562   1.518
 8925SOL    HW227675   5.796   6.442   1.411
 8926SOL     OW27676   5.921   1.507   0.428
 8926SOL    HW127677   6.016   1.516   0.398
 8926SOL    HW227678   5.909   1.421   0.477
 8927SOL     OW27679   2.686   1.752   4.697
 8927SOL    HW127680   2.754   1.685   4.667
 8927SOL    HW227681   2.669   1.741   4.795
 8928SOL     OW27682   0.549   6.559   5.189
 8928SOL    HW127683   0.470   6.609   5.225
 8928SOL    HW227684   0.633   6.597   5.229
 8929SOL     OW27685   5.544   3.844   4.417
 8929SOL    HW127686   5.622   3.884   4.467
 8929SOL    HW227687   5.472   3.913   4.409
 8930SOL     OW27688   0.875   4.630   5.021
 8930SOL    HW127689   0.847   4.661   5.112
 8930SOL    HW227690   0.973   4.643   5.010
 8931SOL     OW27691   5.501   1.239   1.538
 8931SOL    HW127692   5.594   1.253   1.505
 8931SOL    HW227693   5.458   1.327   1.557
 8932SOL     OW27694   6.799   0.791   6.963
 8932SOL    HW127695   6.749   0.707   6.943
 8932SOL    HW227696   6.743   0.870   6.936
 8933SOL     OW27697   2.104   0.237   5.716
 8933SOL    HW127698   2.140   0.240   5.809
 8933SOL    HW227699   2.004   0.243   5.719
 8934SOL     OW27700   4.849   6.558   3.176
 8934SOL    HW127701   4.876   6.462   3.174
 8934SOL    HW227702   4.867   6.600   3.087
 8935SOL     OW27703   5.722   2.877   3.191
 8935SOL    HW127704   5.674   2.964   3.175
 8935SOL    HW227705   5.783   2.887   3.269
 8936SOL     OW27706   2.027   4.496   2.950
 8936SOL    HW127707   1.960   4.569   2.933
 8936SOL    HW227708   1.981   4.417   2.989
 8937SOL     OW27709   4.741   0.045   5.870
 8937SOL    HW127710   4.739   6.985   5.814
 8937SOL    HW227711   4.789   0.026   5.956
 8938SOL     OW27712   5.700   6.765   2.191
 8938SOL    HW127713   5.681   6.667   2.201
 8938SOL    HW227714   5.625   6.809   2.142
 8939SOL     OW27715   0.030   2.701   3.836
 8939SOL    HW127716   7.013   2.721   3.925
 8939SOL    HW227717   0.101   2.630   3.846
 8940SOL     OW27718   6.590   3.111   1.211
 8940SOL    HW127719   6.612   3.075   1.120
 8940SOL    HW227720   6.672   3.110   1.267
 8941SOL     OW27721   4.639   2.642   1.762
 8941SOL    HW127722   4.685   2.636   1.850
 8941SOL    HW227723   4.639   2.737   1.731
 8942SOL     OW27724   5.357   4.012   4.471
 8942SOL    HW127725   5.362   4.022   4.570
 8942SOL    HW227726   5.296   4.080   4.433
 8943SOL     OW27727   4.633   3.407   1.044
 8943SOL    HW127728   4.587   3.437   1.127
 8943SOL    HW227729   4.608   3.467   0.968
 8944SOL     OW27730   4.960   5.230   5.156
 8944SOL    HW127731   4.892   5.175   5.107
 8944SOL    HW227732   5.049   5.187   5.149
 8945SOL     OW27733   5.592   4.164   3.412
 8945SOL    HW127734   5.590   4.090   3.346
 8945SOL    HW227735   5.502   4.171   3.457
 8946SOL     OW27736   4.903   1.455   5.415
 8946SOL    HW127737   4.943   1.363   5.412
 8946SOL    HW227738   4.826   1.459   5.352
 8947SOL     OW27739   2.053   4.694   6.642
 8947SOL    HW127740   1.993   4.644   6.704
 8947SOL    HW227741   2.081   4.780   6.685
 8948SOL     OW27742   4.834   1.495   2.699
 8948SOL    HW127743   4.889   1.561   2.750
 8948SOL    HW227744   4.751   1.538   2.665
 8949SOL     OW27745   3.885   6.188   0.941
 8949SOL    HW127746   3.942   6.160   1.019
 8949SOL    HW227747   3.941   6.191   0.858
 8950SOL     OW27748   3.767   3.781   1.304
 8950SOL    HW127749   3.772   3.699   1.247
 8950SOL    HW227750   3.685   3.776   1.362
 8951SOL     OW27751   1.441   0.008   4.539
 8951SOL    HW127752   1.426   6.933   4.525
 8951SOL    HW227753   1.479   0.023   4.630
 8952SOL     OW27754   1.310   4.692   3.938
 8952SOL    HW127755   1.262   4.775   3.909
 8952SOL    HW227756   1.270   4.613   3.894
 8953SOL     OW27757   1.209   5.064   1.156
 8953SOL    HW127758   1.215   4.965   1.172
 8953SOL    HW227759   1.127   5.084   1.102
 8954SOL     OW27760   2.582   4.394   5.956
 8954SOL    HW127761   2.626   4.484   5.959
 8954SOL    HW227762   2.483   4.406   5.947
 8955SOL     OW27763   5.144   2.446   4.986
 8955SOL    HW127764   5.187   2.457   4.896
 8955SOL    HW227765   5.081   2.522   5.002
 8956SOL     OW27766   0.580   6.458   0.489
 8956SOL    HW127767   0.562   6.549   0.451
 8956SOL    HW227768   0.609   6.468   0.584
 8957SOL     OW27769   0.429   6.184   2.580
 8957SOL    HW127770   0.482   6.241   2.517
 8957SOL    HW227771   0.340   6.228   2.597
 8958SOL     OW27772   1.425   3.236   5.224
 8958SOL    HW127773   1.449   3.146   5.189
 8958SOL    HW227774   1.492   3.303   5.191
 8959SOL     OW27775   5.662   2.462   3.399
 8959SOL    HW127776   5.673   2.381   3.456
 8959SOL    HW227777   5.632   2.435   3.307
 8960SOL     OW27778   5.268   4.884   2.740
 8960SOL    HW127779   5.181   4.920   2.776
 8960SOL    HW227780   5.250   4.826   2.661
 8961SOL     OW27781   2.587   1.738   4.996
 8961SOL    HW127782   2.659   1.774   5.056
 8961SOL    HW227783   2.511   1.802   4.992
 8962SOL     OW27784   6.897   5.870   1.906
 8962SOL    HW127785   6.893   5.770   1.903
 8962SOL    HW227786   6.811   5.906   1.943
 8963SOL     OW27787   4.375   6.378   6.097
 8963SOL    HW127788   4.287   6.427   6.101
 8963SOL    HW227789   4.389   6.343   6.005
 8964SOL     OW27790   2.056   2.681   4.414
 8964SOL    HW127791   2.145   2.726   4.420
 8964SOL    HW227792   2.070   2.585   4.388
 8965SOL     OW27793   3.786   5.774   6.844
 8965SOL    HW127794   3.774   5.850   6.779
 8965SOL    HW227795   3.759   5.804   6.935
 8966SOL     OW27796   5.014   6.340   4.879
 8966SOL    HW127797   5.001   6.264   4.941
 8966SOL    HW227798   5.099   6.327   4.828
 8967SOL     OW27799   3.303   0.012   3.759
 8967SOL    HW127800   3.352   0.097   3.777
 8967SOL    HW227801   3.327   7.000   3.669
 8968SOL     OW27802   3.222   4.943   2.313
 8968SOL    HW127803   3.278   4.914   2.235
 8968SOL    HW227804   3.133   4.975   2.279
 8969SOL     OW27805   0.727   0.460   2.360
 8969SOL    HW127806   0.822   0.430   2.368
 8969SOL    HW227807   0.674   0.425   2.438
 8970SOL     OW27808   1.922   0.753   3.738
 8970SOL    HW127809   1.921   0.836   3.683
 8970SOL    HW227810   1.916   0.777   3.835
 8971SOL     OW27811   2.883   4.450   0.603
 8971SOL    HW127812   2.854   4.357   0.627
 8971SOL    HW227813   2.918   4.451   0.510
 8972SOL     OW27814   5.593   4.030   6.776
 8972SOL    HW127815   5.637   3.962   6.717
 8972SOL    HW227816   5.585   3.993   6.869
 8973SOL     OW27817   1.732   2.698   3.525
 8973SOL    HW127818   1.778   2.764   3.584
 8973SOL    HW227819   1.712   2.615   3.577
 8974SOL     OW27820   2.251   4.625   4.612
 8974SOL    HW127821   2.281   4.532   4.633
 8974SOL    HW227822   2.176   4.622   4.546
 8975SOL     OW27823   0.153   5.009   5.545
 8975SOL    HW127824   0.166   4.980   5.640
 8975SOL    HW227825   0.165   4.930   5.485
 8976SOL     OW27826   5.643   0.656   2.158
 8976SOL    HW127827   5.741   0.666   2.144
 8976SOL    HW227828   5.594   0.687   2.077
 8977SOL     OW27829   6.447   4.219   6.575
 8977SOL    HW127830   6.514   4.191   6.644
 8977SOL    HW227831   6.466   4.312   6.545
 8978SOL     OW27832   6.008   5.838   6.984
 8978SOL    HW127833   5.948   5.782   0.019
 8978SOL    HW227834   5.990   5.816   6.888
 8979SOL     OW27835   1.240   4.887   4.480
 8979SOL    HW127836   1.185   4.907   4.561
 8979SOL    HW227837   1.324   4.941   4.482
 8980SOL     OW27838   3.166   0.677   0.170
 8980SOL    HW127839   3.228   0.688   0.248
 8980SOL    HW227840   3.107   0.758   0.163
 8981SOL     OW27841   4.388   3.634   6.303
 8981SOL    HW127842   4.372   3.536   6.288
 8981SOL    HW227843   4.361   3.658   6.396
 8982SOL     OW27844   0.285   2.240   2.039
 8982SOL    HW127845   0.295   2.218   2.136
 8982SOL    HW227846   0.375   2.258   1.999
 8983SOL     OW27847   1.697   6.543   1.848
 8983SOL    HW127848   1.673   6.458   1.894
 8983SOL    HW227849   1.690   6.619   1.913
 8984SOL     OW27850   6.746   0.913   4.154
 8984SOL    HW127851   6.726   0.878   4.063
 8984SOL    HW227852   6.825   0.975   4.150
 8985SOL     OW27853   4.617   1.824   1.981
 8985SOL    HW127854   4.563   1.892   2.030
 8985SOL    HW227855   4.714   1.845   1.990
 8986SOL     OW27856   6.759   4.789   0.428
 8986SOL    HW127857   6.781   4.886   0.415
 8986SOL    HW227858   6.799   4.757   0.514
 8987SOL     OW27859   2.293   6.409   1.749
 8987SOL    HW127860   2.301   6.500   1.790
 8987SOL    HW227861   2.215   6.407   1.686
 8988SOL     OW27862   2.648   6.989   1.102
 8988SOL    HW127863   2.615   6.909   1.052
 8988SOL    HW227864   2.573   0.006   1.154
 8989SOL     OW27865   5.007   1.398   2.509
 8989SOL    HW127866   4.940   1.428   2.577
 8989SOL    HW227867   5.031   1.302   2.526
 8990SOL     OW27868   3.289   0.692   2.660
 8990SOL    HW127869   3.268   0.755   2.586
 8990SOL    HW227870   3.216   0.694   2.728
 8991SOL     OW27871   1.263   2.121   0.745
 8991SOL    HW127872   1.223   2.138   0.835
 8991SOL    HW227873   1.337   2.186   0.728
 8992SOL     OW27874   6.854   4.167   6.455
 8992SOL    HW127875   6.935   4.167   6.513
 8992SOL    HW227876   6.802   4.084   6.471
 8993SOL     OW27877   5.116   3.723   4.979
 8993SOL    HW127878   5.202   3.761   4.945
 8993SOL    HW227879   5.099   3.757   5.072
 8994SOL     OW27880   1.214   5.723   2.537
 8994SOL    HW127881   1.168   5.660   2.598
 8994SOL    HW227882   1.290   5.768   2.585
 8995SOL     OW27883   2.142   3.633   4.882
 8995SOL    HW127884   2.111   3.666   4.793
 8995SOL    HW227885   2.117   3.537   4.893
 8996SOL     OW27886   1.298   3.952   1.752
 8996SOL    HW127887   1.270   3.936   1.658
 8996SOL    HW227888   1.378   4.012   1.753
 8997SOL     OW27889   4.557   2.026   5.540
 8997SOL    HW127890   4.648   2.000   5.570
 8997SOL    HW227891   4.545   2.001   5.444
 8998SOL     OW27892   1.371   1.342   6.292
 8998SOL    HW127893   1.277   1.325   6.321
 8998SOL    HW227894   1.434   1.306   6.360
 8999SOL     OW27895   5.030   1.544   4.799
 8999SOL    HW127896   4.961   1.479   4.831
 8999SOL    HW227897   4.987   1.632   4.780
 9000SOL     OW27898   2.509   4.642   0.366
 9000SOL    HW127899   2.605   4.648   0.336
 9000SOL    HW227900   2.495   4.702   0.445
 9001SOL     OW27901   2.187   4.652   3.608
 9001SOL    HW127902   2.129   4.605   3.675
 9001SOL    HW227903   2.215   4.741   3.644
 9002SOL     OW27904   5.475   4.161   5.230
 9002SOL    HW127905   5.475   4.259   5.208
 9002SOL    HW227906   5.567   4.124   5.216
 9003SOL     OW27907   6.420   3.172   6.794
 9003SOL    HW127908   6.445   3.101   6.860
 9003SOL    HW227909   6.419   3.261   6.839
 9004SOL     OW27910   4.357   5.643   0.781
 9004SOL    HW127911   4.319   5.551   0.774
 9004SOL    HW227912   4.449   5.643   0.743
 9005SOL     OW27913   4.718   2.352   2.722
 9005SOL    HW127914   4.717   2.447   2.691
 9005SOL    HW227915   4.782   2.342   2.798
 9006SOL     OW27916   2.435   6.395   0.759
 9006SOL    HW127917   2.396   6.308   0.787
 9006SOL    HW227918   2.371   6.469   0.781
 9007SOL     OW27919   2.318   6.689   4.411
 9007SOL    HW127920   2.370   6.682   4.496
 9007SOL    HW227921   2.256   6.611   4.404
 9008SOL     OW27922   6.925   4.464   2.650
 9008SOL    HW127923   6.830   4.492   2.645
 9008SOL    HW227924   6.934   4.384   2.708
 9009SOL     OW27925   4.125   6.140   0.778
 9009SOL    HW127926   4.107   6.230   0.739
 9009SOL    HW227927   4.166   6.150   0.869
 9010SOL     OW27928   0.384   5.414   4.800
 9010SOL    HW127929   0.431   5.337   4.845
 9010SOL    HW227930   0.353   5.479   4.870
 9011SOL     OW27931   4.349   2.382   2.004
 9011SOL    HW127932   4.414   2.363   2.078
 9011SOL    HW227933   4.269   2.323   2.014
 9012SOL     OW27934   5.649   5.351   1.865
 9012SOL    HW127935   5.729   5.409   1.848
 9012SOL    HW227936   5.569   5.408   1.883
 9013SOL     OW27937   4.592   5.906   2.608
 9013SOL    HW127938   4.530   5.941   2.679
 9013SOL    HW227939   4.616   5.811   2.628
 9014SOL     OW27940   2.436   0.799   0.816
 9014SOL    HW127941   2.449   0.795   0.916
 9014SOL    HW227942   2.518   0.837   0.774
 9015SOL     OW27943   6.422   1.175   4.839
 9015SOL    HW127944   6.383   1.240   4.904
 9015SOL    HW227945   6.445   1.090   4.887
 9016SOL     OW27946   6.787   5.448   6.491
 9016SOL    HW127947   6.746   5.483   6.407
 9016SOL    HW227948   6.845   5.520   6.531
 9017SOL     OW27949   0.104   4.392   3.570
 9017SOL    HW127950   0.070   4.417   3.479
 9017SOL    HW227951   0.049   4.438   3.640
 9018SOL     OW27952   3.544   1.535   6.476
 9018SOL    HW127953   3.479   1.600   6.437
 9018SOL    HW227954   3.637   1.559   6.448
 9019SOL     OW27955   1.484   5.367   0.606
 9019SOL    HW127956   1.495   5.331   0.513
 9019SOL    HW227957   1.388   5.384   0.624
 9020SOL     OW27958   0.645   4.938   3.163
 9020SOL    HW127959   0.595   4.910   3.080
 9020SOL    HW227960   0.579   4.953   3.237
 9021SOL     OW27961   6.433   6.140   5.281
 9021SOL    HW127962   6.392   6.231   5.289
 9021SOL    HW227963   6.398   6.080   5.353
 9022SOL     OW27964   3.590   1.061   6.624
 9022SOL    HW127965   3.497   1.023   6.629
 9022SOL    HW227966   3.588   1.157   6.650
 9023SOL     OW27967   2.950   3.269   2.940
 9023SOL    HW127968   2.932   3.349   2.998
 9023SOL    HW227969   2.908   3.283   2.850
 9024SOL     OW27970   1.173   0.461   6.789
 9024SOL    HW127971   1.105   0.392   6.763
 9024SOL    HW227972   1.264   0.420   6.787
 9025SOL     OW27973   0.450   3.829   0.537
 9025SOL    HW127974   0.492   3.749   0.495
 9025SOL    HW227975   0.476   3.833   0.634
 9026SOL     OW27976   3.194   3.055   5.760
 9026SOL    HW127977   3.223   3.046   5.665
 9026SOL    HW227978   3.100   3.022   5.770
 9027SOL     OW27979   2.391   2.711   2.938
 9027SOL    HW127980   2.434   2.697   3.027
 9027SOL    HW227981   2.294   2.686   2.943
 9028SOL     OW27982   2.597   5.135   5.072
 9028SOL    HW127983   2.542   5.152   5.153
 9028SOL    HW227984   2.569   5.050   5.029
 9029SOL     OW27985   4.759   5.334   2.673
 9029SOL    HW127986   4.843   5.281   2.684
 9029SOL    HW227987   4.710   5.304   2.591
 9030SOL     OW27988   3.261   1.814   1.809
 9030SOL    HW127989   3.277   1.723   1.848
 9030SOL    HW227990   3.243   1.879   1.882
 9031SOL     OW27991   1.599   1.531   1.448
 9031SOL    HW127992   1.511   1.570   1.474
 9031SOL    HW227993   1.647   1.498   1.529
 9032SOL     OW27994   1.021   2.392   2.889
 9032SOL    HW127995   1.048   2.383   2.794
 9032SOL    HW227996   1.101   2.418   2.944
 9033SOL     OW27997   1.373   3.752   2.269
 9033SOL    HW127998   1.402   3.799   2.185
 9033SOL    HW227999   1.279   3.779   2.291
 9034SOL     OW28000   0.834   0.430   5.974
 9034SOL    HW128001   0.751   0.421   6.028
 9034SOL    HW228002   0.810   0.454   5.880
 9035SOL     OW28003   6.741   0.116   4.454
 9035SOL    HW128004   6.781   0.178   4.522
 9035SOL    HW228005   6.656   0.156   4.419
 9036SOL     OW28006   1.387   1.173   5.017
 9036SOL    HW128007   1.456   1.108   4.983
 9036SOL    HW228008   1.374   1.159   5.115
 9037SOL     OW28009   2.989   3.853   5.705
 9037SOL    HW128010   3.037   3.829   5.621
 9037SOL    HW228011   3.025   3.798   5.781
 9038SOL     OW28012   5.138   6.700   5.617
 9038SOL    HW128013   5.151   6.672   5.521
 9038SOL    HW228014   5.226   6.702   5.663
 9039SOL     OW28015   2.130   4.753   6.401
 9039SOL    HW128016   2.091   4.732   6.491
 9039SOL    HW228017   2.230   4.747   6.406
 9040SOL     OW28018   2.392   1.560   2.104
 9040SOL    HW128019   2.367   1.656   2.118
 9040SOL    HW228020   2.309   1.504   2.103
 9041SOL     OW28021   2.022   2.794   6.905
 9041SOL    HW128022   2.051   2.729   6.836
 9041SOL    HW228023   2.090   2.798   6.978
 9042SOL     OW28024   1.980   5.699   3.222
 9042SOL    HW128025   1.883   5.712   3.202
 9042SOL    HW228026   1.990   5.646   3.306
 9043SOL     OW28027   6.676   2.250   0.790
 9043SOL    HW128028   6.619   2.319   0.746
 9043SOL    HW228029   6.642   2.233   0.882
 9044SOL     OW28030   6.586   4.765   0.892
 9044SOL    HW128031   6.639   4.785   0.975
 9044SOL    HW228032   6.536   4.847   0.864
 9045SOL     OW28033   2.974   5.647   3.938
 9045SOL    HW128034   3.060   5.678   3.978
 9045SOL    HW228035   2.973   5.547   3.935
 9046SOL     OW28036   3.723   4.479   5.902
 9046SOL    HW128037   3.646   4.541   5.889
 9046SOL    HW228038   3.792   4.524   5.960
 9047SOL     OW28039   1.493   4.833   5.186
 9047SOL    HW128040   1.397   4.858   5.202
 9047SOL    HW228041   1.524   4.873   5.100
 9048SOL     OW28042   1.669   1.863   5.252
 9048SOL    HW128043   1.712   1.805   5.321
 9048SOL    HW228044   1.648   1.952   5.293
 9049SOL     OW28045   5.390   6.057   6.225
 9049SOL    HW128046   5.379   6.086   6.320
 9049SOL    HW228047   5.321   5.988   6.203
 9050SOL     OW28048   0.163   5.583   5.405
 9050SOL    HW128049   0.135   5.629   5.320
 9050SOL    HW228050   0.262   5.572   5.405
 9051SOL     OW28051   5.417   6.634   6.300
 9051SOL    HW128052   5.429   6.564   6.230
 9051SOL    HW228053   5.456   6.721   6.268
 9052SOL     OW28054   2.211   5.034   4.877
 9052SOL    HW128055   2.287   4.987   4.832
 9052SOL    HW228056   2.200   4.997   4.969
 9053SOL     OW28057   2.861   1.833   3.868
 9053SOL    HW128058   2.815   1.810   3.782
 9053SOL    HW228059   2.795   1.831   3.943
 9054SOL     OW28060   3.420   0.376   0.841
 9054SOL    HW128061   3.469   0.296   0.808
 9054SOL    HW228062   3.324   0.351   0.857
 9055SOL     OW28063   0.892   1.294   4.783
 9055SOL    HW128064   0.858   1.202   4.766
 9055SOL    HW228065   0.895   1.345   4.697
 9056SOL     OW28066   5.145   1.897   2.586
 9056SOL    HW128067   5.084   1.873   2.662
 9056SOL    HW228068   5.232   1.930   2.623
 9057SOL     OW28069   4.675   6.416   0.053
 9057SOL    HW128070   4.628   6.397   6.989
 9057SOL    HW228071   4.714   6.331   0.088
 9058SOL     OW28072   2.380   2.276   4.408
 9058SOL    HW128073   2.475   2.293   4.435
 9058SOL    HW228074   2.378   2.246   4.312
 9059SOL     OW28075   6.581   0.455   2.339
 9059SOL    HW128076   6.642   0.512   2.395
 9059SOL    HW228077   6.632   0.374   2.307
 9060SOL     OW28078   0.823   5.890   1.542
 9060SOL    HW128079   0.900   5.947   1.513
 9060SOL    HW228080   0.742   5.947   1.555
 9061SOL     OW28081   5.745   4.266   2.863
 9061SOL    HW128082   5.754   4.214   2.949
 9061SOL    HW228083   5.771   4.207   2.786
 9062SOL     OW28084   0.707   5.857   2.774
 9062SOL    HW128085   0.806   5.843   2.780
 9062SOL    HW228086   0.662   5.817   2.854
 9063SOL     OW28087   4.445   2.041   1.648
 9063SOL    HW128088   4.382   2.111   1.681
 9063SOL    HW228089   4.536   2.079   1.638
 9064SOL     OW28090   0.558   5.740   2.987
 9064SOL    HW128091   0.559   5.665   3.053
 9064SOL    HW228092   0.468   5.784   2.988
 9065SOL     OW28093   3.119   4.101   6.067
 9065SOL    HW128094   3.092   4.181   6.012
 9065SOL    HW228095   3.131   4.129   6.162
 9066SOL     OW28096   4.826   5.090   4.299
 9066SOL    HW128097   4.828   5.011   4.360
 9066SOL    HW228098   4.803   5.172   4.352
 9067SOL     OW28099   1.062   6.225   4.770
 9067SOL    HW128100   1.074   6.223   4.671
 9067SOL    HW228101   1.141   6.270   4.813
 9068SOL     OW28102   4.565   6.871   6.126
 9068SOL    HW128103   4.663   6.868   6.106
 9068SOL    HW228104   4.517   6.805   6.068
 9069SOL     OW28105   5.074   2.799   0.879
 9069SOL    HW128106   5.081   2.899   0.880
 9069SOL    HW228107   5.115   2.763   0.795
 9070SOL     OW28108   2.321   1.376   5.660
 9070SOL    HW128109   2.413   1.343   5.637
 9070SOL    HW228110   2.320   1.404   5.756
 9071SOL     OW28111   5.514   2.362   6.501
 9071SOL    HW128112   5.614   2.359   6.492
 9071SOL    HW228113   5.473   2.342   6.412
 9072SOL     OW28114   5.147   0.485   2.607
 9072SOL    HW128115   5.091   0.529   2.677
 9072SOL    HW228116   5.230   0.449   2.650
 9073SOL     OW28117   4.695   2.201   5.083
 9073SOL    HW128118   4.630   2.270   5.052
 9073SOL    HW228119   4.704   2.206   5.183
 9074SOL     OW28120   1.768   1.033   2.130
 9074SOL    HW128121   1.707   1.067   2.202
 9074SOL    HW228122   1.713   1.000   2.053
 9075SOL     OW28123   6.139   6.001   0.502
 9075SOL    HW128124   6.095   6.089   0.484
 9075SOL    HW228125   6.070   5.933   0.527
 9076SOL     OW28126   6.685   6.792   2.097
 9076SOL    HW128127   6.766   6.742   2.131
 9076SOL    HW228128   6.603   6.739   2.118
 9077SOL     OW28129   6.643   1.523   6.707
 9077SOL    HW128130   6.728   1.521   6.653
 9077SOL    HW228131   6.605   1.431   6.711
 9078SOL     OW28132   5.163   6.633   0.094
 9078SOL    HW128133   5.233   6.703   0.083
 9078SOL    HW228134   5.199   6.559   0.151
 9079SOL     OW28135   1.537   1.575   6.747
 9079SOL    HW128136   1.536   1.675   6.753
 9079SOL    HW228137   1.578   1.537   6.830
 9080SOL     OW28138   6.560   3.541   1.999
 9080SOL    HW128139   6.621   3.478   2.047
 9080SOL    HW228140   6.535   3.616   2.060
 9081SOL     OW28141   4.966   1.087   0.492
 9081SOL    HW128142   4.879   1.109   0.448
 9081SOL    HW228143   5.005   1.170   0.533
 9082SOL     OW28144   3.530   6.060   5.741
 9082SOL    HW128145   3.614   6.113   5.728
 9082SOL    HW228146   3.545   5.966   5.711
 9083SOL     OW28147   4.093   5.774   6.800
 9083SOL    HW128148   4.116   5.865   6.765
 9083SOL    HW228149   4.004   5.778   6.846
 9084SOL     OW28150   6.861   2.866   5.483
 9084SOL    HW128151   6.903   2.820   5.561
 9084SOL    HW228152   6.885   2.963   5.484
 9085SOL     OW28153   2.463   4.949   0.102
 9085SOL    HW128154   2.397   4.882   0.069
 9085SOL    HW228155   2.416   5.036   0.118
 9086SOL     OW28156   0.025   4.367   1.325
 9086SOL    HW128157   0.091   4.310   1.275
 9086SOL    HW228158   6.983   4.407   1.260
 9087SOL     OW28159   6.013   0.545   1.077
 9087SOL    HW128160   5.913   0.536   1.072
 9087SOL    HW228161   6.054   0.515   0.991
 9088SOL     OW28162   6.528   6.319   0.860
 9088SOL    HW128163   6.553   6.279   0.948
 9088SOL    HW228164   6.477   6.404   0.875
 9089SOL     OW28165   5.369   5.458   3.547
 9089SOL    HW128166   5.435   5.452   3.622
 9089SOL    HW228167   5.390   5.389   3.477
 9090SOL     OW28168   5.118   5.963   5.650
 9090SOL    HW128169   5.040   5.916   5.691
 9090SOL    HW228170   5.101   6.061   5.649
 9091SOL     OW28171   2.168   1.661   1.827
 9091SOL    HW128172   2.204   1.732   1.888
 9091SOL    HW228173   2.226   1.580   1.832
 9092SOL     OW28174   2.203   1.202   5.483
 9092SOL    HW128175   2.219   1.116   5.532
 9092SOL    HW228176   2.250   1.276   5.531
 9093SOL     OW28177   1.698   3.944   0.805
 9093SOL    HW128178   1.609   3.909   0.778
 9093SOL    HW228179   1.732   4.008   0.736
 9094SOL     OW28180   6.847   4.114   1.814
 9094SOL    HW128181   6.901   4.110   1.729
 9094SOL    HW228182   6.905   4.090   1.891
 9095SOL     OW28183   3.347   2.743   7.019
 9095SOL    HW128184   3.304   2.826   0.031
 9095SOL    HW228185   3.333   2.737   6.920
 9096SOL     OW28186   5.362   2.872   3.038
 9096SOL    HW128187   5.433   2.896   2.973
 9096SOL    HW228188   5.355   2.772   3.044
 9097SOL     OW28189   0.878   4.867   6.420
 9097SOL    HW128190   0.867   4.837   6.325
 9097SOL    HW228191   0.856   4.792   6.482
 9098SOL     OW28192   4.096   3.633   3.392
 9098SOL    HW128193   4.129   3.539   3.390
 9098SOL    HW228194   4.098   3.667   3.486
 9099SOL     OW28195   1.995   3.225   0.775
 9099SOL    HW128196   1.998   3.259   0.681
 9099SOL    HW228197   1.952   3.134   0.775
 9100SOL     OW28198   0.718   3.253   1.222
 9100SOL    HW128199   0.729   3.329   1.287
 9100SOL    HW228200   0.684   3.173   1.271
 9101SOL     OW28201   2.221   2.531   0.475
 9101SOL    HW128202   2.283   2.453   0.488
 9101SOL    HW228203   2.166   2.544   0.558
 9102SOL     OW28204   3.887   5.518   2.766
 9102SOL    HW128205   3.975   5.539   2.724
 9102SOL    HW228206   3.899   5.504   2.864
 9103SOL     OW28207   0.346   3.872   6.683
 9103SOL    HW128208   0.263   3.921   6.709
 9103SOL    HW228209   0.408   3.933   6.634
 9104SOL     OW28210   4.260   6.632   1.697
 9104SOL    HW128211   4.298   6.715   1.738
 9104SOL    HW228212   4.215   6.656   1.611
 9105SOL     OW28213   2.241   1.709   5.856
 9105SOL    HW128214   2.251   1.694   5.954
 9105SOL    HW228215   2.328   1.740   5.818
 9106SOL     OW28216   6.811   5.200   1.199
 9106SOL    HW128217   6.730   5.252   1.225
 9106SOL    HW228218   6.840   5.142   1.275
 9107SOL     OW28219   4.827   0.675   1.182
 9107SOL    HW128220   4.815   0.576   1.189
 9107SOL    HW228221   4.779   0.721   1.257
 9108SOL     OW28222   4.451   5.417   5.817
 9108SOL    HW128223   4.393   5.340   5.844
 9108SOL    HW228224   4.546   5.394   5.834
 9109SOL     OW28225   3.112   2.213   3.779
 9109SOL    HW128226   3.059   2.231   3.696
 9109SOL    HW228227   3.121   2.114   3.792
 9110SOL     OW28228   1.723   3.781   3.724
 9110SOL    HW128229   1.799   3.744   3.778
 9110SOL    HW228230   1.647   3.716   3.725
 9111SOL     OW28231   4.047   4.321   1.662
 9111SOL    HW128232   4.060   4.224   1.683
 9111SOL    HW228233   4.132   4.370   1.679
 9112SOL     OW28234   6.594   4.895   2.245
 9112SOL    HW128235   6.575   4.973   2.305
 9112SOL    HW228236   6.652   4.830   2.293
 9113SOL     OW28237   4.060   6.708   0.254
 9113SOL    HW128238   3.974   6.758   0.243
 9113SOL    HW228239   4.136   6.773   0.256
 9114SOL     OW28240   2.584   4.498   1.774
 9114SOL    HW128241   2.674   4.527   1.805
 9114SOL    HW228242   2.533   4.458   1.851
 9115SOL     OW28243   1.646   4.676   4.918
 9115SOL    HW128244   1.733   4.719   4.939
 9115SOL    HW228245   1.659   4.577   4.907
 9116SOL     OW28246   0.764   1.350   6.068
 9116SOL    HW128247   0.779   1.415   6.143
 9116SOL    HW228248   0.670   1.356   6.037
 9117SOL     OW28249   6.741   2.721   7.003
 9117SOL    HW128250   6.651   2.724   6.960
 9117SOL    HW228251   6.805   2.673   6.943
 9118SOL     OW28252   6.174   6.221   1.858
 9118SOL    HW128253   6.239   6.255   1.790
 9118SOL    HW228254   6.107   6.161   1.813
 9119SOL     OW28255   6.644   0.523   1.659
 9119SOL    HW128256   6.734   0.520   1.702
 9119SOL    HW228257   6.608   0.430   1.652
 9120SOL     OW28258   5.337   1.344   6.336
 9120SOL    HW128259   5.316   1.417   6.272
 9120SOL    HW228260   5.416   1.369   6.391
 9121SOL     OW28261   1.090   1.327   6.390
 9121SOL    HW128262   1.037   1.409   6.366
 9121SOL    HW228263   1.119   1.334   6.485
 9122SOL     OW28264   1.327   2.949   2.162
 9122SOL    HW128265   1.395   3.013   2.126
 9122SOL    HW228266   1.260   2.999   2.217
 9123SOL     OW28267   2.202   5.208   6.897
 9123SOL    HW128268   2.268   5.267   6.944
 9123SOL    HW228269   2.170   5.252   6.814
 9124SOL     OW28270   6.594   5.727   5.219
 9124SOL    HW128271   6.609   5.695   5.312
 9124SOL    HW228272   6.556   5.653   5.163
 9125SOL     OW28273   4.887   4.801   3.683
 9125SOL    HW128274   4.984   4.779   3.671
 9125SOL    HW228275   4.868   4.816   3.780
 9126SOL     OW28276   6.022   0.831   1.175
 9126SOL    HW128277   5.925   0.850   1.191
 9126SOL    HW228278   6.032   0.736   1.146
 9127SOL     OW28279   4.958   0.648   0.147
 9127SOL    HW128280   4.862   0.673   0.157
 9127SOL    HW228281   4.991   0.608   0.233
 9128SOL     OW28282   4.332   2.125   4.882
 9128SOL    HW128283   4.293   2.158   4.968
 9128SOL    HW228284   4.281   2.164   4.805
 9129SOL     OW28285   2.348   1.883   6.540
 9129SOL    HW128286   2.332   1.795   6.584
 9129SOL    HW228287   2.324   1.878   6.443
 9130SOL     OW28288   5.930   4.353   0.650
 9130SOL    HW128289   6.023   4.348   0.614
 9130SOL    HW228290   5.906   4.449   0.667
 9131SOL     OW28291   1.115   4.238   4.731
 9131SOL    HW128292   1.167   4.198   4.656
 9131SOL    HW228293   1.057   4.312   4.697
 9132SOL     OW28294   0.115   3.089   4.641
 9132SOL    HW128295   0.130   2.991   4.638
 9132SOL    HW228296   0.032   3.109   4.694
 9133SOL     OW28297   2.268   3.999   1.399
 9133SOL    HW128298   2.315   4.041   1.476
 9133SOL    HW228299   2.179   4.043   1.386
 9134SOL     OW28300   2.909   5.833   6.407
 9134SOL    HW128301   2.968   5.877   6.474
 9134SOL    HW228302   2.861   5.902   6.354
 9135SOL     OW28303   6.677   6.005   4.512
 9135SOL    HW128304   6.733   5.957   4.444
 9135SOL    HW228305   6.627   6.079   4.467
 9136SOL     OW28306   4.506   4.984   5.532
 9136SOL    HW128307   4.426   4.925   5.544
 9136SOL    HW228308   4.587   4.940   5.572
 9137SOL     OW28309   4.193   0.906   1.567
 9137SOL    HW128310   4.276   0.873   1.521
 9137SOL    HW228311   4.180   0.856   1.652
 9138SOL     OW28312   4.517   5.142   6.319
 9138SOL    HW128313   4.482   5.223   6.365
 9138SOL    HW228314   4.443   5.099   6.267
 9139SOL     OW28315   3.231   1.404   5.310
 9139SOL    HW128316   3.289   1.339   5.357
 9139SOL    HW228317   3.234   1.387   5.211
 9140SOL     OW28318   0.281   2.455   3.117
 9140SOL    HW128319   0.269   2.356   3.107
 9140SOL    HW228320   0.346   2.474   3.191
 9141SOL     OW28321   5.590   6.967   6.004
 9141SOL    HW128322   5.576   6.957   5.906
 9141SOL    HW228323   5.681   6.932   6.028
 9142SOL     OW28324   0.027   2.923   6.075
 9142SOL    HW128325   0.002   2.874   6.159
 9142SOL    HW228326   0.125   2.918   6.061
 9143SOL     OW28327   4.800   3.887   0.747
 9143SOL    HW128328   4.852   3.879   0.832
 9143SOL    HW228329   4.715   3.937   0.765
 9144SOL     OW28330   2.304   5.436   5.452
 9144SOL    HW128331   2.274   5.525   5.417
 9144SOL    HW228332   2.236   5.402   5.518
 9145SOL     OW28333   6.874   4.688   6.496
 9145SOL    HW128334   6.963   4.700   6.538
 9145SOL    HW228335   6.875   4.728   6.404
 9146SOL     OW28336   5.916   2.416   1.479
 9146SOL    HW128337   5.854   2.411   1.558
 9146SOL    HW228338   5.863   2.408   1.395
 9147SOL     OW28339   4.189   5.485   4.861
 9147SOL    HW128340   4.172   5.582   4.843
 9147SOL    HW228341   4.287   5.471   4.875
 9148SOL     OW28342   4.892   5.365   3.371
 9148SOL    HW128343   4.965   5.361   3.303
 9148SOL    HW228344   4.925   5.412   3.453
 9149SOL     OW28345   5.352   3.175   4.558
 9149SOL    HW128346   5.430   3.155   4.618
 9149SOL    HW228347   5.284   3.229   4.609
 9150SOL     OW28348   4.968   0.195   3.431
 9150SOL    HW128349   5.033   0.135   3.383
 9150SOL    HW228350   4.913   0.245   3.365
 9151SOL     OW28351   1.891   4.123   1.831
 9151SOL    HW128352   1.837   4.202   1.800
 9151SOL    HW228353   1.899   4.125   1.931
 9152SOL     OW28354   1.930   6.049   3.820
 9152SOL    HW128355   1.943   6.126   3.883
 9152SOL    HW228356   2.018   6.018   3.786
 9153SOL     OW28357   2.056   2.856   6.091
 9153SOL    HW128358   2.015   2.846   6.182
 9153SOL    HW228359   2.153   2.832   6.096
 9154SOL     OW28360   2.481   5.845   6.661
 9154SOL    HW128361   2.406   5.837   6.727
 9154SOL    HW228362   2.484   5.763   6.604
 9155SOL     OW28363   1.525   3.798   6.823
 9155SOL    HW128364   1.560   3.736   6.753
 9155SOL    HW228365   1.536   3.893   6.793
 9156SOL     OW28366   4.607   2.398   1.200
 9156SOL    HW128367   4.628   2.465   1.271
 9156SOL    HW228368   4.605   2.307   1.240
 9157SOL     OW28369   5.315   3.878   5.641
 9157SOL    HW128370   5.332   3.935   5.722
 9157SOL    HW228371   5.309   3.782   5.669
 9158SOL     OW28372   1.055   3.398   4.461
 9158SOL    HW128373   0.961   3.369   4.440
 9158SOL    HW228374   1.117   3.320   4.449
 9159SOL     OW28375   6.353   5.625   2.408
 9159SOL    HW128376   6.293   5.668   2.341
 9159SOL    HW228377   6.299   5.596   2.487
 9160SOL     OW28378   0.956   0.257   6.811
 9160SOL    HW128379   0.882   0.324   6.819
 9160SOL    HW228380   0.917   0.167   6.791
 9161SOL     OW28381   4.995   4.027   4.570
 9161SOL    HW128382   5.067   3.961   4.589
 9161SOL    HW228383   4.937   4.036   4.651
 9162SOL     OW28384   4.658   2.670   2.285
 9162SOL    HW128385   4.738   2.706   2.333
 9162SOL    HW228386   4.575   2.705   2.328
 9163SOL     OW28387   2.900   2.241   3.552
 9163SOL    HW128388   2.915   2.283   3.462
 9163SOL    HW228389   2.828   2.291   3.600
 9164SOL     OW28390   2.908   0.502   6.532
 9164SOL    HW128391   2.996   0.514   6.486
 9164SOL    HW228392   2.871   0.412   6.510
 9165SOL     OW28393   5.696   0.680   6.800
 9165SOL    HW128394   5.704   0.769   6.757
 9165SOL    HW228395   5.785   0.635   6.799
 9166SOL     OW28396   3.195   5.112   1.093
 9166SOL    HW128397   3.240   5.125   1.005
 9166SOL    HW228398   3.217   5.188   1.154
 9167SOL     OW28399   1.655   3.996   5.687
 9167SOL    HW128400   1.662   4.079   5.632
 9167SOL    HW228401   1.592   4.012   5.763
 9168SOL     OW28402   2.469   0.335   5.881
 9168SOL    HW128403   2.448   0.261   5.945
 9168SOL    HW228404   2.519   0.297   5.803
 9169SOL     OW28405   0.599   1.135   3.813
 9169SOL    HW128406   0.501   1.154   3.815
 9169SOL    HW228407   0.644   1.200   3.752
 9170SOL     OW28408   0.146   5.828   0.096
 9170SOL    HW128409   0.083   5.905   0.106
 9170SOL    HW228410   0.136   5.789   0.005
 9171SOL     OW28411   2.622   5.677   7.019
 9171SOL    HW128412   2.553   5.650   6.952
 9171SOL    HW228413   2.652   5.596   0.047
 9172SOL     OW28414   3.281   1.480   3.855
 9172SOL    HW128415   3.379   1.480   3.835
 9172SOL    HW228416   3.262   1.549   3.925
 9173SOL     OW28417   7.019   5.349   4.299
 9173SOL    HW128418   0.090   5.376   4.278
 9173SOL    HW228419   7.018   5.254   4.330
 9174SOL     OW28420   0.062   4.692   0.076
 9174SOL    HW128421   0.112   4.613   0.040
 9174SOL    HW228422   0.084   4.702   0.173
 9175SOL     OW28423   2.044   5.975   5.903
 9175SOL    HW128424   2.097   6.020   5.975
 9175SOL    HW228425   1.970   6.035   5.873
 9176SOL     OW28426   2.084   0.636   5.726
 9176SOL    HW128427   2.054   0.570   5.656
 9176SOL    HW228428   2.184   0.639   5.727
 9177SOL     OW28429   1.086   4.444   3.781
 9177SOL    HW128430   1.039   4.465   3.867
 9177SOL    HW228431   1.045   4.496   3.707
 9178SOL     OW28432   2.201   4.970   0.820
 9178SOL    HW128433   2.169   4.990   0.913
 9178SOL    HW228434   2.124   4.974   0.757
 9179SOL     OW28435   3.330   4.888   3.820
 9179SOL    HW128436   3.296   4.879   3.914
 9179SOL    HW228437   3.417   4.937   3.822
 9180SOL     OW28438   5.965   2.484   3.817
 9180SOL    HW128439   6.010   2.500   3.905
 9180SOL    HW228440   5.999   2.399   3.778
 9181SOL     OW28441   4.428   2.263   2.234
 9181SOL    HW128442   4.335   2.236   2.260
 9181SOL    HW228443   4.454   2.345   2.285
 9182SOL     OW28444   1.101   6.483   2.068
 9182SOL    HW128445   1.143   6.440   1.987
 9182SOL    HW228446   1.104   6.582   2.059
 9183SOL     OW28447   5.001   6.300   0.864
 9183SOL    HW128448   5.064   6.342   0.929
 9183SOL    HW228449   5.018   6.337   0.772
 9184SOL     OW28450   4.905   6.697   0.756
 9184SOL    HW128451   4.858   6.785   0.747
 9184SOL    HW228452   4.848   6.633   0.806
 9185SOL     OW28453   3.606   0.611   5.132
 9185SOL    HW128454   3.661   0.695   5.134
 9185SOL    HW228455   3.528   0.620   5.193
 9186SOL     OW28456   5.912   0.956   5.695
 9186SOL    HW128457   5.984   0.888   5.680
 9186SOL    HW228458   5.864   0.973   5.609
 9187SOL     OW28459   2.347   6.235   2.180
 9187SOL    HW128460   2.327   6.322   2.136
 9187SOL    HW228461   2.347   6.246   2.279
 9188SOL     OW28462   2.623   6.469   1.040
 9188SOL    HW128463   2.721   6.467   1.058
 9188SOL    HW228464   2.590   6.376   1.021
 9189SOL     OW28465   4.972   5.724   3.171
 9189SOL    HW128466   5.003   5.724   3.266
 9189SOL    HW228467   5.018   5.797   3.121
 9190SOL     OW28468   1.884   5.245   0.803
 9190SOL    HW128469   1.915   5.340   0.808
 9190SOL    HW228470   1.932   5.197   0.730
 9191SOL     OW28471   6.621   0.546   5.816
 9191SOL    HW128472   6.708   0.515   5.775
 9191SOL    HW228473   6.608   0.643   5.796
 9192SOL     OW28474   6.997   4.238   4.302
 9192SOL    HW128475   0.052   4.201   4.251
 9192SOL    HW228476   6.914   4.229   4.247
 9193SOL     OW28477   3.180   3.242   6.742
 9193SOL    HW128478   3.085   3.263   6.718
 9193SOL    HW228479   3.215   3.172   6.680
 9194SOL     OW28480   3.131   0.869   3.742
 9194SOL    HW128481   3.117   0.897   3.837
 9194SOL    HW228482   3.049   0.823   3.708
 9195SOL     OW28483   2.007   2.208   3.979
 9195SOL    HW128484   2.058   2.138   4.030
 9195SOL    HW228485   2.045   2.298   3.999
 9196SOL     OW28486   4.686   1.755   5.382
 9196SOL    HW128487   4.643   1.836   5.342
 9196SOL    HW228488   4.676   1.678   5.319
 9197SOL     OW28489   2.365   3.537   1.588
 9197SOL    HW128490   2.403   3.515   1.678
 9197SOL    HW228491   2.437   3.579   1.532
 9198SOL     OW28492   6.455   5.453   5.488
 9198SOL    HW128493   6.412   5.536   5.522
 9198SOL    HW228494   6.492   5.400   5.564
 9199SOL     OW28495   0.092   4.350   5.154
 9199SOL    HW128496   0.076   4.256   5.185
 9199SOL    HW228497   0.144   4.348   5.068
 9200SOL     OW28498   3.025   0.476   0.784
 9200SOL    HW128499   3.045   0.427   0.699
 9200SOL    HW228500   3.092   0.550   0.796
 9201SOL     OW28501   1.206   3.978   0.504
 9201SOL    HW128502   1.248   3.904   0.452
 9201SOL    HW228503   1.278   4.041   0.535
 9202SOL     OW28504   1.364   0.006   3.211
 9202SOL    HW128505   1.281   7.012   3.158
 9202SOL    HW228506   1.341   0.056   3.294
 9203SOL     OW28507   6.737   5.636   0.814
 9203SOL    HW128508   6.697   5.665   0.901
 9203SOL    HW228509   6.702   5.695   0.741
 9204SOL     OW28510   5.043   0.936   6.058
 9204SOL    HW128511   5.035   1.010   5.991
 9204SOL    HW228512   5.138   0.928   6.088
 9205SOL     OW28513   6.902   3.780   3.055
 9205SOL    HW128514   6.879   3.820   3.144
 9205SOL    HW228515   6.875   3.684   3.054
 9206SOL     OW28516   3.940   5.935   0.772
 9206SOL    HW128517   4.018   5.997   0.767
 9206SOL    HW228518   3.869   5.966   0.708
 9207SOL     OW28519   4.920   5.605   0.605
 9207SOL    HW128520   4.980   5.621   0.684
 9207SOL    HW228521   4.863   5.525   0.622
 9208SOL     OW28522   0.635   3.988   4.141
 9208SOL    HW128523   0.638   3.899   4.097
 9208SOL    HW228524   0.621   3.976   4.240
 9209SOL     OW28525   2.477   1.279   6.365
 9209SOL    HW128526   2.495   1.187   6.331
 9209SOL    HW228527   2.399   1.318   6.316
 9210SOL     OW28528   6.633   1.502   3.295
 9210SOL    HW128529   6.550   1.447   3.301
 9210SOL    HW228530   6.665   1.505   3.200
 9211SOL     OW28531   0.266   1.824   3.641
 9211SOL    HW128532   0.272   1.769   3.558
 9211SOL    HW228533   0.354   1.821   3.689
 9212SOL     OW28534   3.123   4.964   4.752
 9212SOL    HW128535   3.223   4.962   4.750
 9212SOL    HW228536   3.090   5.040   4.696
 9213SOL     OW28537   5.820   4.001   6.063
 9213SOL    HW128538   5.911   3.973   6.032
 9213SOL    HW228539   5.774   4.051   5.990
 9214SOL     OW28540   0.591   5.679   0.901
 9214SOL    HW128541   0.667   5.625   0.937
 9214SOL    HW228542   0.615   5.713   0.810
 9215SOL     OW28543   0.860   0.999   0.424
 9215SOL    HW128544   0.930   0.986   0.494
 9215SOL    HW228545   0.900   1.047   0.345
 9216SOL     OW28546   2.411   0.001   3.044
 9216SOL    HW128547   2.510   0.011   3.037
 9216SOL    HW228548   2.387   6.929   3.062
 9217SOL     OW28549   0.891   1.800   6.146
 9217SOL    HW128550   0.895   1.727   6.078
 9217SOL    HW228551   0.952   1.874   6.119
 9218SOL     OW28552   2.914   0.235   0.794
 9218SOL    HW128553   2.878   0.200   0.707
 9218SOL    HW228554   2.922   0.335   0.788
 9219SOL     OW28555   0.617   2.536   0.971
 9219SOL    HW128556   0.621   2.490   1.060
 9219SOL    HW228557   0.521   2.542   0.942
 9220SOL     OW28558   3.463   6.651   1.442
 9220SOL    HW128559   3.538   6.670   1.379
 9220SOL    HW228560   3.419   6.737   1.468
 9221SOL     OW28561   2.679   6.043   3.756
 9221SOL    HW128562   2.641   6.064   3.846
 9221SOL    HW228563   2.733   5.959   3.761
 9222SOL     OW28564   2.820   1.623   6.795
 9222SOL    HW128565   2.784   1.593   6.707
 9222SOL    HW228566   2.919   1.635   6.788
 9223SOL     OW28567   2.505   2.787   5.309
 9223SOL    HW128568   2.505   2.810   5.406
 9223SOL    HW228569   2.493   2.870   5.255
 9224SOL     OW28570   1.642   5.355   4.324
 9224SOL    HW128571   1.699   5.434   4.302
 9224SOL    HW228572   1.698   5.272   4.325
 9225SOL     OW28573   3.240   5.675   0.145
 9225SOL    HW128574   3.223   5.582   0.113
 9225SOL    HW228575   3.163   5.734   0.120
 9226SOL     OW28576   4.985   6.524   1.296
 9226SOL    HW128577   4.887   6.543   1.290
 9226SOL    HW228578   5.019   6.553   1.385
 9227SOL     OW28579   1.669   5.536   2.719
 9227SOL    HW128580   1.682   5.587   2.634
 9227SOL    HW228581   1.712   5.446   2.712
 9228SOL     OW28582   1.280   0.791   6.771
 9228SOL    HW128583   1.331   0.706   6.774
 9228SOL    HW228584   1.298   0.844   6.854
 9229SOL     OW28585   0.968   5.784   4.100
 9229SOL    HW128586   1.046   5.802   4.160
 9229SOL    HW228587   1.002   5.761   4.008
 9230SOL     OW28588   5.591   0.788   3.787
 9230SOL    HW128589   5.562   0.693   3.776
 9230SOL    HW228590   5.676   0.803   3.736
 9231SOL     OW28591   1.374   2.526   4.471
 9231SOL    HW128592   1.440   2.466   4.426
 9231SOL    HW228593   1.336   2.480   4.551
 9232SOL     OW28594   3.515   5.191   0.616
 9232SOL    HW128595   3.514   5.170   0.714
 9232SOL    HW228596   3.458   5.124   0.567
 9233SOL     OW28597   5.732   4.763   1.054
 9233SOL    HW128598   5.811   4.808   1.012
 9233SOL    HW228599   5.676   4.831   1.102
 9234SOL     OW28600   2.537   5.897   3.125
 9234SOL    HW128601   2.572   5.818   3.074
 9234SOL    HW228602   2.512   5.869   3.218
 9235SOL     OW28603   0.545   1.979   2.995
 9235SOL    HW128604   0.462   1.959   2.943
 9235SOL    HW228605   0.559   2.078   2.998
 9236SOL     OW28606   2.960   3.381   5.178
 9236SOL    HW128607   2.895   3.391   5.253
 9236SOL    HW228608   3.050   3.359   5.215
 9237SOL     OW28609   2.099   4.288   3.927
 9237SOL    HW128610   2.077   4.229   3.849
 9237SOL    HW228611   2.197   4.283   3.946
 9238SOL     OW28612   4.441   2.969   6.397
 9238SOL    HW128613   4.377   2.969   6.474
 9238SOL    HW228614   4.397   3.010   6.317
 9239SOL     OW28615   0.750   3.915   0.985
 9239SOL    HW128616   0.829   3.859   1.008
 9239SOL    HW228617   0.681   3.907   1.058
 9240SOL     OW28618   4.668   1.058   1.775
 9240SOL    HW128619   4.618   1.068   1.689
 9240SOL    HW228620   4.605   1.070   1.852
 9241SOL     OW28621   0.379   5.490   6.908
 9241SOL    HW128622   0.423   5.566   6.956
 9241SOL    HW228623   0.390   5.406   6.960
 9242SOL     OW28624   6.152   5.876   2.029
 9242SOL    HW128625   6.197   5.849   1.944
 9242SOL    HW228626   6.183   5.968   2.056
 9243SOL     OW28627   6.425   5.913   5.071
 9243SOL    HW128628   6.485   5.906   5.151
 9243SOL    HW228629   6.406   6.010   5.052
 9244SOL     OW28630   3.687   5.068   6.567
 9244SOL    HW128631   3.667   4.972   6.585
 9244SOL    HW228632   3.619   5.105   6.504
 9245SOL     OW28633   0.697   6.139   1.476
 9245SOL    HW128634   0.640   6.193   1.414
 9245SOL    HW228635   0.679   6.166   1.570
 9246SOL     OW28636   6.395   5.568   3.657
 9246SOL    HW128637   6.382   5.495   3.724
 9246SOL    HW228638   6.490   5.597   3.656
 9247SOL     OW28639   1.060   6.636   2.675
 9247SOL    HW128640   1.064   6.545   2.633
 9247SOL    HW228641   1.130   6.695   2.635
 9248SOL     OW28642   2.792   2.292   6.211
 9248SOL    HW128643   2.852   2.357   6.257
 9248SOL    HW228644   2.824   2.199   6.229
 9249SOL     OW28645   4.970   0.434   3.993
 9249SOL    HW128646   4.966   0.337   4.017
 9249SOL    HW228647   4.888   0.460   3.942
 9250SOL     OW28648   4.963   3.719   4.086
 9250SOL    HW128649   5.024   3.706   4.007
 9250SOL    HW228650   4.902   3.796   4.069
 9251SOL     OW28651   3.555   1.843   2.710
 9251SOL    HW128652   3.560   1.749   2.745
 9251SOL    HW228653   3.577   1.843   2.613
 9252SOL     OW28654   0.131   0.239   4.916
 9252SOL    HW128655   0.138   0.146   4.951
 9252SOL    HW228656   0.153   0.304   4.989
 9253SOL     OW28657   1.816   0.252   5.643
 9253SOL    HW128658   1.769   0.314   5.580
 9253SOL    HW228659   1.816   0.160   5.604
 9254SOL     OW28660   5.867   3.615   1.846
 9254SOL    HW128661   5.934   3.628   1.772
 9254SOL    HW228662   5.837   3.520   1.848
 9255SOL     OW28663   5.427   3.909   1.222
 9255SOL    HW128664   5.420   3.994   1.275
 9255SOL    HW228665   5.523   3.892   1.200
 9256SOL     OW28666   4.126   4.690   1.769
 9256SOL    HW128667   4.159   4.599   1.793
 9256SOL    HW228668   4.102   4.740   1.852
 9257SOL     OW28669   0.961   4.242   1.708
 9257SOL    HW128670   0.947   4.174   1.780
 9257SOL    HW228671   0.894   4.316   1.718
 9258SOL     OW28672   3.936   3.176   3.412
 9258SOL    HW128673   3.935   3.210   3.318
 9258SOL    HW228674   3.874   3.098   3.420
 9259SOL     OW28675   1.156   2.412   1.377
 9259SOL    HW128676   1.096   2.470   1.432
 9259SOL    HW228677   1.238   2.390   1.430
 9260SOL     OW28678   5.063   3.357   6.208
 9260SOL    HW128679   5.073   3.287   6.278
 9260SOL    HW228680   5.145   3.361   6.151
 9261SOL     OW28681   4.216   0.277   6.561
 9261SOL    HW128682   4.293   0.264   6.623
 9261SOL    HW228683   4.228   0.362   6.511
 9262SOL     OW28684   5.279   1.323   5.597
 9262SOL    HW128685   5.311   1.314   5.503
 9262SOL    HW228686   5.215   1.400   5.604
 9263SOL     OW28687   5.119   3.997   1.570
 9263SOL    HW128688   5.171   4.052   1.634
 9263SOL    HW228689   5.106   4.048   1.485
 9264SOL     OW28690   5.985   3.916   6.933
 9264SOL    HW128691   5.944   3.995   6.979
 9264SOL    HW228692   6.047   3.948   6.861
 9265SOL     OW28693   2.811   1.004   0.380
 9265SOL    HW128694   2.771   0.953   0.303
 9265SOL    HW228695   2.757   1.088   0.395
 9266SOL     OW28696   2.416   6.631   2.727
 9266SOL    HW128697   2.454   6.552   2.775
 9266SOL    HW228698   2.346   6.599   2.663
 9267SOL     OW28699   0.792   4.367   4.577
 9267SOL    HW128700   0.797   4.454   4.529
 9267SOL    HW228701   0.767   4.382   4.673
 9268SOL     OW28702   0.498   6.495   2.593
 9268SOL    HW128703   0.597   6.508   2.582
 9268SOL    HW228704   0.459   6.466   2.505
 9269SOL     OW28705   3.409   1.805   6.586
 9269SOL    HW128706   3.322   1.851   6.569
 9269SOL    HW228707   3.403   1.753   6.671
 9270SOL     OW28708   6.610   6.706   6.319
 9270SOL    HW128709   6.706   6.719   6.297
 9270SOL    HW228710   6.576   6.623   6.276
 9271SOL     OW28711   1.949   5.505   0.731
 9271SOL    HW128712   1.979   5.544   0.818
 9271SOL    HW228713   1.865   5.550   0.702
 9272SOL     OW28714   2.292   4.481   6.102
 9272SOL    HW128715   2.264   4.525   6.017
 9272SOL    HW228716   2.350   4.543   6.154
 9273SOL     OW28717   4.355   5.359   4.339
 9273SOL    HW128718   4.397   5.268   4.348
 9273SOL    HW228719   4.258   5.353   4.360
 9274SOL     OW28720   5.814   2.041   6.350
 9274SOL    HW128721   5.761   1.993   6.280
 9274SOL    HW228722   5.753   2.078   6.420
 9275SOL     OW28723   1.559   0.541   5.759
 9275SOL    HW128724   1.484   0.482   5.728
 9275SOL    HW228725   1.614   0.568   5.680
 9276SOL     OW28726   3.516   6.041   4.895
 9276SOL    HW128727   3.605   5.999   4.916
 9276SOL    HW228728   3.443   5.974   4.912
 9277SOL     OW28729   3.855   3.134   7.020
 9277SOL    HW128730   3.933   3.194   0.014
 9277SOL    HW228731   3.859   3.056   0.060
 9278SOL     OW28732   1.306   2.088   3.435
 9278SOL    HW128733   1.353   2.175   3.453
 9278SOL    HW228734   1.208   2.101   3.446
 9279SOL     OW28735   3.107   0.469   2.241
 9279SOL    HW128736   3.184   0.408   2.222
 9279SOL    HW228737   3.099   0.483   2.339
 9280SOL     OW28738   2.080   6.896   4.051
 9280SOL    HW128739   2.126   6.979   4.083
 9280SOL    HW228740   2.147   6.837   4.006
 9281SOL     OW28741   2.004   2.289   0.503
 9281SOL    HW128742   2.015   2.384   0.534
 9281SOL    HW228743   2.071   2.231   0.548
 9282SOL     OW28744   4.464   1.615   5.211
 9282SOL    HW128745   4.543   1.630   5.152
 9282SOL    HW228746   4.383   1.660   5.173
 9283SOL     OW28747   5.851   2.503   2.253
 9283SOL    HW128748   5.844   2.582   2.313
 9283SOL    HW228749   5.789   2.514   2.175
 9284SOL     OW28750   3.240   3.508   1.154
 9284SOL    HW128751   3.168   3.504   1.223
 9284SOL    HW228752   3.329   3.518   1.198
 9285SOL     OW28753   0.063   2.475   6.505
 9285SOL    HW128754   0.126   2.552   6.497
 9285SOL    HW228755   6.993   2.509   6.518
 9286SOL     OW28756   5.394   0.078   5.213
 9286SOL    HW128757   5.396   0.007   5.284
 9286SOL    HW228758   5.313   0.135   5.226
 9287SOL     OW28759   2.774   6.239   0.980
 9287SOL    HW128760   2.833   6.309   1.021
 9287SOL    HW228761   2.826   6.191   0.909
 9288SOL     OW28762   4.914   2.235   5.735
 9288SOL    HW128763   4.951   2.196   5.819
 9288SOL    HW228764   4.908   2.334   5.744
 9289SOL     OW28765   5.080   2.341   2.118
 9289SOL    HW128766   5.010   2.312   2.183
 9289SOL    HW228767   5.052   2.318   2.025
 9290SOL     OW28768   4.729   1.649   4.519
 9290SOL    HW128769   4.772   1.720   4.574
 9290SOL    HW228770   4.651   1.611   4.569
 9291SOL     OW28771   1.476   0.449   4.820
 9291SOL    HW128772   1.378   0.464   4.803
 9291SOL    HW228773   1.529   0.495   4.750
 9292SOL     OW28774   0.136   3.230   6.132
 9292SOL    HW128775   0.123   3.256   6.036
 9292SOL    HW228776   0.060   3.172   6.161
 9293SOL     OW28777   5.359   4.523   0.278
 9293SOL    HW128778   5.308   4.448   0.236
 9293SOL    HW228779   5.319   4.546   0.366
 9294SOL     OW28780   5.444   6.380   6.822
 9294SOL    HW128781   5.394   6.467   6.828
 9294SOL    HW228782   5.388   6.307   6.862
 9295SOL     OW28783   4.811   1.530   3.072
 9295SOL    HW128784   4.883   1.587   3.112
 9295SOL    HW228785   4.816   1.535   2.972
 9296SOL     OW28786   6.036   6.270   5.946
 9296SOL    HW128787   5.957   6.326   5.969
 9296SOL    HW228788   6.078   6.305   5.862
 9297SOL     OW28789   0.371   0.828   1.230
 9297SOL    HW128790   0.450   0.770   1.248
 9297SOL    HW228791   0.300   0.775   1.185
 9298SOL     OW28792   1.762   6.331   5.204
 9298SOL    HW128793   1.725   6.336   5.296
 9298SOL    HW228794   1.800   6.240   5.187
 9299SOL     OW28795   1.591   3.728   4.380
 9299SOL    HW128796   1.681   3.760   4.411
 9299SOL    HW228797   1.593   3.629   4.369
 9300SOL     OW28798   5.539   4.429   4.742
 9300SOL    HW128799   5.456   4.482   4.762
 9300SOL    HW228800   5.592   4.475   4.671
 9301SOL     OW28801   5.235   4.412   2.535
 9301SOL    HW128802   5.139   4.418   2.509
 9301SOL    HW228803   5.246   4.343   2.607
 9302SOL     OW28804   2.153   2.333   3.047
 9302SOL    HW128805   2.079   2.266   3.055
 9302SOL    HW228806   2.236   2.287   3.015
 9303SOL     OW28807   3.736   6.397   6.692
 9303SOL    HW128808   3.697   6.374   6.781
 9303SOL    HW228809   3.709   6.329   6.625
 9304SOL     OW28810   3.234   3.295   0.730
 9304SOL    HW128811   3.320   3.295   0.780
 9304SOL    HW228812   3.243   3.353   0.649
 9305SOL     OW28813   6.181   2.779   1.944
 9305SOL    HW128814   6.276   2.808   1.930
 9305SOL    HW228815   6.145   2.741   1.859
 9306SOL     OW28816   6.676   4.601   4.075
 9306SOL    HW128817   6.756   4.608   4.015
 9306SOL    HW228818   6.705   4.584   4.169
 9307SOL     OW28819   1.633   1.875   0.591
 9307SOL    HW128820   1.561   1.881   0.660
 9307SOL    HW228821   1.688   1.959   0.593
 9308SOL     OW28822   0.624   3.530   0.861
 9308SOL    HW128823   0.598   3.453   0.919
 9308SOL    HW228824   0.556   3.542   0.789
 9309SOL     OW28825   4.665   4.019   5.822
 9309SOL    HW128826   4.692   4.112   5.797
 9309SOL    HW228827   4.623   3.974   5.742
 9310SOL     OW28828   4.412   5.674   6.422
 9310SOL    HW128829   4.428   5.580   6.392
 9310SOL    HW228830   4.325   5.707   6.384
 9311SOL     OW28831   5.586   3.961   0.833
 9311SOL    HW128832   5.499   4.009   0.849
 9311SOL    HW228833   5.567   3.871   0.794
 9312SOL     OW28834   0.832   4.112   6.399
 9312SOL    HW128835   0.830   4.197   6.452
 9312SOL    HW228836   0.871   4.039   6.454
 9313SOL     OW28837   6.850   6.924   2.508
 9313SOL    HW128838   6.750   6.919   2.505
 9313SOL    HW228839   6.877   6.992   2.576
 9314SOL     OW28840   4.782   5.250   6.756
 9314SOL    HW128841   4.864   5.194   6.744
 9314SOL    HW228842   4.778   5.285   6.849
 9315SOL     OW28843   6.764   0.229   5.592
 9315SOL    HW128844   6.677   0.270   5.618
 9315SOL    HW228845   6.763   0.207   5.494
 9316SOL     OW28846   4.075   5.876   3.563
 9316SOL    HW128847   4.145   5.944   3.582
 9316SOL    HW228848   4.014   5.868   3.642
 9317SOL     OW28849   6.528   5.168   3.624
 9317SOL    HW128850   6.565   5.244   3.571
 9317SOL    HW228851   6.434   5.151   3.596
 9318SOL     OW28852   0.387   0.497   6.671
 9318SOL    HW128853   0.451   0.538   6.606
 9318SOL    HW228854   0.295   0.496   6.632
 9319SOL     OW28855   0.595   3.200   6.265
 9319SOL    HW128856   0.503   3.180   6.230
 9319SOL    HW228857   0.598   3.294   6.298
 9320SOL     OW28858   4.413   2.226   5.929
 9320SOL    HW128859   4.464   2.217   5.844
 9320SOL    HW228860   4.473   2.260   6.001
 9321SOL     OW28861   6.153   6.112   2.880
 9321SOL    HW128862   6.104   6.053   2.943
 9321SOL    HW228863   6.195   6.057   2.808
 9322SOL     OW28864   0.791   6.221   5.658
 9322SOL    HW128865   0.778   6.131   5.701
 9322SOL    HW228866   0.793   6.292   5.728
 9323SOL     OW28867   1.224   1.512   6.907
 9323SOL    HW128868   1.219   1.510   7.007
 9323SOL    HW228869   1.309   1.557   6.880
 9324SOL     OW28870   1.438   5.433   0.336
 9324SOL    HW128871   1.489   5.516   0.361
 9324SOL    HW228872   1.362   5.420   0.401
 9325SOL     OW28873   5.757   2.059   1.095
 9325SOL    HW128874   5.729   2.040   1.001
 9325SOL    HW228875   5.720   2.148   1.124
 9326SOL     OW28876   1.836   6.928   1.451
 9326SOL    HW128877   1.792   6.843   1.480
 9326SOL    HW228878   1.924   6.938   1.497
 9327SOL     OW28879   4.071   0.652   2.604
 9327SOL    HW128880   4.135   0.728   2.590
 9327SOL    HW228881   3.993   0.684   2.657
 9328SOL     OW28882   3.462   1.522   1.118
 9328SOL    HW128883   3.485   1.619   1.127
 9328SOL    HW228884   3.544   1.470   1.092
 9329SOL     OW28885   0.537   3.582   2.342
 9329SOL    HW128886   0.589   3.665   2.365
 9329SOL    HW228887   0.485   3.597   2.258
 9330SOL     OW28888   6.115   0.767   0.666
 9330SOL    HW128889   6.053   0.820   0.723
 9330SOL    HW228890   6.209   0.796   0.683
 9331SOL     OW28891   0.567   0.988   0.112
 9331SOL    HW128892   0.593   0.934   0.192
 9331SOL    HW228893   0.468   0.983   0.100
 9332SOL     OW28894   3.086   3.048   4.428
 9332SOL    HW128895   3.068   3.147   4.429
 9332SOL    HW228896   3.004   2.999   4.455
 9333SOL     OW28897   6.639   4.652   1.444
 9333SOL    HW128898   6.705   4.577   1.443
 9333SOL    HW228899   6.546   4.615   1.450
 9334SOL     OW28900   2.686   0.084   4.741
 9334SOL    HW128901   2.685   0.028   4.658
 9334SOL    HW228902   2.652   0.175   4.720
 9335SOL     OW28903   1.819   0.563   6.980
 9335SOL    HW128904   1.906   0.514   6.988
 9335SOL    HW228905   1.747   0.509   7.023
 9336SOL     OW28906   2.941   6.703   6.075
 9336SOL    HW128907   2.943   6.734   5.981
 9336SOL    HW228908   2.955   6.781   6.137
 9337SOL     OW28909   4.791   0.449   2.286
 9337SOL    HW128910   4.765   0.513   2.358
 9337SOL    HW228911   4.890   0.449   2.275
 9338SOL     OW28912   3.612   0.165   2.597
 9338SOL    HW128913   3.668   0.244   2.571
 9338SOL    HW228914   3.640   0.085   2.544
 9339SOL     OW28915   4.469   6.454   1.768
 9339SOL    HW128916   4.566   6.478   1.757
 9339SOL    HW228917   4.412   6.524   1.726
 9340SOL     OW28918   6.010   3.643   0.289
 9340SOL    HW128919   5.940   3.654   0.218
 9340SOL    HW228920   6.027   3.730   0.334
 9341SOL     OW28921   0.793   5.444   6.485
 9341SOL    HW128922   0.737   5.445   6.568
 9341SOL    HW228923   0.742   5.400   6.411
 9342SOL     OW28924   1.607   6.684   6.350
 9342SOL    HW128925   1.559   6.759   6.304
 9342SOL    HW228926   1.700   6.713   6.373
 9343SOL     OW28927   6.499   5.482   5.034
 9343SOL    HW128928   6.455   5.545   4.971
 9343SOL    HW228929   6.537   5.405   4.984
 9344SOL     OW28930   5.074   6.588   1.557
 9344SOL    HW128931   5.133   6.536   1.618
 9344SOL    HW228932   5.084   6.686   1.575
 9345SOL     OW28933   0.243   3.285   0.752
 9345SOL    HW128934   0.303   3.363   0.769
 9345SOL    HW228935   0.147   3.315   0.755
 9346SOL     OW28936   6.200   6.999   0.883
 9346SOL    HW128937   6.186   0.070   0.850
 9346SOL    HW228938   6.267   6.999   0.957
 9347SOL     OW28939   1.700   6.481   1.562
 9347SOL    HW128940   1.720   6.501   1.658
 9347SOL    HW228941   1.679   6.383   1.552
 9348SOL     OW28942   3.167   4.853   0.238
 9348SOL    HW128943   3.158   4.773   0.179
 9348SOL    HW228944   3.262   4.885   0.237
 9349SOL     OW28945   1.546   6.739   2.690
 9349SOL    HW128946   1.509   6.831   2.704
 9349SOL    HW228947   1.470   6.675   2.675
 9350SOL     OW28948   0.608   2.495   6.349
 9350SOL    HW128949   0.574   2.499   6.443
 9350SOL    HW228950   0.601   2.401   6.316
 9351SOL     OW28951   3.918   2.310   6.622
 9351SOL    HW128952   3.937   2.291   6.718
 9351SOL    HW228953   3.821   2.330   6.610
 9352SOL     OW28954   2.075   4.448   6.347
 9352SOL    HW128955   2.127   4.413   6.269
 9352SOL    HW228956   2.089   4.547   6.354
 9353SOL     OW28957   6.548   0.047   1.338
 9353SOL    HW128958   6.607   0.117   1.298
 9353SOL    HW228959   6.601   7.013   1.400
 9354SOL     OW28960   6.843   2.597   6.526
 9354SOL    HW128961   6.786   2.571   6.604
 9354SOL    HW228962   6.813   2.686   6.491
 9355SOL     OW28963   0.360   1.593   4.954
 9355SOL    HW128964   0.427   1.519   4.946
 9355SOL    HW228965   0.408   1.678   4.978
 9356SOL     OW28966   4.778   6.580   2.414
 9356SOL    HW128967   4.700   6.534   2.370
 9356SOL    HW228968   4.834   6.625   2.344
 9357SOL     OW28969   0.593   1.738   7.014
 9357SOL    HW128970   0.548   1.824   6.990
 9357SOL    HW228971   0.601   1.731   0.091
 9358SOL     OW28972   0.944   3.562   2.616
 9358SOL    HW128973   0.878   3.511   2.672
 9358SOL    HW228974   0.921   3.660   2.620
 9359SOL     OW28975   1.448   0.221   5.982
 9359SOL    HW128976   1.442   0.161   5.901
 9359SOL    HW228977   1.515   0.293   5.965
 9360SOL     OW28978   0.832   0.592   6.570
 9360SOL    HW128979   0.885   0.647   6.635
 9360SOL    HW228980   0.892   0.563   6.495
 9361SOL     OW28981   2.258   5.898   4.132
 9361SOL    HW128982   2.245   5.889   4.034
 9361SOL    HW228983   2.334   5.840   4.161
 9362SOL     OW28984   1.937   0.329   2.482
 9362SOL    HW128985   1.871   0.373   2.422
 9362SOL    HW228986   1.909   0.234   2.498
 9363SOL     OW28987   3.075   5.249   2.550
 9363SOL    HW128988   3.004   5.282   2.613
 9363SOL    HW228989   3.152   5.313   2.550
 9364SOL     OW28990   1.148   1.974   1.306
 9364SOL    HW128991   1.128   1.925   1.391
 9364SOL    HW228992   1.080   2.045   1.292
 9365SOL     OW28993   3.175   2.167   4.368
 9365SOL    HW128994   3.120   2.199   4.445
 9365SOL    HW228995   3.119   2.162   4.286
 9366SOL     OW28996   3.690   5.630   0.384
 9366SOL    HW128997   3.774   5.640   0.438
 9366SOL    HW228998   3.632   5.559   0.426
 9367SOL     OW28999   6.559   0.800   1.588
 9367SOL    HW129000   6.592   0.708   1.608
 9367SOL    HW229001   6.616   0.842   1.517
 9368SOL     OW29002   3.475   0.493   2.674
 9368SOL    HW129003   3.493   0.468   2.579
 9368SOL    HW229004   3.398   0.557   2.677
 9369SOL     OW29005   2.328   5.445   6.655
 9369SOL    HW129006   2.389   5.387   6.601
 9369SOL    HW229007   2.244   5.463   6.602
 9370SOL     OW29008   4.435   1.475   4.175
 9370SOL    HW129009   4.460   1.425   4.092
 9370SOL    HW229010   4.503   1.545   4.193
 9371SOL     OW29011   4.620   5.676   1.434
 9371SOL    HW129012   4.670   5.602   1.478
 9371SOL    HW229013   4.562   5.722   1.502
 9372SOL     OW29014   4.824   6.286   1.474
 9372SOL    HW129015   4.811   6.190   1.450
 9372SOL    HW229016   4.866   6.334   1.397
 9373SOL     OW29017   6.667   1.835   0.384
 9373SOL    HW129018   6.634   1.748   0.420
 9373SOL    HW229019   6.721   1.819   0.301
 9374SOL     OW29020   0.523   5.397   5.998
 9374SOL    HW129021   0.560   5.461   5.931
 9374SOL    HW229022   0.428   5.375   5.974
 9375SOL     OW29023   0.296   0.808   0.109
 9375SOL    HW129024   0.236   0.768   0.040
 9375SOL    HW229025   0.297   0.907   0.098
 9376SOL     OW29026   2.149   3.682   1.811
 9376SOL    HW129027   2.185   3.594   1.841
 9376SOL    HW229028   2.183   3.754   1.873
 9377SOL     OW29029   1.942   0.559   3.566
 9377SOL    HW129030   1.916   0.480   3.621
 9377SOL    HW229031   1.929   0.642   3.621
 9378SOL     OW29032   3.094   0.690   4.237
 9378SOL    HW129033   3.170   0.755   4.241
 9378SOL    HW229034   3.011   0.736   4.206
 9379SOL     OW29035   3.961   6.347   4.599
 9379SOL    HW129036   3.893   6.402   4.551
 9379SOL    HW229037   3.981   6.389   4.688
 9380SOL     OW29038   4.998   5.884   0.138
 9380SOL    HW129039   5.046   5.798   0.122
 9380SOL    HW229040   5.062   5.954   0.170
 9381SOL     OW29041   5.488   1.356   4.777
 9381SOL    HW129042   5.470   1.289   4.705
 9381SOL    HW229043   5.580   1.343   4.811
 9382SOL     OW29044   2.812   6.182   5.120
 9382SOL    HW129045   2.863   6.180   5.034
 9382SOL    HW229046   2.842   6.260   5.175
 9383SOL     OW29047   5.923   4.479   2.923
 9383SOL    HW129048   5.857   4.405   2.915
 9383SOL    HW229049   5.898   4.538   3.000
 9384SOL     OW29050   2.987   0.551   2.001
 9384SOL    HW129051   3.046   0.602   1.939
 9384SOL    HW229052   3.039   0.525   2.082
 9385SOL     OW29053   4.591   1.801   3.483
 9385SOL    HW129054   4.588   1.855   3.399
 9385SOL    HW229055   4.543   1.850   3.556
 9386SOL     OW29056   4.539   6.502   6.443
 9386SOL    HW129057   4.610   6.512   6.513
 9386SOL    HW229058   4.511   6.407   6.436
 9387SOL     OW29059   2.702   2.053   0.624
 9387SOL    HW129060   2.619   2.057   0.679
 9387SOL    HW229061   2.777   2.018   0.681
 9388SOL     OW29062   2.435   6.277   4.806
 9388SOL    HW129063   2.374   6.283   4.885
 9388SOL    HW229064   2.515   6.335   4.821
 9389SOL     OW29065   2.625   4.912   1.627
 9389SOL    HW129066   2.680   4.831   1.652
 9389SOL    HW229067   2.543   4.914   1.683
 9390SOL     OW29068   4.778   5.239   4.515
 9390SOL    HW129069   4.851   5.246   4.582
 9390SOL    HW229070   4.689   5.247   4.561
 9391SOL     OW29071   1.370   5.382   4.222
 9391SOL    HW129072   1.362   5.307   4.156
 9391SOL    HW229073   1.463   5.385   4.259
 9392SOL     OW29074   5.414   4.197   3.055
 9392SOL    HW129075   5.425   4.295   3.076
 9392SOL    HW229076   5.456   4.143   3.128
 9393SOL     OW29077   2.627   6.763   6.563
 9393SOL    HW129078   2.679   6.775   6.648
 9393SOL    HW229079   2.652   6.676   6.521
 9394SOL     OW29080   3.440   0.604   0.029
 9394SOL    HW129081   3.420   0.508   0.045
 9394SOL    HW229082   3.363   0.647   7.006
 9395SOL     OW29083   1.989   1.665   0.593
 9395SOL    HW129084   1.948   1.577   0.569
 9395SOL    HW229085   2.019   1.712   0.510
 9396SOL     OW29086   0.710   6.509   6.682
 9396SOL    HW129087   0.657   6.448   6.741
 9396SOL    HW229088   0.736   6.461   6.598
 9397SOL     OW29089   3.387   0.655   5.300
 9397SOL    HW129090   3.310   0.717   5.316
 9397SOL    HW229091   3.352   0.562   5.287
 9398SOL     OW29092   0.927   1.995   0.078
 9398SOL    HW129093   0.896   2.003   7.006
 9398SOL    HW229094   0.926   1.899   0.105
 9399SOL     OW29095   1.624   2.316   4.500
 9399SOL    HW129096   1.664   2.314   4.409
 9399SOL    HW229097   1.692   2.285   4.567
 9400SOL     OW29098   5.405   1.017   0.433
 9400SOL    HW129099   5.320   0.965   0.438
 9400SOL    HW229100   5.436   1.022   0.338
 9401SOL     OW29101   0.246   2.459   3.856
 9401SOL    HW129102   0.344   2.456   3.876
 9401SOL    HW229103   0.195   2.430   3.936
 9402SOL     OW29104   1.999   6.632   4.109
 9402SOL    HW129105   2.080   6.573   4.114
 9402SOL    HW229106   2.027   6.728   4.114
 9403SOL     OW29107   6.107   2.368   2.291
 9403SOL    HW129108   6.012   2.394   2.276
 9403SOL    HW229109   6.167   2.442   2.261
 9404SOL     OW29110   2.003   2.867   1.046
 9404SOL    HW129111   1.963   2.926   0.975
 9404SOL    HW229112   1.957   2.779   1.045
 9405SOL     OW29113   0.064   5.657   5.634
 9405SOL    HW129114   0.087   5.627   5.541
 9405SOL    HW229115   6.989   5.642   5.650
 9406SOL     OW29116   0.797   2.682   0.101
 9406SOL    HW129117   0.811   2.721   0.192
 9406SOL    HW229118   0.724   2.732   0.054
 9407SOL     OW29119   1.492   5.554   5.726
 9407SOL    HW129120   1.395   5.569   5.746
 9407SOL    HW229121   1.545   5.561   5.810
 9408SOL     OW29122   0.748   3.694   4.618
 9408SOL    HW129123   0.844   3.717   4.636
 9408SOL    HW229124   0.735   3.682   4.520
 9409SOL     OW29125   6.486   4.900   3.092
 9409SOL    HW129126   6.469   4.804   3.069
 9409SOL    HW229127   6.499   4.908   3.191
 9410SOL     OW29128   3.552   0.900   0.796
 9410SOL    HW129129   3.568   0.833   0.723
 9410SOL    HW229130   3.454   0.920   0.802
 9411SOL     OW29131   2.922   3.711   3.252
 9411SOL    HW129132   2.970   3.784   3.203
 9411SOL    HW229133   2.907   3.739   3.346
 9412SOL     OW29134   5.928   6.034   0.753
 9412SOL    HW129135   5.998   6.038   0.824
 9412SOL    HW229136   5.972   6.026   0.663
 9413SOL     OW29137   5.071   3.841   2.880
 9413SOL    HW129138   5.120   3.872   2.798
 9413SOL    HW229139   5.131   3.849   2.959
 9414SOL     OW29140   1.536   1.948   2.973
 9414SOL    HW129141   1.475   1.939   3.051
 9414SOL    HW229142   1.554   1.858   2.933
 9415SOL     OW29143   4.190   1.061   1.874
 9415SOL    HW129144   4.127   1.021   1.941
 9415SOL    HW229145   4.143   1.072   1.787
 9416SOL     OW29146   5.831   5.487   5.505
 9416SOL    HW129147   5.877   5.524   5.425
 9416SOL    HW229148   5.862   5.535   5.587
 9417SOL     OW29149   3.599   5.199   2.342
 9417SOL    HW129150   3.608   5.254   2.425
 9417SOL    HW229151   3.580   5.104   2.368
 9418SOL     OW29152   3.768   1.853   4.932
 9418SOL    HW129153   3.835   1.786   4.900
 9418SOL    HW229154   3.703   1.808   4.993
 9419SOL     OW29155   1.830   3.125   6.244
 9419SOL    HW129156   1.778   3.144   6.161
 9419SOL    HW229157   1.824   3.028   6.267
 9420SOL     OW29158   6.549   4.283   6.223
 9420SOL    HW129159   6.450   4.293   6.224
 9420SOL    HW229160   6.575   4.210   6.286
 9421SOL     OW29161   4.274   6.086   6.085
 9421SOL    HW129162   4.184   6.124   6.067
 9421SOL    HW229163   4.314   6.132   6.165
 9422SOL     OW29164   2.158   5.948   5.544
 9422SOL    HW129165   2.238   5.929   5.488
 9422SOL    HW229166   2.177   6.025   5.604
 9423SOL     OW29167   5.002   4.824   2.896
 9423SOL    HW129168   5.023   4.859   2.987
 9423SOL    HW229169   4.994   4.724   2.899
 9424SOL     OW29170   5.923   6.734   4.110
 9424SOL    HW129171   5.827   6.708   4.118
 9424SOL    HW229172   5.957   6.706   4.020
 9425SOL     OW29173   6.723   4.776   1.679
 9425SOL    HW129174   6.726   4.867   1.719
 9425SOL    HW229175   6.653   4.773   1.607
 9426SOL     OW29176   0.217   2.294   6.185
 9426SOL    HW129177   0.166   2.254   6.261
 9426SOL    HW229178   0.263   2.222   6.134
 9427SOL     OW29179   4.663   4.345   2.662
 9427SOL    HW129180   4.608   4.331   2.579
 9427SOL    HW229181   4.750   4.296   2.653
 9428SOL     OW29182   0.248   6.141   5.906
 9428SOL    HW129183   0.167   6.160   5.849
 9428SOL    HW229184   0.309   6.079   5.857
 9429SOL     OW29185   2.659   2.267   4.444
 9429SOL    HW129186   2.686   2.352   4.398
 9429SOL    HW229187   2.687   2.189   4.388
 9430SOL     OW29188   1.935   1.617   4.991
 9430SOL    HW129189   1.881   1.657   4.917
 9430SOL    HW229190   2.010   1.563   4.953
 9431SOL     OW29191   0.978   4.483   5.365
 9431SOL    HW129192   0.898   4.434   5.400
 9431SOL    HW229193   0.981   4.474   5.265
 9432SOL     OW29194   6.994   1.303   3.229
 9432SOL    HW129195   6.974   1.398   3.203
 9432SOL    HW229196   6.972   1.242   3.153
 9433SOL     OW29197   4.597   5.660   1.785
 9433SOL    HW129198   4.647   5.594   1.729
 9433SOL    HW229199   4.646   5.677   1.870
 9434SOL     OW29200   4.626   5.426   4.028
 9434SOL    HW129201   4.530   5.437   4.052
 9434SOL    HW229202   4.647   5.481   3.947
 9435SOL     OW29203   0.540   3.847   1.631
 9435SOL    HW129204   0.587   3.772   1.677
 9435SOL    HW229205   0.607   3.912   1.596
 9436SOL     OW29206   2.074   0.819   2.883
 9436SOL    HW129207   2.015   0.754   2.835
 9436SOL    HW229208   2.105   0.890   2.820
 9437SOL     OW29209   5.125   6.577   4.628
 9437SOL    HW129210   5.076   6.579   4.540
 9437SOL    HW229211   5.119   6.667   4.671
 9438SOL     OW29212   4.465   6.572   2.288
 9438SOL    HW129213   4.469   6.511   2.208
 9438SOL    HW229214   4.436   6.663   2.259
 9439SOL     OW29215   1.657   3.449   0.827
 9439SOL    HW129216   1.692   3.395   0.903
 9439SOL    HW229217   1.707   3.536   0.821
 9440SOL     OW29218   2.308   5.219   3.593
 9440SOL    HW129219   2.353   5.148   3.647
 9440SOL    HW229220   2.247   5.176   3.526
 9441SOL     OW29221   0.332   6.657   4.240
 9441SOL    HW129222   0.308   6.587   4.308
 9441SOL    HW229223   0.331   6.747   4.282
 9442SOL     OW29224   5.723   3.317   0.685
 9442SOL    HW129225   5.671   3.316   0.770
 9442SOL    HW229226   5.821   3.310   0.706
 9443SOL     OW29227   2.245   4.040   2.389
 9443SOL    HW129228   2.259   4.066   2.484
 9443SOL    HW229229   2.267   4.118   2.330
 9444SOL     OW29230   1.256   4.372   6.226
 9444SOL    HW129231   1.309   4.343   6.306
 9444SOL    HW229232   1.158   4.367   6.246
 9445SOL     OW29233   0.694   1.565   4.149
 9445SOL    HW129234   0.620   1.629   4.130
 9445SOL    HW229235   0.675   1.516   4.235
 9446SOL     OW29236   6.511   3.972   3.581
 9446SOL    HW129237   6.588   3.937   3.633
 9446SOL    HW229238   6.464   4.042   3.634
 9447SOL     OW29239   4.777   4.190   2.067
 9447SOL    HW129240   4.684   4.222   2.084
 9447SOL    HW229241   4.790   4.175   1.969
 9448SOL     OW29242   6.251   1.040   5.900
 9448SOL    HW129243   6.281   1.083   5.985
 9448SOL    HW229244   6.214   0.949   5.920
 9449SOL     OW29245   5.626   0.156   1.939
 9449SOL    HW129246   5.606   0.165   2.037
 9449SOL    HW229247   5.662   0.064   1.921
 9450SOL     OW29248   1.264   6.407   2.789
 9450SOL    HW129249   1.193   6.408   2.717
 9450SOL    HW229250   1.261   6.319   2.836
 9451SOL     OW29251   3.605   4.831   6.665
 9451SOL    HW129252   3.570   4.833   6.758
 9451SOL    HW229253   3.549   4.770   6.609
 9452SOL     OW29254   5.867   4.315   6.850
 9452SOL    HW129255   5.780   4.269   6.869
 9452SOL    HW229256   5.850   4.411   6.827
 9453SOL     OW29257   5.066   5.197   1.656
 9453SOL    HW129258   5.121   5.148   1.724
 9453SOL    HW229259   5.095   5.169   1.564
 9454SOL     OW29260   6.151   4.361   0.465
 9454SOL    HW129261   6.070   4.404   0.425
 9454SOL    HW229262   6.197   4.425   0.526
 9455SOL     OW29263   3.529   1.301   1.785
 9455SOL    HW129264   3.625   1.295   1.811
 9455SOL    HW229265   3.492   1.209   1.776
 9456SOL     OW29266   6.884   2.971   2.930
 9456SOL    HW129267   6.824   2.898   2.898
 9456SOL    HW229268   6.829   3.047   2.963
 9457SOL     OW29269   6.507   6.426   5.077
 9457SOL    HW129270   6.467   6.434   4.986
 9457SOL    HW229271   6.590   6.370   5.072
 9458SOL     OW29272   6.518   3.873   6.940
 9458SOL    HW129273   6.488   3.906   0.006
 9458SOL    HW229274   6.450   3.810   6.903
 9459SOL     OW29275   4.775   4.275   5.722
 9459SOL    HW129276   4.833   4.295   5.643
 9459SOL    HW229277   4.715   4.353   5.740
 9460SOL     OW29278   1.065   2.951   2.869
 9460SOL    HW129279   0.994   2.951   2.939
 9460SOL    HW229280   1.022   2.957   2.779
 9461SOL     OW29281   1.397   1.655   2.146
 9461SOL    HW129282   1.298   1.647   2.160
 9461SOL    HW229283   1.433   1.729   2.202
 9462SOL     OW29284   0.275   1.224   4.344
 9462SOL    HW129285   0.197   1.174   4.381
 9462SOL    HW229286   0.354   1.162   4.338
 9463SOL     OW29287   5.874   4.260   1.430
 9463SOL    HW129288   5.900   4.305   1.515
 9463SOL    HW229289   5.928   4.177   1.418
 9464SOL     OW29290   1.089   1.244   1.776
 9464SOL    HW129291   1.069   1.154   1.815
 9464SOL    HW229292   1.157   1.290   1.834
 9465SOL     OW29293   6.655   4.819   1.229
 9465SOL    HW129294   6.739   4.820   1.174
 9465SOL    HW229295   6.660   4.745   1.297
 9466SOL     OW29296   3.917   4.447   5.621
 9466SOL    HW129297   3.837   4.469   5.676
 9466SOL    HW229298   3.913   4.352   5.590
 9467SOL     OW29299   1.967   3.534   0.587
 9467SOL    HW129300   1.968   3.443   0.545
 9467SOL    HW229301   2.061   3.563   0.605
 9468SOL     OW29302   6.087   1.782   0.587
 9468SOL    HW129303   5.990   1.791   0.611
 9468SOL    HW229304   6.143   1.809   0.666
 9469SOL     OW29305   0.120   6.480   0.948
 9469SOL    HW129306   0.104   6.549   0.878
 9469SOL    HW229307   0.136   6.525   1.036
 9470SOL     OW29308   3.404   3.477   0.284
 9470SOL    HW129309   3.503   3.466   0.276
 9470SOL    HW229310   3.376   3.564   0.242
 9471SOL     OW29311   6.181   2.693   4.671
 9471SOL    HW129312   6.215   2.767   4.614
 9471SOL    HW229313   6.155   2.729   4.761
 9472SOL     OW29314   1.543   3.319   6.180
 9472SOL    HW129315   1.587   3.281   6.098
 9472SOL    HW229316   1.506   3.409   6.159
 9473SOL     OW29317   2.505   3.935   1.278
 9473SOL    HW129318   2.549   3.874   1.343
 9473SOL    HW229319   2.412   3.954   1.307
 9474SOL     OW29320   6.038   3.837   1.169
 9474SOL    HW129321   6.132   3.850   1.136
 9474SOL    HW229322   5.975   3.888   1.111
 9475SOL     OW29323   5.236   4.407   6.404
 9475SOL    HW129324   5.242   4.505   6.424
 9475SOL    HW229325   5.140   4.381   6.394
 9476SOL     OW29326   4.009   3.811   0.298
 9476SOL    HW129327   4.035   3.908   0.297
 9476SOL    HW229328   3.910   3.803   0.313
 9477SOL     OW29329   1.834   4.112   0.357
 9477SOL    HW129330   1.859   4.196   0.309
 9477SOL    HW229331   1.859   4.119   0.453
 9478SOL     OW29332   5.335   3.629   6.178
 9478SOL    HW129333   5.397   3.704   6.204
 9478SOL    HW229334   5.245   3.645   6.218
 9479SOL     OW29335   4.017   0.377   1.964
 9479SOL    HW129336   4.103   0.327   1.958
 9479SOL    HW229337   3.948   0.333   1.907
 9480SOL     OW29338   6.341   1.094   0.522
 9480SOL    HW129339   6.258   1.143   0.548
 9480SOL    HW229340   6.346   1.009   0.573
 9481SOL     OW29341   4.135   6.814   3.215
 9481SOL    HW129342   4.048   6.784   3.253
 9481SOL    HW229343   4.146   6.777   3.123
 9482SOL     OW29344   6.324   6.369   6.788
 9482SOL    HW129345   6.304   6.467   6.780
 9482SOL    HW229346   6.241   6.320   6.815
 9483SOL     OW29347   6.542   0.104   0.340
 9483SOL    HW129348   6.511   0.011   0.319
 9483SOL    HW229349   6.465   0.167   0.338
 9484SOL     OW29350   3.664   6.099   4.293
 9484SOL    HW129351   3.680   6.003   4.270
 9484SOL    HW229352   3.737   6.131   4.353
 9485SOL     OW29353   0.296   1.069   0.058
 9485SOL    HW129354   0.198   1.081   0.067
 9485SOL    HW229355   0.320   1.063   6.984
 9486SOL     OW29356   5.580   5.925   6.995
 9486SOL    HW129357   5.576   5.877   0.060
 9486SOL    HW229358   5.491   5.923   6.951
 9487SOL     OW29359   3.428   3.274   3.027
 9487SOL    HW129360   3.344   3.325   3.043
 9487SOL    HW229361   3.425   3.232   2.936
 9488SOL     OW29362   1.492   0.696   1.294
 9488SOL    HW129363   1.456   0.777   1.342
 9488SOL    HW229364   1.582   0.673   1.332
 9489SOL     OW29365   5.741   2.908   0.146
 9489SOL    HW129366   5.800   2.937   0.221
 9489SOL    HW229367   5.716   2.812   0.158
 9490SOL     OW29368   5.321   3.471   4.593
 9490SOL    HW129369   5.260   3.404   4.635
 9490SOL    HW229370   5.416   3.439   4.601
 9491SOL     OW29371   5.292   6.620   2.973
 9491SOL    HW129372   5.221   6.550   2.982
 9491SOL    HW229373   5.296   6.651   2.878
 9492SOL     OW29374   5.124   2.900   3.478
 9492SOL    HW129375   5.087   2.808   3.484
 9492SOL    HW229376   5.224   2.897   3.489
 9493SOL     OW29377   4.007   6.091   1.168
 9493SOL    HW129378   3.970   6.010   1.213
 9493SOL    HW229379   4.005   6.169   1.231
 9494SOL     OW29380   5.804   2.384   1.769
 9494SOL    HW129381   5.814   2.452   1.842
 9494SOL    HW229382   5.738   2.315   1.797
 9495SOL     OW29383   0.215   2.442   1.420
 9495SOL    HW129384   0.122   2.409   1.435
 9495SOL    HW229385   0.279   2.366   1.427
 9496SOL     OW29386   5.862   1.992   1.356
 9496SOL    HW129387   5.857   1.906   1.406
 9496SOL    HW229388   5.846   1.976   1.259
 9497SOL     OW29389   4.623   4.502   4.464
 9497SOL    HW129390   4.543   4.548   4.502
 9497SOL    HW229391   4.609   4.485   4.367
 9498SOL     OW29392   0.270   5.740   4.151
 9498SOL    HW129393   0.208   5.726   4.073
 9498SOL    HW229394   0.363   5.755   4.117
 9499SOL     OW29395   6.091   5.888   5.233
 9499SOL    HW129396   6.171   5.829   5.245
 9499SOL    HW229397   6.118   5.973   5.189
 9500SOL     OW29398   3.720   1.912   0.759
 9500SOL    HW129399   3.706   1.977   0.833
 9500SOL    HW229400   3.746   1.823   0.797
 9501SOL     OW29401   1.757   3.400   5.001
 9501SOL    HW129402   1.763   3.377   5.098
 9501SOL    HW229403   1.684   3.347   4.958
 9502SOL     OW29404   5.157   4.785   4.264
 9502SOL    HW129405   5.127   4.793   4.359
 9502SOL    HW229406   5.204   4.869   4.237
 9503SOL     OW29407   6.380   1.441   0.271
 9503SOL    HW129408   6.343   1.507   0.336
 9503SOL    HW229409   6.445   1.487   0.211
 9504SOL     OW29410   6.133   5.754   2.271
 9504SOL    HW129411   6.148   5.761   2.173
 9504SOL    HW229412   6.056   5.692   2.288
 9505SOL     OW29413   4.055   5.009   5.849
 9505SOL    HW129414   4.112   4.930   5.872
 9505SOL    HW229415   4.088   5.050   5.763
 9506SOL     OW29416   2.598   0.646   1.353
 9506SOL    HW129417   2.596   0.601   1.264
 9506SOL    HW229418   2.636   0.584   1.421
 9507SOL     OW29419   5.183   0.257   2.237
 9507SOL    HW129420   5.164   0.191   2.310
 9507SOL    HW229421   5.150   0.347   2.264
 9508SOL     OW29422   4.367   2.008   2.619
 9508SOL    HW129423   4.448   1.986   2.673
 9508SOL    HW229424   4.385   1.989   2.523
 9509SOL     OW29425   5.279   0.493   3.287
 9509SOL    HW129426   5.297   0.584   3.250
 9509SOL    HW229427   5.367   0.446   3.303
 9510SOL     OW29428   1.018   2.872   3.814
 9510SOL    HW129429   0.987   2.937   3.883
 9510SOL    HW229430   1.090   2.915   3.759
 9511SOL     OW29431   0.356   1.705   1.013
 9511SOL    HW129432   0.362   1.725   0.915
 9511SOL    HW229433   0.443   1.730   1.057
 9512SOL     OW29434   6.580   2.112   1.239
 9512SOL    HW129435   6.660   2.063   1.206
 9512SOL    HW229436   6.542   2.168   1.165
 9513SOL     OW29437   4.514   4.225   5.479
 9513SOL    HW129438   4.497   4.269   5.391
 9513SOL    HW229439   4.606   4.185   5.480
 9514SOL     OW29440   3.542   2.774   6.600
 9514SOL    HW129441   3.475   2.708   6.634
 9514SOL    HW229442   3.634   2.744   6.623
 9515SOL     OW29443   0.898   5.586   3.078
 9515SOL    HW129444   0.864   5.650   3.147
 9515SOL    HW229445   0.888   5.626   2.987
 9516SOL     OW29446   0.215   4.461   7.013
 9516SOL    HW129447   0.162   4.425   6.936
 9516SOL    HW229448   0.303   4.414   7.018
 9517SOL     OW29449   0.545   5.762   1.214
 9517SOL    HW129450   0.493   5.728   1.136
 9517SOL    HW229451   0.484   5.771   1.293
 9518SOL     OW29452   0.975   1.023   0.716
 9518SOL    HW129453   0.966   0.937   0.767
 9518SOL    HW229454   0.889   1.073   0.719
 9519SOL     OW29455   1.184   3.335   5.257
 9519SOL    HW129456   1.274   3.292   5.250
 9519SOL    HW229457   1.194   3.434   5.253
 9520SOL     OW29458   4.388   6.872   1.786
 9520SOL    HW129459   4.338   6.956   1.765
 9520SOL    HW229460   4.483   6.894   1.810
 9521SOL     OW29461   5.017   5.179   3.595
 9521SOL    HW129462   5.027   5.124   3.512
 9521SOL    HW229463   5.039   5.122   3.675
 9522SOL     OW29464   3.672   6.401   0.908
 9522SOL    HW129465   3.582   6.366   0.880
 9522SOL    HW229466   3.739   6.327   0.902
 9523SOL     OW29467   3.007   5.621   5.857
 9523SOL    HW129468   2.956   5.641   5.773
 9523SOL    HW229469   3.104   5.612   5.836
 9524SOL     OW29470   4.714   2.617   0.568
 9524SOL    HW129471   4.738   2.554   0.642
 9524SOL    HW229472   4.615   2.621   0.559
 9525SOL     OW29473   3.474   0.056   5.763
 9525SOL    HW129474   3.381   0.067   5.727
 9525SOL    HW229475   3.537   0.040   5.688
 9526SOL     OW29476   5.082   5.646   2.103
 9526SOL    HW129477   5.030   5.693   2.031
 9526SOL    HW229478   5.155   5.706   2.136
 9527SOL     OW29479   6.157   2.056   1.133
 9527SOL    HW129480   6.152   1.956   1.132
 9527SOL    HW229481   6.131   2.089   1.224
 9528SOL     OW29482   6.428   0.480   1.875
 9528SOL    HW129483   6.453   0.576   1.878
 9528SOL    HW229484   6.344   0.466   1.928
 9529SOL     OW29485   0.912   3.315   4.910
 9529SOL    HW129486   0.971   3.396   4.913
 9529SOL    HW229487   0.829   3.336   4.858
 9530SOL     OW29488   1.717   2.277   4.232
 9530SOL    HW129489   1.704   2.181   4.207
 9530SOL    HW229490   1.715   2.334   4.150
 9531SOL     OW29491   2.831   6.129   3.483
 9531SOL    HW129492   2.819   6.032   3.459
 9531SOL    HW229493   2.744   6.177   3.472
 9532SOL     OW29494   2.745   0.796   0.985
 9532SOL    HW129495   2.800   0.715   1.003
 9532SOL    HW229496   2.698   0.824   1.069
 9533SOL     OW29497   1.636   0.218   4.678
 9533SOL    HW129498   1.637   0.130   4.725
 9533SOL    HW229499   1.582   0.284   4.731
 9534SOL     OW29500   4.597   1.693   4.272
 9534SOL    HW129501   4.535   1.771   4.261
 9534SOL    HW229502   4.626   1.688   4.368
 9535SOL     OW29503   2.617   2.012   5.356
 9535SOL    HW129504   2.521   2.032   5.376
 9535SOL    HW229505   2.645   1.928   5.402
 9536SOL     OW29506   3.278   6.824   6.789
 9536SOL    HW129507   3.201   6.880   6.760
 9536SOL    HW229508   3.248   6.757   6.857
 9537SOL     OW29509   2.757   6.812   0.756
 9537SOL    HW129510   2.742   6.719   0.790
 9537SOL    HW229511   2.855   6.829   0.746
 9538SOL     OW29512   5.545   3.360   4.244
 9538SOL    HW129513   5.589   3.444   4.212
 9538SOL    HW229514   5.611   3.307   4.297
 9539SOL     OW29515   0.332   4.574   0.922
 9539SOL    HW129516   0.377   4.505   0.866
 9539SOL    HW229517   0.400   4.617   0.982
 9540SOL     OW29518   5.495   3.305   5.416
 9540SOL    HW129519   5.448   3.290   5.503
 9540SOL    HW229520   5.549   3.389   5.421
 9541SOL     OW29521   0.295   1.667   3.375
 9541SOL    HW129522   0.304   1.704   3.282
 9541SOL    HW229523   0.232   1.590   3.374
 9542SOL     OW29524   4.867   3.877   4.350
 9542SOL    HW129525   4.908   3.943   4.413
 9542SOL    HW229526   4.928   3.863   4.272
 9543SOL     OW29527   5.300   2.278   1.607
 9543SOL    HW129528   5.263   2.356   1.558
 9543SOL    HW229529   5.252   2.195   1.580
 9544SOL     OW29530   3.486   1.702   2.055
 9544SOL    HW129531   3.536   1.788   2.056
 9544SOL    HW229532   3.388   1.720   2.050
 9545SOL     OW29533   0.333   6.927   4.368
 9545SOL    HW129534   0.276   7.005   4.391
 9545SOL    HW229535   0.417   6.960   4.323
 9546SOL     OW29536   2.350   4.087   1.635
 9546SOL    HW129537   2.401   4.146   1.697
 9546SOL    HW229538   2.255   4.081   1.666
 9547SOL     OW29539   6.315   5.464   3.144
 9547SOL    HW129540   6.319   5.553   3.189
 9547SOL    HW229541   6.227   5.420   3.164
 9548SOL     OW29542   4.588   6.320   2.801
 9548SOL    HW129543   4.604   6.417   2.786
 9548SOL    HW229544   4.500   6.293   2.760
 9549SOL     OW29545   2.672   5.468   0.195
 9549SOL    HW129546   2.594   5.463   0.257
 9549SOL    HW229547   2.676   5.384   0.140
 9550SOL     OW29548   1.648   1.671   0.086
 9550SOL    HW129549   1.669   1.767   0.073
 9550SOL    HW229550   1.630   1.654   0.183
 9551SOL     OW29551   1.809   6.166   5.860
 9551SOL    HW129552   1.876   6.224   5.908
 9551SOL    HW229553   1.756   6.222   5.797
 9552SOL     OW29554   0.318   5.535   3.527
 9552SOL    HW129555   0.344   5.444   3.560
 9552SOL    HW229556   0.385   5.602   3.559
 9553SOL     OW29557   5.085   4.552   5.370
 9553SOL    HW129558   5.025   4.603   5.309
 9553SOL    HW229559   5.169   4.604   5.385
 9554SOL     OW29560   2.047   1.382   1.477
 9554SOL    HW129561   2.060   1.479   1.494
 9554SOL    HW229562   2.127   1.345   1.429
 9555SOL     OW29563   6.831   2.430   6.297
 9555SOL    HW129564   6.814   2.487   6.377
 9555SOL    HW229565   6.826   2.486   6.214
 9556SOL     OW29566   6.920   1.827   1.080
 9556SOL    HW129567   6.896   1.802   1.173
 9556SOL    HW229568   6.886   1.919   1.060
 9557SOL     OW29569   5.602   2.538   1.446
 9557SOL    HW129570   5.675   2.591   1.491
 9557SOL    HW229571   5.554   2.483   1.514
 9558SOL     OW29572   5.754   4.581   1.707
 9558SOL    HW129573   5.672   4.560   1.761
 9558SOL    HW229574   5.810   4.498   1.699
 9559SOL     OW29575   6.224   2.659   2.689
 9559SOL    HW129576   6.305   2.601   2.682
 9559SOL    HW229577   6.241   2.745   2.641
 9560SOL     OW29578   3.975   1.629   4.734
 9560SOL    HW129579   4.074   1.643   4.738
 9560SOL    HW229580   3.946   1.577   4.814
 9561SOL     OW29581   3.491   6.871   0.002
 9561SOL    HW129582   3.475   6.773   7.013
 9561SOL    HW229583   3.539   6.907   6.944
 9562SOL     OW29584   6.000   5.250   3.574
 9562SOL    HW129585   5.945   5.242   3.490
 9562SOL    HW229586   5.991   5.343   3.610
 9563SOL     OW29587   0.300   6.086   6.982
 9563SOL    HW129588   0.350   6.145   0.022
 9563SOL    HW229589   0.203   6.109   6.984
 9564SOL     OW29590   1.807   0.290   6.469
 9564SOL    HW129591   1.880   0.222   6.466
 9564SOL    HW229592   1.762   0.295   6.380
 9565SOL     OW29593   3.888   5.795   4.057
 9565SOL    HW129594   3.952   5.842   3.995
 9565SOL    HW229595   3.937   5.725   4.109
 9566SOL     OW29596   3.103   4.752   5.811
 9566SOL    HW129597   3.005   4.763   5.796
 9566SOL    HW229598   3.142   4.696   5.738
 9567SOL     OW29599   6.309   5.703   5.290
 9567SOL    HW129600   6.361   5.730   5.209
 9567SOL    HW229601   6.251   5.625   5.267
 9568SOL     OW29602   5.333   4.148   6.279
 9568SOL    HW129603   5.350   4.202   6.361
 9568SOL    HW229604   5.394   4.069   6.278
 9569SOL     OW29605   5.190   6.467   1.983
 9569SOL    HW129606   5.281   6.506   1.998
 9569SOL    HW229607   5.179   6.443   1.887
 9570SOL     OW29608   0.826   0.510   6.910
 9570SOL    HW129609   0.844   0.530   6.814
 9570SOL    HW229610   0.728   0.516   6.928
 9571SOL     OW29611   2.665   2.747   0.036
 9571SOL    HW129612   2.679   2.784   6.967
 9571SOL    HW229613   2.614   2.812   0.091
 9572SOL     OW29614   0.459   4.142   0.649
 9572SOL    HW129615   0.510   4.104   0.571
 9572SOL    HW229616   0.393   4.074   0.681
 9573SOL     OW29617   5.984   1.846   2.165
 9573SOL    HW129618   5.919   1.798   2.107
 9573SOL    HW229619   6.070   1.859   2.117
 9574SOL     OW29620   2.293   2.204   3.760
 9574SOL    HW129621   2.340   2.159   3.836
 9574SOL    HW229622   2.348   2.282   3.730
 9575SOL     OW29623   4.531   0.978   2.328
 9575SOL    HW129624   4.613   0.954   2.380
 9575SOL    HW229625   4.504   0.902   2.270
 9576SOL     OW29626   4.117   2.272   5.477
 9576SOL    HW129627   4.181   2.217   5.531
 9576SOL    HW229628   4.024   2.241   5.495
 9577SOL     OW29629   0.584   6.175   3.122
 9577SOL    HW129630   0.528   6.149   3.043
 9577SOL    HW229631   0.609   6.272   3.115
 9578SOL     OW29632   6.290   3.859   2.016
 9578SOL    HW129633   6.269   3.933   2.079
 9578SOL    HW229634   6.326   3.896   1.930
 9579SOL     OW29635   1.771   6.364   2.917
 9579SOL    HW129636   1.772   6.462   2.895
 9579SOL    HW229637   1.804   6.351   3.011
 9580SOL     OW29638   4.473   3.520   5.532
 9580SOL    HW129639   4.557   3.561   5.567
 9580SOL    HW229640   4.473   3.523   5.432
 9581SOL     OW29641   1.611   5.559   5.979
 9581SOL    HW129642   1.522   5.576   6.020
 9581SOL    HW229643   1.681   5.557   6.050
 9582SOL     OW29644   4.346   4.656   3.711
 9582SOL    HW129645   4.390   4.583   3.659
 9582SOL    HW229646   4.371   4.745   3.671
 9583SOL     OW29647   2.166   4.809   1.833
 9583SOL    HW129648   2.145   4.730   1.890
 9583SOL    HW229649   2.245   4.789   1.775
 9584SOL     OW29650   6.087   5.122   6.858
 9584SOL    HW129651   6.023   5.195   6.835
 9584SOL    HW229652   6.144   5.102   6.778
 9585SOL     OW29653   0.385   0.091   3.014
 9585SOL    HW129654   0.324   0.045   2.949
 9585SOL    HW229655   0.339   0.100   3.102
 9586SOL     OW29656   5.289   2.904   2.443
 9586SOL    HW129657   5.262   2.971   2.512
 9586SOL    HW229658   5.246   2.926   2.356
 9587SOL     OW29659   5.061   6.481   2.738
 9587SOL    HW129660   5.031   6.390   2.708
 9587SOL    HW229661   5.139   6.510   2.683
 9588SOL     OW29662   0.015   0.094   3.564
 9588SOL    HW129663   0.020   0.182   3.517
 9588SOL    HW229664   6.946   0.080   3.601
 9589SOL     OW29665   2.731   1.450   5.171
 9589SOL    HW129666   2.802   1.514   5.199
 9589SOL    HW229667   2.662   1.498   5.116
 9590SOL     OW29668   0.384   4.694   4.114
 9590SOL    HW129669   0.359   4.605   4.076
 9590SOL    HW229670   0.458   4.734   4.059
 9591SOL     OW29671   1.614   4.750   2.966
 9591SOL    HW129672   1.580   4.835   3.006
 9591SOL    HW229673   1.586   4.745   2.870
 9592SOL     OW29674   4.646   5.971   1.617
 9592SOL    HW129675   4.666   5.940   1.524
 9592SOL    HW229676   4.604   6.061   1.614
 9593SOL     OW29677   1.894   2.864   3.669
 9593SOL    HW129678   1.826   2.928   3.706
 9593SOL    HW229679   1.966   2.850   3.736
 9594SOL     OW29680   6.010   0.033   1.530
 9594SOL    HW129681   5.948   6.978   1.532
 9594SOL    HW229682   6.032   0.057   1.435
 9595SOL     OW29683   1.017   4.567   4.712
 9595SOL    HW129684   0.918   4.551   4.703
 9595SOL    HW229685   1.051   4.610   4.629
 9596SOL     OW29686   5.016   5.220   2.635
 9596SOL    HW129687   4.957   5.152   2.679
 9596SOL    HW229688   5.110   5.208   2.667
 9597SOL     OW29689   1.681   4.473   0.858
 9597SOL    HW129690   1.692   4.546   0.926
 9597SOL    HW229691   1.752   4.483   0.788
 9598SOL     OW29692   1.494   6.030   5.766
 9598SOL    HW129693   1.534   6.080   5.689
 9598SOL    HW229694   1.564   5.971   5.807
 9599SOL     OW29695   4.427   1.348   4.450
 9599SOL    HW129696   4.382   1.355   4.361
 9599SOL    HW229697   4.401   1.262   4.494
 9600SOL     OW29698   1.762   5.520   0.308
 9600SOL    HW129699   1.814   5.489   0.228
 9600SOL    HW229700   1.824   5.566   0.372
 9601SOL     OW29701   0.644   6.896   6.500
 9601SOL    HW129702   0.690   6.831   6.439
 9601SOL    HW229703   0.609   6.847   6.580
 9602SOL     OW29704   0.693   5.338   0.107
 9602SOL    HW129705   0.706   5.394   0.189
 9602SOL    HW229706   0.652   5.394   0.034
 9603SOL     OW29707   1.113   4.897   3.303
 9603SOL    HW129708   1.105   4.996   3.315
 9603SOL    HW229709   1.037   4.864   3.248
 9604SOL     OW29710   6.719   0.223   0.512
 9604SOL    HW129711   6.680   0.155   0.450
 9604SOL    HW229712   6.750   0.178   0.596
 9605SOL     OW29713   2.431   5.355   7.019
 9605SOL    HW129714   2.517   5.315   6.986
 9605SOL    HW229715   2.413   5.441   6.971
 9606SOL     OW29716   6.348   0.786   5.659
 9606SOL    HW129717   6.341   0.687   5.650
 9606SOL    HW229718   6.419   0.809   5.725
 9607SOL     OW29719   6.891   1.980   2.646
 9607SOL    HW129720   6.831   2.041   2.593
 9607SOL    HW229721   6.835   1.911   2.692
 9608SOL     OW29722   6.394   0.097   2.399
 9608SOL    HW129723   6.451   0.024   2.435
 9608SOL    HW229724   6.308   0.059   2.365
 9609SOL     OW29725   1.778   2.123   3.890
 9609SOL    HW129726   1.862   2.159   3.930
 9609SOL    HW229727   1.774   2.147   3.793
 9610SOL     OW29728   3.820   1.372   5.904
 9610SOL    HW129729   3.771   1.285   5.910
 9610SOL    HW229730   3.914   1.355   5.875
 9611SOL     OW29731   6.133   5.309   0.839
 9611SOL    HW129732   6.080   5.393   0.831
 9611SOL    HW229733   6.098   5.241   0.775
 9612SOL     OW29734   5.083   3.360   2.712
 9612SOL    HW129735   5.057   3.408   2.628
 9612SOL    HW229736   5.014   3.377   2.782
 9613SOL     OW29737   6.089   6.736   5.250
 9613SOL    HW129738   6.174   6.719   5.200
 9613SOL    HW229739   6.028   6.791   5.194
 9614SOL     OW29740   3.219   2.747   1.881
 9614SOL    HW129741   3.291   2.808   1.846
 9614SOL    HW229742   3.235   2.731   1.978
 9615SOL     OW29743   0.473   6.035   4.039
 9615SOL    HW129744   0.537   6.045   4.115
 9615SOL    HW229745   0.520   5.991   3.962
 9616SOL     OW29746   1.904   3.171   1.547
 9616SOL    HW129747   1.873   3.078   1.565
 9616SOL    HW229748   1.974   3.197   1.613
 9617SOL     OW29749   0.100   2.981   2.426
 9617SOL    HW129750   0.109   3.080   2.416
 9617SOL    HW229751   0.108   2.937   2.337
 9618SOL     OW29752   4.631   4.183   0.514
 9618SOL    HW129753   4.554   4.225   0.467
 9618SOL    HW229754   4.601   4.145   0.601
 9619SOL     OW29755   1.262   6.724   1.221
 9619SOL    HW129756   1.273   6.795   1.290
 9619SOL    HW229757   1.198   6.654   1.254
 9620SOL     OW29758   3.722   2.135   7.000
 9620SOL    HW129759   3.683   2.120   0.067
 9620SOL    HW229760   3.680   2.073   6.934
 9621SOL     OW29761   0.465   1.257   1.810
 9621SOL    HW129762   0.496   1.185   1.872
 9621SOL    HW229763   0.516   1.341   1.829
 9622SOL     OW29764   0.355   5.891   6.220
 9622SOL    HW129765   0.324   5.912   6.312
 9622SOL    HW229766   0.419   5.962   6.188
 9623SOL     OW29767   3.737   6.289   5.620
 9623SOL    HW129768   3.688   6.343   5.689
 9623SOL    HW229769   3.800   6.349   5.570
 9624SOL     OW29770   4.469   5.412   4.811
 9624SOL    HW129771   4.559   5.385   4.847
 9624SOL    HW229772   4.448   5.356   4.730
 9625SOL     OW29773   5.148   4.022   6.513
 9625SOL    HW129774   5.196   3.976   6.588
 9625SOL    HW229775   5.214   4.052   6.445
 9626SOL     OW29776   2.515   2.318   0.036
 9626SOL    HW129777   2.553   2.331   6.967
 9626SOL    HW229778   2.532   2.401   0.090
 9627SOL     OW29779   0.457   5.223   0.212
 9627SOL    HW129780   0.543   5.254   0.172
 9627SOL    HW229781   0.467   5.219   0.312
 9628SOL     OW29782   6.639   1.954   6.377
 9628SOL    HW129783   6.700   1.877   6.397
 9628SOL    HW229784   6.587   1.977   6.459
 9629SOL     OW29785   0.207   6.017   3.972
 9629SOL    HW129786   0.153   6.022   4.055
 9629SOL    HW229787   0.305   6.016   3.995
 9630SOL     OW29788   5.936   1.221   5.786
 9630SOL    HW129789   5.939   1.128   5.749
 9630SOL    HW229790   5.866   1.274   5.739
 9631SOL     OW29791   4.007   6.163   0.502
 9631SOL    HW129792   3.969   6.071   0.514
 9631SOL    HW229793   3.980   6.199   0.413
 9632SOL     OW29794   2.617   4.883   2.575
 9632SOL    HW129795   2.698   4.825   2.581
 9632SOL    HW229796   2.594   4.919   2.665
 9633SOL     OW29797   3.281   3.269   3.492
 9633SOL    HW129798   3.367   3.246   3.446
 9633SOL    HW229799   3.246   3.356   3.457
 9634SOL     OW29800   5.228   4.731   3.453
 9634SOL    HW129801   5.317   4.763   3.485
 9634SOL    HW229802   5.225   4.631   3.455
 9635SOL     OW29803   0.781   5.420   3.706
 9635SOL    HW129804   0.800   5.506   3.659
 9635SOL    HW229805   0.856   5.399   3.769
 9636SOL     OW29806   5.437   4.188   3.969
 9636SOL    HW129807   5.358   4.248   3.958
 9636SOL    HW229808   5.509   4.215   3.904
 9637SOL     OW29809   1.425   3.567   0.113
 9637SOL    HW129810   1.479   3.621   0.177
 9637SOL    HW229811   1.372   3.628   0.054
 9638SOL     OW29812   6.256   5.629   6.041
 9638SOL    HW129813   6.306   5.579   5.970
 9638SOL    HW229814   6.222   5.564   6.109
 9639SOL     OW29815   4.587   1.904   1.330
 9639SOL    HW129816   4.523   1.845   1.280
 9639SOL    HW229817   4.596   1.871   1.424
 9640SOL     OW29818   4.173   0.328   3.785
 9640SOL    HW129819   4.136   0.256   3.843
 9640SOL    HW229820   4.099   0.368   3.730
 9641SOL     OW29821   6.705   3.004   3.570
 9641SOL    HW129822   6.669   2.920   3.530
 9641SOL    HW229823   6.655   3.024   3.655
 9642SOL     OW29824   0.793   1.049   4.717
 9642SOL    HW129825   0.823   1.041   4.623
 9642SOL    HW229826   0.766   0.959   4.752
 9643SOL     OW29827   4.931   5.117   4.053
 9643SOL    HW129828   5.001   5.186   4.069
 9643SOL    HW229829   4.870   5.111   4.132
 9644SOL     OW29830   0.775   5.463   4.049
 9644SOL    HW129831   0.709   5.440   3.978
 9644SOL    HW229832   0.847   5.393   4.051
 9645SOL     OW29833   1.131   5.053   6.260
 9645SOL    HW129834   1.102   5.148   6.261
 9645SOL    HW229835   1.148   5.022   6.353
 9646SOL     OW29836   4.295   5.346   6.684
 9646SOL    HW129837   4.278   5.390   6.772
 9646SOL    HW229838   4.375   5.286   6.691
 9647SOL     OW29839   6.009   6.518   2.782
 9647SOL    HW129840   5.924   6.475   2.752
 9647SOL    HW229841   6.087   6.464   2.751
 9648SOL     OW29842   3.892   1.985   1.151
 9648SOL    HW129843   3.962   1.992   1.080
 9648SOL    HW229844   3.913   2.048   1.225
 9649SOL     OW29845   0.513   5.411   0.745
 9649SOL    HW129846   0.552   5.501   0.726
 9649SOL    HW229847   0.518   5.392   0.843
 9650SOL     OW29848   0.392   5.079   3.841
 9650SOL    HW129849   0.332   5.008   3.804
 9650SOL    HW229850   0.478   5.079   3.791
 9651SOL     OW29851   4.158   1.768   7.016
 9651SOL    HW129852   4.090   1.825   0.040
 9651SOL    HW229853   4.199   1.820   6.941
 9652SOL     OW29854   0.668   4.042   0.155
 9652SOL    HW129855   0.748   3.984   0.141
 9652SOL    HW229856   0.691   4.137   0.132
 9653SOL     OW29857   4.928   4.192   5.943
 9653SOL    HW129858   5.007   4.141   5.908
 9653SOL    HW229859   4.865   4.213   5.868
 9654SOL     OW29860   3.403   3.592   3.100
 9654SOL    HW129861   3.384   3.679   3.145
 9654SOL    HW229862   3.335   3.524   3.128
 9655SOL     OW29863   4.313   1.703   0.895
 9655SOL    HW129864   4.359   1.787   0.923
 9655SOL    HW229865   4.215   1.710   0.915
 9656SOL     OW29866   5.790   4.346   6.444
 9656SOL    HW129867   5.822   4.271   6.502
 9656SOL    HW229868   5.705   4.318   6.398
 9657SOL     OW29869   5.689   4.147   4.311
 9657SOL    HW129870   5.591   4.155   4.293
 9657SOL    HW229871   5.707   4.062   4.361
 9658SOL     OW29872   4.597   1.618   1.774
 9658SOL    HW129873   4.616   1.673   1.855
 9658SOL    HW229874   4.516   1.652   1.727
 9659SOL     OW29875   2.627   2.887   6.814
 9659SOL    HW129876   2.665   2.974   6.846
 9659SOL    HW229877   2.563   2.904   6.739
 9660SOL     OW29878   1.661   6.191   1.513
 9660SOL    HW129879   1.717   6.167   1.592
 9660SOL    HW229880   1.692   6.139   1.433
 9661SOL     OW29881   3.999   4.080   1.450
 9661SOL    HW129882   4.022   4.174   1.428
 9661SOL    HW229883   4.036   4.057   1.540
 9662SOL     OW29884   5.875   6.425   6.273
 9662SOL    HW129885   5.858   6.375   6.359
 9662SOL    HW229886   5.971   6.452   6.269
 9663SOL     OW29887   1.029   5.379   2.159
 9663SOL    HW129888   0.995   5.384   2.065
 9663SOL    HW229889   0.959   5.340   2.218
 9664SOL     OW29890   3.819   4.922   1.900
 9664SOL    HW129891   3.743   4.859   1.888
 9664SOL    HW229892   3.787   5.003   1.951
 9665SOL     OW29893   6.976   5.314   5.999
 9665SOL    HW129894   6.968   5.412   5.981
 9665SOL    HW229895   0.007   5.299   6.082
 9666SOL     OW29896   5.582   4.185   0.063
 9666SOL    HW129897   5.591   4.272   0.014
 9666SOL    HW229898   5.511   4.130   0.019
 9667SOL     OW29899   5.730   6.380   6.835
 9667SOL    HW129900   5.743   6.296   6.887
 9667SOL    HW229901   5.633   6.406   6.836
 9668SOL     OW29902   1.228   1.011   5.747
 9668SOL    HW129903   1.232   1.003   5.847
 9668SOL    HW229904   1.165   1.084   5.721
 9669SOL     OW29905   3.009   0.348   0.516
 9669SOL    HW129906   2.913   0.353   0.487
 9669SOL    HW229907   3.068   0.346   0.436
 9670SOL     OW29908   0.402   0.430   0.295
 9670SOL    HW129909   0.469   0.404   0.225
 9670SOL    HW229910   0.380   0.351   0.352
 9671SOL     OW29911   0.862   5.131   6.428
 9671SOL    HW129912   0.948   5.164   6.467
 9671SOL    HW229913   0.862   5.031   6.427
 9672SOL     OW29914   1.148   3.812   4.367
 9672SOL    HW129915   1.226   3.871   4.345
 9672SOL    HW229916   1.063   3.857   4.338
 9673SOL     OW29917   1.782   3.381   7.015
 9673SOL    HW129918   1.688   3.378   6.982
 9673SOL    HW229919   1.824   3.291   7.006
 9674SOL     OW29920   1.962   6.273   3.986
 9674SOL    HW129921   1.912   6.353   3.954
 9674SOL    HW229922   1.905   6.222   4.050
 9675SOL     OW29923   6.362   3.573   5.664
 9675SOL    HW129924   6.456   3.569   5.698
 9675SOL    HW229925   6.310   3.639   5.718
 9676SOL     OW29926   0.780   3.003   6.575
 9676SOL    HW129927   0.836   2.930   6.615
 9676SOL    HW229928   0.768   3.076   6.641
 9677SOL     OW29929   6.804   5.443   2.240
 9677SOL    HW129930   6.856   5.430   2.325
 9677SOL    HW229931   6.742   5.520   2.251
 9678SOL     OW29932   3.260   3.712   5.180
 9678SOL    HW129933   3.202   3.771   5.124
 9678SOL    HW229934   3.238   3.726   5.277
 9679SOL     OW29935   1.633   1.064   4.521
 9679SOL    HW129936   1.604   1.140   4.462
 9679SOL    HW229937   1.724   1.035   4.495
 9680SOL     OW29938   4.738   6.586   1.841
 9680SOL    HW129939   4.681   6.628   1.912
 9680SOL    HW229940   4.830   6.625   1.845
 9681SOL     OW29941   0.960   2.077   2.066
 9681SOL    HW129942   0.914   2.088   2.154
 9681SOL    HW229943   1.031   2.146   2.057
 9682SOL     OW29944   5.432   6.407   6.147
 9682SOL    HW129945   5.390   6.337   6.204
 9682SOL    HW229946   5.409   6.391   6.051
 9683SOL     OW29947   3.245   6.302   2.927
 9683SOL    HW129948   3.184   6.376   2.896
 9683SOL    HW229949   3.317   6.288   2.859
 9684SOL     OW29950   6.931   3.678   5.344
 9684SOL    HW129951   6.921   3.608   5.273
 9684SOL    HW229952   6.853   3.739   5.341
 9685SOL     OW29953   3.266   4.368   1.431
 9685SOL    HW129954   3.281   4.359   1.529
 9685SOL    HW229955   3.319   4.299   1.382
 9686SOL     OW29956   6.215   1.125   5.495
 9686SOL    HW129957   6.144   1.185   5.459
 9686SOL    HW229958   6.182   1.031   5.497
 9687SOL     OW29959   5.137   1.078   3.116
 9687SOL    HW129960   5.140   1.170   3.077
 9687SOL    HW229961   5.154   1.084   3.215
 9688SOL     OW29962   0.952   5.425   1.563
 9688SOL    HW129963   0.932   5.406   1.659
 9688SOL    HW229964   1.031   5.370   1.534
 9689SOL     OW29965   2.294   6.173   1.106
 9689SOL    HW129966   2.306   6.096   1.170
 9689SOL    HW229967   2.344   6.154   1.022
 9690SOL     OW29968   6.789   4.456   4.810
 9690SOL    HW129969   6.827   4.373   4.769
 9690SOL    HW229970   6.806   4.455   4.908
 9691SOL     OW29971   2.900   3.790   1.811
 9691SOL    HW129972   2.906   3.752   1.903
 9691SOL    HW229973   2.967   3.745   1.752
 9692SOL     OW29974   5.128   4.437   0.865
 9692SOL    HW129975   5.202   4.479   0.811
 9692SOL    HW229976   5.114   4.343   0.833
 9693SOL     OW29977   4.425   2.865   5.296
 9693SOL    HW129978   4.384   2.892   5.209
 9693SOL    HW229979   4.414   2.766   5.309
 9694SOL     OW29980   2.886   0.149   1.855
 9694SOL    HW129981   2.947   0.082   1.813
 9694SOL    HW229982   2.908   0.157   1.952
 9695SOL     OW29983   0.921   2.611   3.827
 9695SOL    HW129984   0.919   2.706   3.856
 9695SOL    HW229985   1.015   2.580   3.816
 9696SOL     OW29986   5.295   2.564   4.029
 9696SOL    HW129987   5.263   2.542   3.937
 9696SOL    HW229988   5.247   2.645   4.062
 9697SOL     OW29989   0.211   6.707   0.438
 9697SOL    HW129990   0.235   6.761   0.356
 9697SOL    HW229991   0.290   6.701   0.498
 9698SOL     OW29992   6.754   3.283   2.048
 9698SOL    HW129993   6.843   3.317   2.078
 9698SOL    HW229994   6.709   3.237   2.124
 9699SOL     OW29995   2.126   5.902   1.587
 9699SOL    HW129996   2.126   5.994   1.548
 9699SOL    HW229997   2.175   5.840   1.526
 9700SOL     OW29998   5.559   6.933   5.742
 9700SOL    HW129999   5.557   0.007   5.717
 9700SOL    HW230000   5.612   6.883   5.674
 9701SOL     OW30001   4.523   4.320   6.879
 9701SOL    HW130002   4.427   4.325   6.908
 9701SOL    HW230003   4.559   4.412   6.867
 9702SOL     OW30004   3.821   3.988   2.392
 9702SOL    HW130005   3.850   3.900   2.430
 9702SOL    HW230006   3.853   4.062   2.452
 9703SOL     OW30007   5.710   4.319   4.054
 9703SOL    HW130008   5.779   4.247   4.062
 9703SOL    HW230009   5.634   4.299   4.115
 9704SOL     OW30010   1.424   4.619   3.117
 9704SOL    HW130011   1.341   4.622   3.061
 9704SOL    HW230012   1.503   4.646   3.061
 9705SOL     OW30013   0.416   2.938   5.400
 9705SOL    HW130014   0.510   2.907   5.389
 9705SOL    HW230015   0.394   3.006   5.330
 9706SOL     OW30016   0.659   1.431   2.896
 9706SOL    HW130017   0.605   1.354   2.930
 9706SOL    HW230018   0.756   1.406   2.895
 9707SOL     OW30019   0.624   4.837   2.277
 9707SOL    HW130020   0.689   4.906   2.245
 9707SOL    HW230021   0.593   4.782   2.199
 9708SOL     OW30022   2.810   0.318   2.142
 9708SOL    HW130023   2.854   0.397   2.099
 9708SOL    HW230024   2.787   0.340   2.236
 9709SOL     OW30025   5.761   2.350   1.269
 9709SOL    HW130026   5.698   2.298   1.327
 9709SOL    HW230027   5.711   2.424   1.224
 9710SOL     OW30028   6.271   5.365   4.380
 9710SOL    HW130029   6.195   5.300   4.389
 9710SOL    HW230030   6.270   5.428   4.457
 9711SOL     OW30031   3.467   0.953   0.138
 9711SOL    HW130032   3.484   0.930   0.234
 9711SOL    HW230033   3.409   1.034   0.133
 9712SOL     OW30034   5.659   1.165   6.590
 9712SOL    HW130035   5.622   1.186   6.681
 9712SOL    HW230036   5.724   1.236   6.563
 9713SOL     OW30037   2.320   6.923   2.466
 9713SOL    HW130038   2.322   6.919   2.566
 9713SOL    HW230039   2.235   6.881   2.433
 9714SOL     OW30040   2.355   4.363   4.619
 9714SOL    HW130041   2.389   4.279   4.661
 9714SOL    HW230042   2.300   4.341   4.539
 9715SOL     OW30043   6.274   3.787   6.549
 9715SOL    HW130044   6.348   3.744   6.497
 9715SOL    HW230045   6.243   3.869   6.501
 9716SOL     OW30046   2.206   5.246   0.411
 9716SOL    HW130047   2.292   5.217   0.454
 9716SOL    HW230048   2.186   5.340   0.437
 9717SOL     OW30049   3.664   1.893   5.265
 9717SOL    HW130050   3.613   1.974   5.236
 9717SOL    HW230051   3.612   1.811   5.243
 9718SOL     OW30052   4.605   2.229   5.728
 9718SOL    HW130053   4.704   2.239   5.744
 9718SOL    HW230054   4.590   2.157   5.661
 9719SOL     OW30055   5.168   6.657   6.146
 9719SOL    HW130056   5.221   6.581   6.182
 9719SOL    HW230057   5.093   6.678   6.208
 9720SOL     OW30058   1.920   3.223   3.000
 9720SOL    HW130059   1.942   3.250   2.906
 9720SOL    HW230060   1.922   3.124   3.008
 9721SOL     OW30061   1.128   1.619   0.926
 9721SOL    HW130062   1.224   1.615   0.953
 9721SOL    HW230063   1.091   1.709   0.950
 9722SOL     OW30064   3.904   2.190   5.226
 9722SOL    HW130065   3.849   2.122   5.275
 9722SOL    HW230066   3.881   2.188   5.129
 9723SOL     OW30067   6.398   0.381   5.292
 9723SOL    HW130068   6.401   0.481   5.295
 9723SOL    HW230069   6.426   0.344   5.381
 9724SOL     OW30070   1.598   4.858   0.332
 9724SOL    HW130071   1.680   4.801   0.335
 9724SOL    HW230072   1.585   4.903   0.421
 9725SOL     OW30073   4.226   4.863   4.636
 9725SOL    HW130074   4.149   4.825   4.686
 9725SOL    HW230075   4.198   4.885   4.543
 9726SOL     OW30076   0.162   0.571   3.451
 9726SOL    HW130077   0.261   0.572   3.441
 9726SOL    HW230078   0.120   0.623   3.376
 9727SOL     OW30079   6.531   2.042   1.788
 9727SOL    HW130080   6.509   2.099   1.709
 9727SOL    HW230081   6.517   2.094   1.872
 9728SOL     OW30082   4.841   2.087   4.397
 9728SOL    HW130083   4.867   2.001   4.441
 9728SOL    HW230084   4.914   2.154   4.410
 9729SOL     OW30085   6.978   4.801   3.046
 9729SOL    HW130086   0.019   4.796   2.970
 9729SOL    HW230087   6.962   4.897   3.070
 9730SOL     OW30088   1.116   4.471   3.036
 9730SOL    HW130089   1.018   4.460   3.050
 9730SOL    HW230090   1.134   4.558   2.991
 9731SOL     OW30091   5.577   3.047   1.872
 9731SOL    HW130092   5.645   3.051   1.800
 9731SOL    HW230093   5.621   3.022   1.958
 9732SOL     OW30094   1.579   3.838   2.760
 9732SOL    HW130095   1.582   3.804   2.666
 9732SOL    HW230096   1.490   3.818   2.800
 9733SOL     OW30097   5.946   4.557   2.089
 9733SOL    HW130098   5.946   4.551   2.189
 9733SOL    HW230099   5.860   4.600   2.058
 9734SOL     OW30100   5.695   5.184   6.325
 9734SOL    HW130101   5.649   5.225   6.247
 9734SOL    HW230102   5.637   5.114   6.366
 9735SOL     OW30103   0.534   2.424   1.216
 9735SOL    HW130104   0.487   2.504   1.253
 9735SOL    HW230105   0.515   2.344   1.273
 9736SOL     OW30106   4.987   2.272   4.685
 9736SOL    HW130107   4.890   2.274   4.659
 9736SOL    HW230108   4.995   2.250   4.782
 9737SOL     OW30109   6.202   3.400   3.486
 9737SOL    HW130110   6.229   3.479   3.430
 9737SOL    HW230111   6.261   3.323   3.465
 9738SOL     OW30112   2.152   6.683   2.075
 9738SOL    HW130113   2.111   6.632   2.000
 9738SOL    HW230114   2.224   6.742   2.040
 9739SOL     OW30115   5.787   6.839   0.154
 9739SOL    HW130116   5.696   6.876   0.173
 9739SOL    HW230117   5.831   6.894   0.084
 9740SOL     OW30118   6.531   1.438   2.597
 9740SOL    HW130119   6.443   1.477   2.623
 9740SOL    HW230120   6.516   1.360   2.536
 9741SOL     OW30121   2.360   1.900   4.434
 9741SOL    HW130122   2.357   1.880   4.532
 9741SOL    HW230123   2.416   1.982   4.419
 9742SOL     OW30124   3.775   2.073   6.440
 9742SOL    HW130125   3.798   2.141   6.510
 9742SOL    HW230126   3.677   2.051   6.446
 9743SOL     OW30127   5.430   3.920   3.750
 9743SOL    HW130128   5.341   3.966   3.745
 9743SOL    HW230129   5.425   3.832   3.704
 9744SOL     OW30130   1.749   1.745   2.497
 9744SOL    HW130131   1.836   1.787   2.524
 9744SOL    HW230132   1.676   1.775   2.558
 9745SOL     OW30133   0.189   0.469   6.354
 9745SOL    HW130134   0.106   0.522   6.367
 9745SOL    HW230135   0.181   0.382   6.403
 9746SOL     OW30136   4.314   5.183   5.885
 9746SOL    HW130137   4.228   5.231   5.901
 9746SOL    HW230138   4.331   5.118   5.959
 9747SOL     OW30139   2.617   1.252   2.778
 9747SOL    HW130140   2.567   1.329   2.740
 9747SOL    HW230141   2.715   1.271   2.774
 9748SOL     OW30142   1.247   1.165   3.438
 9748SOL    HW130143   1.241   1.265   3.432
 9748SOL    HW230144   1.323   1.133   3.380
 9749SOL     OW30145   6.902   0.393   1.974
 9749SOL    HW130146   6.885   0.462   1.903
 9749SOL    HW230147   6.972   0.329   1.941
 9750SOL     OW30148   5.821   3.281   4.368
 9750SOL    HW130149   5.826   3.289   4.467
 9750SOL    HW230150   5.861   3.195   4.339
 9751SOL     OW30151   3.708   6.877   1.552
 9751SOL    HW130152   3.759   6.839   1.630
 9751SOL    HW230153   3.723   6.820   1.472
 9752SOL     OW30154   3.131   2.797   0.319
 9752SOL    HW130155   3.048   2.800   0.263
 9752SOL    HW230156   3.176   2.708   0.306
 9753SOL     OW30157   6.439   6.331   5.555
 9753SOL    HW130158   6.531   6.304   5.524
 9753SOL    HW230159   6.382   6.250   5.563
 9754SOL     OW30160   3.083   1.024   1.825
 9754SOL    HW130161   3.083   1.107   1.770
 9754SOL    HW230162   3.071   1.048   1.922
 9755SOL     OW30163   2.886   3.522   0.352
 9755SOL    HW130164   2.899   3.431   0.392
 9755SOL    HW230165   2.842   3.582   0.419
 9756SOL     OW30166   5.877   0.283   5.804
 9756SOL    HW130167   5.963   0.326   5.776
 9756SOL    HW230168   5.821   0.349   5.853
 9757SOL     OW30169   5.445   4.235   4.229
 9757SOL    HW130170   5.418   4.191   4.144
 9757SOL    HW230171   5.393   4.319   4.242
 9758SOL     OW30172   2.035   0.766   2.338
 9758SOL    HW130173   1.939   0.769   2.366
 9758SOL    HW230174   2.048   0.695   2.269
 9759SOL     OW30175   6.969   1.666   1.731
 9759SOL    HW130176   6.896   1.616   1.685
 9759SOL    HW230177   6.963   1.763   1.707
 9760SOL     OW30178   5.156   0.640   6.975
 9760SOL    HW130179   5.103   0.624   0.035
 9760SOL    HW230180   5.220   0.716   6.990
 9761SOL     OW30181   1.609   2.401   1.191
 9761SOL    HW130182   1.523   2.350   1.185
 9761SOL    HW230183   1.608   2.458   1.274
 9762SOL     OW30184   2.637   1.200   5.205
 9762SOL    HW130185   2.557   1.200   5.266
 9762SOL    HW230186   2.669   1.293   5.191
 9763SOL     OW30187   6.517   2.005   1.472
 9763SOL    HW130188   6.426   2.026   1.509
 9763SOL    HW230189   6.521   2.034   1.377
 9764SOL     OW30190   0.046   2.023   3.023
 9764SOL    HW130191   7.012   1.996   3.101
 9764SOL    HW230192   7.022   2.093   2.970
 9765SOL     OW30193   6.642   0.327   1.991
 9765SOL    HW130194   6.595   0.368   1.913
 9765SOL    HW230195   6.741   0.331   1.976
 9766SOL     OW30196   1.778   2.181   3.634
 9766SOL    HW130197   1.770   2.094   3.586
 9766SOL    HW230198   1.771   2.256   3.567
 9767SOL     OW30199   2.396   1.489   5.297
 9767SOL    HW130200   2.337   1.563   5.266
 9767SOL    HW230201   2.368   1.403   5.253
 9768SOL     OW30202   5.988   3.050   0.804
 9768SOL    HW130203   5.946   3.007   0.884
 9768SOL    HW230204   5.974   2.992   0.724
 9769SOL     OW30205   3.599   1.715   5.637
 9769SOL    HW130206   3.530   1.751   5.575
 9769SOL    HW230207   3.668   1.785   5.654
 9770SOL     OW30208   2.280   2.911   5.796
 9770SOL    HW130209   2.269   2.861   5.882
 9770SOL    HW230210   2.235   2.860   5.722
 9771SOL     OW30211   3.336   6.974   1.885
 9771SOL    HW130212   3.361   0.025   1.822
 9771SOL    HW230213   3.419   6.940   1.930
 9772SOL     OW30214   1.156   0.654   1.359
 9772SOL    HW130215   1.089   0.652   1.284
 9772SOL    HW230216   1.187   0.747   1.373
 9773SOL     OW30217   5.517   5.142   2.221
 9773SOL    HW130218   5.535   5.237   2.245
 9773SOL    HW230219   5.585   5.110   2.155
 9774SOL     OW30220   1.466   4.431   5.348
 9774SOL    HW130221   1.470   4.332   5.338
 9774SOL    HW230222   1.434   4.472   5.263
 9775SOL     OW30223   2.408   1.469   3.285
 9775SOL    HW130224   2.468   1.541   3.322
 9775SOL    HW230225   2.464   1.395   3.248
 9776SOL     OW30226   2.499   4.791   0.583
 9776SOL    HW130227   2.427   4.775   0.651
 9776SOL    HW230228   2.569   4.852   0.621
 9777SOL     OW30229   4.058   0.809   5.499
 9777SOL    HW130230   4.056   0.762   5.587
 9777SOL    HW230231   4.057   0.908   5.514
 9778SOL     OW30232   0.413   4.375   3.414
 9778SOL    HW130233   0.496   4.320   3.422
 9778SOL    HW230234   0.374   4.389   3.505
 9779SOL     OW30235   2.532   0.820   3.309
 9779SOL    HW130236   2.588   0.902   3.325
 9779SOL    HW230237   2.502   0.782   3.396
 9780SOL     OW30238   0.899   2.625   2.045
 9780SOL    HW130239   0.942   2.541   2.077
 9780SOL    HW230240   0.943   2.704   2.088
 9781SOL     OW30241   1.522   1.831   2.633
 9781SOL    HW130242   1.536   1.767   2.709
 9781SOL    HW230243   1.426   1.830   2.606
 9782SOL     OW30244   0.146   1.921   0.881
 9782SOL    HW130245   0.229   1.929   0.826
 9782SOL    HW230246   0.164   1.954   0.974
 9783SOL     OW30247   4.220   1.182   3.028
 9783SOL    HW130248   4.226   1.102   2.969
 9783SOL    HW230249   4.268   1.259   2.986
 9784SOL     OW30250   1.738   1.332   6.191
 9784SOL    HW130251   1.723   1.289   6.101
 9784SOL    HW230252   1.699   1.424   6.190
 9785SOL     OW30253   0.194   4.054   4.259
 9785SOL    HW130254   0.247   4.015   4.184
 9785SOL    HW230255   0.252   4.062   4.340
 9786SOL     OW30256   2.284   4.076   6.921
 9786SOL    HW130257   2.242   4.011   6.984
 9786SOL    HW230258   2.233   4.077   6.835
 9787SOL     OW30259   3.059   3.890   2.874
 9787SOL    HW130260   2.987   3.826   2.901
 9787SOL    HW230261   3.107   3.855   2.793
 9788SOL     OW30262   3.957   6.700   2.069
 9788SOL    HW130263   3.871   6.681   2.116
 9788SOL    HW230264   3.992   6.789   2.098
 9789SOL     OW30265   3.959   1.955   7.007
 9789SOL    HW130266   3.905   2.032   6.972
 9789SOL    HW230267   3.916   1.920   0.067
 9790SOL     OW30268   5.862   5.435   4.630
 9790SOL    HW130269   5.770   5.401   4.615
 9790SOL    HW230270   5.872   5.525   4.588
 9791SOL     OW30271   0.722   0.251   1.431
 9791SOL    HW130272   0.717   0.348   1.456
 9791SOL    HW230273   0.795   0.238   1.364
 9792SOL     OW30274   4.084   4.983   0.643
 9792SOL    HW130275   4.127   4.988   0.733
 9792SOL    HW230276   4.139   5.035   0.577
 9793SOL     OW30277   6.124   0.895   3.416
 9793SOL    HW130278   6.223   0.897   3.408
 9793SOL    HW230279   6.094   0.963   3.483
 9794SOL     OW30280   4.475   4.750   4.524
 9794SOL    HW130281   4.386   4.794   4.535
 9794SOL    HW230282   4.510   4.725   4.614
 9795SOL     OW30283   1.566   3.418   3.548
 9795SOL    HW130284   1.659   3.448   3.530
 9795SOL    HW230285   1.512   3.421   3.464
 9796SOL     OW30286   3.730   4.125   4.230
 9796SOL    HW130287   3.737   4.120   4.330
 9796SOL    HW230288   3.754   4.217   4.200
 9797SOL     OW30289   2.610   5.011   0.353
 9797SOL    HW130290   2.573   5.079   0.416
 9797SOL    HW230291   2.546   4.998   0.277
 9798SOL     OW30292   6.961   4.041   6.781
 9798SOL    HW130293   6.944   4.117   6.844
 9798SOL    HW230294   0.003   3.977   6.823
 9799SOL     OW30295   2.759   0.252   6.414
 9799SOL    HW130296   2.790   0.257   6.319
 9799SOL    HW230297   2.784   0.164   6.453
 9800SOL     OW30298   6.711   2.995   4.451
 9800SOL    HW130299   6.752   2.985   4.541
 9800SOL    HW230300   6.780   3.025   4.385
 9801SOL     OW30301   6.167   6.252   0.212
 9801SOL    HW130302   6.116   6.167   0.195
 9801SOL    HW230303   6.151   6.316   0.137
 9802SOL     OW30304   3.886   4.233   0.206
 9802SOL    HW130305   3.809   4.232   0.142
 9802SOL    HW230306   3.955   4.167   0.177
 9803SOL     OW30307   0.935   3.208   6.806
 9803SOL    HW130308   0.877   3.269   6.752
 9803SOL    HW230309   0.879   3.135   6.845
 9804SOL     OW30310   0.475   5.480   2.675
 9804SOL    HW130311   0.508   5.397   2.630
 9804SOL    HW230312   0.463   5.462   2.773
 9805SOL     OW30313   0.748   5.988   4.142
 9805SOL    HW130314   0.799   6.068   4.111
 9805SOL    HW230315   0.810   5.911   4.154
 9806SOL     OW30316   4.064   1.757   0.335
 9806SOL    HW130317   4.000   1.834   0.325
 9806SOL    HW230318   4.157   1.788   0.316
 9807SOL     OW30319   3.544   3.143   2.499
 9807SOL    HW130320   3.561   3.051   2.465
 9807SOL    HW230321   3.613   3.206   2.462
 9808SOL     OW30322   4.137   5.551   2.642
 9808SOL    HW130323   4.141   5.651   2.646
 9808SOL    HW230324   4.225   5.513   2.671
 9809SOL     OW30325   6.717   3.643   0.615
 9809SOL    HW130326   6.698   3.632   0.518
 9809SOL    HW230327   6.708   3.555   0.662
 9810SOL     OW30328   3.186   1.812   6.914
 9810SOL    HW130329   3.271   1.859   6.936
 9810SOL    HW230330   3.156   1.758   6.993
 9811SOL     OW30331   5.725   3.556   4.383
 9811SOL    HW130332   5.692   3.636   4.332
 9811SOL    HW230333   5.761   3.489   4.319
 9812SOL     OW30334   3.530   6.262   5.411
 9812SOL    HW130335   3.579   6.226   5.331
 9812SOL    HW230336   3.596   6.299   5.476
 9813SOL     OW30337   5.272   0.866   1.751
 9813SOL    HW130338   5.329   0.887   1.830
 9813SOL    HW230339   5.282   0.770   1.727
 9814SOL     OW30340   5.736   1.433   0.026
 9814SOL    HW130341   5.695   1.403   0.113
 9814SOL    HW230342   5.808   1.369   7.023
 9815SOL     OW30343   4.573   2.645   4.629
 9815SOL    HW130344   4.578   2.689   4.539
 9815SOL    HW230345   4.587   2.713   4.701
 9816SOL     OW30346   2.271   0.243   0.714
 9816SOL    HW130347   2.323   0.240   0.799
 9816SOL    HW230348   2.281   0.334   0.672
 9817SOL     OW30349   6.299   6.759   2.631
 9817SOL    HW130350   6.320   6.710   2.547
 9817SOL    HW230351   6.305   6.696   2.709
 9818SOL     OW30352   5.763   3.206   4.950
 9818SOL    HW130353   5.824   3.285   4.953
 9818SOL    HW230354   5.798   3.134   5.010
 9819SOL     OW30355   3.954   0.526   2.359
 9819SOL    HW130356   3.921   0.605   2.308
 9819SOL    HW230357   3.998   0.558   2.444
 9820SOL     OW30358   4.497   2.957   5.672
 9820SOL    HW130359   4.562   2.911   5.611
 9820SOL    HW230360   4.461   2.892   5.738
 9821SOL     OW30361   6.319   5.006   0.650
 9821SOL    HW130362   6.341   5.073   0.580
 9821SOL    HW230363   6.368   5.028   0.734
 9822SOL     OW30364   0.322   0.146   2.117
 9822SOL    HW130365   0.422   0.147   2.106
 9822SOL    HW230366   0.299   0.177   2.209
 9823SOL     OW30367   3.811   0.832   1.555
 9823SOL    HW130368   3.767   0.903   1.499
 9823SOL    HW230369   3.792   0.742   1.515
 9824SOL     OW30370   1.049   3.692   5.912
 9824SOL    HW130371   1.090   3.758   5.848
 9824SOL    HW230372   0.964   3.657   5.872
 9825SOL     OW30373   4.010   4.869   4.918
 9825SOL    HW130374   4.061   4.895   5.000
 9825SOL    HW230375   3.917   4.843   4.945
 9826SOL     OW30376   4.952   0.634   5.751
 9826SOL    HW130377   4.926   0.579   5.830
 9826SOL    HW230378   4.952   0.731   5.777
 9827SOL     OW30379   1.636   4.040   4.434
 9827SOL    HW130380   1.601   4.071   4.345
 9827SOL    HW230381   1.572   3.974   4.473
 9828SOL     OW30382   3.386   3.015   6.650
 9828SOL    HW130383   3.346   2.983   6.736
 9828SOL    HW230384   3.452   2.948   6.616
 9829SOL     OW30385   2.982   4.505   0.352
 9829SOL    HW130386   3.013   4.433   0.289
 9829SOL    HW230387   2.918   4.565   0.304
 9830SOL     OW30388   5.830   0.504   0.548
 9830SOL    HW130389   5.896   0.433   0.572
 9830SOL    HW230390   5.805   0.556   0.630
 9831SOL     OW30391   6.549   6.572   1.132
 9831SOL    HW130392   6.494   6.496   1.100
 9831SOL    HW230393   6.492   6.634   1.187
 9832SOL     OW30394   4.614   5.061   1.239
 9832SOL    HW130395   4.586   5.100   1.327
 9832SOL    HW230396   4.555   4.984   1.217
 9833SOL     OW30397   3.234   3.637   4.793
 9833SOL    HW130398   3.166   3.627   4.720
 9833SOL    HW230399   3.188   3.655   4.879
 9834SOL     OW30400   0.703   3.177   4.588
 9834SOL    HW130401   0.704   3.268   4.631
 9834SOL    HW230402   0.744   3.183   4.498
 9835SOL     OW30403   5.166   2.054   4.073
 9835SOL    HW130404   5.110   1.973   4.088
 9835SOL    HW230405   5.169   2.074   3.975
 9836SOL     OW30406   4.972   5.092   3.095
 9836SOL    HW130407   4.964   5.175   3.150
 9836SOL    HW230408   4.882   5.049   3.086
 9837SOL     OW30409   2.214   6.192   4.098
 9837SOL    HW130410   2.218   6.093   4.104
 9837SOL    HW230411   2.125   6.220   4.061
 9838SOL     OW30412   0.740   5.897   6.261
 9838SOL    HW130413   0.769   5.947   6.179
 9838SOL    HW230414   0.818   5.849   6.300
 9839SOL     OW30415   6.796   1.822   2.383
 9839SOL    HW130416   6.891   1.850   2.397
 9839SOL    HW230417   6.769   1.760   2.457
 9840SOL     OW30418   6.546   0.736   1.199
 9840SOL    HW130419   6.498   0.672   1.259
 9840SOL    HW230420   6.499   0.740   1.111
 9841SOL     OW30421   1.917   3.581   4.426
 9841SOL    HW130422   1.891   3.671   4.389
 9841SOL    HW230423   2.014   3.582   4.450
 9842SOL     OW30424   3.370   2.942   2.222
 9842SOL    HW130425   3.270   2.939   2.234
 9842SOL    HW230426   3.396   2.885   2.144
 9843SOL     OW30427   6.477   2.516   2.233
 9843SOL    HW130428   6.434   2.456   2.301
 9843SOL    HW230429   6.483   2.609   2.270
 9844SOL     OW30430   5.145   0.122   2.455
 9844SOL    HW130431   5.045   0.121   2.443
 9844SOL    HW230432   5.170   0.056   2.526
 9845SOL     OW30433   1.358   1.977   3.843
 9845SOL    HW130434   1.434   1.929   3.799
 9845SOL    HW230435   1.377   2.075   3.848
 9846SOL     OW30436   2.900   3.648   2.976
 9846SOL    HW130437   2.900   3.668   3.074
 9846SOL    HW230438   2.805   3.650   2.942
 9847SOL     OW30439   1.903   3.914   5.679
 9847SOL    HW130440   1.805   3.931   5.686
 9847SOL    HW230441   1.923   3.820   5.707
 9848SOL     OW30442   5.060   3.381   6.872
 9848SOL    HW130443   5.008   3.462   6.899
 9848SOL    HW230444   5.126   3.359   6.943
 9849SOL     OW30445   0.300   6.830   6.400
 9849SOL    HW130446   0.292   6.837   6.499
 9849SOL    HW230447   0.357   6.904   6.365
 9850SOL     OW30448   3.962   6.006   2.433
 9850SOL    HW130449   3.903   5.925   2.443
 9850SOL    HW230450   3.998   6.032   2.522
 9851SOL     OW30451   5.631   1.806   5.279
 9851SOL    HW130452   5.545   1.820   5.328
 9851SOL    HW230453   5.675   1.723   5.313
 9852SOL     OW30454   5.149   1.738   3.586
 9852SOL    HW130455   5.226   1.800   3.577
 9852SOL    HW230456   5.068   1.780   3.544
 9853SOL     OW30457   6.547   3.580   2.380
 9853SOL    HW130458   6.633   3.603   2.425
 9853SOL    HW230459   6.527   3.649   2.311
 9854SOL     OW30460   4.940   5.575   3.774
 9854SOL    HW130461   5.000   5.642   3.817
 9854SOL    HW230462   4.994   5.519   3.711
 9855SOL     OW30463   1.168   3.865   1.511
 9855SOL    HW130464   1.100   3.897   1.444
 9855SOL    HW230465   1.244   3.821   1.463
 9856SOL     OW30466   3.789   2.866   0.860
 9856SOL    HW130467   3.863   2.819   0.907
 9856SOL    HW230468   3.707   2.864   0.917
 9857SOL     OW30469   5.252   3.592   3.152
 9857SOL    HW130470   5.188   3.526   3.112
 9857SOL    HW230471   5.323   3.544   3.203
 9858SOL     OW30472   5.075   1.064   1.861
 9858SOL    HW130473   5.095   0.967   1.874
 9858SOL    HW230474   5.025   1.099   1.940
 9859SOL     OW30475   6.184   0.360   2.287
 9859SOL    HW130476   6.141   0.271   2.304
 9859SOL    HW230477   6.267   0.347   2.232
 9860SOL     OW30478   0.533   1.128   2.046
 9860SOL    HW130479   0.627   1.104   2.071
 9860SOL    HW230480   0.474   1.050   2.066
 9861SOL     OW30481   4.131   6.468   4.280
 9861SOL    HW130482   4.055   6.415   4.241
 9861SOL    HW230483   4.096   6.531   4.348
 9862SOL     OW30484   1.298   2.660   1.120
 9862SOL    HW130485   1.274   2.750   1.082
 9862SOL    HW230486   1.289   2.591   1.049
 9863SOL     OW30487   3.502   6.903   2.277
 9863SOL    HW130488   3.413   6.859   2.262
 9863SOL    HW230489   3.543   6.925   2.189
 9864SOL     OW30490   5.110   6.070   2.175
 9864SOL    HW130491   5.046   6.139   2.210
 9864SOL    HW230492   5.184   6.116   2.125
 9865SOL     OW30493   0.436   0.738   4.264
 9865SOL    HW130494   0.518   0.769   4.313
 9865SOL    HW230495   0.403   0.653   4.306
 9866SOL     OW30496   4.839   3.995   4.037
 9866SOL    HW130497   4.788   4.010   3.952
 9866SOL    HW230498   4.790   4.037   4.113
 9867SOL     OW30499   4.507   1.078   6.981
 9867SOL    HW130500   4.468   1.166   6.954
 9867SOL    HW230501   4.455   1.004   6.939
 9868SOL     OW30502   0.147   4.873   0.345
 9868SOL    HW130503   0.119   4.863   0.441
 9868SOL    HW230504   0.076   4.923   0.295
 9869SOL     OW30505   1.796   4.447   3.149
 9869SOL    HW130506   1.852   4.367   3.127
 9869SOL    HW230507   1.844   4.504   3.216
 9870SOL     OW30508   5.189   4.734   2.513
 9870SOL    HW130509   5.108   4.790   2.495
 9870SOL    HW230510   5.160   4.646   2.551
 9871SOL     OW30511   2.353   0.882   5.299
 9871SOL    HW130512   2.413   0.876   5.378
 9871SOL    HW230513   2.394   0.835   5.221
 9872SOL     OW30514   2.628   4.947   3.398
 9872SOL    HW130515   2.713   4.894   3.402
 9872SOL    HW230516   2.582   4.930   3.310
 9873SOL     OW30517   0.936   2.475   0.349
 9873SOL    HW130518   0.958   2.396   0.291
 9873SOL    HW230519   1.020   2.518   0.381
 9874SOL     OW30520   0.670   3.174   3.879
 9874SOL    HW130521   0.733   3.201   3.806
 9874SOL    HW230522   0.584   3.143   3.838
 9875SOL     OW30523   0.505   0.722   3.111
 9875SOL    HW130524   0.412   0.696   3.134
 9875SOL    HW230525   0.555   0.744   3.194
 9876SOL     OW30526   6.573   6.496   2.506
 9876SOL    HW130527   6.494   6.540   2.463
 9876SOL    HW230528   6.656   6.521   2.456
 9877SOL     OW30529   3.204   6.602   2.719
 9877SOL    HW130530   3.191   6.667   2.793
 9877SOL    HW230531   3.144   6.626   2.642
 9878SOL     OW30532   1.008   5.970   5.702
 9878SOL    HW130533   0.996   5.872   5.685
 9878SOL    HW230534   1.042   6.015   5.619
 9879SOL     OW30535   4.326   5.612   5.375
 9879SOL    HW130536   4.337   5.584   5.471
 9879SOL    HW230537   4.409   5.656   5.343
 9880SOL     OW30538   1.357   2.014   5.701
 9880SOL    HW130539   1.427   2.080   5.675
 9880SOL    HW230540   1.388   1.962   5.781
 9881SOL     OW30541   0.626   2.126   6.197
 9881SOL    HW130542   0.678   2.095   6.118
 9881SOL    HW230543   0.676   2.199   6.243
 9882SOL     OW30544   1.608   2.353   3.974
 9882SOL    HW130545   1.515   2.336   3.941
 9882SOL    HW230546   1.663   2.271   3.962
 9883SOL     OW30547   1.757   0.750   2.325
 9883SOL    HW130548   1.694   0.753   2.402
 9883SOL    HW230549   1.745   0.832   2.269
 9884SOL     OW30550   3.983   0.641   4.428
 9884SOL    HW130551   4.072   0.642   4.475
 9884SOL    HW230552   3.961   0.547   4.402
 9885SOL     OW30553   5.987   5.019   4.212
 9885SOL    HW130554   5.926   4.941   4.226
 9885SOL    HW230555   6.070   4.989   4.165
 9886SOL     OW30556   1.077   4.499   2.730
 9886SOL    HW130557   1.124   4.568   2.786
 9886SOL    HW230558   1.005   4.456   2.784
 9887SOL     OW30559   3.565   1.271   0.310
 9887SOL    HW130560   3.614   1.221   0.239
 9887SOL    HW230561   3.516   1.207   0.369
 9888SOL     OW30562   0.055   4.524   0.589
 9888SOL    HW130563   0.035   4.449   0.526
 9888SOL    HW230564   7.000   4.586   0.594
 9889SOL     OW30565   6.224   4.778   0.527
 9889SOL    HW130566   6.278   4.695   0.546
 9889SOL    HW230567   6.258   4.853   0.584
 9890SOL     OW30568   1.611   2.577   1.411
 9890SOL    HW130569   1.704   2.614   1.417
 9890SOL    HW230570   1.581   2.549   1.502
 9891SOL     OW30571   5.525   2.657   0.732
 9891SOL    HW130572   5.483   2.599   0.662
 9891SOL    HW230573   5.477   2.744   0.736
 9892SOL     OW30574   0.000   5.082   0.241
 9892SOL    HW130575   0.092   5.116   0.220
 9892SOL    HW230576   6.978   5.055   0.156
 9893SOL     OW30577   2.365   1.567   0.751
 9893SOL    HW130578   2.411   1.520   0.676
 9893SOL    HW230579   2.335   1.500   0.819
 9894SOL     OW30580   0.812   1.755   0.591
 9894SOL    HW130581   0.894   1.699   0.603
 9894SOL    HW230582   0.770   1.772   0.680
 9895SOL     OW30583   5.356   3.160   5.598
 9895SOL    HW130584   5.366   3.076   5.544
 9895SOL    HW230585   5.264   3.165   5.636
 9896SOL     OW30586   6.740   0.469   0.305
 9896SOL    HW130587   6.817   0.450   0.244
 9896SOL    HW230588   6.737   0.400   0.377
 9897SOL     OW30589   5.566   5.363   3.090
 9897SOL    HW130590   5.505   5.441   3.076
 9897SOL    HW230591   5.575   5.313   3.004
 9898SOL     OW30592   3.362   5.847   5.453
 9898SOL    HW130593   3.374   5.850   5.354
 9898SOL    HW230594   3.270   5.877   5.477
 9899SOL     OW30595   6.939   5.536   0.379
 9899SOL    HW130596   6.915   5.551   0.283
 9899SOL    HW230597   6.871   5.476   0.422
 9900SOL     OW30598   2.161   4.230   3.664
 9900SOL    HW130599   2.206   4.196   3.581
 9900SOL    HW230600   2.071   4.267   3.640
 9901SOL     OW30601   2.834   2.206   5.417
 9901SOL    HW130602   2.759   2.140   5.403
 9901SOL    HW230603   2.832   2.274   5.344
 9902SOL     OW30604   2.067   4.887   0.029
 9902SOL    HW130605   2.050   4.947   0.107
 9902SOL    HW230606   2.165   4.871   0.021
 9903SOL     OW30607   4.954   1.010   2.946
 9903SOL    HW130608   5.018   1.020   3.023
 9903SOL    HW230609   4.930   1.101   2.911
 9904SOL     OW30610   6.969   3.368   6.828
 9904SOL    HW130611   6.999   3.279   6.795
 9904SOL    HW230612   6.959   3.365   6.927
 9905SOL     OW30613   4.374   1.678   0.454
 9905SOL    HW130614   4.352   1.723   0.367
 9905SOL    HW230615   4.472   1.661   0.459
 9906SOL     OW30616   3.860   3.243   3.094
 9906SOL    HW130617   3.859   3.198   3.005
 9906SOL    HW230618   3.823   3.181   3.164
 9907SOL     OW30619   0.177   0.729   1.891
 9907SOL    HW130620   0.122   0.773   1.962
 9907SOL    HW230621   0.180   0.630   1.908
 9908SOL     OW30622   5.067   2.825   2.779
 9908SOL    HW130623   5.154   2.787   2.749
 9908SOL    HW230624   5.076   2.924   2.793
 9909SOL     OW30625   2.103   6.494   4.431
 9909SOL    HW130626   2.099   6.405   4.387
 9909SOL    HW230627   2.038   6.497   4.507
 9910SOL     OW30628   0.786   4.700   2.681
 9910SOL    HW130629   0.852   4.753   2.628
 9910SOL    HW230630   0.752   4.625   2.625
 9911SOL     OW30631   3.747   6.727   2.266
 9911SOL    HW130632   3.658   6.685   2.247
 9911SOL    HW230633   3.790   6.681   2.344
 9912SOL     OW30634   4.839   2.029   0.709
 9912SOL    HW130635   4.892   1.983   0.780
 9912SOL    HW230636   4.741   2.010   0.724
 9913SOL     OW30637   5.930   2.871   0.598
 9913SOL    HW130638   5.959   2.897   0.506
 9913SOL    HW230639   5.978   2.787   0.625
 9914SOL     OW30640   0.734   2.595   4.764
 9914SOL    HW130641   0.647   2.591   4.714
 9914SOL    HW230642   0.715   2.609   4.861
 9915SOL     OW30643   5.350   1.252   3.379
 9915SOL    HW130644   5.275   1.300   3.425
 9915SOL    HW230645   5.343   1.154   3.397
 9916SOL     OW30646   2.128   2.875   2.182
 9916SOL    HW130647   2.117   2.777   2.170
 9916SOL    HW230648   2.187   2.912   2.110
 9917SOL     OW30649   6.921   4.258   5.759
 9917SOL    HW130650   6.955   4.322   5.828
 9917SOL    HW230651   6.857   4.306   5.699
 9918SOL     OW30652   3.870   1.905   2.677
 9918SOL    HW130653   3.906   1.829   2.623
 9918SOL    HW230654   3.844   1.872   2.768
 9919SOL     OW30655   6.069   6.377   1.543
 9919SOL    HW130656   6.015   6.347   1.463
 9919SOL    HW230657   6.019   6.355   1.627
 9920SOL     OW30658   4.207   1.814   2.732
 9920SOL    HW130659   4.249   1.891   2.683
 9920SOL    HW230660   4.149   1.849   2.806
 9921SOL     OW30661   3.816   5.637   5.961
 9921SOL    HW130662   3.909   5.627   5.995
 9921SOL    HW230663   3.757   5.571   6.007
 9922SOL     OW30664   0.616   5.646   0.619
 9922SOL    HW130665   0.558   5.671   0.542
 9922SOL    HW230666   0.711   5.668   0.597
 9923SOL     OW30667   4.860   5.349   0.158
 9923SOL    HW130668   4.933   5.351   0.226
 9923SOL    HW230669   4.893   5.390   0.073
 9924SOL     OW30670   0.368   3.251   4.968
 9924SOL    HW130671   0.287   3.210   4.927
 9924SOL    HW230672   0.381   3.216   5.061
 9925SOL     OW30673   5.096   2.762   4.659
 9925SOL    HW130674   5.114   2.859   4.674
 9925SOL    HW230675   5.156   2.728   4.587
 9926SOL     OW30676   2.023   4.335   6.825
 9926SOL    HW130677   2.040   4.358   6.921
 9926SOL    HW230678   1.987   4.241   6.820
 9927SOL     OW30679   5.824   0.206   2.648
 9927SOL    HW130680   5.782   0.256   2.725
 9927SOL    HW230681   5.838   0.111   2.675
 9928SOL     OW30682   5.078   4.893   1.530
 9928SOL    HW130683   5.158   4.940   1.567
 9928SOL    HW230684   5.099   4.862   1.437
 9929SOL     OW30685   2.481   5.275   4.809
 9929SOL    HW130686   2.563   5.332   4.816
 9929SOL    HW230687   2.426   5.287   4.892
 9930SOL     OW30688   6.897   0.277   4.614
 9930SOL    HW130689   6.982   0.305   4.658
 9930SOL    HW230690   6.877   0.337   4.537
 9931SOL     OW30691   1.246   4.300   5.006
 9931SOL    HW130692   1.257   4.282   4.909
 9931SOL    HW230693   1.316   4.250   5.058
 9932SOL     OW30694   1.031   6.421   6.454
 9932SOL    HW130695   1.022   6.519   6.473
 9932SOL    HW230696   1.115   6.386   6.494
 9933SOL     OW30697   1.207   5.426   1.824
 9933SOL    HW130698   1.248   5.419   1.915
 9933SOL    HW230699   1.113   5.392   1.827
 9934SOL     OW30700   6.202   2.105   5.368
 9934SOL    HW130701   6.132   2.068   5.429
 9934SOL    HW230702   6.158   2.151   5.291
 9935SOL     OW30703   2.826   1.126   6.530
 9935SOL    HW130704   2.821   1.026   6.535
 9935SOL    HW230705   2.796   1.157   6.440
 9936SOL     OW30706   0.569   4.790   4.360
 9936SOL    HW130707   0.611   4.879   4.381
 9936SOL    HW230708   0.560   4.780   4.261
 9937SOL     OW30709   6.879   2.106   5.909
 9937SOL    HW130710   6.856   2.106   6.007
 9937SOL    HW230711   6.977   2.120   5.898
 9938SOL     OW30712   6.648   6.125   2.833
 9938SOL    HW130713   6.683   6.181   2.908
 9938SOL    HW230714   6.636   6.031   2.865
 9939SOL     OW30715   3.092   3.018   1.567
 9939SOL    HW130716   3.178   3.020   1.517
 9939SOL    HW230717   3.063   2.923   1.579
 9940SOL     OW30718   6.625   1.110   0.857
 9940SOL    HW130719   6.618   1.105   0.757
 9940SOL    HW230720   6.707   1.061   0.887
 9941SOL     OW30721   3.031   4.378   5.632
 9941SOL    HW130722   3.019   4.438   5.553
 9941SOL    HW230723   3.098   4.308   5.610
 9942SOL     OW30724   2.785   5.605   2.779
 9942SOL    HW130725   2.723   5.609   2.700
 9942SOL    HW230726   2.743   5.652   2.856
 9943SOL     OW30727   0.526   6.122   6.168
 9943SOL    HW130728   0.605   6.064   6.151
 9943SOL    HW230729   0.526   6.150   6.264
 9944SOL     OW30730   1.130   3.993   6.554
 9944SOL    HW130731   1.165   3.925   6.489
 9944SOL    HW230732   1.036   3.972   6.578
 9945SOL     OW30733   6.754   5.361   0.480
 9945SOL    HW130734   6.703   5.373   0.565
 9945SOL    HW230735   6.766   5.263   0.462
 9946SOL     OW30736   4.821   0.701   5.043
 9946SOL    HW130737   4.771   0.787   5.051
 9946SOL    HW230738   4.811   0.665   4.950
 9947SOL     OW30739   6.511   4.768   5.090
 9947SOL    HW130740   6.423   4.794   5.127
 9947SOL    HW230741   6.583   4.823   5.132
 9948SOL     OW30742   4.674   4.477   4.747
 9948SOL    HW130743   4.667   4.465   4.647
 9948SOL    HW230744   4.770   4.474   4.774
 9949SOL     OW30745   5.310   5.230   2.909
 9949SOL    HW130746   5.292   5.250   2.813
 9949SOL    HW230747   5.408   5.212   2.922
 9950SOL     OW30748   4.171   5.988   5.457
 9950SOL    HW130749   4.149   6.058   5.525
 9950SOL    HW230750   4.233   5.921   5.497
 9951SOL     OW30751   5.656   2.643   3.037
 9951SOL    HW130752   5.646   2.553   3.079
 9951SOL    HW230753   5.638   2.714   3.105
 9952SOL     OW30754   6.770   4.193   0.783
 9952SOL    HW130755   6.826   4.171   0.702
 9952SOL    HW230756   6.675   4.166   0.766
 9953SOL     OW30757   6.150   1.560   3.433
 9953SOL    HW130758   6.237   1.609   3.442
 9953SOL    HW230759   6.153   1.477   3.489
 9954SOL     OW30760   5.872   0.010   5.409
 9954SOL    HW130761   5.831   0.101   5.413
 9954SOL    HW230762   5.841   6.986   5.325
 9955SOL     OW30763   6.922   4.077   4.501
 9955SOL    HW130764   6.824   4.068   4.486
 9955SOL    HW230765   6.961   4.136   4.430
 9956SOL     OW30766   2.015   6.337   2.077
 9956SOL    HW130767   2.048   6.245   2.062
 9956SOL    HW230768   2.009   6.386   1.990
 9957SOL     OW30769   6.416   4.661   3.596
 9957SOL    HW130770   6.465   4.575   3.613
 9957SOL    HW230771   6.416   4.681   3.498
 9958SOL     OW30772   2.752   3.901   0.856
 9958SOL    HW130773   2.677   3.945   0.805
 9958SOL    HW230774   2.760   3.943   0.946
 9959SOL     OW30775   4.057   3.461   6.771
 9959SOL    HW130776   3.963   3.491   6.787
 9959SOL    HW230777   4.074   3.452   6.673
 9960SOL     OW30778   6.758   1.465   2.346
 9960SOL    HW130779   6.707   1.457   2.432
 9960SOL    HW230780   6.723   1.542   2.294
 9961SOL     OW30781   1.836   5.548   4.322
 9961SOL    HW130782   1.911   5.520   4.381
 9961SOL    HW230783   1.852   5.641   4.290
 9962SOL     OW30784   4.793   6.406   5.056
 9962SOL    HW130785   4.863   6.402   4.984
 9962SOL    HW230786   4.759   6.500   5.063
 9963SOL     OW30787   3.286   1.330   1.213
 9963SOL    HW130788   3.349   1.407   1.221
 9963SOL    HW230789   3.214   1.339   1.281
 9964SOL     OW30790   4.332   6.139   4.953
 9964SOL    HW130791   4.364   6.096   4.868
 9964SOL    HW230792   4.394   6.213   4.978
 9965SOL     OW30793   4.239   0.114   0.121
 9965SOL    HW130794   4.305   0.118   0.046
 9965SOL    HW230795   4.236   0.022   0.159
 9966SOL     OW30796   0.658   6.207   2.124
 9966SOL    HW130797   0.728   6.233   2.058
 9966SOL    HW230798   0.654   6.108   2.133
 9967SOL     OW30799   1.600   5.555   1.687
 9967SOL    HW130800   1.643   5.575   1.599
 9967SOL    HW230801   1.501   5.562   1.679
 9968SOL     OW30802   4.022   3.858   2.761
 9968SOL    HW130803   4.100   3.842   2.822
 9968SOL    HW230804   3.954   3.914   2.809
 9969SOL     OW30805   1.588   3.703   2.002
 9969SOL    HW130806   1.488   3.713   1.998
 9969SOL    HW230807   1.611   3.607   2.015
 9970SOL     OW30808   6.251   4.343   1.752
 9970SOL    HW130809   6.169   4.353   1.810
 9970SOL    HW230810   6.234   4.271   1.684
 9971SOL     OW30811   2.158   4.455   0.683
 9971SOL    HW130812   2.100   4.517   0.630
 9971SOL    HW230813   2.112   4.431   0.768
 9972SOL     OW30814   7.008   4.582   2.371
 9972SOL    HW130815   0.080   4.608   2.361
 9972SOL    HW230816   6.981   4.589   2.467
 9973SOL     OW30817   6.107   0.895   4.401
 9973SOL    HW130818   6.199   0.934   4.408
 9973SOL    HW230819   6.058   0.939   4.325
 9974SOL     OW30820   1.703   0.944   3.933
 9974SOL    HW130821   1.768   0.872   3.956
 9974SOL    HW230822   1.628   0.945   4.000
 9975SOL     OW30823   0.345   2.844   0.142
 9975SOL    HW130824   0.285   2.767   0.122
 9975SOL    HW230825   0.347   2.861   0.240
 9976SOL     OW30826   1.650   6.790   4.809
 9976SOL    HW130827   1.580   6.722   4.788
 9976SOL    HW230828   1.666   6.791   4.908
 9977SOL     OW30829   6.153   4.269   4.859
 9977SOL    HW130830   6.107   4.298   4.775
 9977SOL    HW230831   6.213   4.342   4.890
 9978SOL     OW30832   6.809   1.792   3.969
 9978SOL    HW130833   6.801   1.764   3.873
 9978SOL    HW230834   6.886   1.856   3.979
 9979SOL     OW30835   6.556   3.531   4.691
 9979SOL    HW130836   6.631   3.541   4.757
 9979SOL    HW230837   6.473   3.573   4.728
 9980SOL     OW30838   3.811   0.633   6.378
 9980SOL    HW130839   3.801   0.699   6.452
 9980SOL    HW230840   3.785   0.675   6.291
 9981SOL     OW30841   3.243   2.030   4.058
 9981SOL    HW130842   3.187   1.957   4.096
 9981SOL    HW230843   3.204   2.119   4.081
 9982SOL     OW30844   0.070   6.039   4.222
 9982SOL    HW130845   0.137   6.113   4.227
 9982SOL    HW230846   0.082   5.979   4.302
 9983SOL     OW30847   6.686   1.623   2.136
 9983SOL    HW130848   6.759   1.578   2.084
 9983SOL    HW230849   6.642   1.693   2.080
 9984SOL     OW30850   2.967   1.987   6.837
 9984SOL    HW130851   2.878   1.949   6.862
 9984SOL    HW230852   3.039   1.919   6.854
 9985SOL     OW30853   1.466   1.020   2.168
 9985SOL    HW130854   1.442   1.117   2.161
 9985SOL    HW230855   1.460   0.978   2.078
 9986SOL     OW30856   5.395   3.798   4.874
 9986SOL    HW130857   5.478   3.760   4.913
 9986SOL    HW230858   5.393   3.779   4.776
 9987SOL     OW30859   6.608   3.596   5.757
 9987SOL    HW130860   6.660   3.663   5.810
 9987SOL    HW230861   6.603   3.626   5.662
 9988SOL     OW30862   6.766   0.122   5.323
 9988SOL    HW130863   6.820   0.192   5.275
 9988SOL    HW230864   6.706   0.075   5.258
 9989SOL     OW30865   0.514   3.130   5.157
 9989SOL    HW130866   0.531   3.036   5.127
 9989SOL    HW230867   0.597   3.184   5.144
 9990SOL     OW30868   0.852   4.963   2.793
 9990SOL    HW130869   0.865   4.989   2.889
 9990SOL    HW230870   0.822   5.043   2.741
 9991SOL     OW30871   3.723   2.137   3.766
 9991SOL    HW130872   3.698   2.110   3.673
 9991SOL    HW230873   3.641   2.143   3.823
 9992SOL     OW30874   6.606   5.745   6.094
 9992SOL    HW130875   6.576   5.827   6.045
 9992SOL    HW230876   6.539   5.721   6.163
 9993SOL     OW30877   0.747   1.759   1.801
 9993SOL    HW130878   0.761   1.800   1.711
 9993SOL    HW230879   0.664   1.798   1.842
 9994SOL     OW30880   6.059   4.688   3.336
 9994SOL    HW130881   6.068   4.697   3.436
 9994SOL    HW230882   6.009   4.767   3.301
 9995SOL     OW30883   5.201   0.713   4.757
 9995SOL    HW130884   5.107   0.733   4.730
 9995SOL    HW230885   5.204   0.627   4.808
 9996SOL     OW30886   2.906   4.164   0.208
 9996SOL    HW130887   2.846   4.238   0.179
 9996SOL    HW230888   2.998   4.178   0.171
 9997SOL     OW30889   2.858   0.063   5.554
 9997SOL    HW130890   2.822   7.004   5.599
 9997SOL    HW230891   2.782   0.126   5.536
 9998SOL     OW30892   5.730   5.788   5.530
 9998SOL    HW130893   5.636   5.796   5.498
 9998SOL    HW230894   5.776   5.715   5.480
 9999SOL     OW30895   6.669   2.208   4.992
 9999SOL    HW130896   6.673   2.263   5.075
 9999SOL    HW230897   6.599   2.244   4.931
10000SOL     OW30898   0.202   3.030   6.384
10000SOL    HW130899   0.284   3.079   6.354
10000SOL    HW230900   0.128   3.095   6.401
10001SOL     OW30901   4.503   0.455   2.861
10001SOL    HW130902   4.433   0.431   2.793
10001SOL    HW230903   4.497   0.391   2.938
10002SOL     OW30904   0.700   0.937   2.201
10002SOL    HW130905   0.707   0.869   2.128
10002SOL    HW230906   0.758   1.016   2.178
10003SOL     OW30907   4.222   2.215   3.677
10003SOL    HW130908   4.241   2.258   3.765
10003SOL    HW230909   4.124   2.221   3.658
10004SOL     OW30910   6.959   1.260   2.879
10004SOL    HW130911   0.031   1.266   2.845
10004SOL    HW230912   6.954   1.192   2.952
10005SOL     OW30913   4.871   6.756   4.162
10005SOL    HW130914   4.906   6.734   4.071
10005SOL    HW230915   4.802   6.689   4.189
10006SOL     OW30916   3.687   0.042   4.215
10006SOL    HW130917   3.709   0.087   4.129
10006SOL    HW230918   3.609   7.003   4.202
10007SOL     OW30919   6.610   3.333   3.732
10007SOL    HW130920   6.679   3.278   3.779
10007SOL    HW230921   6.579   3.406   3.793
10008SOL     OW30922   2.694   0.176   3.831
10008SOL    HW130923   2.649   0.088   3.816
10008SOL    HW230924   2.693   0.229   3.746
10009SOL     OW30925   1.312   4.583   1.954
10009SOL    HW130926   1.307   4.497   1.903
10009SOL    HW230927   1.245   4.583   2.027
10010SOL     OW30928   0.798   1.074   6.092
10010SOL    HW130929   0.787   1.168   6.060
10010SOL    HW230930   0.850   1.073   6.177
10011SOL     OW30931   0.008   6.649   5.010
10011SOL    HW130932   6.938   6.685   5.012
10011SOL    HW230933   0.039   6.641   4.915
10012SOL     OW30934   5.848   1.407   3.654
10012SOL    HW130935   5.891   1.461   3.726
10012SOL    HW230936   5.757   1.444   3.634
10013SOL     OW30937   0.451   0.788   2.592
10013SOL    HW130938   0.362   0.770   2.633
10013SOL    HW230939   0.514   0.713   2.614
10014SOL     OW30940   0.931   4.423   6.278
10014SOL    HW130941   0.848   4.474   6.253
10014SOL    HW230942   0.910   4.325   6.283
10015SOL     OW30943   1.914   4.367   0.184
10015SOL    HW130944   1.886   4.312   0.105
10015SOL    HW230945   1.852   4.444   0.194
10016SOL     OW30946   2.340   0.552   5.752
10016SOL    HW130947   2.392   0.482   5.801
10016SOL    HW230948   2.365   0.550   5.655
10017SOL     OW30949   1.502   2.414   4.835
10017SOL    HW130950   1.444   2.335   4.812
10017SOL    HW230951   1.595   2.383   4.852
10018SOL     OW30952   4.729   0.205   6.258
10018SOL    HW130953   4.767   0.137   6.320
10018SOL    HW230954   4.776   0.200   6.170
10019SOL     OW30955   0.956   1.399   2.898
10019SOL    HW130956   0.964   1.427   2.802
10019SOL    HW230957   0.993   1.471   2.957
10020SOL     OW30958   0.622   2.923   1.270
10020SOL    HW130959   0.572   2.983   1.332
10020SOL    HW230960   0.707   2.894   1.313
10021SOL     OW30961   0.079   3.933   0.541
10021SOL    HW130962   0.007   4.003   0.550
10021SOL    HW230963   0.037   3.843   0.534
10022SOL     OW30964   1.904   1.719   6.337
10022SOL    HW130965   1.897   1.696   6.435
10022SOL    HW230966   1.911   1.818   6.326
10023SOL     OW30967   0.157   3.619   0.711
10023SOL    HW130968   0.124   3.626   0.617
10023SOL    HW230969   0.090   3.660   0.773
10024SOL     OW30970   1.758   4.858   3.944
10024SOL    HW130971   1.849   4.819   3.932
10024SOL    HW230972   1.689   4.785   3.940
10025SOL     OW30973   1.455   1.440   0.757
10025SOL    HW130974   1.411   1.380   0.690
10025SOL    HW230975   1.544   1.470   0.721
10026SOL     OW30976   6.704   0.358   3.504
10026SOL    HW130977   6.683   0.266   3.535
10026SOL    HW230978   6.738   0.413   3.581
10027SOL     OW30979   4.705   2.237   5.368
10027SOL    HW130980   4.745   2.178   5.437
10027SOL    HW230981   4.668   2.319   5.411
10028SOL     OW30982   1.984   0.605   0.709
10028SOL    HW130983   2.035   0.626   0.792
10028SOL    HW230984   2.043   0.617   0.629
10029SOL     OW30985   5.398   1.847   3.574
10029SOL    HW130986   5.453   1.780   3.525
10029SOL    HW230987   5.394   1.822   3.671
10030SOL     OW30988   1.680   0.543   3.109
10030SOL    HW130989   1.691   0.444   3.118
10030SOL    HW230990   1.731   0.589   3.182
10031SOL     OW30991   6.242   4.591   5.141
10031SOL    HW130992   6.314   4.585   5.209
10031SOL    HW230993   6.274   4.551   5.055
10032SOL     OW30994   2.903   1.509   4.852
10032SOL    HW130995   2.937   1.591   4.805
10032SOL    HW230996   2.831   1.466   4.797
10033SOL     OW30997   5.606   2.831   4.966
10033SOL    HW130998   5.640   2.817   5.059
10033SOL    HW230999   5.601   2.743   4.919
10034SOL     OW31000   5.463   0.358   5.789
10034SOL    HW131001   5.467   0.439   5.847
10034SOL    HW231002   5.405   0.378   5.709
10035SOL     OW31003   0.342   6.391   2.137
10035SOL    HW131004   0.346   6.418   2.041
10035SOL    HW231005   0.310   6.297   2.144
10036SOL     OW31006   0.012   1.080   0.682
10036SOL    HW131007   6.964   1.032   0.631
10036SOL    HW231008   0.076   1.123   0.618
10037SOL     OW31009   0.407   0.158   0.873
10037SOL    HW131010   0.381   0.253   0.856
10037SOL    HW231011   0.362   0.099   0.807
10038SOL     OW31012   6.307   0.373   1.355
10038SOL    HW131013   6.357   0.367   1.269
10038SOL    HW231014   6.315   0.466   1.391
10039SOL     OW31015   3.332   0.722   3.562
10039SOL    HW131016   3.258   0.790   3.569
10039SOL    HW231017   3.378   0.732   3.474
10040SOL     OW31018   1.153   2.848   1.433
10040SOL    HW131019   1.234   2.809   1.476
10040SOL    HW231020   1.131   2.794   1.351
10041SOL     OW31021   2.441   5.874   0.078
10041SOL    HW131022   2.528   5.827   0.060
10041SOL    HW231023   2.368   5.806   0.083
10042SOL     OW31024   5.565   3.585   2.930
10042SOL    HW131025   5.478   3.633   2.922
10042SOL    HW231026   5.618   3.597   2.847
10043SOL     OW31027   0.500   1.884   4.524
10043SOL    HW131028   0.456   1.795   4.514
10043SOL    HW231029   0.537   1.892   4.617
10044SOL     OW31030   3.036   1.320   5.951
10044SOL    HW131031   3.084   1.298   5.866
10044SOL    HW231032   3.102   1.330   6.025
10045SOL     OW31033   3.067   1.287   0.949
10045SOL    HW131034   3.098   1.198   0.917
10045SOL    HW231035   3.145   1.346   0.969
10046SOL     OW31036   1.217   5.456   0.665
10046SOL    HW131037   1.139   5.427   0.609
10046SOL    HW231038   1.220   5.556   0.668
10047SOL     OW31039   1.016   3.090   1.017
10047SOL    HW131040   1.065   3.018   0.969
10047SOL    HW231041   0.939   3.122   0.961
10048SOL     OW31042   6.189   5.518   3.474
10048SOL    HW131043   6.098   5.549   3.501
10048SOL    HW231044   6.249   5.518   3.554
10049SOL     OW31045   6.772   0.828   5.169
10049SOL    HW131046   6.853   0.883   5.189
10049SOL    HW231047   6.794   0.761   5.099
10050SOL     OW31048   0.068   3.076   6.777
10050SOL    HW131049   0.065   3.004   6.846
10050SOL    HW231050   0.164   3.097   6.755
10051SOL     OW31051   2.467   2.605   3.968
10051SOL    HW131052   2.368   2.608   3.954
10051SOL    HW231053   2.489   2.640   4.059
10052SOL     OW31054   1.236   6.711   3.282
10052SOL    HW131055   1.314   6.685   3.339
10052SOL    HW231056   1.247   6.673   3.190
10053SOL     OW31057   5.365   5.375   4.139
10053SOL    HW131058   5.297   5.367   4.067
10053SOL    HW231059   5.320   5.401   4.225
10054SOL     OW31060   6.858   3.810   5.012
10054SOL    HW131061   6.943   3.778   5.054
10054SOL    HW231062   6.799   3.732   4.991
10055SOL     OW31063   1.665   2.633   6.282
10055SOL    HW131064   1.743   2.574   6.307
10055SOL    HW231065   1.696   2.727   6.274
10056SOL     OW31066   5.692   2.215   3.501
10056SOL    HW131067   5.741   2.160   3.569
10056SOL    HW231068   5.603   2.172   3.482
10057SOL     OW31069   5.669   5.332   4.951
10057SOL    HW131070   5.670   5.296   5.044
10057SOL    HW231071   5.642   5.428   4.953
10058SOL     OW31072   0.020   3.569   5.083
10058SOL    HW131073   0.002   3.540   4.990
10058SOL    HW231074   0.117   3.553   5.104
10059SOL     OW31075   5.746   0.316   0.039
10059SOL    HW131076   5.714   0.222   0.042
10059SOL    HW231077   5.693   0.367   6.994
10060SOL     OW31078   2.581   1.573   1.459
10060SOL    HW131079   2.529   1.609   1.382
10060SOL    HW231080   2.521   1.519   1.518
10061SOL     OW31081   3.933   6.970   2.771
10061SOL    HW131082   3.845   7.015   2.785
10061SOL    HW231083   3.918   6.882   2.726
10062SOL     OW31084   0.843   6.706   5.040
10062SOL    HW131085   0.853   6.615   5.080
10062SOL    HW231086   0.798   6.767   5.106
10063SOL     OW31087   2.398   2.557   5.039
10063SOL    HW131088   2.309   2.592   5.070
10063SOL    HW231089   2.440   2.504   5.113
10064SOL     OW31090   2.789   0.037   0.648
10064SOL    HW131091   2.765   6.963   0.656
10064SOL    HW231092   2.755   0.072   0.560
10065SOL     OW31093   0.439   2.172   1.651
10065SOL    HW131094   0.471   2.230   1.726
10065SOL    HW231095   0.440   2.076   1.679
10066SOL     OW31096   5.971   4.368   4.237
10066SOL    HW131097   5.895   4.303   4.243
10066SOL    HW231098   6.057   4.318   4.227
10067SOL     OW31099   7.010   2.771   4.956
10067SOL    HW131100   0.071   2.770   4.902
10067SOL    HW231101   0.007   2.738   5.049
10068SOL     OW31102   1.853   3.550   2.906
10068SOL    HW131103   1.791   3.627   2.921
10068SOL    HW231104   1.809   3.483   2.846
10069SOL     OW31105   2.785   4.656   0.270
10069SOL    HW131106   2.805   4.730   0.335
10069SOL    HW231107   2.762   4.695   0.181
10070SOL     OW31108   4.301   6.658   6.414
10070SOL    HW131109   4.385   6.608   6.393
10070SOL    HW231110   4.321   6.756   6.415
10071SOL     OW31111   6.041   0.444   4.947
10071SOL    HW131112   6.120   0.384   4.933
10071SOL    HW231113   6.060   0.535   4.911
10072SOL     OW31114   6.360   3.259   1.337
10072SOL    HW131115   6.376   3.223   1.429
10072SOL    HW231116   6.417   3.210   1.271
10073SOL     OW31117   5.811   4.582   5.213
10073SOL    HW131118   5.804   4.566   5.311
10073SOL    HW231119   5.722   4.565   5.170
10074SOL     OW31120   1.968   5.169   0.531
10074SOL    HW131121   1.883   5.217   0.511
10074SOL    HW231122   2.039   5.200   0.466
10075SOL     OW31123   1.417   3.405   2.108
10075SOL    HW131124   1.453   3.419   2.015
10075SOL    HW231125   1.324   3.441   2.113
10076SOL     OW31126   5.432   5.197   4.597
10076SOL    HW131127   5.351   5.139   4.599
10076SOL    HW231128   5.512   5.143   4.624
10077SOL     OW31129   5.335   3.933   6.733
10077SOL    HW131130   5.306   3.869   6.805
10077SOL    HW231131   5.408   3.992   6.768
10078SOL     OW31132   6.540   5.265   4.888
10078SOL    HW131133   6.574   5.273   4.794
10078SOL    HW231134   6.501   5.174   4.902
10079SOL     OW31135   5.300   3.616   4.071
10079SOL    HW131136   5.258   3.596   4.159
10079SOL    HW231137   5.348   3.703   4.076
10080SOL     OW31138   5.289   1.521   6.150
10080SOL    HW131139   5.347   1.531   6.069
10080SOL    HW231140   5.194   1.537   6.126
10081SOL     OW31141   1.008   4.605   0.550
10081SOL    HW131142   0.993   4.601   0.649
10081SOL    HW231143   1.096   4.563   0.529
10082SOL     OW31144   1.507   4.725   1.629
10082SOL    HW131145   1.487   4.823   1.627
10082SOL    HW231146   1.482   4.687   1.718
10083SOL     OW31147   3.206   5.857   2.472
10083SOL    HW131148   3.132   5.807   2.427
10083SOL    HW231149   3.169   5.919   2.540
10084SOL     OW31150   0.798   1.683   4.581
10084SOL    HW131151   0.797   1.585   4.561
10084SOL    HW231152   0.705   1.719   4.578
10085SOL     OW31153   5.258   6.795   0.925
10085SOL    HW131154   5.163   6.803   0.954
10085SOL    HW231155   5.300   6.886   0.923
10086SOL     OW31156   4.569   6.962   3.313
10086SOL    HW131157   4.487   6.918   3.351
10086SOL    HW231158   4.647   6.944   3.373
10087SOL     OW31159   1.245   5.750   5.078
10087SOL    HW131160   1.321   5.804   5.114
10087SOL    HW231161   1.163   5.767   5.133
10088SOL     OW31162   6.803   2.939   2.226
10088SOL    HW131163   6.795   3.031   2.265
10088SOL    HW231164   6.755   2.936   2.138
10089SOL     OW31165   3.793   0.570   1.479
10089SOL    HW131166   3.727   0.529   1.416
10089SOL    HW231167   3.819   0.504   1.549
10090SOL     OW31168   2.090   6.480   3.433
10090SOL    HW131169   2.031   6.438   3.502
10090SOL    HW231170   2.049   6.472   3.343
10091SOL     OW31171   6.024   5.070   4.968
10091SOL    HW131172   5.960   5.020   5.026
10091SOL    HW231173   6.101   5.102   5.023
10092SOL     OW31174   1.113   2.341   4.195
10092SOL    HW131175   1.062   2.426   4.203
10092SOL    HW231176   1.208   2.361   4.172
10093SOL     OW31177   4.507   4.131   6.028
10093SOL    HW131178   4.552   4.078   5.956
10093SOL    HW231179   4.447   4.072   6.081
10094SOL     OW31180   3.828   2.171   1.333
10094SOL    HW131181   3.754   2.173   1.400
10094SOL    HW231182   3.878   2.257   1.336
10095SOL     OW31183   4.464   3.157   5.372
10095SOL    HW131184   4.395   3.195   5.434
10095SOL    HW231185   4.443   3.061   5.354
10096SOL     OW31186   0.072   3.365   1.893
10096SOL    HW131187   0.012   3.444   1.906
10096SOL    HW231188   0.043   3.291   1.953
10097SOL     OW31189   0.349   1.714   0.736
10097SOL    HW131190   0.331   1.793   0.677
10097SOL    HW231191   0.314   1.631   0.692
10098SOL     OW31192   3.229   5.188   4.320
10098SOL    HW131193   3.291   5.221   4.392
10098SOL    HW231194   3.173   5.264   4.287
10099SOL     OW31195   0.212   5.046   2.729
10099SOL    HW131196   0.128   5.098   2.743
10099SOL    HW231197   0.264   5.042   2.814
10100SOL     OW31198   5.407   4.533   4.131
10100SOL    HW131199   5.406   4.502   4.036
10100SOL    HW231200   5.413   4.633   4.133
10101SOL     OW31201   6.697   3.248   0.529
10101SOL    HW131202   6.766   3.203   0.585
10101SOL    HW231203   6.662   3.329   0.577
10102SOL     OW31204   6.811   5.244   3.390
10102SOL    HW131205   6.752   5.317   3.358
10102SOL    HW231206   6.835   5.260   3.486
10103SOL     OW31207   0.619   6.349   6.946
10103SOL    HW131208   0.706   6.397   6.935
10103SOL    HW231209   0.621   6.294   0.006
10104SOL     OW31210   2.695   0.604   4.335
10104SOL    HW131211   2.710   0.652   4.422
10104SOL    HW231212   2.620   0.647   4.285
10105SOL     OW31213   2.680   1.336   4.114
10105SOL    HW131214   2.701   1.398   4.038
10105SOL    HW231215   2.705   1.379   4.200
10106SOL     OW31216   5.454   4.458   1.369
10106SOL    HW131217   5.509   4.513   1.307
10106SOL    HW231218   5.510   4.429   1.447
10107SOL     OW31219   5.234   5.540   6.997
10107SOL    HW131220   5.217   5.556   0.071
10107SOL    HW231221   5.158   5.489   6.958
10108SOL     OW31222   2.118   2.718   5.519
10108SOL    HW131223   2.038   2.693   5.574
10108SOL    HW231224   2.118   2.666   5.434
10109SOL     OW31225   0.952   2.156   1.360
10109SOL    HW131226   0.988   2.246   1.381
10109SOL    HW231227   0.921   2.111   1.444
10110SOL     OW31228   5.801   5.701   2.925
10110SOL    HW131229   5.742   5.767   2.972
10110SOL    HW231230   5.863   5.749   2.864
10111SOL     OW31231   0.272   2.788   2.004
10111SOL    HW131232   0.289   2.718   1.935
10111SOL    HW231233   0.237   2.745   2.087
10112SOL     OW31234   6.116   2.852   3.623
10112SOL    HW131235   6.106   2.887   3.530
10112SOL    HW231236   6.028   2.816   3.654
10113SOL     OW31237   5.939   0.569   6.777
10113SOL    HW131238   5.968   0.475   6.756
10113SOL    HW231239   6.014   0.632   6.757
10114SOL     OW31240   6.050   2.918   2.111
10114SOL    HW131241   6.081   2.865   2.032
10114SOL    HW231242   6.058   2.863   2.194
10115SOL     OW31243   3.294   2.293   5.863
10115SOL    HW131244   3.280   2.330   5.955
10115SOL    HW231245   3.392   2.281   5.846
10116SOL     OW31246   0.275   0.293   6.006
10116SOL    HW131247   0.260   0.387   6.036
10116SOL    HW231248   0.295   0.235   6.085
10117SOL     OW31249   6.833   4.064   3.016
10117SOL    HW131250   6.850   3.980   2.964
10117SOL    HW231251   6.765   4.047   3.087
10118SOL     OW31252   3.740   4.926   3.096
10118SOL    HW131253   3.646   4.956   3.078
10118SOL    HW231254   3.766   4.954   3.188
10119SOL     OW31255   6.060   6.243   6.431
10119SOL    HW131256   6.060   6.149   6.396
10119SOL    HW231257   5.995   6.251   6.507
10120SOL     OW31258   2.412   2.191   3.055
10120SOL    HW131259   2.455   2.267   3.006
10120SOL    HW231260   2.470   2.164   3.132
10121SOL     OW31261   0.217   5.082   1.120
10121SOL    HW131262   0.281   5.118   1.188
10121SOL    HW231263   0.165   5.159   1.080
10122SOL     OW31264   2.000   0.279   3.321
10122SOL    HW131265   2.028   0.307   3.413
10122SOL    HW231266   2.078   0.239   3.273
10123SOL     OW31267   0.123   5.859   6.438
10123SOL    HW131268   0.054   5.913   6.485
10123SOL    HW231269   0.210   5.865   6.488
10124SOL     OW31270   2.522   5.463   2.670
10124SOL    HW131271   2.610   5.427   2.640
10124SOL    HW231272   2.454   5.450   2.597
10125SOL     OW31273   0.957   0.532   4.706
10125SOL    HW131274   0.883   0.486   4.755
10125SOL    HW231275   0.923   0.567   4.619
10126SOL     OW31276   6.732   6.232   5.812
10126SOL    HW131277   6.694   6.140   5.796
10126SOL    HW231278   6.779   6.233   5.901
10127SOL     OW31279   2.426   6.730   6.198
10127SOL    HW131280   2.497   6.689   6.141
10127SOL    HW231281   2.369   6.658   6.238
10128SOL     OW31282   2.153   2.795   0.131
10128SOL    HW131283   2.181   2.847   0.212
10128SOL    HW231284   2.209   2.712   0.125
10129SOL     OW31285   6.086   1.855   4.858
10129SOL    HW131286   6.140   1.795   4.917
10129SOL    HW231287   6.000   1.811   4.834
10130SOL     OW31288   0.418   2.078   3.868
10130SOL    HW131289   0.437   1.995   3.815
10130SOL    HW231290   0.452   2.158   3.818
10131SOL     OW31291   2.019   6.274   4.983
10131SOL    HW131292   2.050   6.348   5.043
10131SOL    HW231293   1.973   6.204   5.038
10132SOL     OW31294   5.426   6.594   2.031
10132SOL    HW131295   5.428   6.693   2.039
10132SOL    HW231296   5.489   6.554   2.097
10133SOL     OW31297   5.647   6.068   0.687
10133SOL    HW131298   5.734   6.101   0.725
10133SOL    HW231299   5.666   6.014   0.604
10134SOL     OW31300   0.049   6.910   3.376
10134SOL    HW131301   0.048   6.979   3.449
10134SOL    HW231302   0.044   6.819   3.416
10135SOL     OW31303   5.923   7.020   3.076
10135SOL    HW131304   5.855   0.056   3.119
10135SOL    HW231305   5.937   0.027   2.982
10136SOL     OW31306   4.846   1.291   3.322
10136SOL    HW131307   4.765   1.337   3.286
10136SOL    HW231308   4.924   1.354   3.321
10137SOL     OW31309   6.626   5.353   4.626
10137SOL    HW131310   6.630   5.265   4.579
10137SOL    HW231311   6.685   5.419   4.580
10138SOL     OW31312   6.902   2.695   2.297
10138SOL    HW131313   6.866   2.786   2.278
10138SOL    HW231314   7.002   2.695   2.286
10139SOL     OW31315   2.872   3.039   6.631
10139SOL    HW131316   2.923   2.976   6.574
10139SOL    HW231317   2.909   3.131   6.621
10140SOL     OW31318   0.994   5.740   5.211
10140SOL    HW131319   0.908   5.739   5.158
10140SOL    HW231320   1.013   5.648   5.244
10141SOL     OW31321   2.131   2.850   4.108
10141SOL    HW131322   2.070   2.775   4.085
10141SOL    HW231323   2.186   2.825   4.187
10142SOL     OW31324   4.594   5.983   3.012
10142SOL    HW131325   4.634   5.895   2.987
10142SOL    HW231326   4.617   6.004   3.107
10143SOL     OW31327   5.727   2.859   5.929
10143SOL    HW131328   5.779   2.927   5.982
10143SOL    HW231329   5.773   2.771   5.934
10144SOL     OW31330   3.394   0.108   0.608
10144SOL    HW131331   3.399   0.153   0.518
10144SOL    HW231332   3.298   0.095   0.633
10145SOL     OW31333   6.478   6.937   6.301
10145SOL    HW131334   6.522   6.848   6.309
10145SOL    HW231335   6.522   7.002   6.364
10146SOL     OW31336   1.519   2.950   5.355
10146SOL    HW131337   1.454   2.876   5.338
10146SOL    HW231338   1.471   3.028   5.395
10147SOL     OW31339   3.891   6.076   5.798
10147SOL    HW131340   3.862   6.161   5.752
10147SOL    HW231341   3.991   6.073   5.801
10148SOL     OW31342   0.812   4.415   6.869
10148SOL    HW131343   0.893   4.411   6.928
10148SOL    HW231344   0.799   4.508   6.834
10149SOL     OW31345   3.790   3.675   1.614
10149SOL    HW131346   3.784   3.760   1.666
10149SOL    HW231347   3.779   3.694   1.517
10150SOL     OW31348   4.743   4.146   1.228
10150SOL    HW131349   4.786   4.062   1.260
10150SOL    HW231350   4.767   4.162   1.132
10151SOL     OW31351   6.787   1.059   6.199
10151SOL    HW131352   6.873   1.032   6.242
10151SOL    HW231353   6.748   1.136   6.249
10152SOL     OW31354   3.741   6.732   2.969
10152SOL    HW131355   3.724   6.672   3.047
10152SOL    HW231356   3.835   6.720   2.938
10153SOL     OW31357   4.789   4.166   1.784
10153SOL    HW131358   4.757   4.257   1.759
10153SOL    HW231359   4.759   4.100   1.716
10154SOL     OW31360   3.905   5.185   5.151
10154SOL    HW131361   3.846   5.113   5.114
10154SOL    HW231362   4.001   5.156   5.146
10155SOL     OW31363   4.124   1.314   3.735
10155SOL    HW131364   4.144   1.298   3.832
10155SOL    HW231365   4.179   1.391   3.703
10156SOL     OW31366   4.082   1.524   5.636
10156SOL    HW131367   4.046   1.606   5.681
10156SOL    HW231368   4.159   1.549   5.578
10157SOL     OW31369   0.535   4.499   1.421
10157SOL    HW131370   0.504   4.413   1.460
10157SOL    HW231371   0.477   4.573   1.453
10158SOL     OW31372   5.832   5.282   6.857
10158SOL    HW131373   5.756   5.222   6.829
10158SOL    HW231374   5.805   5.378   6.844
10159SOL     OW31375   3.391   2.945   1.765
10159SOL    HW131376   3.325   3.020   1.775
10159SOL    HW231377   3.471   2.962   1.822
10160SOL     OW31378   7.000   4.270   2.414
10160SOL    HW131379   7.001   4.364   2.447
10160SOL    HW231380   6.950   4.212   2.478
10161SOL     OW31381   5.383   3.125   5.906
10161SOL    HW131382   5.441   3.138   5.986
10161SOL    HW231383   5.378   3.028   5.883
10162SOL     OW31384   1.749   2.998   2.373
10162SOL    HW131385   1.823   3.050   2.330
10162SOL    HW231386   1.688   2.962   2.302
10163SOL     OW31387   2.835   5.136   4.798
10163SOL    HW131388   2.803   5.134   4.704
10163SOL    HW231389   2.800   5.056   4.847
10164SOL     OW31390   6.686   1.283   3.768
10164SOL    HW131391   6.651   1.352   3.830
10164SOL    HW231392   6.741   1.326   3.697
10165SOL     OW31393   1.300   3.850   3.995
10165SOL    HW131394   1.203   3.855   3.973
10165SOL    HW231395   1.313   3.864   4.093
10166SOL     OW31396   2.445   6.207   2.740
10166SOL    HW131397   2.423   6.296   2.779
10166SOL    HW231398   2.413   6.135   2.801
10167SOL     OW31399   2.688   2.193   6.525
10167SOL    HW131400   2.758   2.123   6.536
10167SOL    HW231401   2.617   2.180   6.595
10168SOL     OW31402   6.984   0.021   6.958
10168SOL    HW131403   6.991   0.061   0.027
10168SOL    HW231404   6.891   0.032   6.924
10169SOL     OW31405   4.784   4.838   3.362
10169SOL    HW131406   4.814   4.827   3.268
10169SOL    HW231407   4.783   4.750   3.408
10170SOL     OW31408   5.011   6.089   0.371
10170SOL    HW131409   4.961   6.026   0.430
10170SOL    HW231410   5.099   6.112   0.414
10171SOL     OW31411   2.177   4.669   5.123
10171SOL    HW131412   2.207   4.603   5.192
10171SOL    HW231413   2.164   4.622   5.035
10172SOL     OW31414   6.697   0.792   2.755
10172SOL    HW131415   6.778   0.745   2.720
10172SOL    HW231416   6.660   0.743   2.833
10173SOL     OW31417   3.661   3.486   5.177
10173SOL    HW131418   3.589   3.499   5.244
10173SOL    HW231419   3.620   3.461   5.089
10174SOL     OW31420   4.651   5.499   1.240
10174SOL    HW131421   4.625   5.568   1.306
10174SOL    HW231422   4.724   5.534   1.182
10175SOL     OW31423   6.655   6.643   4.516
10175SOL    HW131424   6.636   6.545   4.513
10175SOL    HW231425   6.586   6.693   4.464
10176SOL     OW31426   0.369   0.464   4.640
10176SOL    HW131427   0.461   0.433   4.618
10176SOL    HW231428   0.374   0.545   4.698
10177SOL     OW31429   2.422   0.711   4.187
10177SOL    HW131430   2.348   0.665   4.236
10177SOL    HW231431   2.426   0.677   4.093
10178SOL     OW31432   0.252   1.922   1.468
10178SOL    HW131433   0.158   1.950   1.487
10178SOL    HW231434   0.293   1.885   1.551
10179SOL     OW31435   0.420   5.657   0.375
10179SOL    HW131436   0.403   5.749   0.339
10179SOL    HW231437   0.348   5.595   0.345
10180SOL     OW31438   3.433   7.007   6.620
10180SOL    HW131439   3.390   6.930   6.666
10180SOL    HW231440   3.523   0.002   6.661
10181SOL     OW31441   6.652   3.619   3.485
10181SOL    HW131442   6.576   3.599   3.547
10181SOL    HW231443   6.633   3.579   3.396
10182SOL     OW31444   3.954   0.791   1.054
10182SOL    HW131445   3.864   0.829   1.036
10182SOL    HW231446   3.994   0.757   0.969
10183SOL     OW31447   4.613   6.457   5.751
10183SOL    HW131448   4.546   6.531   5.750
10183SOL    HW231449   4.683   6.476   5.819
10184SOL     OW31450   5.359   2.052   5.859
10184SOL    HW131451   5.327   1.975   5.915
10184SOL    HW231452   5.423   2.108   5.912
10185SOL     OW31453   3.318   5.140   1.619
10185SOL    HW131454   3.244   5.157   1.683
10185SOL    HW231455   3.404   5.178   1.655
10186SOL     OW31456   3.524   3.240   6.676
10186SOL    HW131457   3.615   3.205   6.699
10186SOL    HW231458   3.460   3.164   6.668
10187SOL     OW31459   1.880   4.180   5.360
10187SOL    HW131460   1.963   4.174   5.414
10187SOL    HW231461   1.882   4.110   5.288
10188SOL     OW31462   2.777   6.529   6.500
10188SOL    HW131463   2.841   6.600   6.469
10188SOL    HW231464   2.803   6.499   6.592
10189SOL     OW31465   2.038   1.481   4.698
10189SOL    HW131466   1.959   1.540   4.709
10189SOL    HW231467   2.099   1.493   4.776
10190SOL     OW31468   4.125   3.952   1.034
10190SOL    HW131469   4.032   3.918   1.017
10190SOL    HW231470   4.146   3.944   1.131
10191SOL     OW31471   5.250   0.602   0.204
10191SOL    HW131472   5.280   0.684   0.156
10191SOL    HW231473   5.283   0.605   0.299
10192SOL     OW31474   1.993   0.841   4.615
10192SOL    HW131475   1.944   0.885   4.541
10192SOL    HW231476   1.975   0.890   4.701
10193SOL     OW31477   3.857   3.448   3.691
10193SOL    HW131478   3.891   3.539   3.714
10193SOL    HW231479   3.933   3.384   3.686
10194SOL     OW31480   3.010   0.480   3.226
10194SOL    HW131481   3.078   0.413   3.256
10194SOL    HW231482   2.925   0.465   3.276
10195SOL     OW31483   5.357   0.339   1.879
10195SOL    HW131484   5.388   0.244   1.886
10195SOL    HW231485   5.394   0.392   1.955
10196SOL     OW31486   5.128   3.594   4.420
10196SOL    HW131487   5.175   3.559   4.501
10196SOL    HW231488   5.030   3.603   4.439
10197SOL     OW31489   5.246   1.501   2.455
10197SOL    HW131490   5.236   1.590   2.411
10197SOL    HW231491   5.158   1.473   2.494
10198SOL     OW31492   2.781   0.830   1.642
10198SOL    HW131493   2.853   0.761   1.640
10198SOL    HW231494   2.799   0.899   1.572
10199SOL     OW31495   0.836   2.241   0.913
10199SOL    HW131496   0.779   2.216   0.991
10199SOL    HW231497   0.779   2.283   0.841
10200SOL     OW31498   5.915   5.638   5.300
10200SOL    HW131499   5.950   5.731   5.310
10200SOL    HW231500   5.981   5.582   5.250
10201SOL     OW31501   1.583   5.209   3.392
10201SOL    HW131502   1.609   5.113   3.407
10201SOL    HW231503   1.486   5.213   3.368
10202SOL     OW31504   0.637   2.459   3.114
10202SOL    HW131505   0.731   2.467   3.147
10202SOL    HW231506   0.577   2.516   3.170
10203SOL     OW31507   1.139   3.133   1.950
10203SOL    HW131508   1.230   3.143   1.991
10203SOL    HW231509   1.147   3.138   1.850
10204SOL     OW31510   3.038   4.952   3.970
10204SOL    HW131511   3.114   4.948   4.035
10204SOL    HW231512   2.961   4.898   4.005
10205SOL     OW31513   4.465   0.609   1.320
10205SOL    HW131514   4.367   0.614   1.304
10205SOL    HW231515   4.487   0.525   1.372
10206SOL     OW31516   5.110   0.313   6.208
10206SOL    HW131517   5.203   0.329   6.175
10206SOL    HW231518   5.047   0.313   6.131
10207SOL     OW31519   3.711   1.281   3.109
10207SOL    HW131520   3.801   1.268   3.068
10207SOL    HW231521   3.721   1.314   3.203
10208SOL     OW31522   6.541   4.087   5.406
10208SOL    HW131523   6.579   4.066   5.497
10208SOL    HW231524   6.494   4.175   5.409
10209SOL     OW31525   5.256   6.684   6.525
10209SOL    HW131526   5.307   6.654   6.605
10209SOL    HW231527   5.319   6.697   6.448
10210SOL     OW31528   5.371   6.052   0.720
10210SOL    HW131529   5.356   6.066   0.818
10210SOL    HW231530   5.469   6.045   0.702
10211SOL     OW31531   3.465   5.693   4.990
10211SOL    HW131532   3.387   5.713   5.049
10211SOL    HW231533   3.541   5.661   5.046
10212SOL     OW31534   6.048   6.293   5.527
10212SOL    HW131535   6.026   6.349   5.447
10212SOL    HW231536   6.022   6.198   5.510
10213SOL     OW31537   4.728   0.745   4.233
10213SOL    HW131538   4.790   0.669   4.215
10213SOL    HW231539   4.670   0.723   4.311
10214SOL     OW31540   6.994   1.319   1.436
10214SOL    HW131541   0.013   1.370   1.361
10214SOL    HW231542   6.908   1.279   1.405
10215SOL     OW31543   3.954   2.937   6.584
10215SOL    HW131544   3.901   2.881   6.648
10215SOL    HW231545   4.048   2.904   6.582
10216SOL     OW31546   4.880   0.100   2.405
10216SOL    HW131547   4.799   0.053   2.443
10216SOL    HW231548   4.868   0.111   2.306
10217SOL     OW31549   2.998   1.854   5.654
10217SOL    HW131550   3.064   1.923   5.686
10217SOL    HW231551   2.982   1.866   5.556
10218SOL     OW31552   2.786   2.230   0.139
10218SOL    HW131553   2.719   2.214   0.066
10218SOL    HW231554   2.782   2.326   0.167
10219SOL     OW31555   0.681   4.746   0.093
10219SOL    HW131556   0.613   4.711   0.157
10219SOL    HW231557   0.751   4.796   0.144
10220SOL     OW31558   4.302   2.941   0.109
10220SOL    HW131559   4.265   3.033   0.128
10220SOL    HW231560   4.301   2.887   0.193
10221SOL     OW31561   3.305   1.220   4.765
10221SOL    HW131562   3.291   1.318   4.748
10221SOL    HW231563   3.223   1.170   4.740
10222SOL     OW31564   1.895   5.304   5.685
10222SOL    HW131565   1.932   5.283   5.594
10222SOL    HW231566   1.798   5.326   5.677
10223SOL     OW31567   6.873   4.417   0.925
10223SOL    HW131568   6.973   4.424   0.915
10223SOL    HW231569   6.843   4.327   0.896
10224SOL     OW31570   2.567   0.349   4.965
10224SOL    HW131571   2.634   0.381   4.899
10224SOL    HW231572   2.519   0.269   4.928
10225SOL     OW31573   4.810   5.850   4.090
10225SOL    HW131574   4.833   5.785   4.162
10225SOL    HW231575   4.796   5.941   4.129
10226SOL     OW31576   0.059   3.070   0.086
10226SOL    HW131577   0.080   2.983   0.129
10226SOL    HW231578   6.988   3.069   0.051
10227SOL     OW31579   5.855   5.808   6.141
10227SOL    HW131580   5.762   5.790   6.109
10227SOL    HW231581   5.881   5.902   6.117
10228SOL     OW31582   1.494   4.154   2.987
10228SOL    HW131583   1.396   4.177   2.994
10228SOL    HW231584   1.538   4.169   3.075
10229SOL     OW31585   1.764   1.426   1.974
10229SOL    HW131586   1.682   1.479   1.955
10229SOL    HW231587   1.844   1.475   1.939
10230SOL     OW31588   6.373   6.434   4.822
10230SOL    HW131589   6.279   6.447   4.851
10230SOL    HW231590   6.406   6.517   4.776
10231SOL     OW31591   4.526   0.008   4.575
10231SOL    HW131592   4.602   6.982   4.535
10231SOL    HW231593   4.461   6.966   4.616
10232SOL     OW31594   4.110   2.093   3.961
10232SOL    HW131595   4.023   2.065   3.921
10232SOL    HW231596   4.150   2.016   4.012
10233SOL     OW31597   5.033   1.230   5.479
10233SOL    HW131598   4.967   1.156   5.492
10233SOL    HW231599   5.119   1.206   5.524
10234SOL     OW31600   4.770   5.978   1.855
10234SOL    HW131601   4.703   5.967   1.929
10234SOL    HW231602   4.724   5.974   1.767
10235SOL     OW31603   4.869   1.502   6.827
10235SOL    HW131604   4.807   1.490   6.749
10235SOL    HW231605   4.898   1.598   6.832
10236SOL     OW31606   2.028   6.210   1.748
10236SOL    HW131607   2.070   6.181   1.834
10236SOL    HW231608   2.098   6.217   1.677
10237SOL     OW31609   5.928   2.663   3.101
10237SOL    HW131610   5.920   2.630   3.195
10237SOL    HW231611   5.861   2.736   3.085
10238SOL     OW31612   4.502   5.798   4.343
10238SOL    HW131613   4.519   5.705   4.311
10238SOL    HW231614   4.404   5.816   4.343
10239SOL     OW31615   6.601   3.708   3.973
10239SOL    HW131616   6.644   3.714   4.063
10239SOL    HW231617   6.537   3.632   3.971
10240SOL     OW31618   5.684   3.764   3.812
10240SOL    HW131619   5.679   3.783   3.910
10240SOL    HW231620   5.597   3.726   3.781
10241SOL     OW31621   1.527   1.478   3.194
10241SOL    HW131622   1.428   1.465   3.195
10241SOL    HW231623   1.562   1.458   3.102
10242SOL     OW31624   0.776   6.310   6.519
10242SOL    HW131625   0.770   6.249   6.598
10242SOL    HW231626   0.872   6.327   6.496
10243SOL     OW31627   1.119   6.381   2.559
10243SOL    HW131628   1.038   6.323   2.571
10243SOL    HW231629   1.155   6.369   2.467
10244SOL     OW31630   1.518   6.031   0.027
10244SOL    HW131631   1.505   6.112   6.994
10244SOL    HW231632   1.584   5.970   7.007
10245SOL     OW31633   1.962   2.408   0.116
10245SOL    HW131634   2.021   2.381   0.040
10245SOL    HW231635   2.005   2.385   0.202
10246SOL     OW31636   3.209   3.747   3.959
10246SOL    HW131637   3.230   3.844   3.970
10246SOL    HW231638   3.279   3.704   3.902
10247SOL     OW31639   1.030   6.028   5.962
10247SOL    HW131640   1.130   6.030   5.962
10247SOL    HW231641   0.997   6.027   5.868
10248SOL     OW31642   4.408   0.933   2.876
10248SOL    HW131643   4.449   0.844   2.855
10248SOL    HW231644   4.446   0.968   2.961
10249SOL     OW31645   5.013   0.991   6.904
10249SOL    HW131646   4.976   1.051   6.833
10249SOL    HW231647   4.937   0.944   6.950
10250SOL     OW31648   5.159   0.197   0.396
10250SOL    HW131649   5.209   0.219   0.312
10250SOL    HW231650   5.078   0.256   0.403
10251SOL     OW31651   3.528   4.441   6.832
10251SOL    HW131652   3.453   4.503   6.808
10251SOL    HW231653   3.611   4.468   6.783
10252SOL     OW31654   6.060   5.412   2.218
10252SOL    HW131655   6.004   5.331   2.234
10252SOL    HW231656   6.015   5.492   2.257
10253SOL     OW31657   3.895   4.831   6.722
10253SOL    HW131658   3.898   4.842   6.821
10253SOL    HW231659   3.800   4.820   6.692
10254SOL     OW31660   2.076   1.530   4.265
10254SOL    HW131661   2.098   1.455   4.326
10254SOL    HW231662   1.979   1.551   4.270
10255SOL     OW31663   3.041   5.433   3.093
10255SOL    HW131664   2.958   5.378   3.088
10255SOL    HW231665   3.026   5.520   3.046
10256SOL     OW31666   5.965   6.491   6.862
10256SOL    HW131667   5.881   6.441   6.839
10256SOL    HW231668   5.950   6.589   6.851
10257SOL     OW31669   2.227   6.661   6.544
10257SOL    HW131670   2.307   6.671   6.604
10257SOL    HW231671   2.226   6.570   6.504
10258SOL     OW31672   4.380   0.134   3.443
10258SOL    HW131673   4.429   0.195   3.380
10258SOL    HW231674   4.426   0.134   3.532
10259SOL     OW31675   0.975   3.545   4.024
10259SOL    HW131676   1.048   3.496   4.072
10259SOL    HW231677   0.981   3.643   4.044
10260SOL     OW31678   0.256   6.337   1.201
10260SOL    HW131679   0.276   6.435   1.196
10260SOL    HW231680   0.237   6.302   1.109
10261SOL     OW31681   2.292   6.854   1.202
10261SOL    HW131682   2.243   6.936   1.232
10261SOL    HW231683   2.387   6.859   1.234
10262SOL     OW31684   0.900   5.388   5.036
10262SOL    HW131685   0.958   5.310   5.011
10262SOL    HW231686   0.956   5.458   5.080
10263SOL     OW31687   6.562   2.127   5.474
10263SOL    HW131688   6.548   2.037   5.435
10263SOL    HW231689   6.579   2.119   5.573
10264SOL     OW31690   0.541   6.577   0.095
10264SOL    HW131691   0.514   6.500   0.038
10264SOL    HW231692   0.634   6.605   0.070
10265SOL     OW31693   4.104   2.237   2.024
10265SOL    HW131694   4.092   2.143   1.994
10265SOL    HW231695   4.068   2.247   2.117
10266SOL     OW31696   4.305   4.011   6.159
10266SOL    HW131697   4.237   4.083   6.141
10266SOL    HW231698   4.311   3.995   6.257
10267SOL     OW31699   0.045   1.729   6.376
10267SOL    HW131700   0.083   1.652   6.428
10267SOL    HW231701   0.103   1.809   6.390
10268SOL     OW31702   6.374   4.785   1.976
10268SOL    HW131703   6.418   4.705   1.935
10268SOL    HW231704   6.310   4.756   2.047
10269SOL     OW31705   3.011   2.512   6.176
10269SOL    HW131706   3.035   2.604   6.206
10269SOL    HW231707   3.036   2.500   6.080
10270SOL     OW31708   3.217   6.611   1.132
10270SOL    HW131709   3.251   6.705   1.128
10270SOL    HW231710   3.291   6.547   1.114
10271SOL     OW31711   3.350   5.002   0.505
10271SOL    HW131712   3.292   4.944   0.563
10271SOL    HW231713   3.340   4.975   0.409
10272SOL     OW31714   0.975   1.289   5.409
10272SOL    HW131715   0.919   1.236   5.346
10272SOL    HW231716   1.058   1.319   5.363
10273SOL     OW31717   3.869   6.456   3.702
10273SOL    HW131718   3.841   6.360   3.697
10273SOL    HW231719   3.897   6.478   3.796
10274SOL     OW31720   2.050   5.726   6.031
10274SOL    HW131721   2.148   5.710   6.038
10274SOL    HW231722   2.032   5.802   5.969
10275SOL     OW31723   1.057   6.757   2.038
10275SOL    HW131724   0.978   6.811   2.008
10275SOL    HW231725   1.093   6.794   2.123
10276SOL     OW31726   6.724   6.495   0.236
10276SOL    HW131727   6.646   6.432   0.245
10276SOL    HW231728   6.804   6.444   0.202
10277SOL     OW31729   1.130   5.829   2.295
10277SOL    HW131730   1.031   5.819   2.295
10277SOL    HW231731   1.166   5.812   2.387
10278SOL     OW31732   6.449   0.424   6.463
10278SOL    HW131733   6.469   0.356   6.392
10278SOL    HW231734   6.354   0.455   6.455
10279SOL     OW31735   3.680   5.944   3.511
10279SOL    HW131736   3.657   5.901   3.424
10279SOL    HW231737   3.617   6.019   3.530
10280SOL     OW31738   3.341   2.625   6.184
10280SOL    HW131739   3.279   2.701   6.203
10280SOL    HW231740   3.434   2.661   6.169
10281SOL     OW31741   3.794   6.758   4.012
10281SOL    HW131742   3.851   6.826   3.965
10281SOL    HW231743   3.704   6.754   3.969
10282SOL     OW31744   1.045   2.653   4.960
10282SOL    HW131745   1.008   2.661   4.867
10282SOL    HW231746   1.123   2.591   4.959
10283SOL     OW31747   1.607   3.282   5.565
10283SOL    HW131748   1.579   3.187   5.554
10283SOL    HW231749   1.705   3.286   5.587
10284SOL     OW31750   5.442   3.055   6.600
10284SOL    HW131751   5.436   3.085   6.505
10284SOL    HW231752   5.374   2.983   6.617
10285SOL     OW31753   6.130   0.105   0.627
10285SOL    HW131754   6.227   0.114   0.602
10285SOL    HW231755   6.079   0.067   0.550
10286SOL     OW31756   4.238   0.712   4.186
10286SOL    HW131757   4.138   0.720   4.196
10286SOL    HW231758   4.271   0.785   4.127
10287SOL     OW31759   1.599   4.975   1.264
10287SOL    HW131760   1.642   4.886   1.280
10287SOL    HW231761   1.662   5.033   1.212
10288SOL     OW31762   4.968   6.313   4.084
10288SOL    HW131763   4.973   6.274   3.992
10288SOL    HW231764   4.998   6.408   4.082
10289SOL     OW31765   2.821   1.475   1.549
10289SOL    HW131766   2.736   1.498   1.503
10289SOL    HW231767   2.802   1.446   1.643
10290SOL     OW31768   2.933   3.640   2.030
10290SOL    HW131769   2.990   3.704   2.082
10290SOL    HW231770   2.898   3.570   2.092
10291SOL     OW31771   4.383   0.435   5.627
10291SOL    HW131772   4.436   0.361   5.669
10291SOL    HW231773   4.446   0.507   5.597
10292SOL     OW31774   7.006   0.599   4.712
10292SOL    HW131775   0.033   0.517   4.685
10292SOL    HW231776   0.013   0.677   4.657
10293SOL     OW31777   2.812   5.943   2.988
10293SOL    HW131778   2.713   5.951   2.993
10293SOL    HW231779   2.851   6.029   2.957
10294SOL     OW31780   5.865   1.766   3.002
10294SOL    HW131781   5.921   1.815   2.936
10294SOL    HW231782   5.821   1.687   2.957
10295SOL     OW31783   1.709   4.395   4.925
10295SOL    HW131784   1.717   4.391   5.024
10295SOL    HW231785   1.754   4.315   4.884
10296SOL     OW31786   6.507   2.426   0.672
10296SOL    HW131787   6.537   2.511   0.628
10296SOL    HW231788   6.430   2.446   0.734
10297SOL     OW31789   2.382   5.587   4.996
10297SOL    HW131790   2.289   5.577   4.960
10297SOL    HW231791   2.386   5.549   5.089
10298SOL     OW31792   5.524   3.932   3.176
10298SOL    HW131793   5.602   3.885   3.137
10298SOL    HW231794   5.490   3.881   3.255
10299SOL     OW31795   5.028   4.058   2.158
10299SOL    HW131796   5.020   4.072   2.257
10299SOL    HW231797   4.951   4.100   2.112
10300SOL     OW31798   2.093   5.465   2.120
10300SOL    HW131799   2.045   5.389   2.076
10300SOL    HW231800   2.119   5.532   2.050
10301SOL     OW31801   5.377   1.524   1.483
10301SOL    HW131802   5.279   1.516   1.501
10301SOL    HW231803   5.395   1.506   1.386
10302SOL     OW31804   1.340   5.357   3.537
10302SOL    HW131805   1.378   5.446   3.562
10302SOL    HW231806   1.338   5.348   3.437
10303SOL     OW31807   3.703   3.358   1.358
10303SOL    HW131808   3.778   3.333   1.418
10303SOL    HW231809   3.679   3.280   1.300
10304SOL     OW31810   6.116   6.660   3.915
10304SOL    HW131811   6.138   6.572   3.874
10304SOL    HW231812   6.188   6.685   3.980
10305SOL     OW31813   1.845   5.171   1.184
10305SOL    HW131814   1.945   5.170   1.194
10305SOL    HW231815   1.806   5.237   1.249
10306SOL     OW31816   4.373   4.731   0.351
10306SOL    HW131817   4.415   4.821   0.341
10306SOL    HW231818   4.329   4.724   0.440
10307SOL     OW31819   3.290   0.806   5.496
10307SOL    HW131820   3.249   0.871   5.559
10307SOL    HW231821   3.267   0.713   5.524
10308SOL     OW31822   2.968   5.362   3.916
10308SOL    HW131823   3.051   5.327   3.872
10308SOL    HW231824   2.889   5.307   3.886
10309SOL     OW31825   0.359   6.286   3.254
10309SOL    HW131826   0.277   6.229   3.251
10309SOL    HW231827   0.430   6.246   3.195
10310SOL     OW31828   3.017   3.322   4.489
10310SOL    HW131829   2.976   3.339   4.579
10310SOL    HW231830   2.974   3.382   4.421
10311SOL     OW31831   0.593   6.398   1.092
10311SOL    HW131832   0.509   6.411   1.039
10311SOL    HW231833   0.571   6.361   1.182
10312SOL     OW31834   2.309   4.207   0.751
10312SOL    HW131835   2.323   4.211   0.850
10312SOL    HW231836   2.274   4.295   0.718
10313SOL     OW31837   6.318   6.193   3.956
10313SOL    HW131838   6.230   6.184   4.003
10313SOL    HW231839   6.329   6.118   3.891
10314SOL     OW31840   6.578   5.044   5.829
10314SOL    HW131841   6.551   4.948   5.840
10314SOL    HW231842   6.650   5.065   5.895
10315SOL     OW31843   5.480   6.274   5.339
10315SOL    HW131844   5.447   6.308   5.427
10315SOL    HW231845   5.577   6.249   5.347
10316SOL     OW31846   0.137   3.843   3.004
10316SOL    HW131847   0.041   3.815   3.005
10316SOL    HW231848   0.179   3.827   3.093
10317SOL     OW31849   4.037   4.620   0.366
10317SOL    HW131850   3.944   4.606   0.397
10317SOL    HW231851   4.093   4.654   0.441
10318SOL     OW31852   6.605   5.656   2.239
10318SOL    HW131853   6.556   5.670   2.153
10318SOL    HW231854   6.544   5.674   2.315
10319SOL     OW31855   4.913   6.145   4.454
10319SOL    HW131856   4.891   6.124   4.359
10319SOL    HW231857   4.857   6.089   4.514
10320SOL     OW31858   4.570   6.244   1.583
10320SOL    HW131859   4.525   6.297   1.654
10320SOL    HW231860   4.653   6.292   1.553
10321SOL     OW31861   3.640   0.051   3.748
10321SOL    HW131862   3.722   7.020   3.768
10321SOL    HW231863   3.590   0.010   3.672
10322SOL     OW31864   0.120   2.609   0.243
10322SOL    HW131865   0.100   2.547   0.167
10322SOL    HW231866   0.176   2.561   0.311
10323SOL     OW31867   6.886   1.974   4.946
10323SOL    HW131868   6.787   1.965   4.958
10323SOL    HW231869   6.920   2.053   4.997
10324SOL     OW31870   3.219   2.973   3.878
10324SOL    HW131871   3.317   2.949   3.875
10324SOL    HW231872   3.188   2.972   3.973
10325SOL     OW31873   0.573   3.696   3.335
10325SOL    HW131874   0.560   3.705   3.434
10325SOL    HW231875   0.566   3.787   3.293
10326SOL     OW31876   4.858   1.471   1.048
10326SOL    HW131877   4.907   1.405   0.991
10326SOL    HW231878   4.779   1.506   0.998
10327SOL     OW31879   6.940   0.923   3.328
10327SOL    HW131880   6.948   1.003   3.269
10327SOL    HW231881   6.844   0.908   3.353
10328SOL     OW31882   6.081   3.204   2.370
10328SOL    HW131883   6.181   3.201   2.374
10328SOL    HW231884   6.044   3.142   2.439
10329SOL     OW31885   3.706   6.294   2.933
10329SOL    HW131886   3.658   6.266   3.016
10329SOL    HW231887   3.786   6.236   2.919
10330SOL     OW31888   3.386   4.294   1.114
10330SOL    HW131889   3.449   4.254   1.180
10330SOL    HW231890   3.334   4.221   1.068
10331SOL     OW31891   5.485   0.501   4.393
10331SOL    HW131892   5.465   0.566   4.466
10331SOL    HW231893   5.401   0.454   4.365
10332SOL     OW31894   0.439   1.540   0.351
10332SOL    HW131895   0.437   1.503   0.259
10332SOL    HW231896   0.347   1.540   0.390
10333SOL     OW31897   5.075   4.488   5.075
10333SOL    HW131898   5.094   4.436   4.991
10333SOL    HW231899   5.132   4.452   5.149
10334SOL     OW31900   1.087   5.175   4.977
10334SOL    HW131901   1.169   5.180   5.034
10334SOL    HW231902   1.109   5.210   4.885
10335SOL     OW31903   2.622   5.551   1.739
10335SOL    HW131904   2.602   5.649   1.730
10335SOL    HW231905   2.721   5.538   1.733
10336SOL     OW31906   4.457   6.230   3.039
10336SOL    HW131907   4.544   6.185   3.018
10336SOL    HW231908   4.444   6.307   2.976
10337SOL     OW31909   1.226   4.884   5.212
10337SOL    HW131910   1.158   4.887   5.139
10337SOL    HW231911   1.184   4.849   5.295
10338SOL     OW31912   3.499   5.063   3.020
10338SOL    HW131913   3.545   5.150   3.036
10338SOL    HW231914   3.484   5.051   2.921
10339SOL     OW31915   3.180   5.372   0.203
10339SOL    HW131916   3.109   5.399   0.138
10339SOL    HW231917   3.137   5.350   0.291
10340SOL     OW31918   2.124   6.678   0.159
10340SOL    HW131919   2.183   6.606   0.196
10340SOL    HW231920   2.143   6.690   0.062
10341SOL     OW31921   0.961   2.395   2.498
10341SOL    HW131922   0.877   2.343   2.514
10341SOL    HW231923   0.960   2.479   2.553
10342SOL     OW31924   3.036   6.287   3.588
10342SOL    HW131925   3.102   6.248   3.524
10342SOL    HW231926   2.970   6.217   3.615
10343SOL     OW31927   2.219   2.963   3.598
10343SOL    HW131928   2.162   2.945   3.518
10343SOL    HW231929   2.182   3.040   3.649
10344SOL     OW31930   4.210   3.706   0.755
10344SOL    HW131931   4.220   3.678   0.851
10344SOL    HW231932   4.285   3.767   0.730
10345SOL     OW31933   1.884   1.456   5.263
10345SOL    HW131934   1.908   1.499   5.350
10345SOL    HW231935   1.906   1.518   5.188
10346SOL     OW31936   5.842   4.588   0.768
10346SOL    HW131937   5.752   4.597   0.809
10346SOL    HW231938   5.896   4.670   0.788
10347SOL     OW31939   4.935   0.644   1.917
10347SOL    HW131940   4.977   0.566   1.870
10347SOL    HW231941   4.861   0.681   1.861
10348SOL     OW31942   6.608   4.686   5.948
10348SOL    HW131943   6.649   4.724   6.031
10348SOL    HW231944   6.525   4.738   5.925
10349SOL     OW31945   6.798   2.087   1.055
10349SOL    HW131946   6.818   2.096   0.958
10349SOL    HW231947   6.870   2.132   1.108
10350SOL     OW31948   2.095   4.621   4.844
10350SOL    HW131949   2.160   4.631   4.769
10350SOL    HW231950   2.002   4.612   4.807
10351SOL     OW31951   4.314   4.650   4.188
10351SOL    HW131952   4.287   4.690   4.101
10351SOL    HW231953   4.294   4.552   4.188
10352SOL     OW31954   6.396   1.218   6.915
10352SOL    HW131955   6.364   1.256   6.828
10352SOL    HW231956   6.489   1.251   6.933
10353SOL     OW31957   6.279   2.500   3.772
10353SOL    HW131958   6.324   2.447   3.699
10353SOL    HW231959   6.195   2.541   3.737
10354SOL     OW31960   6.416   2.784   1.511
10354SOL    HW131961   6.378   2.691   1.512
10354SOL    HW231962   6.371   2.837   1.439
10355SOL     OW31963   0.943   1.411   0.903
10355SOL    HW131964   1.018   1.477   0.910
10355SOL    HW231965   0.926   1.390   0.807
10356SOL     OW31966   5.944   3.258   5.536
10356SOL    HW131967   5.867   3.201   5.508
10356SOL    HW231968   5.946   3.265   5.636
10357SOL     OW31969   1.748   0.581   5.978
10357SOL    HW131970   1.695   0.566   5.895
10357SOL    HW231971   1.691   0.626   6.047
10358SOL     OW31972   0.475   3.251   3.093
10358SOL    HW131973   0.563   3.218   3.058
10358SOL    HW231974   0.480   3.350   3.109
10359SOL     OW31975   6.684   2.291   2.363
10359SOL    HW131976   6.672   2.390   2.374
10359SOL    HW231977   6.677   2.267   2.267
10360SOL     OW31978   5.618   4.238   1.536
10360SOL    HW131979   5.694   4.272   1.482
10360SOL    HW231980   5.653   4.188   1.616
10361SOL     OW31981   6.371   2.338   2.412
10361SOL    HW131982   6.272   2.340   2.426
10361SOL    HW231983   6.405   2.246   2.432
10362SOL     OW31984   1.267   6.085   1.566
10362SOL    HW131985   1.296   6.053   1.656
10362SOL    HW231986   1.299   6.178   1.551
10363SOL     OW31987   5.444   4.249   6.488
10363SOL    HW131988   5.369   4.315   6.491
10363SOL    HW231989   5.521   4.283   6.543
10364SOL     OW31990   5.727   4.999   2.492
10364SOL    HW131991   5.787   4.938   2.543
10364SOL    HW231992   5.632   4.972   2.507
10365SOL     OW31993   5.924   5.060   0.695
10365SOL    HW131994   5.951   5.002   0.773
10365SOL    HW231995   5.965   5.024   0.611
10366SOL     OW31996   3.458   6.104   3.598
10366SOL    HW131997   3.409   6.070   3.517
10366SOL    HW231998   3.406   6.083   3.680
10367SOL     OW31999   5.357   6.053   1.782
10367SOL    HW132000   5.451   6.080   1.764
10367SOL    HW232001   5.294   6.116   1.736
10368SOL     OW32002   2.019   6.480   1.618
10368SOL    HW132003   1.982   6.388   1.628
10368SOL    HW232004   2.035   6.499   1.521
10369SOL     OW32005   2.593   6.948   6.129
10369SOL    HW132006   2.532   6.889   6.181
10369SOL    HW232007   2.593   6.920   6.033
10370SOL     OW32008   1.599   1.021   4.972
10370SOL    HW132009   1.688   1.048   5.009
10370SOL    HW232010   1.610   0.942   4.912
10371SOL     OW32011   4.599   5.264   2.452
10371SOL    HW132012   4.512   5.311   2.433
10371SOL    HW232013   4.581   5.173   2.487
10372SOL     OW32014   2.277   6.595   1.089
10372SOL    HW132015   2.293   6.690   1.113
10372SOL    HW232016   2.217   6.591   1.008
10373SOL     OW32017   6.575   1.648   6.284
10373SOL    HW132018   6.671   1.673   6.297
10373SOL    HW232019   6.555   1.640   6.186
10374SOL     OW32020   3.092   5.209   3.460
10374SOL    HW132021   2.997   5.180   3.451
10374SOL    HW232022   3.116   5.269   3.384
10375SOL     OW32023   2.842   4.872   0.423
10375SOL    HW132024   2.764   4.927   0.392
10375SOL    HW232025   2.926   4.926   0.414
10376SOL     OW32026   2.035   5.060   4.436
10376SOL    HW132027   2.095   4.981   4.422
10376SOL    HW232028   2.080   5.126   4.495
10377SOL     OW32029   1.864   0.911   2.622
10377SOL    HW132030   1.819   0.943   2.706
10377SOL    HW232031   1.912   0.987   2.579
10378SOL     OW32032   0.156   5.634   3.860
10378SOL    HW132033   0.255   5.624   3.864
10378SOL    HW232034   0.121   5.588   3.779
10379SOL     OW32035   2.060   0.304   4.176
10379SOL    HW132036   1.983   0.306   4.240
10379SOL    HW232037   2.043   0.368   4.101
10380SOL     OW32038   3.000   2.213   4.134
10380SOL    HW132039   2.925   2.234   4.196
10380SOL    HW232040   2.985   2.257   4.046
10381SOL     OW32041   4.132   6.415   2.388
10381SOL    HW132042   4.139   6.484   2.317
10381SOL    HW232043   4.185   6.334   2.363
10382SOL     OW32044   3.926   5.495   1.005
10382SOL    HW132045   3.921   5.396   0.989
10382SOL    HW232046   4.021   5.523   1.009
10383SOL     OW32047   1.110   5.098   0.426
10383SOL    HW132048   1.210   5.108   0.428
10383SOL    HW232049   1.085   5.035   0.353
10384SOL     OW32050   5.239   5.881   1.138
10384SOL    HW132051   5.186   5.799   1.120
10384SOL    HW232052   5.281   5.875   1.229
10385SOL     OW32053   4.405   4.331   0.453
10385SOL    HW132054   4.334   4.326   0.523
10385SOL    HW232055   4.364   4.354   0.365
10386SOL     OW32056   6.900   0.980   0.904
10386SOL    HW132057   6.939   1.015   0.819
10386SOL    HW232058   6.933   1.035   0.981
10387SOL     OW32059   5.254   3.548   1.781
10387SOL    HW132060   5.271   3.639   1.745
10387SOL    HW232061   5.324   3.526   1.849
10388SOL     OW32062   2.091   6.650   5.635
10388SOL    HW132063   2.096   6.750   5.627
10388SOL    HW232064   2.174   6.610   5.595
10389SOL     OW32065   0.640   4.193   6.880
10389SOL    HW132066   0.683   4.283   6.880
10389SOL    HW232067   0.547   4.200   6.845
10390SOL     OW32068   2.523   2.414   2.058
10390SOL    HW132069   2.559   2.402   1.965
10390SOL    HW232070   2.572   2.353   2.121
10391SOL     OW32071   5.486   6.900   4.052
10391SOL    HW132072   5.554   6.973   4.058
10391SOL    HW232073   5.400   6.931   4.091
10392SOL     OW32074   6.615   3.394   4.460
10392SOL    HW132075   6.634   3.463   4.390
10392SOL    HW232076   6.600   3.440   4.548
10393SOL     OW32077   1.565   3.542   3.956
10393SOL    HW132078   1.607   3.616   4.010
10393SOL    HW232079   1.636   3.479   3.924
10394SOL     OW32080   3.250   0.508   4.366
10394SOL    HW132081   3.198   0.566   4.304
10394SOL    HW232082   3.294   0.435   4.315
10395SOL     OW32083   1.369   0.577   0.955
10395SOL    HW132084   1.282   0.602   0.913
10395SOL    HW232085   1.432   0.544   0.885
10396SOL     OW32086   2.991   2.217   4.586
10396SOL    HW132087   3.014   2.241   4.680
10396SOL    HW232088   2.916   2.151   4.586
10397SOL     OW32089   4.333   2.003   3.569
10397SOL    HW132090   4.262   1.933   3.579
10397SOL    HW232091   4.304   2.088   3.613
10398SOL     OW32092   6.100   3.008   1.485
10398SOL    HW132093   6.030   3.077   1.470
10398SOL    HW232094   6.155   2.997   1.402
10399SOL     OW32095   1.012   3.958   1.802
10399SOL    HW132096   1.001   3.871   1.753
10399SOL    HW232097   1.110   3.975   1.816
10400SOL     OW32098   3.305   5.851   0.602
10400SOL    HW132099   3.350   5.821   0.686
10400SOL    HW232100   3.329   5.790   0.527
10401SOL     OW32101   0.564   1.639   5.905
10401SOL    HW132102   0.556   1.548   5.946
10401SOL    HW232103   0.483   1.657   5.848
10402SOL     OW32104   0.319   2.610   5.264
10402SOL    HW132105   0.268   2.661   5.333
10402SOL    HW232106   0.293   2.514   5.266
10403SOL     OW32107   3.499   0.617   1.570
10403SOL    HW132108   3.455   0.706   1.559
10403SOL    HW232109   3.599   0.628   1.570
10404SOL     OW32110   0.069   6.675   6.357
10404SOL    HW132111   0.071   6.611   6.434
10404SOL    HW232112   0.146   6.738   6.363
10405SOL     OW32113   0.443   2.493   6.572
10405SOL    HW132114   0.429   2.591   6.555
10405SOL    HW232115   0.392   2.466   6.654
10406SOL     OW32116   2.661   4.974   1.353
10406SOL    HW132117   2.640   4.971   1.451
10406SOL    HW232118   2.600   5.039   1.308
10407SOL     OW32119   2.773   6.968   6.979
10407SOL    HW132120   2.708   6.945   0.028
10407SOL    HW232121   2.730   0.007   6.914
10408SOL     OW32122   4.025   1.556   6.910
10408SOL    HW132123   3.942   1.604   6.884
10408SOL    HW232124   4.088   1.620   6.955
10409SOL     OW32125   6.389   4.619   1.597
10409SOL    HW132126   6.293   4.647   1.589
10409SOL    HW232127   6.413   4.613   1.694
10410SOL     OW32128   5.540   0.327   0.793
10410SOL    HW132129   5.555   0.271   0.711
10410SOL    HW232130   5.455   0.380   0.782
10411SOL     OW32131   2.501   5.527   3.383
10411SOL    HW132132   2.588   5.506   3.339
10411SOL    HW232133   2.425   5.488   3.330
10412SOL     OW32134   6.673   0.549   0.614
10412SOL    HW132135   6.735   0.550   0.535
10412SOL    HW232136   6.641   0.455   0.630
10413SOL     OW32137   0.167   2.864   1.306
10413SOL    HW132138   0.227   2.876   1.385
10413SOL    HW232139   0.187   2.776   1.262
10414SOL     OW32140   4.603   2.655   4.363
10414SOL    HW132141   4.688   2.707   4.357
10414SOL    HW232142   4.576   2.625   4.271
10415SOL     OW32143   0.475   6.319   5.989
10415SOL    HW132144   0.484   6.242   6.052
10415SOL    HW232145   0.391   6.308   5.935
10416SOL     OW32146   5.663   2.607   4.310
10416SOL    HW132147   5.627   2.563   4.228
10416SOL    HW232148   5.658   2.544   4.387
10417SOL     OW32149   2.615   4.711   4.185
10417SOL    HW132150   2.589   4.656   4.264
10417SOL    HW232151   2.538   4.716   4.121
10418SOL     OW32152   0.894   4.795   5.804
10418SOL    HW132153   0.906   4.742   5.720
10418SOL    HW232154   0.860   4.736   5.877
10419SOL     OW32155   1.403   1.363   1.027
10419SOL    HW132156   1.428   1.380   0.931
10419SOL    HW232157   1.487   1.355   1.081
10420SOL     OW32158   0.158   3.325   3.954
10420SOL    HW132159   0.131   3.417   3.984
10420SOL    HW232160   0.197   3.330   3.862
10421SOL     OW32161   0.193   0.755   2.703
10421SOL    HW132162   0.193   0.742   2.802
10421SOL    HW232163   0.134   0.832   2.680
10422SOL     OW32164   6.270   3.202   6.378
10422SOL    HW132165   6.303   3.295   6.359
10422SOL    HW232166   6.197   3.207   6.446
10423SOL     OW32167   5.480   4.548   3.361
10423SOL    HW132168   5.545   4.491   3.412
10423SOL    HW232169   5.392   4.548   3.407
10424SOL     OW32170   4.970   1.988   6.591
10424SOL    HW132171   4.955   2.065   6.530
10424SOL    HW232172   4.977   2.020   6.686
10425SOL     OW32173   2.192   6.496   2.253
10425SOL    HW132174   2.140   6.434   2.194
10425SOL    HW232175   2.222   6.575   2.199
10426SOL     OW32176   6.599   4.089   6.731
10426SOL    HW132177   6.649   4.123   6.810
10426SOL    HW232178   6.553   4.003   6.754
10427SOL     OW32179   4.981   1.771   6.877
10427SOL    HW132180   4.974   1.869   6.889
10427SOL    HW232181   5.077   1.743   6.883
10428SOL     OW32182   4.586   0.395   4.034
10428SOL    HW132183   4.498   0.440   4.046
10428SOL    HW232184   4.633   0.388   4.122
10429SOL     OW32185   6.340   5.882   1.783
10429SOL    HW132186   6.358   5.979   1.766
10429SOL    HW232187   6.286   5.844   1.708
10430SOL     OW32188   4.088   6.337   2.644
10430SOL    HW132189   4.096   6.374   2.551
10430SOL    HW232190   4.001   6.364   2.683
10431SOL     OW32191   2.861   0.680   4.826
10431SOL    HW132192   2.835   0.584   4.811
10431SOL    HW232193   2.872   0.696   4.924
10432SOL     OW32194   5.864   0.659   5.605
10432SOL    HW132195   5.783   0.607   5.578
10432SOL    HW232196   5.937   0.643   5.539
10433SOL     OW32197   2.412   6.441   0.474
10433SOL    HW132198   2.334   6.428   0.535
10433SOL    HW232199   2.379   6.457   0.381
10434SOL     OW32200   2.003   1.080   3.871
10434SOL    HW132201   1.916   1.090   3.920
10434SOL    HW232202   1.984   1.055   3.775
10435SOL     OW32203   4.994   6.522   6.774
10435SOL    HW132204   5.000   6.423   6.772
10435SOL    HW232205   5.086   6.561   6.781
10436SOL     OW32206   1.085   5.862   2.893
10436SOL    HW132207   1.052   5.918   2.969
10436SOL    HW232208   1.182   5.881   2.877
10437SOL     OW32209   6.851   4.960   6.229
10437SOL    HW132210   6.944   4.937   6.255
10437SOL    HW232211   6.827   5.050   6.266
10438SOL     OW32212   3.656   6.321   6.937
10438SOL    HW132213   3.563   6.287   6.919
10438SOL    HW232214   3.684   6.295   0.006
10439SOL     OW32215   4.127   6.885   5.957
10439SOL    HW132216   4.051   6.944   5.928
10439SOL    HW232217   4.111   6.852   6.050
10440SOL     OW32218   2.173   5.508   0.574
10440SOL    HW132219   2.091   5.507   0.631
10440SOL    HW232220   2.254   5.510   0.633
10441SOL     OW32221   5.192   1.856   6.647
10441SOL    HW132222   5.190   1.827   6.743
10441SOL    HW232223   5.106   1.902   6.625
10442SOL     OW32224   4.130   5.170   5.606
10442SOL    HW132225   4.033   5.177   5.583
10442SOL    HW232226   4.170   5.262   5.606
10443SOL     OW32227   6.053   2.807   4.944
10443SOL    HW132228   6.098   2.851   5.022
10443SOL    HW232229   5.985   2.870   4.905
10444SOL     OW32230   3.986   4.991   4.052
10444SOL    HW132231   4.057   5.022   3.990
10444SOL    HW232232   3.916   4.940   4.001
10445SOL     OW32233   6.674   6.202   4.985
10445SOL    HW132234   6.687   6.131   5.054
10445SOL    HW232235   6.616   6.167   4.911
10446SOL     OW32236   1.259   5.274   6.498
10446SOL    HW132237   1.248   5.181   6.534
10446SOL    HW232238   1.205   5.284   6.415
10447SOL     OW32239   6.174   2.483   1.600
10447SOL    HW132240   6.259   2.453   1.556
10447SOL    HW232241   6.097   2.463   1.540
10448SOL     OW32242   3.724   4.019   2.656
10448SOL    HW132243   3.627   4.019   2.682
10448SOL    HW232244   3.756   3.925   2.647
10449SOL     OW32245   2.212   5.305   4.010
10449SOL    HW132246   2.205   5.376   4.080
10449SOL    HW232247   2.161   5.225   4.038
10450SOL     OW32248   6.948   2.597   1.020
10450SOL    HW132249   6.919   2.645   0.937
10450SOL    HW232250   6.894   2.630   1.098
10451SOL     OW32251   2.265   4.225   3.077
10451SOL    HW132252   2.292   4.128   3.073
10451SOL    HW232253   2.306   4.274   3.000
10452SOL     OW32254   0.823   2.874   4.836
10452SOL    HW132255   0.789   2.787   4.872
10452SOL    HW232256   0.753   2.945   4.850
10453SOL     OW32257   4.856   0.089   1.703
10453SOL    HW132258   4.875   0.070   1.607
10453SOL    HW232259   4.935   0.062   1.758
10454SOL     OW32260   4.889   3.428   2.288
10454SOL    HW132261   4.864   3.524   2.297
10454SOL    HW232262   4.893   3.403   2.191
10455SOL     OW32263   6.811   4.770   3.571
10455SOL    HW132264   6.879   4.807   3.508
10455SOL    HW232265   6.796   4.834   3.646
10456SOL     OW32266   4.361   5.978   0.715
10456SOL    HW132267   4.394   5.892   0.754
10456SOL    HW232268   4.268   5.996   0.748
10457SOL     OW32269   3.941   3.848   4.196
10457SOL    HW132270   3.970   3.789   4.272
10457SOL    HW232271   3.919   3.939   4.230
10458SOL     OW32272   0.485   0.140   1.349
10458SOL    HW132273   0.484   0.040   1.344
10458SOL    HW232274   0.573   0.171   1.385
10459SOL     OW32275   6.651   5.212   2.575
10459SOL    HW132276   6.629   5.237   2.669
10459SOL    HW232277   6.612   5.123   2.554
10460SOL     OW32278   1.916   5.503   2.335
10460SOL    HW132279   1.940   5.481   2.241
10460SOL    HW232280   1.986   5.467   2.397
10461SOL     OW32281   2.680   1.922   6.892
10461SOL    HW132282   2.620   1.863   6.946
10461SOL    HW232283   2.666   1.903   6.795
10462SOL     OW32284   6.835   0.058   1.106
10462SOL    HW132285   6.880   0.038   1.019
10462SOL    HW232286   6.788   6.999   1.138
10463SOL     OW32287   3.002   3.889   0.738
10463SOL    HW132288   2.920   3.914   0.789
10463SOL    HW232289   3.043   3.972   0.699
10464SOL     OW32290   5.487   0.466   1.580
10464SOL    HW132291   5.545   0.385   1.590
10464SOL    HW232292   5.462   0.478   1.484
10465SOL     OW32293   6.117   4.557   6.197
10465SOL    HW132294   6.208   4.586   6.167
10465SOL    HW232295   6.125   4.508   6.284
10466SOL     OW32296   4.936   5.804   5.769
10466SOL    HW132297   4.988   5.726   5.805
10466SOL    HW232298   4.842   5.777   5.753
10467SOL     OW32299   3.693   0.646   4.167
10467SOL    HW132300   3.723   0.655   4.262
10467SOL    HW232301   3.618   0.710   4.150
10468SOL     OW32302   3.733   6.028   2.673
10468SOL    HW132303   3.829   6.053   2.682
10468SOL    HW232304   3.724   5.929   2.669
10469SOL     OW32305   1.261   4.792   0.626
10469SOL    HW132306   1.263   4.761   0.531
10469SOL    HW232307   1.318   4.874   0.635
10470SOL     OW32308   3.066   1.812   4.111
10470SOL    HW132309   3.045   1.816   4.209
10470SOL    HW232310   2.980   1.809   4.059
10471SOL     OW32311   3.705   3.533   0.537
10471SOL    HW132312   3.674   3.620   0.575
10471SOL    HW232313   3.795   3.510   0.574
10472SOL     OW32314   4.694   1.196   2.608
10472SOL    HW132315   4.690   1.149   2.697
10472SOL    HW232316   4.716   1.129   2.536
10473SOL     OW32317   4.644   5.770   0.703
10473SOL    HW132318   4.689   5.714   0.773
10473SOL    HW232319   4.705   5.846   0.678
10474SOL     OW32320   4.176   0.172   4.677
10474SOL    HW132321   4.118   0.247   4.707
10474SOL    HW232322   4.202   0.186   4.581
10475SOL     OW32323   4.072   6.192   1.482
10475SOL    HW132324   4.170   6.212   1.475
10475SOL    HW232325   4.055   6.134   1.562
10476SOL     OW32326   0.101   4.784   0.803
10476SOL    HW132327   0.181   4.813   0.750
10476SOL    HW232328   0.132   4.740   0.887
10477SOL     OW32329   5.604   4.549   5.002
10477SOL    HW132330   5.660   4.503   4.934
10477SOL    HW232331   5.585   4.642   4.972
10478SOL     OW32332   0.646   6.742   1.464
10478SOL    HW132333   0.676   6.647   1.468
10478SOL    HW232334   0.725   6.803   1.455
10479SOL     OW32335   1.500   4.926   3.571
10479SOL    HW132336   1.465   4.867   3.644
10479SOL    HW232337   1.454   4.903   3.485
10480SOL     OW32338   6.046   6.863   1.988
10480SOL    HW132339   6.124   6.920   1.961
10480SOL    HW232340   5.975   6.866   1.917
10481SOL     OW32341   2.317   0.606   4.959
10481SOL    HW132342   2.401   0.629   5.008
10481SOL    HW232343   2.253   0.561   5.021
10482SOL     OW32344   1.126   5.336   6.225
10482SOL    HW132345   1.223   5.326   6.201
10482SOL    HW232346   1.093   5.424   6.191
10483SOL     OW32347   0.017   5.277   1.056
10483SOL    HW132348   6.951   5.251   1.093
10483SOL    HW232349   0.010   5.368   1.013
10484SOL     OW32350   6.264   2.055   1.525
10484SOL    HW132351   6.173   2.091   1.508
10484SOL    HW232352   6.260   1.955   1.528
10485SOL     OW32353   3.675   3.881   3.839
10485SOL    HW132354   3.632   3.970   3.824
10485SOL    HW232355   3.645   3.844   3.927
10486SOL     OW32356   5.948   6.024   5.497
10486SOL    HW132357   5.895   5.940   5.500
10486SOL    HW232358   5.925   6.074   5.413
10487SOL     OW32359   4.796   2.202   2.050
10487SOL    HW132360   4.743   2.230   2.131
10487SOL    HW232361   4.817   2.104   2.057
10488SOL     OW32362   6.411   2.363   5.297
10488SOL    HW132363   6.374   2.384   5.206
10488SOL    HW232364   6.478   2.433   5.323
10489SOL     OW32365   5.955   4.060   4.645
10489SOL    HW132366   5.968   4.159   4.645
10489SOL    HW232367   6.044   4.015   4.640
10490SOL     OW32368   5.856   6.277   6.598
10490SOL    HW132369   5.765   6.239   6.617
10490SOL    HW232370   5.869   6.360   6.653
10491SOL     OW32371   1.973   2.422   5.609
10491SOL    HW132372   1.961   2.331   5.648
10491SOL    HW232373   2.062   2.428   5.564
10492SOL     OW32374   3.660   6.959   6.758
10492SOL    HW132375   3.743   6.988   6.805
10492SOL    HW232376   3.684   6.899   6.682
10493SOL     OW32377   3.591   5.330   1.530
10493SOL    HW132378   3.593   5.263   1.604
10493SOL    HW232379   3.682   5.335   1.487
10494SOL     OW32380   1.178   4.572   4.925
10494SOL    HW132381   1.115   4.590   4.849
10494SOL    HW232382   1.200   4.474   4.927
10495SOL     OW32383   6.655   6.735   0.895
10495SOL    HW132384   6.633   6.669   0.967
10495SOL    HW232385   6.741   6.781   0.917
10496SOL     OW32386   0.782   3.099   6.096
10496SOL    HW132387   0.699   3.132   6.140
10496SOL    HW232388   0.807   3.160   6.021
10497SOL     OW32389   2.107   0.198   1.596
10497SOL    HW132390   2.203   0.170   1.600
10497SOL    HW232391   2.088   0.261   1.672
10498SOL     OW32392   4.879   4.428   0.254
10498SOL    HW132393   4.824   4.471   0.182
10498SOL    HW232394   4.838   4.341   0.280
10499SOL     OW32395   5.783   4.251   2.530
10499SOL    HW132396   5.688   4.262   2.558
10499SOL    HW232397   5.790   4.181   2.459
10500SOL     OW32398   0.850   3.431   5.582
10500SOL    HW132399   0.937   3.383   5.569
10500SOL    HW232400   0.865   3.529   5.572
10501SOL     OW32401   3.981   4.862   2.969
10501SOL    HW132402   4.038   4.789   3.007
10501SOL    HW232403   3.893   4.863   3.017
10502SOL     OW32404   3.363   3.671   2.245
10502SOL    HW132405   3.330   3.651   2.338
10502SOL    HW232406   3.463   3.680   2.246
10503SOL     OW32407   0.109   2.550   6.169
10503SOL    HW132408   0.110   2.580   6.074
10503SOL    HW232409   0.148   2.459   6.176
10504SOL     OW32410   0.984   3.024   5.770
10504SOL    HW132411   0.935   3.110   5.785
10504SOL    HW232412   0.918   2.952   5.744
10505SOL     OW32413   5.976   6.873   0.982
10505SOL    HW132414   6.046   6.901   0.916
10505SOL    HW232415   5.907   6.818   0.934
10506SOL     OW32416   1.268   2.799   6.571
10506SOL    HW132417   1.235   2.892   6.587
10506SOL    HW232418   1.241   2.741   6.648
10507SOL     OW32419   1.254   5.276   5.845
10507SOL    HW132420   1.300   5.273   5.934
10507SOL    HW232421   1.295   5.208   5.784
10508SOL     OW32422   1.977   5.251   5.441
10508SOL    HW132423   1.935   5.175   5.390
10508SOL    HW232424   1.984   5.331   5.381
10509SOL     OW32425   4.603   2.486   2.095
10509SOL    HW132426   4.632   2.537   2.176
10509SOL    HW232427   4.513   2.519   2.066
10510SOL     OW32428   5.678   6.184   3.877
10510SOL    HW132429   5.740   6.106   3.887
10510SOL    HW232430   5.637   6.206   3.966
10511SOL     OW32431   4.698   1.916   1.675
10511SOL    HW132432   4.639   1.936   1.753
10511SOL    HW232433   4.733   2.002   1.637
10512SOL     OW32434   4.713   0.959   5.056
10512SOL    HW132435   4.652   1.001   5.124
10512SOL    HW232436   4.681   0.982   4.964
10513SOL     OW32437   4.124   2.763   0.745
10513SOL    HW132438   4.223   2.777   0.741
10513SOL    HW232439   4.090   2.794   0.833
10514SOL     OW32440   1.470   3.474   1.846
10514SOL    HW132441   1.417   3.398   1.809
10514SOL    HW232442   1.455   3.555   1.790
10515SOL     OW32443   2.353   2.738   4.815
10515SOL    HW132444   2.325   2.655   4.863
10515SOL    HW232445   2.430   2.780   4.863
10516SOL     OW32446   4.275   2.202   1.415
10516SOL    HW132447   4.312   2.197   1.508
10516SOL    HW232448   4.226   2.117   1.395
10517SOL     OW32449   0.851   2.696   2.479
10517SOL    HW132450   0.886   2.755   2.406
10517SOL    HW232451   0.926   2.671   2.540
10518SOL     OW32452   0.619   5.205   2.794
10518SOL    HW132453   0.548   5.263   2.835
10518SOL    HW232454   0.689   5.185   2.862
10519SOL     OW32455   3.821   6.810   0.877
10519SOL    HW132456   3.878   6.871   0.822
10519SOL    HW232457   3.763   6.864   0.938
10520SOL     OW32458   0.984   2.712   5.625
10520SOL    HW132459   0.897   2.754   5.652
10520SOL    HW232460   1.038   2.776   5.572
10521SOL     OW32461   6.523   3.037   2.798
10521SOL    HW132462   6.504   2.946   2.835
10521SOL    HW232463   6.587   3.029   2.721
10522SOL     OW32464   5.275   2.256   3.613
10522SOL    HW132465   5.309   2.350   3.605
10522SOL    HW232466   5.322   2.198   3.546
10523SOL     OW32467   1.201   4.483   3.490
10523SOL    HW132468   1.178   4.389   3.465
10523SOL    HW232469   1.176   4.544   3.415
10524SOL     OW32470   6.885   6.321   5.319
10524SOL    HW132471   6.851   6.349   5.229
10524SOL    HW232472   6.969   6.268   5.307
10525SOL     OW32473   5.202   1.469   3.557
10525SOL    HW132474   5.191   1.564   3.584
10525SOL    HW232475   5.263   1.422   3.621
10526SOL     OW32476   0.823   4.699   6.830
10526SOL    HW132477   0.915   4.738   6.836
10526SOL    HW232478   0.770   4.728   6.910
10527SOL     OW32479   0.766   6.934   5.449
10527SOL    HW132480   0.822   6.871   5.503
10527SOL    HW232481   0.670   6.918   5.469
10528SOL     OW32482   1.245   3.520   5.639
10528SOL    HW132483   1.243   3.605   5.586
10528SOL    HW232484   1.325   3.522   5.700
10529SOL     OW32485   6.942   5.756   0.531
10529SOL    HW132486   6.963   5.723   0.623
10529SOL    HW232487   6.940   5.679   0.467
10530SOL     OW32488   6.796   6.092   1.324
10530SOL    HW132489   6.813   6.079   1.227
10530SOL    HW232490   6.839   6.178   1.354
10531SOL     OW32491   2.955   3.009   5.318
10531SOL    HW132492   2.873   3.058   5.288
10531SOL    HW232493   2.941   2.975   5.410
10532SOL     OW32494   5.043   6.260   6.770
10532SOL    HW132495   5.100   6.246   6.850
10532SOL    HW232496   5.070   6.195   6.698
10533SOL     OW32497   4.136   0.208   2.939
10533SOL    HW132498   4.078   0.127   2.938
10533SOL    HW232499   4.145   0.244   2.846
10534SOL     OW32500   1.365   5.738   4.299
10534SOL    HW132501   1.316   5.664   4.252
10534SOL    HW232502   1.442   5.769   4.242
10535SOL     OW32503   3.541   2.121   2.715
10535SOL    HW132504   3.537   2.021   2.713
10535SOL    HW232505   3.634   2.150   2.736
10536SOL     OW32506   4.834   3.091   4.766
10536SOL    HW132507   4.818   3.182   4.730
10536SOL    HW232508   4.872   3.098   4.858
10537SOL     OW32509   2.977   0.081   4.092
10537SOL    HW132510   2.914   0.155   4.065
10537SOL    HW232511   2.957   7.022   4.039
10538SOL     OW32512   0.314   3.662   2.873
10538SOL    HW132513   0.242   3.716   2.916
10538SOL    HW232514   0.313   3.569   2.910
10539SOL     OW32515   6.607   0.119   3.606
10539SOL    HW132516   6.528   0.058   3.596
10539SOL    HW232517   6.663   0.088   3.683
10540SOL     OW32518   1.535   4.530   6.345
10540SOL    HW132519   1.449   4.520   6.397
10540SOL    HW232520   1.519   4.589   6.266
10541SOL     OW32521   3.209   3.344   5.265
10541SOL    HW132522   3.277   3.409   5.299
10541SOL    HW232523   3.252   3.254   5.252
10542SOL     OW32524   4.898   0.099   3.683
10542SOL    HW132525   4.936   0.161   3.614
10542SOL    HW232526   4.798   0.101   3.678
10543SOL     OW32527   1.159   3.441   4.709
10543SOL    HW132528   1.211   3.355   4.702
10543SOL    HW232529   1.093   3.446   4.634
10544SOL     OW32530   2.156   1.354   3.292
10544SOL    HW132531   2.235   1.416   3.286
10544SOL    HW232532   2.174   1.273   3.237
10545SOL     OW32533   2.167   2.851   2.459
10545SOL    HW132534   2.093   2.795   2.497
10545SOL    HW232535   2.157   2.856   2.359
10546SOL     OW32536   3.017   6.655   6.455
10546SOL    HW132537   2.986   6.746   6.426
10546SOL    HW232538   3.077   6.664   6.534
10547SOL     OW32539   4.677   6.671   5.440
10547SOL    HW132540   4.606   6.697   5.505
10547SOL    HW232541   4.637   6.654   5.350
10548SOL     OW32542   6.756   6.301   3.033
10548SOL    HW132543   6.834   6.364   3.034
10548SOL    HW232544   6.687   6.332   3.097
10549SOL     OW32545   6.912   0.035   1.695
10549SOL    HW132546   6.880   7.023   1.783
10549SOL    HW232547   6.863   0.119   1.673
10550SOL     OW32548   4.756   6.018   3.230
10550SOL    HW132549   4.800   5.964   3.302
10550SOL    HW232550   4.800   6.108   3.224
10551SOL     OW32551   3.196   0.559   5.534
10551SOL    HW132552   3.196   0.500   5.454
10551SOL    HW232553   3.140   0.517   5.606
10552SOL     OW32554   2.959   0.585   3.813
10552SOL    HW132555   2.859   0.591   3.821
10552SOL    HW232556   2.994   0.529   3.888
10553SOL     OW32557   6.687   5.646   1.314
10553SOL    HW132558   6.667   5.701   1.395
10553SOL    HW232559   6.772   5.677   1.273
10554SOL     OW32560   5.579   6.334   2.729
10554SOL    HW132561   5.631   6.256   2.764
10554SOL    HW232562   5.533   6.308   2.644
10555SOL     OW32563   3.634   3.227   1.062
10555SOL    HW132564   3.612   3.318   1.026
10555SOL    HW232565   3.659   3.167   0.986
10556SOL     OW32566   2.024   1.334   2.466
10556SOL    HW132567   1.965   1.371   2.393
10556SOL    HW232568   2.020   1.234   2.463
10557SOL     OW32569   2.840   4.761   3.303
10557SOL    HW132570   2.938   4.779   3.308
10557SOL    HW232571   2.824   4.662   3.307
10558SOL     OW32572   3.390   5.200   4.978
10558SOL    HW132573   3.420   5.108   4.954
10558SOL    HW232574   3.367   5.204   5.076
10559SOL     OW32575   4.400   6.465   1.281
10559SOL    HW132576   4.326   6.420   1.332
10559SOL    HW232577   4.373   6.474   1.185
10560SOL     OW32578   5.552   6.744   2.587
10560SOL    HW132579   5.637   6.729   2.537
10560SOL    HW232580   5.573   6.786   2.676
10561SOL     OW32581   6.497   4.655   0.420
10561SOL    HW132582   6.577   4.713   0.405
10561SOL    HW232583   6.430   4.673   0.348
10562SOL     OW32584   4.671   5.707   2.035
10562SOL    HW132585   4.659   5.805   2.043
10562SOL    HW232586   4.703   5.670   2.123
10563SOL     OW32587   0.391   6.859   2.164
10563SOL    HW132588   0.375   6.914   2.247
10563SOL    HW232589   0.318   6.876   2.098
10564SOL     OW32590   5.046   4.067   3.612
10564SOL    HW132591   4.947   4.068   3.597
10564SOL    HW232592   5.066   4.020   3.697
10565SOL     OW32593   0.543   1.014   5.964
10565SOL    HW132594   0.636   1.011   6.003
10565SOL    HW232595   0.484   1.067   6.025
10566SOL     OW32596   3.811   2.688   6.976
10566SOL    HW132597   3.901   2.726   6.995
10566SOL    HW232598   3.748   2.711   0.027
10567SOL     OW32599   1.944   2.255   6.481
10567SOL    HW132600   1.889   2.173   6.495
10567SOL    HW232601   2.007   2.240   6.405
10568SOL     OW32602   4.548   2.400   6.092
10568SOL    HW132603   4.598   2.486   6.082
10568SOL    HW232604   4.471   2.414   6.155
10569SOL     OW32605   5.531   7.009   0.256
10569SOL    HW132606   5.476   6.957   0.323
10569SOL    HW232607   5.542   0.080   0.288
10570SOL     OW32608   1.127   4.225   3.417
10570SOL    HW132609   1.060   4.183   3.355
10570SOL    HW232610   1.218   4.192   3.394
10571SOL     OW32611   6.347   4.315   5.622
10571SOL    HW132612   6.396   4.380   5.680
10571SOL    HW232613   6.370   4.333   5.526
10572SOL     OW32614   6.154   4.241   1.153
10572SOL    HW132615   6.221   4.228   1.227
10572SOL    HW232616   6.194   4.210   1.067
10573SOL     OW32617   6.250   2.179   3.073
10573SOL    HW132618   6.327   2.243   3.064
10573SOL    HW232619   6.235   2.134   2.985
10574SOL     OW32620   5.903   3.112   2.588
10574SOL    HW132621   5.945   3.051   2.655
10574SOL    HW232622   5.832   3.063   2.538
10575SOL     OW32623   6.145   6.409   2.061
10575SOL    HW132624   6.152   6.315   2.026
10575SOL    HW232625   6.215   6.424   2.131
10576SOL     OW32626   1.763   4.292   4.471
10576SOL    HW132627   1.849   4.282   4.521
10576SOL    HW232628   1.722   4.202   4.459
10577SOL     OW32629   3.499   4.071   0.627
10577SOL    HW132630   3.416   4.036   0.583
10577SOL    HW232631   3.555   4.118   0.559
10578SOL     OW32632   0.355   3.680   4.103
10578SOL    HW132633   0.365   3.774   4.071
10578SOL    HW232634   0.430   3.625   4.068
10579SOL     OW32635   0.577   3.457   6.413
10579SOL    HW132636   0.619   3.540   6.451
10579SOL    HW232637   0.528   3.408   6.486
10580SOL     OW32638   6.169   6.976   0.175
10580SOL    HW132639   6.242   6.911   0.197
10580SOL    HW232640   6.209   0.039   0.143
10581SOL     OW32641   4.429   0.270   3.058
10581SOL    HW132642   4.362   0.197   3.042
10581SOL    HW232643   4.440   0.284   3.156
10582SOL     OW32644   6.217   3.917   6.154
10582SOL    HW132645   6.300   3.904   6.100
10582SOL    HW232646   6.238   3.973   6.234
10583SOL     OW32647   3.022   1.931   4.963
10583SOL    HW132648   3.082   1.961   5.037
10583SOL    HW232649   2.930   1.915   4.998
10584SOL     OW32650   1.125   6.892   3.696
10584SOL    HW132651   1.208   6.850   3.734
10584SOL    HW232652   1.130   6.893   3.596
10585SOL     OW32653   1.296   0.525   5.427
10585SOL    HW132654   1.361   0.592   5.390
10585SOL    HW232655   1.203   0.550   5.400
10586SOL     OW32656   4.081   4.161   5.253
10586SOL    HW132657   4.102   4.138   5.348
10586SOL    HW232658   4.125   4.248   5.229
10587SOL     OW32659   2.010   5.065   5.749
10587SOL    HW132660   1.987   5.018   5.663
10587SOL    HW232661   1.960   5.151   5.753
10588SOL     OW32662   1.462   3.968   3.569
10588SOL    HW132663   1.375   3.991   3.526
10588SOL    HW232664   1.454   3.880   3.616
10589SOL     OW32665   5.555   6.220   4.118
10589SOL    HW132666   5.628   6.237   4.184
10589SOL    HW232667   5.487   6.293   4.123
10590SOL     OW32668   0.673   5.272   2.100
10590SOL    HW132669   0.748   5.279   2.166
10590SOL    HW232670   0.678   5.184   2.053
10591SOL     OW32671   6.884   3.151   1.642
10591SOL    HW132672   6.812   3.189   1.701
10591SOL    HW232673   6.843   3.120   1.556
10592SOL     OW32674   6.928   1.231   4.759
10592SOL    HW132675   6.954   1.325   4.780
10592SOL    HW232676   6.886   1.227   4.668
10593SOL     OW32677   3.259   5.367   3.262
10593SOL    HW132678   3.180   5.416   3.226
10593SOL    HW232679   3.307   5.322   3.187
10594SOL     OW32680   2.972   5.424   3.628
10594SOL    HW132681   3.045   5.373   3.581
10594SOL    HW232682   2.918   5.362   3.683
10595SOL     OW32683   5.000   6.927   0.547
10595SOL    HW132684   4.962   6.909   0.456
10595SOL    HW232685   4.979   6.850   0.607
10596SOL     OW32686   5.265   3.457   0.131
10596SOL    HW132687   5.319   3.465   0.215
10596SOL    HW232688   5.312   3.394   0.068
10597SOL     OW32689   1.944   6.767   4.850
10597SOL    HW132690   1.853   6.727   4.835
10597SOL    HW232691   2.007   6.696   4.880
10598SOL     OW32692   2.782   1.217   6.226
10598SOL    HW132693   2.763   1.222   6.128
10598SOL    HW232694   2.701   1.183   6.274
10599SOL     OW32695   0.204   2.220   0.225
10599SOL    HW132696   0.179   2.262   0.312
10599SOL    HW232697   0.202   2.289   0.153
10600SOL     OW32698   3.479   2.007   1.544
10600SOL    HW132699   3.450   2.094   1.584
10600SOL    HW232700   3.565   1.978   1.586
10601SOL     OW32701   1.899   0.881   5.539
10601SOL    HW132702   1.967   0.843   5.602
10601SOL    HW232703   1.902   0.981   5.544
10602SOL     OW32704   0.206   6.821   1.393
10602SOL    HW132705   0.140   6.855   1.459
10602SOL    HW232706   0.252   6.740   1.428
10603SOL     OW32707   5.588   0.709   2.497
10603SOL    HW132708   5.634   0.620   2.492
10603SOL    HW232709   5.603   0.759   2.411
10604SOL     OW32710   4.939   0.064   4.685
10604SOL    HW132711   4.850   0.042   4.726
10604SOL    HW232712   4.959   0.161   4.700
10605SOL     OW32713   2.679   1.823   1.610
10605SOL    HW132714   2.640   1.754   1.548
10605SOL    HW232715   2.759   1.864   1.567
10606SOL     OW32716   6.310   1.055   0.117
10606SOL    HW132717   6.334   1.122   0.046
10606SOL    HW232718   6.244   1.096   0.180
10607SOL     OW32719   3.097   4.507   6.767
10607SOL    HW132720   3.163   4.527   6.840
10607SOL    HW232721   3.046   4.424   6.791
10608SOL     OW32722   5.838   4.069   4.044
10608SOL    HW132723   5.753   4.020   4.061
10608SOL    HW232724   5.914   4.017   4.083
10609SOL     OW32725   5.336   1.066   6.690
10609SOL    HW132726   5.397   1.128   6.739
10609SOL    HW232727   5.344   1.083   6.591
10610SOL     OW32728   0.253   1.400   3.617
10610SOL    HW132729   0.226   1.313   3.575
10610SOL    HW232730   0.336   1.434   3.573
10611SOL     OW32731   3.901   5.715   4.975
10611SOL    HW132732   3.892   5.617   4.991
10611SOL    HW232733   3.994   5.735   4.942
10612SOL     OW32734   5.855   2.168   3.267
10612SOL    HW132735   5.792   2.208   3.334
10612SOL    HW232736   5.895   2.241   3.211
10613SOL     OW32737   4.283   6.307   4.466
10613SOL    HW132738   4.236   6.372   4.407
10613SOL    HW232739   4.216   6.242   4.503
10614SOL     OW32740   4.078   1.747   6.266
10614SOL    HW132741   4.009   1.797   6.214
10614SOL    HW232742   4.054   1.748   6.363
10615SOL     OW32743   2.052   1.718   5.335
10615SOL    HW132744   2.119   1.770   5.389
10615SOL    HW232745   2.093   1.692   5.248
10616SOL     OW32746   1.798   6.233   0.054
10616SOL    HW132747   1.784   6.136   0.037
10616SOL    HW232748   1.715   6.283   0.028
10617SOL     OW32749   2.067   3.204   1.281
10617SOL    HW132750   2.092   3.228   1.187
10617SOL    HW232751   2.126   3.254   1.345
10618SOL     OW32752   1.096   5.252   3.559
10618SOL    HW132753   1.188   5.290   3.548
10618SOL    HW232754   1.054   5.290   3.641
10619SOL     OW32755   1.447   2.451   2.741
10619SOL    HW132756   1.504   2.369   2.742
10619SOL    HW232757   1.434   2.481   2.646
10620SOL     OW32758   3.274   1.050   6.163
10620SOL    HW132759   3.293   1.125   6.099
10620SOL    HW232760   3.191   1.071   6.214
10621SOL     OW32761   1.053   3.963   3.065
10621SOL    HW132762   1.000   3.890   3.108
10621SOL    HW232763   1.150   3.949   3.083
10622SOL     OW32764   4.307   1.629   6.821
10622SOL    HW132765   4.389   1.672   6.782
10622SOL    HW232766   4.248   1.598   6.748
10623SOL     OW32767   4.845   6.860   6.085
10623SOL    HW132768   4.936   6.895   6.106
10623SOL    HW232769   4.851   6.763   6.062
10624SOL     OW32770   0.888   2.043   0.501
10624SOL    HW132771   0.814   2.108   0.518
10624SOL    HW232772   0.866   1.955   0.543
10625SOL     OW32773   5.737   5.177   0.306
10625SOL    HW132774   5.696   5.265   0.331
10625SOL    HW232775   5.797   5.189   0.228
10626SOL     OW32776   5.583   3.247   1.223
10626SOL    HW132777   5.594   3.244   1.323
10626SOL    HW232778   5.620   3.333   1.188
10627SOL     OW32779   5.593   5.410   5.416
10627SOL    HW132780   5.526   5.480   5.441
10627SOL    HW232781   5.683   5.437   5.449
10628SOL     OW32782   3.458   6.853   0.432
10628SOL    HW132783   3.523   6.812   0.496
10628SOL    HW232784   3.502   6.868   0.344
10629SOL     OW32785   3.705   5.633   4.397
10629SOL    HW132786   3.606   5.631   4.381
10629SOL    HW232787   3.729   5.564   4.464
10630SOL     OW32788   4.057   1.121   1.578
10630SOL    HW132789   4.107   1.037   1.556
10630SOL    HW232790   4.094   1.197   1.524
10631SOL     OW32791   3.743   5.975   1.011
10631SOL    HW132792   3.757   5.927   1.097
10631SOL    HW232793   3.832   6.006   0.975
10632SOL     OW32794   5.107   6.135   3.454
10632SOL    HW132795   5.174   6.196   3.496
10632SOL    HW232796   5.020   6.142   3.503
10633SOL     OW32797   1.788   3.343   1.040
10633SOL    HW132798   1.776   3.317   1.136
10633SOL    HW232799   1.883   3.373   1.025
10634SOL     OW32800   0.168   3.997   0.096
10634SOL    HW132801   0.183   3.914   0.149
10634SOL    HW232802   0.241   4.063   0.116
10635SOL     OW32803   2.213   4.979   6.225
10635SOL    HW132804   2.147   5.040   6.181
10635SOL    HW232805   2.164   4.911   6.280
10636SOL     OW32806   6.786   2.159   6.953
10636SOL    HW132807   6.761   2.107   0.012
10636SOL    HW232808   6.856   2.109   6.903
10637SOL     OW32809   2.416   0.392   0.004
10637SOL    HW132810   2.396   0.294   0.012
10637SOL    HW232811   2.438   0.414   6.932
10638SOL     OW32812   5.684   5.256   1.384
10638SOL    HW132813   5.684   5.158   1.404
10638SOL    HW232814   5.656   5.270   1.289
10639SOL     OW32815   0.897   5.414   1.905
10639SOL    HW132816   0.839   5.487   1.869
10639SOL    HW232817   0.845   5.328   1.906
10640SOL     OW32818   4.299   6.513   3.239
10640SOL    HW132819   4.359   6.500   3.318
10640SOL    HW232820   4.353   6.514   3.155
10641SOL     OW32821   1.238   1.429   3.561
10641SOL    HW132822   1.329   1.389   3.568
10641SOL    HW232823   1.207   1.457   3.652
10642SOL     OW32824   6.640   2.926   6.024
10642SOL    HW132825   6.556   2.900   6.073
10642SOL    HW232826   6.688   2.996   6.077
10643SOL     OW32827   2.608   5.082   6.001
10643SOL    HW132828   2.691   5.093   5.946
10643SOL    HW232829   2.529   5.116   5.950
10644SOL     OW32830   6.559   3.304   2.898
10644SOL    HW132831   6.538   3.214   2.859
10644SOL    HW232832   6.480   3.338   2.948
10645SOL     OW32833   2.507   2.420   2.901
10645SOL    HW132834   2.430   2.484   2.902
10645SOL    HW232835   2.534   2.402   2.806
10646SOL     OW32836   5.492   0.776   3.380
10646SOL    HW132837   5.558   0.837   3.423
10646SOL    HW232838   5.446   0.722   3.449
10647SOL     OW32839   3.500   5.471   4.758
10647SOL    HW132840   3.484   5.526   4.841
10647SOL    HW232841   3.458   5.380   4.771
10648SOL     OW32842   4.655   4.497   5.800
10648SOL    HW132843   4.669   4.591   5.832
10648SOL    HW232844   4.565   4.466   5.829
10649SOL     OW32845   6.276   3.689   2.919
10649SOL    HW132846   6.306   3.646   2.833
10649SOL    HW232847   6.235   3.619   2.978
10650SOL     OW32848   0.911   0.102   3.755
10650SOL    HW132849   0.831   0.056   3.716
10650SOL    HW232850   0.992   0.044   3.744
10651SOL     OW32851   3.379   6.186   5.955
10651SOL    HW132852   3.441   6.125   5.905
10651SOL    HW232853   3.410   6.281   5.944
10652SOL     OW32854   2.169   0.552   0.081
10652SOL    HW132855   2.106   0.475   0.072
10652SOL    HW232856   2.256   0.530   0.037
10653SOL     OW32857   4.385   5.996   4.727
10653SOL    HW132858   4.319   5.999   4.652
10653SOL    HW232859   4.399   5.901   4.755
10654SOL     OW32860   6.281   1.612   4.362
10654SOL    HW132861   6.363   1.669   4.359
10654SOL    HW232862   6.204   1.664   4.324
10655SOL     OW32863   0.019   4.508   1.908
10655SOL    HW132864   0.047   4.423   1.952
10655SOL    HW232865   6.963   4.492   1.849
10656SOL     OW32866   5.871   2.871   3.829
10656SOL    HW132867   5.793   2.934   3.833
10656SOL    HW232868   5.840   2.782   3.795
10657SOL     OW32869   5.015   6.619   4.371
10657SOL    HW132870   4.959   6.538   4.388
10657SOL    HW232871   4.970   6.678   4.305
10658SOL     OW32872   0.882   2.590   5.183
10658SOL    HW132873   0.938   2.593   5.100
10658SOL    HW232874   0.914   2.658   5.248
10659SOL     OW32875   0.878   5.652   0.551
10659SOL    HW132876   0.898   5.625   0.646
10659SOL    HW232877   0.901   5.749   0.539
10660SOL     OW32878   5.725   3.110   5.420
10660SOL    HW132879   5.647   3.169   5.439
10660SOL    HW232880   5.694   3.015   5.410
10661SOL     OW32881   2.642   4.878   5.769
10661SOL    HW132882   2.693   4.955   5.806
10661SOL    HW232883   2.703   4.821   5.715
10662SOL     OW32884   2.839   1.272   1.791
10662SOL    HW132885   2.939   1.268   1.784
10662SOL    HW232886   2.802   1.179   1.790
10663SOL     OW32887   1.127   2.210   3.715
10663SOL    HW132888   1.137   2.118   3.753
10663SOL    HW232889   1.100   2.204   3.619
10664SOL     OW32890   0.601   5.243   4.883
10664SOL    HW132891   0.583   5.195   4.969
10664SOL    HW232892   0.665   5.318   4.899
10665SOL     OW32893   2.872   2.529   6.930
10665SOL    HW132894   2.779   2.552   6.901
10665SOL    HW232895   2.901   2.444   6.886
10666SOL     OW32896   3.819   3.894   2.098
10666SOL    HW132897   3.811   3.945   2.183
10666SOL    HW232898   3.910   3.853   2.092
10667SOL     OW32899   4.958   2.690   3.569
10667SOL    HW132900   4.892   2.619   3.593
10667SOL    HW232901   4.953   2.765   3.635
10668SOL     OW32902   3.644   2.753   5.499
10668SOL    HW132903   3.551   2.735   5.532
10668SOL    HW232904   3.645   2.747   5.400
10669SOL     OW32905   5.736   1.337   1.423
10669SOL    HW132906   5.815   1.326   1.483
10669SOL    HW232907   5.717   1.434   1.411
10670SOL     OW32908   4.856   3.617   4.431
10670SOL    HW132909   4.809   3.656   4.510
10670SOL    HW232910   4.837   3.672   4.349
10671SOL     OW32911   2.130   3.053   4.550
10671SOL    HW132912   2.114   2.983   4.620
10671SOL    HW232913   2.122   3.144   4.592
10672SOL     OW32914   5.935   3.230   1.550
10672SOL    HW132915   5.985   3.306   1.590
10672SOL    HW232916   5.930   3.241   1.450
10673SOL     OW32917   1.860   1.383   1.107
10673SOL    HW132918   1.863   1.329   1.191
10673SOL    HW232919   1.794   1.458   1.118
10674SOL     OW32920   3.916   3.829   3.356
10674SOL    HW132921   3.968   3.744   3.354
10674SOL    HW232922   3.933   3.877   3.442
10675SOL     OW32923   3.773   6.711   5.312
10675SOL    HW132924   3.818   6.631   5.273
10675SOL    HW232925   3.684   6.725   5.267
10676SOL     OW32926   1.692   6.999   5.467
10676SOL    HW132927   1.769   6.999   5.404
10676SOL    HW232928   1.726   7.005   5.561
10677SOL     OW32929   7.009   1.607   0.738
10677SOL    HW132930   0.029   1.629   0.826
10677SOL    HW232931   6.957   1.522   0.746
10678SOL     OW32932   4.106   5.576   3.522
10678SOL    HW132933   4.115   5.549   3.618
10678SOL    HW232934   4.169   5.651   3.503
10679SOL     OW32935   4.295   3.174   6.882
10679SOL    HW132936   4.346   3.102   6.834
10679SOL    HW232937   4.347   3.202   6.963
10680SOL     OW32938   4.084   1.248   4.441
10680SOL    HW132939   4.151   1.174   4.450
10680SOL    HW232940   4.100   1.298   4.356
10681SOL     OW32941   1.360   2.735   5.311
10681SOL    HW132942   1.440   2.681   5.287
10681SOL    HW232943   1.323   2.777   5.228
10682SOL     OW32944   5.057   3.406   5.840
10682SOL    HW132945   5.152   3.422   5.867
10682SOL    HW232946   5.003   3.488   5.856
10683SOL     OW32947   2.933   0.740   3.558
10683SOL    HW132948   2.871   0.662   3.563
10683SOL    HW232949   2.987   0.736   3.474
10684SOL     OW32950   4.374   4.549   2.030
10684SOL    HW132951   4.417   4.459   2.025
10684SOL    HW232952   4.368   4.589   1.939
10685SOL     OW32953   0.829   6.098   0.913
10685SOL    HW132954   0.738   6.088   0.871
10685SOL    HW232955   0.833   6.045   0.997
10686SOL     OW32956   2.716   1.639   6.518
10686SOL    HW132957   2.663   1.627   6.434
10686SOL    HW232958   2.814   1.642   6.495
10687SOL     OW32959   0.668   4.270   3.448
10687SOL    HW132960   0.749   4.297   3.500
10687SOL    HW232961   0.692   4.261   3.351
10688SOL     OW32962   5.347   1.894   2.062
10688SOL    HW132963   5.323   1.991   2.055
10688SOL    HW232964   5.444   1.882   2.039
10689SOL     OW32965   6.938   0.087   2.700
10689SOL    HW132966   6.923   0.042   2.788
10689SOL    HW232967   6.886   0.172   2.697
10690SOL     OW32968   0.252   0.032   4.067
10690SOL    HW132969   0.187   0.059   3.997
10690SOL    HW232970   0.266   0.107   4.131
10691SOL     OW32971   3.426   0.276   2.831
10691SOL    HW132972   3.445   0.344   2.760
10691SOL    HW232973   3.336   0.294   2.870
10692SOL     OW32974   2.411   0.341   3.843
10692SOL    HW132975   2.497   0.347   3.893
10692SOL    HW232976   2.417   0.266   3.777
10693SOL     OW32977   1.680   5.570   0.677
10693SOL    HW132978   1.652   5.643   0.614
10693SOL    HW232979   1.615   5.494   0.671
10694SOL     OW32980   4.048   6.702   5.353
10694SOL    HW132981   4.038   6.720   5.255
10694SOL    HW232982   4.036   6.787   5.404
10695SOL     OW32983   6.621   4.028   1.992
10695SOL    HW132984   6.524   4.032   1.971
10695SOL    HW232985   6.674   4.036   1.908
10696SOL     OW32986   6.609   4.821   4.521
10696SOL    HW132987   6.698   4.777   4.503
10696SOL    HW232988   6.571   4.784   4.605
10697SOL     OW32989   1.567   5.321   5.575
10697SOL    HW132990   1.615   5.261   5.638
10697SOL    HW232991   1.537   5.403   5.624
10698SOL     OW32992   4.748   3.095   6.963
10698SOL    HW132993   4.780   3.153   6.889
10698SOL    HW232994   4.789   3.124   0.026
10699SOL     OW32995   3.264   3.218   0.243
10699SOL    HW132996   3.303   3.305   0.212
10699SOL    HW232997   3.331   3.171   0.301
10700SOL     OW32998   4.848   1.134   0.837
10700SOL    HW132999   4.774   1.171   0.782
10700SOL    HW233000   4.812   1.065   0.900
10701SOL     OW33001   2.743   0.797   6.332
10701SOL    HW133002   2.794   0.788   6.418
10701SOL    HW233003   2.725   0.707   6.294
10702SOL     OW33004   5.434   2.171   1.891
10702SOL    HW133005   5.398   2.219   1.811
10702SOL    HW233006   5.369   2.178   1.966
10703SOL     OW33007   1.194   2.671   6.334
10703SOL    HW133008   1.176   2.740   6.264
10703SOL    HW233009   1.233   2.714   6.415
10704SOL     OW33010   6.326   6.743   1.899
10704SOL    HW133011   6.303   6.839   1.883
10704SOL    HW233012   6.249   6.685   1.871
10705SOL     OW33013   5.822   4.355   1.182
10705SOL    HW133014   5.894   4.321   1.122
10705SOL    HW233015   5.842   4.331   1.277
10706SOL     OW33016   4.832   0.375   1.756
10706SOL    HW133017   4.830   0.276   1.752
10706SOL    HW233018   4.762   0.408   1.820
10707SOL     OW33019   5.872   0.273   4.226
10707SOL    HW133020   5.877   0.303   4.130
10707SOL    HW233021   5.928   0.334   4.282
10708SOL     OW33022   4.218   1.962   2.154
10708SOL    HW133023   4.152   1.935   2.225
10708SOL    HW233024   4.181   1.937   2.065
10709SOL     OW33025   6.016   5.476   3.775
10709SOL    HW133026   6.064   5.433   3.852
10709SOL    HW233027   6.055   5.566   3.756
10710SOL     OW33028   5.574   1.485   3.357
10710SOL    HW133029   5.667   1.468   3.324
10710SOL    HW233030   5.521   1.400   3.355
10711SOL     OW33031   3.792   6.747   1.812
10711SOL    HW133032   3.802   6.679   1.740
10711SOL    HW233033   3.867   6.737   1.878
10712SOL     OW33034   4.874   6.761   2.970
10712SOL    HW133035   4.845   6.856   2.965
10712SOL    HW233036   4.890   6.726   2.878
10713SOL     OW33037   1.539   4.203   0.917
10713SOL    HW133038   1.451   4.163   0.942
10713SOL    HW233039   1.528   4.260   0.836
10714SOL     OW33040   4.042   3.277   4.338
10714SOL    HW133041   3.998   3.187   4.327
10714SOL    HW233042   4.096   3.298   4.256
10715SOL     OW33043   6.139   0.976   2.072
10715SOL    HW133044   6.179   0.954   2.161
10715SOL    HW233045   6.121   0.891   2.022
10716SOL     OW33046   5.892   2.607   3.373
10716SOL    HW133047   5.864   2.701   3.395
10716SOL    HW233048   5.811   2.548   3.374
10717SOL     OW33049   1.294   2.398   6.654
10717SOL    HW133050   1.334   2.306   6.656
10717SOL    HW233051   1.198   2.392   6.627
10718SOL     OW33052   1.346   5.092   5.666
10718SOL    HW133053   1.296   5.093   5.580
10718SOL    HW233054   1.438   5.130   5.653
10719SOL     OW33055   6.376   5.426   4.655
10719SOL    HW133056   6.335   5.335   4.660
10719SOL    HW233057   6.475   5.418   4.647
10720SOL     OW33058   5.733   5.666   3.862
10720SOL    HW133059   5.634   5.657   3.858
10720SOL    HW233060   5.771   5.592   3.918
10721SOL     OW33061   5.021   3.842   5.225
10721SOL    HW133062   4.971   3.806   5.304
10721SOL    HW233063   5.107   3.884   5.257
10722SOL     OW33064   0.045   3.790   6.173
10722SOL    HW133065   0.084   3.702   6.146
10722SOL    HW233066   6.968   3.784   6.171
10723SOL     OW33067   0.087   0.370   0.282
10723SOL    HW133068   0.045   0.399   0.368
10723SOL    HW233069   0.168   0.425   0.265
10724SOL     OW33070   6.426   6.451   0.146
10724SOL    HW133071   6.420   6.419   0.241
10724SOL    HW233072   6.415   6.373   0.085
10725SOL     OW33073   2.680   5.420   5.353
10725SOL    HW133074   2.645   5.361   5.425
10725SOL    HW233075   2.774   5.392   5.330
10726SOL     OW33076   4.518   0.852   3.533
10726SOL    HW133077   4.511   0.947   3.501
10726SOL    HW233078   4.428   0.821   3.564
10727SOL     OW33079   1.248   5.820   6.113
10727SOL    HW133080   1.202   5.856   6.194
10727SOL    HW233081   1.285   5.896   6.059
10728SOL     OW33082   6.617   5.402   0.704
10728SOL    HW133083   6.538   5.373   0.757
10728SOL    HW233084   6.663   5.477   0.751
10729SOL     OW33085   6.687   2.386   1.278
10729SOL    HW133086   6.696   2.327   1.358
10729SOL    HW233087   6.681   2.331   1.196
10730SOL     OW33088   4.478   0.495   1.716
10730SOL    HW133089   4.440   0.584   1.690
10730SOL    HW233090   4.496   0.441   1.634
10731SOL     OW33091   4.225   1.373   0.766
10731SOL    HW133092   4.322   1.396   0.769
10731SOL    HW233093   4.182   1.423   0.690
10732SOL     OW33094   0.143   5.144   5.023
10732SOL    HW133095   0.175   5.146   5.118
10732SOL    HW233096   0.146   5.236   4.985
10733SOL     OW33097   5.997   2.126   6.766
10733SOL    HW133098   5.977   2.075   6.850
10733SOL    HW233099   6.015   2.222   6.789
10734SOL     OW33100   1.125   1.859   1.557
10734SOL    HW133101   1.216   1.869   1.597
10734SOL    HW233102   1.082   1.776   1.593
10735SOL     OW33103   0.436   3.602   1.964
10735SOL    HW133104   0.425   3.601   2.063
10735SOL    HW233105   0.378   3.531   1.923
10736SOL     OW33106   2.891   6.845   3.997
10736SOL    HW133107   2.799   6.847   3.959
10736SOL    HW233108   2.928   6.753   3.989
10737SOL     OW33109   0.285   2.601   1.641
10737SOL    HW133110   0.225   2.681   1.649
10737SOL    HW233111   0.261   2.550   1.559
10738SOL     OW33112   4.139   0.508   2.972
10738SOL    HW133113   4.130   0.524   3.070
10738SOL    HW233114   4.136   0.410   2.953
10739SOL     OW33115   2.272   2.282   1.957
10739SOL    HW133116   2.344   2.302   2.024
10739SOL    HW233117   2.219   2.204   1.989
10740SOL     OW33118   5.075   4.804   4.544
10740SOL    HW133119   5.083   4.711   4.580
10740SOL    HW233120   4.979   4.825   4.524
10741SOL     OW33121   3.545   0.325   2.063
10741SOL    HW133122   3.595   0.298   2.146
10741SOL    HW233123   3.608   0.333   1.987
10742SOL     OW33124   5.907   5.132   1.148
10742SOL    HW133125   5.958   5.143   1.233
10742SOL    HW233126   5.932   5.045   1.105
10743SOL     OW33127   2.258   2.169   3.500
10743SOL    HW133128   2.262   2.261   3.462
10743SOL    HW233129   2.266   2.174   3.600
10744SOL     OW33130   3.742   2.483   1.013
10744SOL    HW133131   3.726   2.514   0.920
10744SOL    HW233132   3.841   2.476   1.029
10745SOL     OW33133   0.014   5.889   5.857
10745SOL    HW133134   0.059   5.942   5.784
10745SOL    HW233135   0.073   5.813   5.883
10746SOL     OW33136   0.780   4.037   5.305
10746SOL    HW133137   0.808   4.126   5.342
10746SOL    HW233138   0.686   4.018   5.333
10747SOL     OW33139   3.469   0.817   4.742
10747SOL    HW133140   3.394   0.882   4.731
10747SOL    HW233141   3.446   0.752   4.814
10748SOL     OW33142   5.309   1.245   2.448
10748SOL    HW133143   5.312   1.345   2.442
10748SOL    HW233144   5.228   1.210   2.401
10749SOL     OW33145   1.526   6.503   4.584
10749SOL    HW133146   1.485   6.478   4.672
10749SOL    HW233147   1.467   6.568   4.537
10750SOL     OW33148   3.925   0.398   5.083
10750SOL    HW133149   3.934   0.497   5.070
10750SOL    HW233150   3.914   0.354   4.994
10751SOL     OW33151   1.806   5.145   4.336
10751SOL    HW133152   1.874   5.103   4.395
10751SOL    HW233153   1.742   5.075   4.303
10752SOL     OW33154   5.382   4.419   5.079
10752SOL    HW133155   5.462   4.468   5.046
10752SOL    HW233156   5.327   4.389   5.002
10753SOL     OW33157   0.393   3.036   4.204
10753SOL    HW133158   0.330   3.113   4.193
10753SOL    HW233159   0.350   2.954   4.167
10754SOL     OW33160   0.847   0.440   3.113
10754SOL    HW133161   0.749   0.423   3.125
10754SOL    HW233162   0.863   0.538   3.108
10755SOL     OW33163   6.450   6.619   1.550
10755SOL    HW133164   6.446   6.573   1.639
10755SOL    HW233165   6.361   6.609   1.504
10756SOL     OW33166   6.853   6.401   5.056
10756SOL    HW133167   6.800   6.323   5.022
10756SOL    HW233168   6.857   6.472   4.985
10757SOL     OW33169   2.240   2.805   0.480
10757SOL    HW133170   2.335   2.823   0.453
10757SOL    HW233171   2.224   2.706   0.479
10758SOL     OW33172   0.705   6.299   3.509
10758SOL    HW133173   0.742   6.275   3.599
10758SOL    HW233174   0.610   6.331   3.520
10759SOL     OW33175   0.791   2.665   0.523
10759SOL    HW133176   0.803   2.763   0.511
10759SOL    HW233177   0.825   2.617   0.442
10760SOL     OW33178   6.124   1.446   3.203
10760SOL    HW133179   6.120   1.351   3.234
10760SOL    HW233180   6.155   1.504   3.278
10761SOL     OW33181   2.389   5.103   5.781
10761SOL    HW133182   2.336   5.171   5.832
10761SOL    HW233183   2.352   5.012   5.798
10762SOL     OW33184   2.735   0.405   4.773
10762SOL    HW133185   2.831   0.376   4.771
10762SOL    HW233186   2.693   0.386   4.685
10763SOL     OW33187   3.947   0.675   3.341
10763SOL    HW133188   3.979   0.662   3.435
10763SOL    HW233189   3.929   0.772   3.325
10764SOL     OW33190   4.793   1.160   4.095
10764SOL    HW133191   4.713   1.116   4.055
10764SOL    HW233192   4.767   1.205   4.180
10765SOL     OW33193   4.913   3.556   1.493
10765SOL    HW133194   4.850   3.539   1.417
10765SOL    HW233195   4.921   3.654   1.509
10766SOL     OW33196   3.092   3.436   0.945
10766SOL    HW133197   3.153   3.468   1.018
10766SOL    HW233198   3.141   3.370   0.888
10767SOL     OW33199   1.975   0.495   1.736
10767SOL    HW133200   2.072   0.519   1.742
10767SOL    HW233201   1.927   0.531   1.816
10768SOL     OW33202   6.800   4.964   0.989
10768SOL    HW133203   6.783   5.048   1.040
10768SOL    HW233204   6.842   4.896   1.050
10769SOL     OW33205   2.330   3.712   6.235
10769SOL    HW133206   2.270   3.754   6.302
10769SOL    HW233207   2.419   3.759   6.235
10770SOL     OW33208   4.354   5.744   3.432
10770SOL    HW133209   4.341   5.698   3.344
10770SOL    HW233210   4.406   5.828   3.419
10771SOL     OW33211   3.024   0.256   3.785
10771SOL    HW133212   3.063   0.348   3.781
10771SOL    HW233213   3.073   0.202   3.853
10772SOL     OW33214   5.999   6.050   4.284
10772SOL    HW133215   5.981   6.068   4.381
10772SOL    HW233216   6.033   5.956   4.274
10773SOL     OW33217   5.486   4.855   4.159
10773SOL    HW133218   5.409   4.918   4.149
10773SOL    HW233219   5.571   4.906   4.155
10774SOL     OW33220   1.392   0.918   3.750
10774SOL    HW133221   1.452   0.910   3.671
10774SOL    HW233222   1.322   0.988   3.733
10775SOL     OW33223   0.953   4.630   1.998
10775SOL    HW133224   1.019   4.580   2.054
10775SOL    HW233225   0.998   4.661   1.914
10776SOL     OW33226   2.317   0.361   6.592
10776SOL    HW133227   2.270   0.445   6.566
10776SOL    HW233228   2.416   0.375   6.585
10777SOL     OW33229   3.433   5.753   1.629
10777SOL    HW133230   3.502   5.809   1.676
10777SOL    HW233231   3.359   5.812   1.596
10778SOL     OW33232   5.464   6.633   3.767
10778SOL    HW133233   5.452   6.537   3.792
10778SOL    HW233234   5.397   6.689   3.817
10779SOL     OW33235   5.815   2.852   3.466
10779SOL    HW133236   5.865   2.938   3.453
10779SOL    HW233237   5.727   2.872   3.509
10780SOL     OW33238   0.709   1.242   3.375
10780SOL    HW133239   0.726   1.314   3.307
10780SOL    HW233240   0.775   1.168   3.362
10781SOL     OW33241   3.384   0.230   4.269
10781SOL    HW133242   3.459   0.226   4.204
10781SOL    HW233243   3.420   0.237   4.362
10782SOL     OW33244   6.111   6.454   4.499
10782SOL    HW133245   6.126   6.532   4.559
10782SOL    HW233246   6.018   6.457   4.461
10783SOL     OW33247   6.352   2.432   3.061
10783SOL    HW133248   6.433   2.487   3.042
10783SOL    HW233249   6.270   2.479   3.029
10784SOL     OW33250   2.561   1.547   3.833
10784SOL    HW133251   2.463   1.560   3.848
10784SOL    HW233252   2.575   1.483   3.758
10785SOL     OW33253   0.500   3.788   6.884
10785SOL    HW133254   0.480   3.690   6.893
10785SOL    HW233255   0.456   3.824   6.802
10786SOL     OW33256   6.242   5.684   2.863
10786SOL    HW133257   6.337   5.657   2.877
10786SOL    HW233258   6.184   5.642   2.933
10787SOL     OW33259   1.021   1.125   5.022
10787SOL    HW133260   1.111   1.126   5.066
10787SOL    HW233261   0.998   1.218   4.992
10788SOL     OW33262   0.081   4.015   6.567
10788SOL    HW133263   0.041   4.041   6.655
10788SOL    HW233264   0.053   3.921   6.544
10789SOL     OW33265   7.023   2.398   0.082
10789SOL    HW133266   6.991   2.447   0.001
10789SOL    HW233267   6.945   2.357   0.129
10790SOL     OW33268   6.962   7.001   2.028
10790SOL    HW133269   6.867   7.015   1.999
10790SOL    HW233270   6.963   6.973   2.124
10791SOL     OW33271   6.413   6.160   2.470
10791SOL    HW133272   6.455   6.201   2.551
10791SOL    HW233273   6.425   6.061   2.473
10792SOL     OW33274   3.976   3.730   5.040
10792SOL    HW133275   3.934   3.720   4.950
10792SOL    HW233276   4.063   3.681   5.042
10793SOL     OW33277   5.701   3.477   5.191
10793SOL    HW133278   5.797   3.454   5.210
10793SOL    HW233279   5.663   3.528   5.268
10794SOL     OW33280   3.511   3.173   3.935
10794SOL    HW133281   3.448   3.239   3.975
10794SOL    HW233282   3.497   3.169   3.836
10795SOL     OW33283   1.240   4.218   3.071
10795SOL    HW133284   1.202   4.311   3.067
10795SOL    HW233285   1.251   4.190   3.166
10796SOL     OW33286   0.899   6.460   5.140
10796SOL    HW133287   0.855   6.388   5.194
10796SOL    HW233288   0.891   6.439   5.043
10797SOL     OW33289   3.945   3.310   0.456
10797SOL    HW133290   3.913   3.353   0.541
10797SOL    HW233291   3.889   3.230   0.436
10798SOL     OW33292   1.428   1.197   1.514
10798SOL    HW133293   1.358   1.263   1.537
10798SOL    HW233294   1.432   1.185   1.414
10799SOL     OW33295   4.180   1.157   2.167
10799SOL    HW133296   4.276   1.137   2.189
10799SOL    HW233297   4.121   1.102   2.226
10800SOL     OW33298   1.308   6.497   6.954
10800SOL    HW133299   1.344   6.567   6.892
10800SOL    HW233300   1.272   6.541   0.013
10801SOL     OW33301   1.505   0.902   0.658
10801SOL    HW133302   1.527   0.819   0.605
10801SOL    HW233303   1.408   0.902   0.681
10802SOL     OW33304   6.288   6.960   3.272
10802SOL    HW133305   6.297   7.010   3.186
10802SOL    HW233306   6.202   6.909   3.272
10803SOL     OW33307   1.560   5.323   6.817
10803SOL    HW133308   1.512   5.241   6.786
10803SOL    HW233309   1.502   5.375   6.880
10804SOL     OW33310   0.481   3.398   4.283
10804SOL    HW133311   0.466   3.440   4.372
10804SOL    HW233312   0.394   3.364   4.247
10805SOL     OW33313   6.141   0.879   5.515
10805SOL    HW133314   6.099   0.794   5.485
10805SOL    HW233315   6.225   0.858   5.566
10806SOL     OW33316   1.846   4.568   6.787
10806SOL    HW133317   1.893   4.483   6.811
10806SOL    HW233318   1.862   4.635   6.860
10807SOL     OW33319   2.468   6.222   3.958
10807SOL    HW133320   2.390   6.241   4.017
10807SOL    HW233321   2.486   6.123   3.957
10808SOL     OW33322   0.348   2.070   6.104
10808SOL    HW133323   0.329   1.972   6.097
10808SOL    HW233324   0.445   2.084   6.125
10809SOL     OW33325   2.355   5.415   4.619
10809SOL    HW133326   2.388   5.367   4.700
10809SOL    HW233327   2.402   5.379   4.538
10810SOL     OW33328   0.235   0.240   4.263
10810SOL    HW133329   0.276   0.304   4.327
10810SOL    HW233330   0.161   0.189   4.308
10811SOL     OW33331   4.925   4.848   4.887
10811SOL    HW133332   5.014   4.891   4.902
10811SOL    HW233333   4.890   4.876   4.798
10812SOL     OW33334   0.026   2.802   6.667
10812SOL    HW133335   0.009   2.900   6.671
10812SOL    HW233336   0.012   2.769   6.574
10813SOL     OW33337   0.341   3.706   6.349
10813SOL    HW133338   0.324   3.730   6.254
10813SOL    HW233339   0.437   3.720   6.371
10814SOL     OW33340   1.966   0.231   0.658
10814SOL    HW133341   2.064   0.240   0.674
10814SOL    HW233342   1.926   0.322   0.646
10815SOL     OW33343   4.907   0.914   4.384
10815SOL    HW133344   4.850   0.863   4.320
10815SOL    HW233345   4.990   0.945   4.338
10816SOL     OW33346   3.720   2.956   2.995
10816SOL    HW133347   3.621   2.941   3.003
10816SOL    HW233348   3.747   2.948   2.899
10817SOL     OW33349   2.450   0.181   3.335
10817SOL    HW133350   2.508   0.100   3.329
10817SOL    HW233351   2.354   0.154   3.327
10818SOL     OW33352   4.372   4.967   6.109
10818SOL    HW133353   4.380   4.932   6.202
10818SOL    HW233354   4.447   4.932   6.053
10819SOL     OW33355   0.054   5.840   6.159
10819SOL    HW133356   0.082   5.814   6.251
10819SOL    HW233357   0.113   5.914   6.125
10820SOL     OW33358   1.834   4.557   5.790
10820SOL    HW133359   1.885   4.561   5.704
10820SOL    HW233360   1.842   4.466   5.829
10821SOL     OW33361   4.703   5.002   3.174
10821SOL    HW133362   4.723   4.968   3.266
10821SOL    HW233363   4.617   4.962   3.141
10822SOL     OW33364   5.836   2.900   1.040
10822SOL    HW133365   5.903   2.841   1.085
10822SOL    HW233366   5.796   2.851   0.962
10823SOL     OW33367   6.341   6.600   2.833
10823SOL    HW133368   6.286   6.596   2.916
10823SOL    HW233369   6.341   6.511   2.788
10824SOL     OW33370   1.146   1.603   4.112
10824SOL    HW133371   1.122   1.699   4.097
10824SOL    HW233372   1.080   1.544   4.065
10825SOL     OW33373   1.456   1.906   0.807
10825SOL    HW133374   1.386   1.975   0.788
10825SOL    HW233375   1.413   1.826   0.850
10826SOL     OW33376   1.248   2.779   3.005
10826SOL    HW133377   1.339   2.803   2.971
10826SOL    HW233378   1.180   2.839   2.963
10827SOL     OW33379   7.022   3.146   5.065
10827SOL    HW133380   6.993   3.231   5.107
10827SOL    HW233381   6.942   3.097   5.030
10828SOL     OW33382   6.388   4.538   6.083
10828SOL    HW133383   6.386   4.459   6.144
10828SOL    HW233384   6.483   4.562   6.061
10829SOL     OW33385   4.114   3.565   5.722
10829SOL    HW133386   4.210   3.583   5.743
10829SOL    HW233387   4.108   3.489   5.656
10830SOL     OW33388   4.736   1.013   3.663
10830SOL    HW133389   4.692   0.958   3.592
10830SOL    HW233390   4.826   0.976   3.684
10831SOL     OW33391   3.880   0.803   2.727
10831SOL    HW133392   3.782   0.795   2.707
10831SOL    HW233393   3.894   0.797   2.825
10832SOL     OW33394   6.759   3.660   0.108
10832SOL    HW133395   6.797   3.582   0.060
10832SOL    HW233396   6.661   3.668   0.087
10833SOL     OW33397   0.713   1.144   0.780
10833SOL    HW133398   0.649   1.145   0.857
10833SOL    HW233399   0.724   1.237   0.745
10834SOL     OW33400   6.625   6.654   0.629
10834SOL    HW133401   6.594   6.563   0.602
10834SOL    HW233402   6.618   6.664   0.729
10835SOL     OW33403   6.839   2.485   5.480
10835SOL    HW133404   6.935   2.513   5.475
10835SOL    HW233405   6.829   2.393   5.442
10836SOL     OW33406   0.016   1.958   3.746
10836SOL    HW133407   6.972   1.887   3.723
10836SOL    HW233408   0.106   1.930   3.712
10837SOL     OW33409   0.127   4.256   2.759
10837SOL    HW133410   0.165   4.205   2.837
10837SOL    HW233411   0.027   4.245   2.758
10838SOL     OW33412   6.200   5.705   4.024
10838SOL    HW133413   6.150   5.721   3.939
10838SOL    HW233414   6.207   5.607   4.040
10839SOL     OW33415   4.446   3.794   0.628
10839SOL    HW133416   4.517   3.841   0.682
10839SOL    HW233417   4.470   3.698   0.618
10840SOL     OW33418   2.888   0.591   1.085
10840SOL    HW133419   2.794   0.562   1.106
10840SOL    HW233420   2.925   0.533   1.013
10841SOL     OW33421   1.199   5.134   4.634
10841SOL    HW133422   1.174   5.222   4.676
10841SOL    HW233423   1.291   5.141   4.595
10842SOL     OW33424   5.136   4.202   0.719
10842SOL    HW133425   5.184   4.150   0.790
10842SOL    HW233426   5.175   4.181   0.630
10843SOL     OW33427   2.335   2.400   1.618
10843SOL    HW133428   2.337   2.487   1.668
10843SOL    HW233429   2.424   2.355   1.626
10844SOL     OW33430   0.680   5.489   5.188
10844SOL    HW133431   0.694   5.577   5.142
10844SOL    HW233432   0.732   5.418   5.140
10845SOL     OW33433   4.213   6.473   5.371
10845SOL    HW133434   4.177   6.432   5.288
10845SOL    HW233435   4.189   6.570   5.373
10846SOL     OW33436   5.358   0.223   0.571
10846SOL    HW133437   5.296   0.187   0.502
10846SOL    HW233438   5.444   0.170   0.570
10847SOL     OW33439   1.686   1.932   0.072
10847SOL    HW133440   1.754   1.996   0.038
10847SOL    HW233441   1.648   1.965   0.158
10848SOL     OW33442   1.754   4.228   1.561
10848SOL    HW133443   1.734   4.319   1.597
10848SOL    HW233444   1.758   4.232   1.461
10849SOL     OW33445   2.191   6.044   3.712
10849SOL    HW133446   2.282   6.084   3.724
10849SOL    HW233447   2.194   5.947   3.739
10850SOL     OW33448   3.380   6.562   6.995
10850SOL    HW133449   3.291   6.558   0.018
10850SOL    HW233450   3.394   6.477   6.943
10851SOL     OW33451   2.324   4.978   1.566
10851SOL    HW133452   2.227   4.958   1.574
10851SOL    HW233453   2.366   4.916   1.501
10852SOL     OW33454   1.900   1.648   1.191
10852SOL    HW133455   1.936   1.560   1.160
10852SOL    HW233456   1.974   1.702   1.231
10853SOL     OW33457   2.873   1.753   6.201
10853SOL    HW133458   2.816   1.830   6.174
10853SOL    HW233459   2.818   1.669   6.199
10854SOL     OW33460   4.338   5.864   5.673
10854SOL    HW133461   4.437   5.875   5.672
10854SOL    HW233462   4.315   5.767   5.679
10855SOL     OW33463   3.576   0.958   0.403
10855SOL    HW133464   3.618   1.012   0.475
10855SOL    HW233465   3.579   0.861   0.428
10856SOL     OW33466   6.915   1.238   0.410
10856SOL    HW133467   7.014   1.253   0.403
10856SOL    HW233468   6.890   1.158   0.355
10857SOL     OW33469   6.197   2.066   2.568
10857SOL    HW133470   6.237   1.975   2.580
10857SOL    HW233471   6.118   2.059   2.507
10858SOL     OW33472   2.919   6.200   1.385
10858SOL    HW133473   2.954   6.138   1.456
10858SOL    HW233474   2.855   6.265   1.425
10859SOL     OW33475   1.011   5.615   3.469
10859SOL    HW133476   0.937   5.575   3.416
10859SOL    HW233477   0.979   5.701   3.510
10860SOL     OW33478   6.493   2.816   3.322
10860SOL    HW133479   6.553   2.776   3.391
10860SOL    HW233480   6.417   2.753   3.304
10861SOL     OW33481   3.888   3.028   4.357
10861SOL    HW133482   3.855   2.973   4.434
10861SOL    HW233483   3.823   3.023   4.282
10862SOL     OW33484   1.254   0.278   5.017
10862SOL    HW133485   1.223   0.318   4.931
10862SOL    HW233486   1.254   0.348   5.088
10863SOL     OW33487   3.025   5.581   4.633
10863SOL    HW133488   2.980   5.585   4.544
10863SOL    HW233489   2.963   5.612   4.704
10864SOL     OW33490   3.348   6.154   2.564
10864SOL    HW133491   3.288   6.111   2.632
10864SOL    HW233492   3.421   6.204   2.612
10865SOL     OW33493   6.533   2.021   6.086
10865SOL    HW133494   6.563   2.031   6.181
10865SOL    HW233495   6.567   1.934   6.050
10866SOL     OW33496   5.521   4.792   0.522
10866SOL    HW133497   5.599   4.732   0.507
10866SOL    HW233498   5.437   4.743   0.503
10867SOL     OW33499   3.605   3.104   0.271
10867SOL    HW133500   3.623   3.091   0.174
10867SOL    HW233501   3.569   3.020   0.310
10868SOL     OW33502   3.227   1.836   2.969
10868SOL    HW133503   3.303   1.775   2.988
10868SOL    HW233504   3.255   1.931   2.982
10869NA      NA33505   6.361   2.274   5.511
10870NA      NA33506   4.223   4.571   5.285
10871NA      NA33507   2.209   3.563   1.427
10872NA      NA33508   4.864   3.859   5.066
10873NA      NA33509   4.149   2.277   5.227
10874NA      NA33510   3.693   4.645   1.594
10875NA      NA33511   6.720   5.791   5.647
10876NA      NA33512   3.885   3.534   5.196
10877NA      NA33513   4.654   6.642   0.044
10878NA      NA33514   3.528   7.016   5.298
10879NA      NA33515   6.288   4.888   2.456
10880NA      NA33516   2.220   0.734   3.081
10881NA      NA33517   3.418   4.472   0.954
10882NA      NA33518   3.562   3.660   2.923
   7.02302   7.02302   7.02302
