Generated by trjconv : CNT in water t= 385.00000
33518
    1C        C    1   2.846   2.776   4.750
    1C        C    2   2.901   2.727   4.871
    1C        C    3   2.844   2.780   4.988
    1C        C    4   2.853   2.781   4.261
    1C        C    5   2.903   2.732   4.383
    1C        C    6   2.847   2.775   4.506
    1C        C    7   3.015   2.648   4.627
    1C        C    8   2.896   2.725   4.628
    1C        C    9   3.080   2.612   4.747
    1C        C   10   3.012   2.641   4.868
    1C        C   11   3.178   2.492   4.970
    1C        C   12   3.061   2.569   4.977
    1C        C   13   2.850   2.774   3.772
    1C        C   14   2.900   2.724   3.894
    1C        C   15   2.849   2.775   4.016
    1C        C   16   3.022   2.655   4.139
    1C        C   17   2.905   2.734   4.139
    1C        C   18   3.084   2.623   4.262
    1C        C   19   3.018   2.650   4.384
    1C        C   20   3.209   2.561   4.505
    1C        C   21   3.078   2.613   4.506
    1C        C   22   3.279   2.542   4.627
    1C        C   23   3.211   2.557   4.750
    1C        C   24   3.417   2.486   4.870
    1C        C   25   3.275   2.508   4.867
    1C        C   26   3.493   2.477   4.987
    1C        C   27   2.856   2.775   3.283
    1C        C   28   2.909   2.729   3.406
    1C        C   29   2.859   2.779   3.529
    1C        C   30   3.025   2.649   3.651
    1C        C   31   2.911   2.732   3.651
    1C        C   32   3.083   2.612   3.775
    1C        C   33   3.018   2.647   3.896
    1C        C   34   3.212   2.559   4.019
    1C        C   35   3.083   2.616   4.017
    1C        C   36   3.282   2.544   4.141
    1C        C   37   3.215   2.570   4.263
    1C        C   38   3.419   2.515   4.384
    1C        C   39   3.281   2.543   4.385
    1C        C   40   3.490   2.511   4.506
    1C        C   41   3.418   2.515   4.628
    1C        C   42   3.630   2.487   4.747
    1C        C   43   3.488   2.487   4.747
    1C        C   44   3.709   2.493   4.865
    1C        C   45   3.632   2.480   4.981
    1C        C   46   2.842   2.755   2.793
    1C        C   47   2.897   2.713   2.916
    1C        C   48   2.849   2.766   3.039
    1C        C   49   3.026   2.648   3.162
    1C        C   50   2.908   2.726   3.161
    1C        C   51   3.085   2.614   3.286
    1C        C   52   3.025   2.648   3.409
    1C        C   53   3.213   2.545   3.532
    1C        C   54   3.086   2.608   3.530
    1C        C   55   3.280   2.528   3.655
    1C        C   56   3.212   2.554   3.775
    1C        C   57   3.420   2.514   3.895
    1C        C   58   3.281   2.541   3.897
    1C        C   59   3.490   2.506   4.018
    1C        C   60   3.419   2.513   4.140
    1C        C   61   3.631   2.512   4.261
    1C        C   62   3.490   2.504   4.262
    1C        C   63   3.702   2.514   4.383
    1C        C   64   3.631   2.507   4.505
    1C        C   65   3.837   2.544   4.627
    1C        C   66   3.702   2.504   4.627
    1C        C   67   3.909   2.561   4.748
    1C        C   68   3.844   2.532   4.870
    1C        C   69   4.058   2.591   4.983
    1C        C   70   3.929   2.537   4.981
    1C        C   71   2.829   2.734   2.310
    1C        C   72   2.886   2.690   2.431
    1C        C   73   2.835   2.746   2.551
    1C        C   74   3.015   2.633   2.675
    1C        C   75   2.893   2.704   2.672
    1C        C   76   3.082   2.605   2.796
    1C        C   77   3.016   2.636   2.917
    1C        C   78   3.211   2.552   3.041
    1C        C   79   3.081   2.607   3.039
    1C        C   80   3.277   2.531   3.164
    1C        C   81   3.213   2.554   3.288
    1C        C   82   3.418   2.499   3.407
    1C        C   83   3.279   2.524   3.409
    1C        C   84   3.488   2.492   3.529
    1C        C   85   3.420   2.509   3.652
    1C        C   86   3.633   2.501   3.771
    1C        C   87   3.491   2.504   3.774
    1C        C   88   3.702   2.508   3.894
    1C        C   89   3.632   2.502   4.017
    1C        C   90   3.838   2.554   4.140
    1C        C   91   3.701   2.519   4.139
    1C        C   92   3.904   2.577   4.263
    1C        C   93   3.840   2.545   4.385
    1C        C   94   4.030   2.636   4.506
    1C        C   95   3.907   2.567   4.507
    1C        C   96   4.091   2.678   4.626
    1C        C   97   4.032   2.633   4.746
    1C        C   98   4.195   2.769   4.865
    1C        C   99   4.105   2.658   4.866
    1C        C  100   4.218   2.846   4.979
    1C        C  101   2.833   2.737   2.072
    1C        C  102   2.993   2.589   2.192
    1C        C  103   2.880   2.677   2.190
    1C        C  104   3.067   2.573   2.312
    1C        C  105   3.004   2.613   2.432
    1C        C  106   3.206   2.541   2.553
    1C        C  107   3.075   2.593   2.553
    1C        C  108   3.277   2.524   2.675
    1C        C  109   3.208   2.541   2.797
    1C        C  110   3.416   2.497   2.918
    1C        C  111   3.277   2.522   2.919
    1C        C  112   3.486   2.494   3.040
    1C        C  113   3.416   2.507   3.162
    1C        C  114   3.629   2.499   3.282
    1C        C  115   3.487   2.500   3.284
    1C        C  116   3.697   2.509   3.405
    1C        C  117   3.630   2.495   3.529
    1C        C  118   3.839   2.541   3.651
    1C        C  119   3.703   2.501   3.649
    1C        C  120   3.902   2.573   3.773
    1C        C  121   3.837   2.548   3.896
    1C        C  122   4.032   2.636   4.015
    1C        C  123   3.904   2.577   4.017
    1C        C  124   4.093   2.673   4.138
    1C        C  125   4.032   2.636   4.260
    1C        C  126   4.196   2.766   4.381
    1C        C  127   4.091   2.671   4.383
    1C        C  128   4.243   2.824   4.501
    1C        C  129   4.199   2.769   4.623
    1C        C  130   4.334   2.934   4.743
    1C        C  131   4.253   2.817   4.744
    1C        C  132   4.359   3.005   4.862
    1C        C  133   4.281   2.970   4.974
    1C        C  134   3.178   2.473   2.082
    1C        C  135   3.043   2.508   2.085
    1C        C  136   3.264   2.480   2.193
    1C        C  137   3.199   2.519   2.313
    1C        C  138   3.411   2.482   2.431
    1C        C  139   3.272   2.507   2.433
    1C        C  140   3.486   2.488   2.550
    1C        C  141   3.415   2.495   2.673
    1C        C  142   3.626   2.496   2.794
    1C        C  143   3.485   2.487   2.795
    1C        C  144   3.699   2.499   2.914
    1C        C  145   3.628   2.495   3.036
    1C        C  146   3.834   2.537   3.159
    1C        C  147   3.698   2.501   3.159
    1C        C  148   3.900   2.564   3.282
    1C        C  149   3.834   2.542   3.405
    1C        C  150   4.028   2.628   3.527
    1C        C  151   3.902   2.565   3.527
    1C        C  152   4.087   2.669   3.648
    1C        C  153   4.029   2.636   3.772
    1C        C  154   4.199   2.765   3.891
    1C        C  155   4.093   2.672   3.893
    1C        C  156   4.244   2.818   4.014
    1C        C  157   4.199   2.766   4.137
    1C        C  158   4.336   2.926   4.258
    1C        C  159   4.248   2.815   4.259
    1C        C  160   4.374   2.990   4.378
    1C        C  161   4.330   2.935   4.501
    1C        C  162   4.438   3.120   4.618
    1C        C  163   4.374   2.994   4.622
    1C        C  164   4.471   3.187   4.737
    1C        C  165   4.434   3.125   4.858
    1C        C  166   4.517   3.327   4.975
    1C        C  167   4.477   3.194   4.972
    1C        C  168   3.479   2.443   2.074
    1C        C  169   3.403   2.460   2.190
    1C        C  170   3.622   2.464   2.311
    1C        C  171   3.480   2.466   2.309
    1C        C  172   3.701   2.484   2.426
    1C        C  173   3.627   2.487   2.547
    1C        C  174   3.831   2.537   2.670
    1C        C  175   3.694   2.504   2.670
    1C        C  176   3.899   2.562   2.791
    1C        C  177   3.837   2.532   2.915
    1C        C  178   4.026   2.626   3.037
    1C        C  179   3.903   2.557   3.037
    1C        C  180   4.084   2.667   3.159
    1C        C  181   4.027   2.627   3.282
    1C        C  182   4.199   2.750   3.401
    1C        C  183   4.088   2.664   3.404
    1C        C  184   4.250   2.803   3.522
    1C        C  185   4.198   2.757   3.645
    1C        C  186   4.338   2.920   3.766
    1C        C  187   4.246   2.812   3.766
    1C        C  188   4.377   2.979   3.888
    1C        C  189   4.333   2.927   4.012
    1C        C  190   4.441   3.109   4.128
    1C        C  191   4.376   2.984   4.135
    1C        C  192   4.467   3.176   4.250
    1C        C  193   4.436   3.116   4.374
    1C        C  194   4.501   3.321   4.495
    1C        C  195   4.462   3.185   4.495
    1C        C  196   4.526   3.392   4.614
    1C        C  197   4.517   3.322   4.737
    1C        C  198   4.558   3.539   4.852
    1C        C  199   4.537   3.398   4.856
    1C        C  200   4.581   3.623   4.966
    1C        C  201   3.618   2.425   2.072
    1C        C  202   3.829   2.512   2.183
    1C        C  203   3.694   2.462   2.188
    1C        C  204   3.902   2.540   2.301
    1C        C  205   3.838   2.517   2.425
    1C        C  206   4.027   2.614   2.545
    1C        C  207   3.899   2.553   2.547
    1C        C  208   4.085   2.658   2.666
    1C        C  209   4.024   2.626   2.790
    1C        C  210   4.194   2.751   2.910
    1C        C  211   4.082   2.664   2.913
    1C        C  212   4.247   2.797   3.032
    1C        C  213   4.197   2.753   3.156
    1C        C  214   4.332   2.915   3.273
    1C        C  215   4.248   2.802   3.279
    1C        C  216   4.370   2.973   3.396
    1C        C  217   4.332   2.918   3.520
    1C        C  218   4.432   3.106   3.640
    1C        C  219   4.371   2.978   3.642
    1C        C  220   4.461   3.172   3.761
    1C        C  221   4.441   3.105   3.884
    1C        C  222   4.502   3.310   4.004
    1C        C  223   4.470   3.172   4.005
    1C        C  224   4.511   3.382   4.125
    1C        C  225   4.502   3.313   4.248
    1C        C  226   4.520   3.525   4.366
    1C        C  227   4.512   3.384   4.369
    1C        C  228   4.521   3.603   4.485
    1C        C  229   4.527   3.533   4.607
    1C        C  230   4.508   3.745   4.727
    1C        C  231   4.535   3.605   4.729
    1C        C  232   4.505   3.823   4.845
    1C        C  233   4.551   3.760   4.961
    1C        C  234   4.017   2.622   2.062
    1C        C  235   3.897   2.551   2.067
    1C        C  236   4.089   2.647   2.179
    1C        C  237   4.027   2.607   2.300
    1C        C  238   4.199   2.735   2.424
    1C        C  239   4.085   2.650   2.422
    1C        C  240   4.253   2.788   2.544
    1C        C  241   4.195   2.747   2.666
    1C        C  242   4.332   2.910   2.789
    1C        C  243   4.245   2.799   2.787
    1C        C  244   4.370   2.970   2.911
    1C        C  245   4.330   2.911   3.033
    1C        C  246   4.438   3.100   3.151
    1C        C  247   4.373   2.975   3.152
    1C        C  248   4.458   3.166   3.274
    1C        C  249   4.427   3.103   3.397
    1C        C  250   4.496   3.307   3.514
    1C        C  251   4.454   3.172   3.517
    1C        C  252   4.511   3.377   3.636
    1C        C  253   4.496   3.309   3.759
    1C        C  254   4.524   3.519   3.881
    1C        C  255   4.513   3.378   3.881
    1C        C  256   4.521   3.593   4.002
    1C        C  257   4.522   3.523   4.125
    1C        C  258   4.493   3.735   4.242
    1C        C  259   4.523   3.597   4.245
    1C        C  260   4.467   3.804   4.363
    1C        C  261   4.496   3.742   4.486
    1C        C  262   4.422   3.942   4.607
    1C        C  263   4.481   3.814   4.607
    1C        C  264   4.400   4.010   4.729
    1C        C  265   4.442   3.949   4.849
    1C        C  266   4.325   4.136   4.960
    1C        C  267   4.395   4.016   4.963
    1C        C  268   4.260   2.782   2.069
    1C        C  269   4.196   2.739   2.186
    1C        C  270   4.345   2.896   2.302
    1C        C  271   4.252   2.789   2.305
    1C        C  272   4.381   2.959   2.424
    1C        C  273   4.340   2.899   2.545
    1C        C  274   4.445   3.087   2.663
    1C        C  275   4.375   2.964   2.665
    1C        C  276   4.469   3.157   2.784
    1C        C  277   4.442   3.092   2.906
    1C        C  278   4.506   3.297   3.026
    1C        C  279   4.466   3.161   3.027
    1C        C  280   4.517   3.368   3.147
    1C        C  281   4.498   3.301   3.271
    1C        C  282   4.516   3.516   3.389
    1C        C  283   4.507   3.375   3.391
    1C        C  284   4.516   3.585   3.512
    1C        C  285   4.518   3.518   3.637
    1C        C  286   4.493   3.728   3.754
    1C        C  287   4.518   3.589   3.758
    1C        C  288   4.480   3.799   3.875
    1C        C  289   4.499   3.733   3.999
    1C        C  290   4.435   3.938   4.119
    1C        C  291   4.481   3.804   4.119
    1C        C  292   4.400   4.003   4.239
    1C        C  293   4.424   3.938   4.362
    1C        C  294   4.333   4.132   4.481
    1C        C  295   4.396   4.006   4.483
    1C        C  296   4.290   4.194   4.600
    1C        C  297   4.328   4.132   4.721
    1C        C  298   4.205   4.315   4.842
    1C        C  299   4.291   4.201   4.840
    1C        C  300   4.175   4.406   4.949
    1C        C  301   4.353   2.886   2.066
    1C        C  302   4.470   3.073   2.178
    1C        C  303   4.400   2.948   2.182
    1C        C  304   4.477   3.149   2.298
    1C        C  305   4.448   3.083   2.420
    1C        C  306   4.507   3.288   2.539
    1C        C  307   4.476   3.150   2.541
    1C        C  308   4.512   3.360   2.660
    1C        C  309   4.500   3.294   2.784
    1C        C  310   4.529   3.506   2.897
    1C        C  311   4.525   3.365   2.904
    1C        C  312   4.522   3.575   3.020
    1C        C  313   4.523   3.509   3.145
    1C        C  314   4.486   3.721   3.265
    1C        C  315   4.514   3.582   3.265
    1C        C  316   4.476   3.791   3.388
    1C        C  317   4.496   3.725   3.511
    1C        C  318   4.427   3.929   3.628
    1C        C  319   4.474   3.796   3.631
    1C        C  320   4.398   3.992   3.751
    1C        C  321   4.429   3.931   3.874
    1C        C  322   4.327   4.117   3.992
    1C        C  323   4.405   3.999   3.995
    1C        C  324   4.280   4.175   4.112
    1C        C  325   4.328   4.124   4.235
    1C        C  326   4.191   4.286   4.356
    1C        C  327   4.288   4.183   4.357
    1C        C  328   4.139   4.341   4.476
    1C        C  329   4.194   4.298   4.598
    1C        C  330   4.031   4.438   4.714
    1C        C  331   4.145   4.353   4.719
    1C        C  332   3.972   4.488   4.833
    1C        C  333   4.055   4.478   4.946
    1C        C  334   4.550   3.272   2.061
    1C        C  335   4.537   3.133   2.066
    1C        C  336   4.544   3.352   2.176
    1C        C  337   4.516   3.286   2.297
    1C        C  338   4.528   3.500   2.412
    1C        C  339   4.525   3.359   2.418
    1C        C  340   4.530   3.573   2.532
    1C        C  341   4.522   3.501   2.654
    1C        C  342   4.500   3.715   2.775
    1C        C  343   4.520   3.575   2.774
    1C        C  344   4.483   3.783   2.897
    1C        C  345   4.492   3.713   3.020
    1C        C  346   4.431   3.920   3.139
    1C        C  347   4.471   3.785   3.140
    1C        C  348   4.398   3.985   3.260
    1C        C  349   4.424   3.922   3.384
    1C        C  350   4.324   4.112   3.502
    1C        C  351   4.397   3.991   3.504
    1C        C  352   4.280   4.166   3.624
    1C        C  353   4.324   4.112   3.748
    1C        C  354   4.181   4.269   3.870
    1C        C  355   4.285   4.173   3.869
    1C        C  356   4.126   4.319   3.990
    1C        C  357   4.179   4.274   4.113
    1C        C  358   4.016   4.407   4.233
    1C        C  359   4.132   4.328   4.235
    1C        C  360   3.956   4.452   4.353
    1C        C  361   4.022   4.420   4.474
    1C        C  362   3.831   4.516   4.597
    1C        C  363   3.963   4.467   4.594
    1C        C  364   3.764   4.547   4.717
    1C        C  365   3.840   4.538   4.835
    1C        C  366   3.630   4.582   4.955
    1C        C  367   3.769   4.578   4.949
    1C        C  368   4.513   3.566   2.055
    1C        C  369   4.524   3.491   2.173
    1C        C  370   4.511   3.711   2.287
    1C        C  371   4.525   3.570   2.290
    1C        C  372   4.491   3.781   2.408
    1C        C  373   4.506   3.713   2.530
    1C        C  374   4.434   3.913   2.648
    1C        C  375   4.489   3.783   2.652
    1C        C  376   4.400   3.975   2.771
    1C        C  377   4.431   3.914   2.895
    1C        C  378   4.318   4.096   3.014
    1C        C  379   4.399   3.981   3.015
    1C        C  380   4.277   4.156   3.135
    1C        C  381   4.322   4.104   3.258
    1C        C  382   4.182   4.268   3.381
    1C        C  383   4.278   4.164   3.379
    1C        C  384   4.126   4.311   3.503
    1C        C  385   4.180   4.265   3.625
    1C        C  386   4.010   4.393   3.744
    1C        C  387   4.127   4.314   3.747
    1C        C  388   3.950   4.431   3.867
    1C        C  389   4.010   4.400   3.991
    1C        C  390   3.815   4.483   4.111
    1C        C  391   3.949   4.438   4.112
    1C        C  392   3.752   4.512   4.234
    1C        C  393   3.825   4.506   4.355
    1C        C  394   3.618   4.548   4.477
    1C        C  395   3.759   4.534   4.477
    1C        C  396   3.548   4.566   4.599
    1C        C  397   3.624   4.566   4.718
    1C        C  398   3.412   4.553   4.842
    1C        C  399   3.552   4.574   4.839
    1C        C  400   3.347   4.516   4.960
    1C        C  401   4.501   3.705   2.051
    1C        C  402   4.457   3.919   2.167
    1C        C  403   4.497   3.783   2.167
    1C        C  404   4.415   3.981   2.287
    1C        C  405   4.439   3.913   2.408
    1C        C  406   4.332   4.101   2.526
    1C        C  407   4.406   3.981   2.527
    1C        C  408   4.283   4.152   2.648
    1C        C  409   4.323   4.093   2.770
    1C        C  410   4.173   4.246   2.888
    1C        C  411   4.278   4.151   2.891
    1C        C  412   4.122   4.292   3.012
    1C        C  413   4.178   4.257   3.137
    1C        C  414   4.004   4.380   3.253
    1C        C  415   4.127   4.310   3.258
    1C        C  416   3.944   4.411   3.377
    1C        C  417   4.006   4.385   3.502
    1C        C  418   3.815   4.479   3.622
    1C        C  419   3.946   4.426   3.623
    1C        C  420   3.748   4.500   3.744
    1C        C  421   3.818   4.481   3.865
    1C        C  422   3.614   4.536   3.989
    1C        C  423   3.751   4.504   3.987
    1C        C  424   3.544   4.545   4.112
    1C        C  425   3.614   4.540   4.235
    1C        C  426   3.403   4.551   4.358
    1C        C  427   3.545   4.552   4.357
    1C        C  428   3.334   4.548   4.481
    1C        C  429   3.407   4.557   4.602
    1C        C  430   3.196   4.519   4.726
    1C        C  431   3.335   4.551   4.724
    1C        C  432   3.128   4.493   4.848
    1C        C  433   3.209   4.495   4.962
    1C        C  434   4.386   4.125   2.049
    1C        C  435   4.446   3.998   2.052
    1C        C  436   4.310   4.169   2.162
    1C        C  437   4.342   4.103   2.284
    1C        C  438   4.188   4.253   2.405
    1C        C  439   4.296   4.162   2.404
    1C        C  440   4.126   4.296   2.525
    1C        C  441   4.180   4.249   2.646
    1C        C  442   4.004   4.373   2.766
    1C        C  443   4.120   4.293   2.766
    1C        C  444   3.944   4.412   2.889
    1C        C  445   4.007   4.373   3.009
    1C        C  446   3.813   4.465   3.131
    1C        C  447   3.943   4.411   3.130
    1C        C  448   3.750   4.494   3.255
    1C        C  449   3.817   4.473   3.377
    1C        C  450   3.611   4.526   3.499
    1C        C  451   3.750   4.501   3.499
    1C        C  452   3.544   4.542   3.622
    1C        C  453   3.610   4.534   3.747
    1C        C  454   3.399   4.546   3.867
    1C        C  455   3.540   4.544   3.869
    1C        C  456   3.332   4.533   3.991
    1C        C  457   3.403   4.538   4.113
    1C        C  458   3.195   4.506   4.241
    1C        C  459   3.333   4.535   4.236
    1C        C  460   3.128   4.487   4.363
    1C        C  461   3.197   4.515   4.483
    1C        C  462   2.999   4.436   4.605
    1C        C  463   3.128   4.493   4.605
    1C        C  464   2.934   4.407   4.727
    1C        C  465   2.993   4.447   4.851
    1C        C  466   2.809   4.332   4.963
    1C        C  467   2.909   4.430   4.966
    1C        C  468   4.125   4.288   2.043
    1C        C  469   4.192   4.250   2.160
    1C        C  470   4.010   4.366   2.281
    1C        C  471   4.132   4.293   2.282
    1C        C  472   3.941   4.395   2.401
    1C        C  473   4.008   4.374   2.523
    1C        C  474   3.814   4.465   2.644
    1C        C  475   3.944   4.409   2.644
    1C        C  476   3.746   4.486   2.766
    1C        C  477   3.813   4.463   2.888
    1C        C  478   3.605   4.513   3.011
    1C        C  479   3.743   4.483   3.010
    1C        C  480   3.538   4.527   3.135
    1C        C  481   3.612   4.523   3.255
    1C        C  482   3.399   4.527   3.379
    1C        C  483   3.541   4.528   3.377
    1C        C  484   3.330   4.527   3.502
    1C        C  485   3.402   4.540   3.623
    1C        C  486   3.192   4.509   3.746
    1C        C  487   3.330   4.539   3.744
    1C        C  488   3.130   4.481   3.870
    1C        C  489   3.195   4.503   3.994
    1C        C  490   3.005   4.416   4.117
    1C        C  491   3.130   4.481   4.118
    1C        C  492   2.943   4.385   4.240
    1C        C  493   3.001   4.424   4.363
    1C        C  494   2.831   4.301   4.489
    1C        C  495   2.938   4.393   4.485
    1C        C  496   2.781   4.252   4.611
    1C        C  497   2.822   4.319   4.729
    1C        C  498   2.668   4.166   4.851
    1C        C  499   2.759   4.274   4.846
    1C        C  500   2.594   4.120   4.961
    1C        C  501   4.003   4.355   2.043
    1C        C  502   3.815   4.460   2.157
    1C        C  503   3.941   4.397   2.162
    1C        C  504   3.744   4.476   2.278
    1C        C  505   3.811   4.451   2.400
    1C        C  506   3.609   4.516   2.523
    1C        C  507   3.747   4.484   2.521
    1C        C  508   3.537   4.516   2.644
    1C        C  509   3.607   4.510   2.767
    1C        C  510   3.395   4.527   2.889
    1C        C  511   3.536   4.526   2.888
    1C        C  512   3.324   4.525   3.012
    1C        C  513   3.397   4.532   3.132
    1C        C  514   3.191   4.497   3.257
    1C        C  515   3.329   4.526   3.256
    1C        C  516   3.126   4.473   3.380
    1C        C  517   3.193   4.496   3.502
    1C        C  518   3.001   4.411   3.629
    1C        C  519   3.126   4.476   3.625
    1C        C  520   2.943   4.375   3.752
    1C        C  521   3.008   4.410   3.873
    1C        C  522   2.834   4.289   4.000
    1C        C  523   2.945   4.377   3.995
    1C        C  524   2.788   4.238   4.124
    1C        C  525   2.835   4.295   4.245
    1C        C  526   2.698   4.135   4.367
    1C        C  527   2.781   4.249   4.367
    1C        C  528   2.654   4.081   4.490
    1C        C  529   2.691   4.143   4.612
    1C        C  530   2.581   3.963   4.735
    1C        C  531   2.641   4.092   4.734
    1C        C  532   2.539   3.905   4.858
    1C        C  533   2.531   3.995   4.969
    1C        C  534   3.616   4.561   2.046
    1C        C  535   3.746   4.511   2.046
    1C        C  536   3.534   4.545   2.163
    1C        C  537   3.608   4.516   2.281
    1C        C  538   3.396   4.518   2.403
    1C        C  539   3.537   4.527   2.402
    1C        C  540   3.324   4.518   2.525
    1C        C  541   3.396   4.518   2.647
    1C        C  542   3.185   4.488   2.769
    1C        C  543   3.323   4.518   2.768
    1C        C  544   3.121   4.463   2.893
    1C        C  545   3.186   4.494   3.014
    1C        C  546   2.994   4.409   3.138
    1C        C  547   3.119   4.476   3.137
    1C        C  548   2.938   4.369   3.261
    1C        C  549   3.000   4.408   3.382
    1C        C  550   2.833   4.282   3.508
    1C        C  551   2.943   4.372   3.506
    1C        C  552   2.783   4.234   3.631
    1C        C  553   2.836   4.283   3.752
    1C        C  554   2.711   4.120   3.880
    1C        C  555   2.789   4.237   3.877
    1C        C  556   2.673   4.059   4.002
    1C        C  557   2.706   4.123   4.123
    1C        C  558   2.602   3.943   4.251
    1C        C  559   2.665   4.069   4.247
    1C        C  560   2.574   3.880   4.374
    1C        C  561   2.596   3.952   4.493
    1C        C  562   2.532   3.752   4.618
    1C        C  563   2.562   3.890   4.616
    1C        C  564   2.514   3.684   4.741
    1C        C  565   2.523   3.763   4.859
    1C        C  566   2.526   3.548   4.979
    1C        C  567   2.527   3.687   4.977
    1C        C  568   3.329   4.484   2.042
    1C        C  569   3.395   4.518   2.160
    1C        C  570   3.185   4.481   2.284
    1C        C  571   3.323   4.516   2.283
    1C        C  572   3.116   4.464   2.406
    1C        C  573   3.186   4.490   2.525
    1C        C  574   2.994   4.399   2.653
    1C        C  575   3.117   4.468   2.647
    1C        C  576   2.931   4.361   2.774
    1C        C  577   2.995   4.401   2.893
    1C        C  578   2.824   4.279   3.018
    1C        C  579   2.933   4.369   3.017
    1C        C  580   2.782   4.225   3.141
    1C        C  581   2.834   4.274   3.263
    1C        C  582   2.696   4.117   3.388
    1C        C  583   2.785   4.227   3.387
    1C        C  584   2.659   4.062   3.512
    1C        C  585   2.698   4.121   3.635
    1C        C  586   2.609   3.932   3.759
    1C        C  587   2.671   4.059   3.759
    1C        C  588   2.578   3.870   3.882
    1C        C  589   2.606   3.935   4.005
    1C        C  590   2.538   3.739   4.131
    1C        C  591   2.577   3.875   4.130
    1C        C  592   2.521   3.673   4.255
    1C        C  593   2.531   3.745   4.376
    1C        C  594   2.512   3.536   4.502
    1C        C  595   2.519   3.677   4.499
    1C        C  596   2.513   3.465   4.624
    1C        C  597   2.509   3.542   4.743
    1C        C  598   2.524   3.329   4.866
    1C        C  599   2.513   3.469   4.863
    1C        C  600   2.520   3.247   4.980
    1C        C  601   3.195   4.450   2.046
    1C        C  602   2.986   4.394   2.162
    1C        C  603   3.117   4.450   2.162
    1C        C  604   2.929   4.359   2.288
    1C        C  605   2.989   4.402   2.408
    1C        C  606   2.820   4.277   2.530
    1C        C  607   2.930   4.365   2.531
    1C        C  608   2.773   4.219   2.650
    1C        C  609   2.821   4.273   2.772
    1C        C  610   2.687   4.115   2.898
    1C        C  611   2.772   4.227   2.897
    1C        C  612   2.661   4.053   3.022
    1C        C  613   2.695   4.114   3.145
    1C        C  614   2.595   3.928   3.270
    1C        C  615   2.654   4.056   3.267
    1C        C  616   2.572   3.866   3.395
    1C        C  617   2.604   3.932   3.516
    1C        C  618   2.539   3.730   3.641
    1C        C  619   2.580   3.865   3.638
    1C        C  620   2.521   3.664   3.765
    1C        C  621   2.536   3.735   3.886
    1C        C  622   2.516   3.527   4.012
    1C        C  623   2.521   3.669   4.010
    1C        C  624   2.521   3.460   4.136
    1C        C  625   2.515   3.532   4.258
    1C        C  626   2.535   3.322   4.381
    1C        C  627   2.517   3.462   4.381
    1C        C  628   2.555   3.256   4.505
    1C        C  629   2.536   3.326   4.626
    1C        C  630   2.596   3.121   4.744
    1C        C  631   2.547   3.255   4.748
    1C        C  632   2.617   3.055   4.868
    1C        C  633   2.562   3.113   4.987
    1C        C  634   2.785   4.307   2.057
    1C        C  635   2.894   4.395   2.052
    1C        C  636   2.753   4.229   2.169
    1C        C  637   2.816   4.273   2.288
    1C        C  638   2.683   4.111   2.411
    1C        C  639   2.768   4.224   2.411
    1C        C  640   2.649   4.048   2.533
    1C        C  641   2.693   4.103   2.655
    1C        C  642   2.587   3.924   2.780
    1C        C  643   2.644   4.053   2.778
    1C        C  644   2.563   3.861   2.904
    1C        C  645   2.594   3.928   3.025
    1C        C  646   2.533   3.726   3.149
    1C        C  647   2.571   3.862   3.147
    1C        C  648   2.517   3.661   3.273
    1C        C  649   2.537   3.729   3.395
    1C        C  650   2.512   3.521   3.519
    1C        C  651   2.524   3.661   3.518
    1C        C  652   2.518   3.452   3.643
    1C        C  653   2.511   3.523   3.765
    1C        C  654   2.538   3.318   3.891
    1C        C  655   2.515   3.457   3.890
    1C        C  656   2.553   3.253   4.016
    1C        C  657   2.537   3.320   4.139
    1C        C  658   2.602   3.119   4.259
    1C        C  659   2.548   3.250   4.261
    1C        C  660   2.632   3.056   4.382
    1C        C  661   2.600   3.122   4.503
    1C        C  662   2.713   2.941   4.627
    1C        C  663   2.628   3.054   4.624
    1C        C  664   2.753   2.884   4.750
    1C        C  665   2.698   2.937   4.870
    1C        C  666   2.744   2.876   4.987
    1C        C  667   2.685   4.026   2.054
    1C        C  668   2.686   4.105   2.170
    1C        C  669   2.594   3.911   2.291
    1C        C  670   2.649   4.043   2.292
    1C        C  671   2.564   3.849   2.414
    1C        C  672   2.590   3.919   2.534
    1C        C  673   2.519   3.723   2.660
    1C        C  674   2.561   3.857   2.658
    1C        C  675   2.513   3.654   2.783
    1C        C  676   2.531   3.724   2.905
    1C        C  677   2.509   3.513   3.031
    1C        C  678   2.523   3.653   3.028
    1C        C  679   2.512   3.444   3.154
    1C        C  680   2.510   3.520   3.274
    1C        C  681   2.534   3.310   3.402
    1C        C  682   2.513   3.450   3.397
    1C        C  683   2.550   3.241   3.524
    1C        C  684   2.536   3.312   3.646
    1C        C  685   2.600   3.113   3.772
    1C        C  686   2.556   3.247   3.770
    1C        C  687   2.632   3.054   3.896
    1C        C  688   2.601   3.120   4.017
    1C        C  689   2.709   2.935   4.138
    1C        C  690   2.630   3.052   4.138
    1C        C  691   2.754   2.882   4.261
    1C        C  692   2.712   2.940   4.384
    1C        C  693   2.759   2.885   4.505
    1C        C  694   2.638   3.894   2.059
    1C        C  695   2.530   3.705   2.177
    1C        C  696   2.580   3.837   2.172
    1C        C  697   2.511   3.639   2.301
    1C        C  698   2.525   3.714   2.420
    1C        C  699   2.490   3.505   2.544
    1C        C  700   2.501   3.646   2.542
    1C        C  701   2.501   3.439   2.668
    1C        C  702   2.505   3.513   2.788
    1C        C  703   2.533   3.302   2.912
    1C        C  704   2.510   3.441   2.909
    1C        C  705   2.551   3.234   3.034
    1C        C  706   2.532   3.304   3.156
    1C        C  707   2.606   3.110   3.279
    1C        C  708   2.550   3.240   3.281
    1C        C  709   2.637   3.050   3.403
    1C        C  710   2.602   3.110   3.526
    1C        C  711   2.714   2.934   3.649
    1C        C  712   2.632   3.049   3.650
    1C        C  713   2.762   2.885   3.772
    1C        C  714   2.717   2.941   3.894
    1C        C  715   2.756   2.881   4.016
    1C        C  716   2.452   3.503   2.066
    1C        C  717   2.498   3.636   2.060
    1C        C  718   2.466   3.423   2.184
    1C        C  719   2.485   3.500   2.302
    1C        C  720   2.519   3.292   2.426
    1C        C  721   2.490   3.430   2.425
    1C        C  722   2.538   3.225   2.548
    1C        C  723   2.528   3.300   2.668
    1C        C  724   2.596   3.100   2.791
    1C        C  725   2.543   3.231   2.790
    1C        C  726   2.629   3.037   2.913
    1C        C  727   2.597   3.100   3.035
    1C        C  728   2.706   2.921   3.160
    1C        C  729   2.630   3.040   3.158
    1C        C  730   2.758   2.876   3.284
    1C        C  731   2.712   2.931   3.406
    1C        C  732   2.756   2.875   3.528
    1C        C  733   2.494   3.201   2.072
    1C        C  734   2.488   3.282   2.186
    1C        C  735   2.589   3.088   2.306
    1C        C  736   2.532   3.218   2.306
    1C        C  737   2.618   3.024   2.429
    1C        C  738   2.589   3.093   2.549
    1C        C  739   2.700   2.912   2.671
    1C        C  740   2.623   3.031   2.671
    1C        C  741   2.743   2.856   2.793
    1C        C  742   2.702   2.916   2.915
    1C        C  743   2.747   2.863   3.038
    1C        C  744   2.559   3.078   2.074
    1C        C  745   2.691   2.899   2.188
    1C        C  746   2.617   3.019   2.186
    1C        C  747   2.740   2.845   2.309
    1C        C  748   2.692   2.904   2.428
    1C        C  749   2.738   2.849   2.550
    1C        C  750   2.737   2.838   2.070
    1C        C  751   3.668   2.341   1.961
    1C        O  752   3.678   2.217   1.986
    1C        O  753   3.692   2.390   1.833
    1C        C  754   4.624   3.065   1.967
    1C        O  755   4.609   3.074   1.843
    1C        O  756   4.722   2.971   2.000
    1C        C  757   4.446   4.230   1.965
    1C        O  758   4.543   4.296   2.012
    1C        O  759   4.414   4.236   1.829
    1C        C  760   3.588   4.680   1.962
    1C        O  761   3.596   4.801   1.996
    1C        O  762   3.541   4.656   1.832
    1C        C  763   2.867   4.522   1.981
    1C        O  764   2.886   4.534   1.857
    1C        O  765   2.880   4.650   2.036
    1C        C  766   2.345   3.480   1.967
    1C        O  767   2.380   3.445   1.851
    1C        O  768   2.208   3.484   1.996
    1C        C  769   4.677   3.586   5.072
    1C        O  770   4.646   3.578   5.194
    1C        O  771   4.805   3.542   5.035
    1C        C  772   4.285   4.467   5.027
    1C        O  773   4.292   4.461   5.152
    1C        O  774   4.386   4.552   4.980
    1C        C  775   4.152   2.556   5.092
    1C        O  776   4.217   2.448   5.079
    1C        O  777   4.111   2.590   5.221
    1C        C  778   2.893   4.550   5.051
    1C        O  779   2.785   4.614   5.040
    1C        O  780   2.952   4.549   5.179
    1C        C  781   2.478   3.029   5.074
    1C        O  782   2.378   2.960   5.040
    1C        O  783   2.535   2.990   5.195
    1C        C  784   2.407   3.993   5.049
    1C        O  785   2.308   4.061   5.010
    1C        O  786   2.413   3.979   5.188
    1C        C  787   2.958   2.437   1.987
    1C        O  788   2.949   2.476   1.867
    1C        O  789   2.887   2.322   2.018
    1C        C  790   3.159   2.359   5.034
    1C        O  791   3.065   2.279   5.010
    1C        O  792   3.224   2.316   5.150
    1C        H  793   4.229   3.052   5.019
    1C        H  794   4.161   2.826   5.068
    1C        H  795   4.511   3.136   5.056
    1C        H  796   4.491   3.384   5.063
    1C        H  797   4.523   3.804   5.055
    1C        H  798   4.426   3.985   5.061
    1C        H  799   4.298   4.181   5.053
    1C        H  800   4.030   4.538   5.031
    1C        H  801   3.817   4.650   5.013
    1C        H  802   3.589   4.565   5.052
    1C        H  803   3.385   4.531   5.058
    1C        H  804   3.172   4.450   5.052
    1C        H  805   3.905   2.470   5.062
    1C        H  806   3.681   2.440   5.068
    1C        H  807   2.997   2.554   5.062
    1C        H  808   3.452   2.497   5.084
    1C        H  809   2.871   2.733   5.080
    1C        H  810   2.743   2.936   5.076
    1C        H  811   2.435   3.264   5.042
    1C        H  812   2.503   3.504   5.073
    1C        H  813   2.487   3.735   5.063
    1C        H  814   2.551   4.196   5.023
    1C        H  815   2.791   4.287   5.058
    1C        H  816   2.725   2.885   1.975
    1C        H  817   2.879   2.711   1.979
    1C        H  818   3.220   2.482   1.984
    1C        H  819   3.429   2.415   1.984
    1C        H  820   3.860   2.524   1.970
    1C        H  821   4.026   2.693   1.982
    1C        H  822   4.241   2.735   1.975
    1C        H  823   4.424   2.876   1.987
    1C        H  824   4.605   3.311   1.978
    1C        H  825   4.566   3.526   1.971
    1C        H  826   4.515   3.746   1.953
    1C        H  827   3.800   4.506   1.953
    1C        H  828   3.982   4.401   1.949
    1C        H  829   4.180   4.300   1.952
    1C        H  830   4.460   3.960   1.953
    1C        H  831   2.701   3.830   2.001
    1C        H  832   2.719   4.064   1.960
    1C        H  833   2.708   4.324   1.985
    1C        H  834   3.373   4.494   1.944
    1C        H  835   3.156   4.397   1.962
    1C        H  836   2.556   3.017   1.986
    1C        H  837   2.461   3.239   1.977
    1C        H  838   2.512   3.681   1.964
    2V3OU   H29  839   2.813   3.552   4.670
    2V3OU   C27  840   2.796   3.507   4.772
    2V3OU   H27  841   2.737   3.578   4.836
    2V3OU   H28  842   2.742   3.411   4.754
    2V3OU   O11  843   2.916   3.471   4.839
    2V3OU   C15  844   2.920   3.397   4.956
    2V3OU   C13  845   3.050   3.377   5.008
    2V3OU   C14  846   3.077   3.268   5.091
    2V3OU   C16  847   2.977   3.188   5.145
    2V3OU    H6  848   2.995   3.104   5.215
    2V3OU   C12  849   3.218   3.238   5.120
    2V3OU    O2  850   3.246   3.134   5.186
    2V3OU   C10  851   3.326   3.309   5.050
    2V3OU    C8  852   3.459   3.272   5.063
    2V3OU   O10  853   3.492   3.159   5.131
    2V3OU   H26  854   3.410   3.115   5.158
    2V3OU    C6  855   3.566   3.352   5.011
    2V3OU    C5  856   3.536   3.470   4.944
    2V3OU    C4  857   3.704   3.294   5.009
    2V3OU    H4  858   3.721   3.226   5.097
    2V3OU    H5  859   3.711   3.230   4.917
    2V3OU    C2  860   3.817   3.397   5.009
    2V3OU    O6  861   3.800   3.483   5.122
    2V3OU   H21  862   3.771   3.565   5.079
    2V3OU    C3  863   3.782   3.493   4.894
    2V3OU    H2  864   3.864   3.568   4.881
    2V3OU    H3  865   3.785   3.436   4.798
    2V3OU   C25  866   3.953   3.329   4.997
    2V3OU    O7  867   3.998   3.293   4.888
    2V3OU   C26  868   4.035   3.297   5.122
    2V3OU   H22  869   4.072   3.390   5.173
    2V3OU   H23  870   4.114   3.222   5.097
    2V3OU    O8  871   3.954   3.216   5.204
    2V3OU   H24  872   3.928   3.272   5.279
    2V3OU    C1  873   3.648   3.563   4.910
    2V3OU    H1  874   3.627   3.622   4.816
    2V3OU    O3  875   3.659   3.660   5.015
    2V3OU   C19  876   3.619   3.796   4.993
    2V3OU    H9  877   3.527   3.807   4.927
    2V3OU    O4  878   3.717   3.854   4.910
    2V3OU   C20  879   3.847   3.872   4.964
    2V3OU   H10  880   3.895   3.770   4.977
    2V3OU   C24  881   3.611   3.856   5.133
    2V3OU   H16  882   3.544   3.790   5.195
    2V3OU   H17  883   3.571   3.960   5.133
    2V3OU   C23  884   3.749   3.881   5.193
    2V3OU   H15  885   3.791   3.776   5.211
    2V3OU    N1  886   3.742   3.957   5.316
    2V3OU   H19  887   3.817   3.931   5.376
    2V3OU   H20  888   3.657   3.939   5.366
    2V3OU   C21  889   3.850   3.950   5.096
    2V3OU   H11  890   3.953   3.923   5.133
    2V3OU    O5  891   3.836   4.091   5.091
    2V3OU   H18  892   3.773   4.106   5.163
    2V3OU   C22  893   3.920   3.952   4.858
    2V3OU   H12  894   3.863   4.046   4.837
    2V3OU   H13  895   3.912   3.898   4.760
    2V3OU   H14  896   4.028   3.960   4.887
    2V3OU   C11  897   3.154   3.478   4.985
    2V3OU    O1  898   3.134   3.593   4.941
    2V3OU    C9  899   3.295   3.435   4.992
    2V3OU    C7  900   3.399   3.509   4.936
    2V3OU    O9  901   3.383   3.614   4.849
    2V3OU   H25  902   3.289   3.635   4.838
    2V3OU   C17  903   2.820   3.321   5.019
    2V3OU    H7  904   2.720   3.362   5.032
    2V3OU   C18  905   2.847   3.215   5.106
    2V3OU    H8  906   2.760   3.156   5.139
    3SOL     OW  907   3.004   4.362   5.346
    3SOL    HW1  908   2.973   4.429   5.279
    3SOL    HW2  909   3.103   4.367   5.355
    4SOL     OW  910   6.823   0.206   6.935
    4SOL    HW1  911   6.843   0.128   6.995
    4SOL    HW2  912   6.903   0.226   6.878
    5SOL     OW  913   4.206   0.840   1.472
    5SOL    HW1  914   4.266   0.824   1.551
    5SOL    HW2  915   4.261   0.868   1.394
    6SOL     OW  916   5.793   1.334   3.509
    6SOL    HW1  917   5.702   1.334   3.551
    6SOL    HW2  918   5.788   1.371   3.417
    7SOL     OW  919   1.100   4.186   5.269
    7SOL    HW1  920   1.157   4.212   5.191
    7SOL    HW2  921   1.128   4.095   5.302
    8SOL     OW  922   2.216   2.638   6.191
    8SOL    HW1  923   2.303   2.594   6.209
    8SOL    HW2  924   2.219   2.684   6.103
    9SOL     OW  925   6.748   1.636   6.433
    9SOL    HW1  926   6.822   1.703   6.430
    9SOL    HW2  927   6.699   1.644   6.519
   10SOL     OW  928   4.537   5.069   2.926
   10SOL    HW1  929   4.614   5.111   2.973
   10SOL    HW2  930   4.469   5.140   2.905
   11SOL     OW  931   2.012   0.797   6.925
   11SOL    HW1  932   2.081   0.767   6.991
   11SOL    HW2  933   1.954   0.867   6.966
   12SOL     OW  934   2.530   4.543   3.284
   12SOL    HW1  935   2.457   4.558   3.350
   12SOL    HW2  936   2.496   4.486   3.209
   13SOL     OW  937   4.333   6.158   2.740
   13SOL    HW1  938   4.344   6.205   2.652
   13SOL    HW2  939   4.423   6.128   2.773
   14SOL     OW  940   5.074   4.936   5.671
   14SOL    HW1  941   5.048   5.026   5.707
   14SOL    HW2  942   5.022   4.918   5.588
   15SOL     OW  943   1.120   6.100   6.147
   15SOL    HW1  944   1.206   6.056   6.174
   15SOL    HW2  945   1.072   6.132   6.228
   16SOL     OW  946   6.112   2.703   6.445
   16SOL    HW1  947   6.090   2.653   6.361
   16SOL    HW2  948   6.210   2.722   6.448
   17SOL     OW  949   6.189   0.597   5.754
   17SOL    HW1  950   6.214   0.501   5.764
   17SOL    HW2  951   6.104   0.614   5.802
   18SOL     OW  952   2.956   0.696   5.005
   18SOL    HW1  953   3.044   0.714   5.050
   18SOL    HW2  954   2.896   0.776   5.015
   19SOL     OW  955   1.305   1.834   3.295
   19SOL    HW1  956   1.213   1.805   3.270
   19SOL    HW2  957   1.322   1.927   3.260
   20SOL     OW  958   5.833   2.676   5.809
   20SOL    HW1  959   5.737   2.700   5.820
   20SOL    HW2  960   5.851   2.588   5.853
   21SOL     OW  961   3.730   6.231   2.769
   21SOL    HW1  962   3.741   6.143   2.724
   21SOL    HW2  963   3.658   6.225   2.838
   22SOL     OW  964   1.953   6.362   4.747
   22SOL    HW1  965   1.904   6.287   4.793
   22SOL    HW2  966   1.958   6.440   4.809
   23SOL     OW  967   5.186   4.658   1.978
   23SOL    HW1  968   5.220   4.590   2.042
   23SOL    HW2  969   5.110   4.620   1.925
   24SOL     OW  970   3.744   0.298   1.680
   24SOL    HW1  971   3.788   0.239   1.612
   24SOL    HW2  972   3.808   0.316   1.754
   25SOL     OW  973   2.703   6.897   3.215
   25SOL    HW1  974   2.774   6.958   3.179
   25SOL    HW2  975   2.696   6.909   3.314
   26SOL     OW  976   1.816   1.967   6.671
   26SOL    HW1  977   1.903   1.924   6.694
   26SOL    HW2  978   1.756   1.966   6.752
   27SOL     OW  979   6.937   0.834   2.382
   27SOL    HW1  980   6.988   0.901   2.434
   27SOL    HW2  981   6.953   0.848   2.284
   28SOL     OW  982   1.775   0.643   4.867
   28SOL    HW1  983   1.728   0.652   4.955
   28SOL    HW2  984   1.728   0.699   4.799
   29SOL     OW  985   6.821   0.962   6.944
   29SOL    HW1  986   6.752   0.892   6.962
   29SOL    HW2  987   6.874   0.978   7.028
   30SOL     OW  988   3.576   0.507   5.035
   30SOL    HW1  989   3.600   0.483   5.129
   30SOL    HW2  990   3.632   0.585   5.005
   31SOL     OW  991   0.206   2.781   4.935
   31SOL    HW1  992   0.171   2.819   4.849
   31SOL    HW2  993   0.215   2.682   4.926
   32SOL     OW  994   1.384   1.314   0.814
   32SOL    HW1  995   1.424   1.235   0.859
   32SOL    HW2  996   1.451   1.355   0.752
   33SOL     OW  997   0.615   3.387   5.564
   33SOL    HW1  998   0.650   3.480   5.564
   33SOL    HW2  999   0.633   3.344   5.653
   34SOL     OW 1000   1.671   5.190   5.119
   34SOL    HW1 1001   1.716   5.222   5.202
   34SOL    HW2 1002   1.605   5.258   5.089
   35SOL     OW 1003   4.031   2.784   6.514
   35SOL    HW1 1004   4.096   2.710   6.495
   35SOL    HW2 1005   3.958   2.783   6.447
   36SOL     OW 1006   5.119   1.001   4.049
   36SOL    HW1 1007   5.069   1.048   3.976
   36SOL    HW2 1008   5.198   0.953   4.010
   37SOL     OW 1009   2.159   1.399   3.414
   37SOL    HW1 1010   2.115   1.384   3.503
   37SOL    HW2 1011   2.145   1.494   3.385
   38SOL     OW 1012   1.789   5.238   2.225
   38SOL    HW1 1013   1.878   5.218   2.183
   38SOL    HW2 1014   1.716   5.197   2.169
   39SOL     OW 1015   5.893   4.519   6.693
   39SOL    HW1 1016   5.874   4.429   6.734
   39SOL    HW2 1017   5.807   4.564   6.671
   40SOL     OW 1018   3.552   0.455   6.242
   40SOL    HW1 1019   3.516   0.369   6.279
   40SOL    HW2 1020   3.626   0.488   6.300
   41SOL     OW 1021   5.836   4.017   2.148
   41SOL    HW1 1022   5.746   3.974   2.159
   41SOL    HW2 1023   5.826   4.116   2.148
   42SOL     OW 1024   2.914   5.550   4.571
   42SOL    HW1 1025   2.844   5.552   4.643
   42SOL    HW2 1026   2.873   5.575   4.484
   43SOL     OW 1027   4.207   6.810   4.969
   43SOL    HW1 1028   4.182   6.780   4.877
   43SOL    HW2 1029   4.306   6.819   4.975
   44SOL     OW 1030   6.177   3.373   5.167
   44SOL    HW1 1031   6.213   3.356   5.075
   44SOL    HW2 1032   6.199   3.466   5.194
   45SOL     OW 1033   4.409   5.720   0.831
   45SOL    HW1 1034   4.497   5.758   0.804
   45SOL    HW2 1035   4.422   5.624   0.860
   46SOL     OW 1036   0.436   3.109   3.931
   46SOL    HW1 1037   0.464   3.107   4.027
   46SOL    HW2 1038   0.473   3.029   3.883
   47SOL     OW 1039   5.295   3.544   2.012
   47SOL    HW1 1040   5.226   3.506   1.951
   47SOL    HW2 1041   5.378   3.566   1.959
   48SOL     OW 1042   7.026   3.052   6.814
   48SOL    HW1 1043   7.002   3.125   6.877
   48SOL    HW2 1044   6.971   3.061   6.730
   49SOL     OW 1045   5.094   3.060   0.539
   49SOL    HW1 1046   5.061   3.149   0.508
   49SOL    HW2 1047   5.021   2.993   0.533
   50SOL     OW 1048   6.008   2.278   6.056
   50SOL    HW1 1049   6.064   2.321   5.986
   50SOL    HW2 1050   6.063   2.258   6.137
   51SOL     OW 1051   2.070   4.790   2.940
   51SOL    HW1 1052   2.047   4.806   2.844
   51SOL    HW2 1053   2.002   4.835   2.998
   52SOL     OW 1054   5.626   3.137   1.753
   52SOL    HW1 1055   5.599   3.176   1.841
   52SOL    HW2 1056   5.583   3.047   1.742
   53SOL     OW 1057   4.974   6.998   3.510
   53SOL    HW1 1058   4.925   6.920   3.470
   53SOL    HW2 1059   4.952   0.052   3.458
   54SOL     OW 1060   5.883   5.828   0.371
   54SOL    HW1 1061   5.842   5.915   0.342
   54SOL    HW2 1062   5.816   5.755   0.361
   55SOL     OW 1063   2.261   2.635   6.560
   55SOL    HW1 1064   2.294   2.694   6.633
   55SOL    HW2 1065   2.161   2.635   6.560
   56SOL     OW 1066   1.310   1.942   0.274
   56SOL    HW1 1067   1.254   1.877   0.326
   56SOL    HW2 1068   1.312   2.029   0.323
   57SOL     OW 1069   3.758   0.783   0.060
   57SOL    HW1 1070   3.714   0.720   7.024
   57SOL    HW2 1071   3.709   0.781   0.148
   58SOL     OW 1072   1.113   0.326   6.320
   58SOL    HW1 1073   1.140   0.381   6.399
   58SOL    HW2 1074   1.018   0.347   6.296
   59SOL     OW 1075   6.300   3.807   6.537
   59SOL    HW1 1076   6.228   3.749   6.499
   59SOL    HW2 1077   6.380   3.751   6.558
   60SOL     OW 1078   5.777   0.473   3.549
   60SOL    HW1 1079   5.821   0.390   3.517
   60SOL    HW2 1080   5.810   0.552   3.497
   61SOL     OW 1081   0.518   1.300   4.016
   61SOL    HW1 1082   0.598   1.247   4.048
   61SOL    HW2 1083   0.438   1.240   4.013
   62SOL     OW 1084   0.759   0.890   1.803
   62SOL    HW1 1085   0.849   0.873   1.763
   62SOL    HW2 1086   0.689   0.844   1.749
   63SOL     OW 1087   3.982   6.534   4.073
   63SOL    HW1 1088   3.998   6.631   4.087
   63SOL    HW2 1089   3.891   6.520   4.033
   64SOL     OW 1090   1.320   4.332   6.772
   64SOL    HW1 1091   1.420   4.320   6.770
   64SOL    HW2 1092   1.282   4.279   6.848
   65SOL     OW 1093   0.806   0.746   5.589
   65SOL    HW1 1094   0.732   0.679   5.603
   65SOL    HW2 1095   0.793   0.793   5.502
   66SOL     OW 1096   3.717   0.135   2.420
   66SOL    HW1 1097   3.768   0.059   2.380
   66SOL    HW2 1098   3.738   0.220   2.371
   67SOL     OW 1099   0.358   2.533   0.526
   67SOL    HW1 1100   0.291   2.592   0.572
   67SOL    HW2 1101   0.360   2.555   0.428
   68SOL     OW 1102   0.224   2.342   5.369
   68SOL    HW1 1103   0.239   2.407   5.443
   68SOL    HW2 1104   0.134   2.357   5.329
   69SOL     OW 1105   1.018   5.265   5.621
   69SOL    HW1 1106   1.108   5.262   5.666
   69SOL    HW2 1107   1.031   5.277   5.522
   70SOL     OW 1108   5.445   3.644   4.548
   70SOL    HW1 1109   5.519   3.704   4.516
   70SOL    HW2 1110   5.368   3.650   4.484
   71SOL     OW 1111   4.587   1.594   4.807
   71SOL    HW1 1112   4.577   1.500   4.838
   71SOL    HW2 1113   4.498   1.638   4.804
   72SOL     OW 1114   0.274   0.458   3.992
   72SOL    HW1 1115   0.289   0.375   3.937
   72SOL    HW2 1116   0.177   0.481   3.991
   73SOL     OW 1117   2.854   0.886   0.218
   73SOL    HW1 1118   2.914   0.830   0.161
   73SOL    HW2 1119   2.777   0.831   0.249
   74SOL     OW 1120   2.473   1.605   5.968
   74SOL    HW1 1121   2.513   1.572   5.882
   74SOL    HW2 1122   2.481   1.533   6.037
   75SOL     OW 1123   4.440   1.343   0.778
   75SOL    HW1 1124   4.365   1.280   0.799
   75SOL    HW2 1125   4.480   1.377   0.863
   76SOL     OW 1126   2.609   4.322   5.360
   76SOL    HW1 1127   2.674   4.344   5.433
   76SOL    HW2 1128   2.599   4.401   5.300
   77SOL     OW 1129   1.923   5.524   4.283
   77SOL    HW1 1130   1.947   5.600   4.223
   77SOL    HW2 1131   1.835   5.486   4.254
   78SOL     OW 1132   4.284   1.627   1.032
   78SOL    HW1 1133   4.261   1.718   1.067
   78SOL    HW2 1134   4.358   1.635   0.965
   79SOL     OW 1135   1.922   5.507   1.703
   79SOL    HW1 1136   1.939   5.520   1.801
   79SOL    HW2 1137   1.827   5.481   1.689
   80SOL     OW 1138   4.588   2.100   5.285
   80SOL    HW1 1139   4.600   2.044   5.203
   80SOL    HW2 1140   4.579   2.196   5.258
   81SOL     OW 1141   1.955   6.702   1.211
   81SOL    HW1 1142   1.914   6.655   1.288
   81SOL    HW2 1143   1.917   6.795   1.204
   82SOL     OW 1144   0.851   5.960   2.029
   82SOL    HW1 1145   0.758   5.943   1.995
   82SOL    HW2 1146   0.917   5.923   1.964
   83SOL     OW 1147   6.724   2.423   5.746
   83SOL    HW1 1148   6.742   2.391   5.653
   83SOL    HW2 1149   6.680   2.350   5.798
   84SOL     OW 1150   6.307   3.183   3.838
   84SOL    HW1 1151   6.395   3.153   3.875
   84SOL    HW2 1152   6.321   3.263   3.780
   85SOL     OW 1153   1.756   6.972   3.833
   85SOL    HW1 1154   1.702   7.002   3.912
   85SOL    HW2 1155   1.697   6.927   3.766
   86SOL     OW 1156   5.698   1.298   6.109
   86SOL    HW1 1157   5.722   1.395   6.097
   86SOL    HW2 1158   5.657   1.285   6.199
   87SOL     OW 1159   4.423   4.626   6.804
   87SOL    HW1 1160   4.447   4.694   6.874
   87SOL    HW2 1161   4.499   4.562   6.792
   88SOL     OW 1162   2.892   2.670   5.762
   88SOL    HW1 1163   2.846   2.732   5.826
   88SOL    HW2 1164   2.825   2.635   5.697
   89SOL     OW 1165   3.038   3.269   2.240
   89SOL    HW1 1166   2.988   3.251   2.325
   89SOL    HW2 1167   3.065   3.182   2.199
   90SOL     OW 1168   4.941   3.723   3.101
   90SOL    HW1 1169   5.025   3.683   3.065
   90SOL    HW2 1170   4.914   3.674   3.183
   91SOL     OW 1171   5.611   5.752   6.095
   91SOL    HW1 1172   5.540   5.723   6.158
   91SOL    HW2 1173   5.690   5.691   6.103
   92SOL     OW 1174   5.150   4.299   0.147
   92SOL    HW1 1175   5.052   4.312   0.162
   92SOL    HW2 1176   5.201   4.366   0.201
   93SOL     OW 1177   3.164   2.806   1.191
   93SOL    HW1 1178   3.124   2.871   1.256
   93SOL    HW2 1179   3.120   2.717   1.202
   94SOL     OW 1180   2.902   0.077   6.053
   94SOL    HW1 1181   2.958   0.093   5.972
   94SOL    HW2 1182   2.805   0.081   6.028
   95SOL     OW 1183   0.579   0.792   4.522
   95SOL    HW1 1184   0.620   0.838   4.600
   95SOL    HW2 1185   0.559   0.697   4.545
   96SOL     OW 1186   4.733   4.986   6.995
   96SOL    HW1 1187   4.706   4.996   0.063
   96SOL    HW2 1188   4.657   4.947   6.943
   97SOL     OW 1189   1.535   4.777   5.433
   97SOL    HW1 1190   1.460   4.715   5.405
   97SOL    HW2 1191   1.611   4.768   5.368
   98SOL     OW 1192   1.007   2.763   1.969
   98SOL    HW1 1193   0.954   2.830   2.021
   98SOL    HW2 1194   0.982   2.768   1.873
   99SOL     OW 1195   3.565   3.727   3.782
   99SOL    HW1 1196   3.517   3.705   3.867
   99SOL    HW2 1197   3.604   3.644   3.743
  100SOL     OW 1198   6.978   6.617   3.989
  100SOL    HW1 1199   0.007   6.537   3.969
  100SOL    HW2 1200   0.003   6.700   3.977
  101SOL     OW 1201   0.681   4.774   2.338
  101SOL    HW1 1202   0.671   4.820   2.250
  101SOL    HW2 1203   0.775   4.784   2.371
  102SOL     OW 1204   2.724   6.209   1.908
  102SOL    HW1 1205   2.786   6.270   1.859
  102SOL    HW2 1206   2.697   6.252   1.995
  103SOL     OW 1207   2.116   1.242   2.584
  103SOL    HW1 1208   2.191   1.232   2.650
  103SOL    HW2 1209   2.038   1.188   2.614
  104SOL     OW 1210   1.032   4.176   1.919
  104SOL    HW1 1211   1.024   4.208   2.013
  104SOL    HW2 1212   1.127   4.188   1.888
  105SOL     OW 1213   5.851   1.772   6.640
  105SOL    HW1 1214   5.788   1.696   6.659
  105SOL    HW2 1215   5.821   1.853   6.692
  106SOL     OW 1216   5.525   5.144   1.683
  106SOL    HW1 1217   5.611   5.194   1.670
  106SOL    HW2 1218   5.457   5.204   1.725
  107SOL     OW 1219   6.585   1.274   0.022
  107SOL    HW1 1220   6.680   1.298   0.001
  107SOL    HW2 1221   6.552   1.205   6.986
  108SOL     OW 1222   2.074   0.646   4.858
  108SOL    HW1 1223   1.979   0.677   4.855
  108SOL    HW2 1224   2.081   0.558   4.811
  109SOL     OW 1225   3.603   0.953   2.820
  109SOL    HW1 1226   3.574   0.989   2.908
  109SOL    HW2 1227   3.655   1.023   2.771
  110SOL     OW 1228   2.362   4.550   5.699
  110SOL    HW1 1229   2.281   4.523   5.647
  110SOL    HW2 1230   2.383   4.647   5.681
  111SOL     OW 1231   5.833   1.338   2.670
  111SOL    HW1 1232   5.874   1.288   2.747
  111SOL    HW2 1233   5.889   1.417   2.648
  112SOL     OW 1234   4.397   6.734   6.899
  112SOL    HW1 1235   4.368   6.713   6.992
  112SOL    HW2 1236   4.392   6.651   6.843
  113SOL     OW 1237   6.398   5.851   2.802
  113SOL    HW1 1238   6.394   5.777   2.735
  113SOL    HW2 1239   6.493   5.865   2.830
  114SOL     OW 1240   1.290   4.528   3.720
  114SOL    HW1 1241   1.364   4.565   3.665
  114SOL    HW2 1242   1.254   4.601   3.779
  115SOL     OW 1243   6.174   0.804   3.310
  115SOL    HW1 1244   6.161   0.868   3.234
  115SOL    HW2 1245   6.204   0.854   3.391
  116SOL     OW 1246   0.864   6.026   1.356
  116SOL    HW1 1247   0.941   6.015   1.419
  116SOL    HW2 1248   0.875   5.963   1.279
  117SOL     OW 1249   3.059   1.576   6.948
  117SOL    HW1 1250   3.008   1.556   0.003
  117SOL    HW2 1251   3.043   1.503   6.881
  118SOL     OW 1252   1.092   1.526   3.342
  118SOL    HW1 1253   1.099   1.623   3.316
  118SOL    HW2 1254   1.087   1.518   3.441
  119SOL     OW 1255   6.983   6.795   6.790
  119SOL    HW1 1256   0.015   6.716   6.804
  119SOL    HW2 1257   6.888   6.767   6.802
  120SOL     OW 1258   4.955   0.933   5.579
  120SOL    HW1 1259   4.937   0.839   5.607
  120SOL    HW2 1260   5.015   0.933   5.500
  121SOL     OW 1261   1.289   3.462   6.817
  121SOL    HW1 1262   1.353   3.519   6.765
  121SOL    HW2 1263   1.340   3.406   6.882
  122SOL     OW 1264   1.112   4.438   0.087
  122SOL    HW1 1265   1.146   4.433   7.021
  122SOL    HW2 1266   1.175   4.493   0.142
  123SOL     OW 1267   1.463   1.208   1.717
  123SOL    HW1 1268   1.506   1.118   1.707
  123SOL    HW2 1269   1.364   1.199   1.701
  124SOL     OW 1270   3.240   2.367   1.103
  124SOL    HW1 1271   3.331   2.405   1.090
  124SOL    HW2 1272   3.181   2.434   1.145
  125SOL     OW 1273   3.355   2.546   0.214
  125SOL    HW1 1274   3.306   2.469   0.256
  125SOL    HW2 1275   3.345   2.627   0.272
  126SOL     OW 1276   3.513   3.056   3.253
  126SOL    HW1 1277   3.436   3.028   3.195
  126SOL    HW2 1278   3.586   3.094   3.196
  127SOL     OW 1279   6.950   6.004   6.089
  127SOL    HW1 1280   7.023   6.069   6.067
  127SOL    HW2 1281   6.901   5.979   6.006
  128SOL     OW 1282   4.986   3.650   1.490
  128SOL    HW1 1283   4.933   3.677   1.571
  128SOL    HW2 1284   4.926   3.650   1.410
  129SOL     OW 1285   2.304   6.031   0.807
  129SOL    HW1 1286   2.295   6.103   0.876
  129SOL    HW2 1287   2.384   5.975   0.827
  130SOL     OW 1288   5.534   1.924   4.726
  130SOL    HW1 1289   5.439   1.928   4.757
  130SOL    HW2 1290   5.555   1.831   4.694
  131SOL     OW 1291   0.125   1.588   4.034
  131SOL    HW1 1292   0.119   1.688   4.030
  131SOL    HW2 1293   0.116   1.557   4.129
  132SOL     OW 1294   3.284   4.042   1.776
  132SOL    HW1 1295   3.381   4.066   1.787
  132SOL    HW2 1296   3.267   3.954   1.819
  133SOL     OW 1297   5.406   0.499   4.545
  133SOL    HW1 1298   5.360   0.585   4.528
  133SOL    HW2 1299   5.340   0.431   4.576
  134SOL     OW 1300   5.941   0.514   2.032
  134SOL    HW1 1301   6.021   0.460   2.007
  134SOL    HW2 1302   5.967   0.584   2.098
  135SOL     OW 1303   4.876   3.767   4.337
  135SOL    HW1 1304   4.845   3.828   4.265
  135SOL    HW2 1305   4.941   3.815   4.397
  136SOL     OW 1306   2.575   6.510   4.580
  136SOL    HW1 1307   2.611   6.595   4.540
  136SOL    HW2 1308   2.478   6.503   4.560
  137SOL     OW 1309   3.090   2.018   4.975
  137SOL    HW1 1310   3.084   2.118   4.985
  137SOL    HW2 1311   3.015   1.975   5.025
  138SOL     OW 1312   0.482   5.723   4.256
  138SOL    HW1 1313   0.507   5.754   4.348
  138SOL    HW2 1314   0.557   5.668   4.218
  139SOL     OW 1315   2.068   5.679   6.692
  139SOL    HW1 1316   2.089   5.611   6.762
  139SOL    HW2 1317   2.103   5.648   6.603
  140SOL     OW 1318   2.388   0.804   3.067
  140SOL    HW1 1319   2.369   0.716   3.025
  140SOL    HW2 1320   2.384   0.795   3.167
  141SOL     OW 1321   6.821   3.965   0.181
  141SOL    HW1 1322   6.798   3.959   0.084
  141SOL    HW2 1323   6.920   3.969   0.192
  142SOL     OW 1324   0.813   4.265   1.787
  142SOL    HW1 1325   0.892   4.220   1.828
  142SOL    HW2 1326   0.844   4.339   1.728
  143SOL     OW 1327   5.906   6.608   1.511
  143SOL    HW1 1328   5.998   6.636   1.537
  143SOL    HW2 1329   5.850   6.690   1.497
  144SOL     OW 1330   2.752   4.808   3.943
  144SOL    HW1 1331   2.819   4.771   4.006
  144SOL    HW2 1332   2.665   4.760   3.953
  145SOL     OW 1333   6.573   5.152   2.921
  145SOL    HW1 1334   6.565   5.241   2.876
  145SOL    HW2 1335   6.497   5.093   2.892
  146SOL     OW 1336   6.115   1.875   5.752
  146SOL    HW1 1337   6.109   1.915   5.660
  146SOL    HW2 1338   6.205   1.832   5.763
  147SOL     OW 1339   5.018   1.223   4.747
  147SOL    HW1 1340   4.958   1.207   4.826
  147SOL    HW2 1341   4.975   1.289   4.686
  148SOL     OW 1342   1.208   4.688   1.177
  148SOL    HW1 1343   1.159   4.653   1.097
  148SOL    HW2 1344   1.250   4.776   1.155
  149SOL     OW 1345   2.396   2.164   5.160
  149SOL    HW1 1346   2.485   2.154   5.203
  149SOL    HW2 1347   2.336   2.218   5.219
  150SOL     OW 1348   4.254   1.726   5.417
  150SOL    HW1 1349   4.230   1.823   5.421
  150SOL    HW2 1350   4.347   1.713   5.454
  151SOL     OW 1351   4.186   1.947   0.690
  151SOL    HW1 1352   4.107   1.962   0.631
  151SOL    HW2 1353   4.248   2.026   0.683
  152SOL     OW 1354   0.815   0.967   7.000
  152SOL    HW1 1355   0.730   1.006   0.006
  152SOL    HW2 1356   0.820   0.979   6.901
  153SOL     OW 1357   2.369   1.369   3.909
  153SOL    HW1 1358   2.461   1.363   3.947
  153SOL    HW2 1359   2.372   1.353   3.810
  154SOL     OW 1360   6.277   1.922   1.285
  154SOL    HW1 1361   6.341   1.937   1.360
  154SOL    HW2 1362   6.240   1.829   1.291
  155SOL     OW 1363   0.361   0.202   2.132
  155SOL    HW1 1364   0.286   0.233   2.191
  155SOL    HW2 1365   0.420   0.139   2.184
  156SOL     OW 1366   4.927   0.752   0.168
  156SOL    HW1 1367   4.964   0.824   0.226
  156SOL    HW2 1368   4.961   0.764   0.074
  157SOL     OW 1369   5.302   3.814   0.367
  157SOL    HW1 1370   5.395   3.849   0.380
  157SOL    HW2 1371   5.249   3.826   0.450
  158SOL     OW 1372   1.261   3.373   2.554
  158SOL    HW1 1373   1.324   3.382   2.631
  158SOL    HW2 1374   1.173   3.339   2.586
  159SOL     OW 1375   4.920   5.494   0.774
  159SOL    HW1 1376   4.964   5.455   0.854
  159SOL    HW2 1377   4.876   5.581   0.799
  160SOL     OW 1378   5.866   0.550   0.474
  160SOL    HW1 1379   5.961   0.552   0.441
  160SOL    HW2 1380   5.822   0.638   0.454
  161SOL     OW 1381   0.990   6.641   0.457
  161SOL    HW1 1382   0.987   6.679   0.365
  161SOL    HW2 1383   1.085   6.642   0.490
  162SOL     OW 1384   2.565   6.365   0.158
  162SOL    HW1 1385   2.561   6.449   0.212
  162SOL    HW2 1386   2.592   6.388   0.064
  163SOL     OW 1387   6.563   4.480   3.320
  163SOL    HW1 1388   6.632   4.542   3.357
  163SOL    HW2 1389   6.608   4.398   3.284
  164SOL     OW 1390   1.578   1.738   2.828
  164SOL    HW1 1391   1.569   1.644   2.796
  164SOL    HW2 1392   1.516   1.754   2.905
  165SOL     OW 1393   0.438   5.762   2.537
  165SOL    HW1 1394   0.499   5.709   2.596
  165SOL    HW2 1395   0.475   5.762   2.444
  166SOL     OW 1396   6.364   4.048   1.840
  166SOL    HW1 1397   6.399   4.105   1.766
  166SOL    HW2 1398   6.268   4.028   1.824
  167SOL     OW 1399   5.182   1.390   0.024
  167SOL    HW1 1400   5.197   1.449   0.104
  167SOL    HW2 1401   5.101   1.422   7.003
  168SOL     OW 1402   4.839   3.773   1.693
  168SOL    HW1 1403   4.749   3.811   1.672
  168SOL    HW2 1404   4.854   3.776   1.792
  169SOL     OW 1405   6.073   2.726   1.087
  169SOL    HW1 1406   6.082   2.736   0.988
  169SOL    HW2 1407   5.995   2.666   1.107
  170SOL     OW 1408   1.662   5.110   2.695
  170SOL    HW1 1409   1.727   5.060   2.638
  170SOL    HW2 1410   1.572   5.067   2.690
  171SOL     OW 1411   2.192   3.235   0.502
  171SOL    HW1 1412   2.171   3.326   0.468
  171SOL    HW2 1413   2.273   3.239   0.561
  172SOL     OW 1414   5.627   2.123   1.642
  172SOL    HW1 1415   5.695   2.196   1.644
  172SOL    HW2 1416   5.667   2.041   1.601
  173SOL     OW 1417   6.304   1.137   5.266
  173SOL    HW1 1418   6.277   1.179   5.180
  173SOL    HW2 1419   6.379   1.189   5.307
  174SOL     OW 1420   5.474   5.582   5.306
  174SOL    HW1 1421   5.411   5.560   5.380
  174SOL    HW2 1422   5.562   5.610   5.345
  175SOL     OW 1423   1.611   0.608   0.636
  175SOL    HW1 1424   1.653   0.521   0.661
  175SOL    HW2 1425   1.569   0.600   0.546
  176SOL     OW 1426   4.704   4.916   2.514
  176SOL    HW1 1427   4.715   5.007   2.554
  176SOL    HW2 1428   4.649   4.923   2.430
  177SOL     OW 1429   5.784   1.795   4.614
  177SOL    HW1 1430   5.821   1.703   4.597
  177SOL    HW2 1431   5.729   1.823   4.536
  178SOL     OW 1432   2.382   6.124   4.723
  178SOL    HW1 1433   2.468   6.152   4.680
  178SOL    HW2 1434   2.306   6.172   4.679
  179SOL     OW 1435   4.483   4.972   0.684
  179SOL    HW1 1436   4.434   4.898   0.638
  179SOL    HW2 1437   4.448   5.060   0.652
  180SOL     OW 1438   3.709   0.232   0.841
  180SOL    HW1 1439   3.803   0.201   0.850
  180SOL    HW2 1440   3.652   0.187   0.910
  181SOL     OW 1441   3.270   2.602   5.354
  181SOL    HW1 1442   3.190   2.621   5.411
  181SOL    HW2 1443   3.258   2.514   5.309
  182SOL     OW 1444   5.384   2.570   0.147
  182SOL    HW1 1445   5.338   2.511   0.213
  182SOL    HW2 1446   5.483   2.560   0.156
  183SOL     OW 1447   3.422   2.137   4.691
  183SOL    HW1 1448   3.327   2.168   4.688
  183SOL    HW2 1449   3.471   2.186   4.763
  184SOL     OW 1450   0.713   6.305   3.415
  184SOL    HW1 1451   0.732   6.317   3.512
  184SOL    HW2 1452   0.712   6.395   3.370
  185SOL     OW 1453   0.625   1.776   4.182
  185SOL    HW1 1454   0.557   1.704   4.168
  185SOL    HW2 1455   0.626   1.838   4.103
  186SOL     OW 1456   5.280   5.602   4.370
  186SOL    HW1 1457   5.376   5.606   4.343
  186SOL    HW2 1458   5.255   5.687   4.418
  187SOL     OW 1459   3.938   5.662   2.631
  187SOL    HW1 1460   4.016   5.720   2.607
  187SOL    HW2 1461   3.920   5.670   2.729
  188SOL     OW 1462   2.575   2.136   3.094
  188SOL    HW1 1463   2.558   2.225   3.136
  188SOL    HW2 1464   2.573   2.146   2.994
  189SOL     OW 1465   6.615   5.253   0.100
  189SOL    HW1 1466   6.639   5.274   0.195
  189SOL    HW2 1467   6.521   5.282   0.082
  190SOL     OW 1468   6.255   5.572   0.227
  190SOL    HW1 1469   6.333   5.634   0.222
  190SOL    HW2 1470   6.171   5.625   0.235
  191SOL     OW 1471   6.689   1.101   6.106
  191SOL    HW1 1472   6.717   1.038   6.178
  191SOL    HW2 1473   6.756   1.174   6.097
  192SOL     OW 1474   0.125   4.993   1.309
  192SOL    HW1 1475   0.203   4.939   1.340
  192SOL    HW2 1476   0.153   5.052   1.234
  193SOL     OW 1477   3.261   5.218   6.413
  193SOL    HW1 1478   3.342   5.198   6.468
  193SOL    HW2 1479   3.189   5.152   6.434
  194SOL     OW 1480   4.055   6.524   2.184
  194SOL    HW1 1481   4.114   6.552   2.260
  194SOL    HW2 1482   3.974   6.478   2.220
  195SOL     OW 1483   3.133   0.599   2.064
  195SOL    HW1 1484   3.049   0.575   2.016
  195SOL    HW2 1485   3.155   0.528   2.131
  196SOL     OW 1486   2.567   1.090   6.468
  196SOL    HW1 1487   2.630   1.092   6.390
  196SOL    HW2 1488   2.606   1.143   6.543
  197SOL     OW 1489   2.415   6.147   0.066
  197SOL    HW1 1490   2.457   6.231   0.100
  197SOL    HW2 1491   2.324   6.137   0.107
  198SOL     OW 1492   4.348   5.801   0.570
  198SOL    HW1 1493   4.396   5.737   0.511
  198SOL    HW2 1494   4.354   5.770   0.665
  199SOL     OW 1495   5.540   0.657   2.034
  199SOL    HW1 1496   5.621   0.628   1.983
  199SOL    HW2 1497   5.545   0.623   2.127
  200SOL     OW 1498   1.255   3.565   2.255
  200SOL    HW1 1499   1.343   3.559   2.302
  200SOL    HW2 1500   1.185   3.521   2.311
  201SOL     OW 1501   2.804   0.717   6.906
  201SOL    HW1 1502   2.890   0.744   6.949
  201SOL    HW2 1503   2.740   0.685   6.975
  202SOL     OW 1504   4.965   6.452   3.919
  202SOL    HW1 1505   4.930   6.522   3.856
  202SOL    HW2 1506   4.989   6.495   4.006
  203SOL     OW 1507   5.053   3.428   6.260
  203SOL    HW1 1508   5.001   3.353   6.220
  203SOL    HW2 1509   5.068   3.410   6.357
  204SOL     OW 1510   1.158   0.077   0.355
  204SOL    HW1 1511   1.248   0.085   0.398
  204SOL    HW2 1512   1.115   0.167   0.353
  205SOL     OW 1513   0.355   1.693   1.142
  205SOL    HW1 1514   0.269   1.691   1.193
  205SOL    HW2 1515   0.422   1.636   1.190
  206SOL     OW 1516   0.889   4.420   1.144
  206SOL    HW1 1517   0.845   4.504   1.176
  206SOL    HW2 1518   0.893   4.354   1.219
  207SOL     OW 1519   4.395   0.235   5.852
  207SOL    HW1 1520   4.385   0.320   5.904
  207SOL    HW2 1521   4.305   0.191   5.843
  208SOL     OW 1522   5.274   4.454   5.970
  208SOL    HW1 1523   5.327   4.400   5.905
  208SOL    HW2 1524   5.329   4.472   6.051
  209SOL     OW 1525   0.482   6.049   5.791
  209SOL    HW1 1526   0.552   6.071   5.860
  209SOL    HW2 1527   0.391   6.058   5.832
  210SOL     OW 1528   3.948   2.184   2.012
  210SOL    HW1 1529   3.852   2.210   1.999
  210SOL    HW2 1530   3.997   2.194   1.925
  211SOL     OW 1531   0.653   1.292   1.967
  211SOL    HW1 1532   0.621   1.197   1.974
  211SOL    HW2 1533   0.583   1.353   2.005
  212SOL     OW 1534   0.564   4.496   3.187
  212SOL    HW1 1535   0.566   4.515   3.089
  212SOL    HW2 1536   0.621   4.563   3.235
  213SOL     OW 1537   5.262   1.137   6.981
  213SOL    HW1 1538   5.341   1.118   0.011
  213SOL    HW2 1539   5.231   1.231   6.996
  214SOL     OW 1540   0.708   6.916   3.173
  214SOL    HW1 1541   0.633   6.880   3.118
  214SOL    HW2 1542   0.764   6.977   3.118
  215SOL     OW 1543   3.986   2.984   2.045
  215SOL    HW1 1544   4.045   2.905   2.031
  215SOL    HW2 1545   3.927   2.968   2.125
  216SOL     OW 1546   1.384   0.039   4.571
  216SOL    HW1 1547   1.288   0.046   4.596
  216SOL    HW2 1548   1.441   0.041   4.653
  217SOL     OW 1549   1.955   2.615   4.218
  217SOL    HW1 1550   1.893   2.540   4.193
  217SOL    HW2 1551   2.013   2.637   4.139
  218SOL     OW 1552   0.996   2.355   4.289
  218SOL    HW1 1553   1.072   2.291   4.294
  218SOL    HW2 1554   1.012   2.432   4.352
  219SOL     OW 1555   3.591   3.995   0.436
  219SOL    HW1 1556   3.524   4.034   0.499
  219SOL    HW2 1557   3.644   3.924   0.483
  220SOL     OW 1558   2.427   5.504   7.025
  220SOL    HW1 1559   2.517   5.505   6.981
  220SOL    HW2 1560   2.431   5.449   0.080
  221SOL     OW 1561   5.629   3.209   4.030
  221SOL    HW1 1562   5.715   3.235   3.985
  221SOL    HW2 1563   5.638   3.222   4.129
  222SOL     OW 1564   1.540   5.411   5.029
  222SOL    HW1 1565   1.496   5.491   5.068
  222SOL    HW2 1566   1.573   5.432   4.936
  223SOL     OW 1567   0.199   3.664   2.165
  223SOL    HW1 1568   0.223   3.683   2.070
  223SOL    HW2 1569   0.153   3.743   2.205
  224SOL     OW 1570   2.599   2.290   2.431
  224SOL    HW1 1571   2.653   2.309   2.349
  224SOL    HW2 1572   2.659   2.251   2.501
  225SOL     OW 1573   5.968   1.077   0.163
  225SOL    HW1 1574   5.995   1.140   0.235
  225SOL    HW2 1575   6.011   1.104   0.077
  226SOL     OW 1576   1.176   7.008   0.675
  226SOL    HW1 1577   1.113   6.991   0.599
  226SOL    HW2 1578   1.143   0.058   0.729
  227SOL     OW 1579   1.587   4.102   3.470
  227SOL    HW1 1580   1.594   4.009   3.507
  227SOL    HW2 1581   1.501   4.112   3.421
  228SOL     OW 1582   3.772   6.912   4.104
  228SOL    HW1 1583   3.727   6.834   4.148
  228SOL    HW2 1584   3.753   6.995   4.156
  229SOL     OW 1585   5.770   5.704   1.297
  229SOL    HW1 1586   5.717   5.744   1.222
  229SOL    HW2 1587   5.837   5.771   1.329
  230SOL     OW 1588   2.051   3.635   4.231
  230SOL    HW1 1589   1.969   3.687   4.207
  230SOL    HW2 1590   2.108   3.688   4.293
  231SOL     OW 1591   6.725   3.051   6.225
  231SOL    HW1 1592   6.803   3.109   6.199
  231SOL    HW2 1593   6.676   3.093   6.301
  232SOL     OW 1594   1.638   3.878   6.343
  232SOL    HW1 1595   1.714   3.813   6.335
  232SOL    HW2 1596   1.588   3.882   6.257
  233SOL     OW 1597   2.498   0.818   5.601
  233SOL    HW1 1598   2.567   0.817   5.674
  233SOL    HW2 1599   2.496   0.728   5.556
  234SOL     OW 1600   2.503   5.020   6.898
  234SOL    HW1 1601   2.498   4.922   6.914
  234SOL    HW2 1602   2.592   5.055   6.927
  235SOL     OW 1603   3.497   3.354   3.905
  235SOL    HW1 1604   3.454   3.316   3.824
  235SOL    HW2 1605   3.426   3.383   3.970
  236SOL     OW 1606   6.369   3.028   6.100
  236SOL    HW1 1607   6.318   2.952   6.140
  236SOL    HW2 1608   6.305   3.093   6.059
  237SOL     OW 1609   0.063   6.699   1.194
  237SOL    HW1 1610   0.157   6.730   1.203
  237SOL    HW2 1611   0.031   6.714   1.101
  238SOL     OW 1612   5.771   3.597   1.724
  238SOL    HW1 1613   5.808   3.681   1.684
  238SOL    HW2 1614   5.812   3.518   1.678
  239SOL     OW 1615   0.311   5.639   6.860
  239SOL    HW1 1616   0.219   5.647   6.821
  239SOL    HW2 1617   0.372   5.703   6.815
  240SOL     OW 1618   0.779   3.852   6.151
  240SOL    HW1 1619   0.683   3.843   6.127
  240SOL    HW2 1620   0.788   3.861   6.250
  241SOL     OW 1621   0.550   0.953   3.736
  241SOL    HW1 1622   0.452   0.957   3.719
  241SOL    HW2 1623   0.592   1.041   3.713
  242SOL     OW 1624   1.512   3.115   5.023
  242SOL    HW1 1625   1.580   3.138   4.953
  242SOL    HW2 1626   1.556   3.109   5.112
  243SOL     OW 1627   4.763   0.723   6.190
  243SOL    HW1 1628   4.846   0.713   6.245
  243SOL    HW2 1629   4.727   0.815   6.201
  244SOL     OW 1630   5.079   1.512   4.811
  244SOL    HW1 1631   5.143   1.435   4.798
  244SOL    HW2 1632   5.029   1.498   4.897
  245SOL     OW 1633   6.114   2.447   5.158
  245SOL    HW1 1634   6.209   2.446   5.188
  245SOL    HW2 1635   6.082   2.354   5.144
  246SOL     OW 1636   4.906   3.690   4.006
  246SOL    HW1 1637   4.857   3.724   4.086
  246SOL    HW2 1638   4.956   3.765   3.963
  247SOL     OW 1639   2.530   1.381   3.376
  247SOL    HW1 1640   2.506   1.477   3.368
  247SOL    HW2 1641   2.467   1.325   3.322
  248SOL     OW 1642   4.815   1.960   4.705
  248SOL    HW1 1643   4.841   2.003   4.618
  248SOL    HW2 1644   4.716   1.953   4.710
  249SOL     OW 1645   3.119   6.459   4.695
  249SOL    HW1 1646   3.081   6.379   4.742
  249SOL    HW2 1647   3.157   6.432   4.607
  250SOL     OW 1648   5.504   2.473   5.449
  250SOL    HW1 1649   5.421   2.522   5.474
  250SOL    HW2 1650   5.568   2.536   5.405
  251SOL     OW 1651   4.676   3.346   6.413
  251SOL    HW1 1652   4.711   3.438   6.430
  251SOL    HW2 1653   4.606   3.324   6.481
  252SOL     OW 1654   6.607   1.480   5.937
  252SOL    HW1 1655   6.593   1.547   6.011
  252SOL    HW2 1656   6.537   1.409   5.943
  253SOL     OW 1657   2.002   2.806   1.058
  253SOL    HW1 1658   2.090   2.790   1.102
  253SOL    HW2 1659   1.935   2.835   1.126
  254SOL     OW 1660   0.073   3.330   4.353
  254SOL    HW1 1661   0.144   3.364   4.292
  254SOL    HW2 1662   7.011   3.342   4.311
  255SOL     OW 1663   3.178   2.111   3.440
  255SOL    HW1 1664   3.171   2.135   3.343
  255SOL    HW2 1665   3.111   2.163   3.493
  256SOL     OW 1666   6.057   5.270   6.617
  256SOL    HW1 1667   5.999   5.339   6.661
  256SOL    HW2 1668   6.112   5.223   6.686
  257SOL     OW 1669   2.708   5.325   6.060
  257SOL    HW1 1670   2.712   5.232   6.024
  257SOL    HW2 1671   2.711   5.390   5.984
  258SOL     OW 1672   4.944   4.446   4.857
  258SOL    HW1 1673   4.853   4.415   4.829
  258SOL    HW2 1674   4.997   4.472   4.777
  259SOL     OW 1675   1.795   2.991   2.591
  259SOL    HW1 1676   1.799   2.906   2.539
  259SOL    HW2 1677   1.812   2.971   2.688
  260SOL     OW 1678   4.951   0.594   6.353
  260SOL    HW1 1679   5.011   0.603   6.432
  260SOL    HW2 1680   4.864   0.553   6.382
  261SOL     OW 1681   0.562   4.178   1.758
  261SOL    HW1 1682   0.646   4.227   1.778
  261SOL    HW2 1683   0.584   4.088   1.719
  262SOL     OW 1684   0.890   2.864   2.736
  262SOL    HW1 1685   0.935   2.824   2.656
  262SOL    HW2 1686   0.807   2.912   2.707
  263SOL     OW 1687   0.769   2.675   4.802
  263SOL    HW1 1688   0.781   2.582   4.838
  263SOL    HW2 1689   0.747   2.737   4.877
  264SOL     OW 1690   1.050   3.379   5.654
  264SOL    HW1 1691   0.973   3.315   5.657
  264SOL    HW2 1692   1.111   3.362   5.731
  265SOL     OW 1693   5.065   4.631   4.255
  265SOL    HW1 1694   5.048   4.706   4.191
  265SOL    HW2 1695   4.984   4.572   4.261
  266SOL     OW 1696   4.269   1.677   0.628
  266SOL    HW1 1697   4.324   1.681   0.711
  266SOL    HW2 1698   4.202   1.752   0.629
  267SOL     OW 1699   1.788   2.621   6.390
  267SOL    HW1 1700   1.704   2.667   6.362
  267SOL    HW2 1701   1.867   2.675   6.361
  268SOL     OW 1702   4.669   4.467   4.717
  268SOL    HW1 1703   4.671   4.565   4.699
  268SOL    HW2 1704   4.616   4.449   4.800
  269SOL     OW 1705   1.511   1.878   6.611
  269SOL    HW1 1706   1.594   1.932   6.622
  269SOL    HW2 1707   1.536   1.782   6.599
  270SOL     OW 1708   5.551   0.897   2.356
  270SOL    HW1 1709   5.467   0.906   2.302
  270SOL    HW2 1710   5.528   0.896   2.453
  271SOL     OW 1711   1.529   0.766   0.826
  271SOL    HW1 1712   1.554   0.715   0.744
  271SOL    HW2 1713   1.547   0.863   0.811
  272SOL     OW 1714   4.043   5.148   4.366
  272SOL    HW1 1715   4.078   5.114   4.279
  272SOL    HW2 1716   3.946   5.126   4.374
  273SOL     OW 1717   1.670   5.462   4.795
  273SOL    HW1 1718   1.661   5.532   4.725
  273SOL    HW2 1719   1.725   5.386   4.759
  274SOL     OW 1720   5.967   2.927   3.469
  274SOL    HW1 1721   6.035   2.988   3.510
  274SOL    HW2 1722   5.888   2.920   3.529
  275SOL     OW 1723   6.959   6.660   5.946
  275SOL    HW1 1724   6.958   6.593   6.021
  275SOL    HW2 1725   6.981   6.614   5.860
  276SOL     OW 1726   6.634   6.273   3.365
  276SOL    HW1 1727   6.608   6.185   3.405
  276SOL    HW2 1728   6.669   6.334   3.436
  277SOL     OW 1729   3.443   1.838   5.282
  277SOL    HW1 1730   3.527   1.787   5.264
  277SOL    HW2 1731   3.367   1.795   5.233
  278SOL     OW 1732   5.315   4.030   2.510
  278SOL    HW1 1733   5.253   4.108   2.499
  278SOL    HW2 1734   5.409   4.059   2.490
  279SOL     OW 1735   0.057   3.293   2.963
  279SOL    HW1 1736   0.132   3.301   3.028
  279SOL    HW2 1737   0.059   3.202   2.921
  280SOL     OW 1738   4.345   6.947   3.486
  280SOL    HW1 1739   4.377   7.014   3.554
  280SOL    HW2 1740   4.415   6.877   3.472
  281SOL     OW 1741   4.240   5.646   4.154
  281SOL    HW1 1742   4.171   5.690   4.211
  281SOL    HW2 1743   4.238   5.547   4.170
  282SOL     OW 1744   4.368   2.055   6.313
  282SOL    HW1 1745   4.285   2.111   6.308
  282SOL    HW2 1746   4.354   1.979   6.376
  283SOL     OW 1747   6.397   0.665   5.014
  283SOL    HW1 1748   6.444   0.639   4.930
  283SOL    HW2 1749   6.345   0.587   5.049
  284SOL     OW 1750   0.354   4.924   4.988
  284SOL    HW1 1751   0.282   4.891   5.049
  284SOL    HW2 1752   0.437   4.941   5.040
  285SOL     OW 1753   5.004   0.336   0.213
  285SOL    HW1 1754   5.077   0.276   0.179
  285SOL    HW2 1755   5.044   0.410   0.267
  286SOL     OW 1756   3.489   5.394   4.772
  286SOL    HW1 1757   3.405   5.345   4.796
  286SOL    HW2 1758   3.503   5.470   4.835
  287SOL     OW 1759   1.770   5.812   5.805
  287SOL    HW1 1760   1.805   5.729   5.763
  287SOL    HW2 1761   1.752   5.796   5.902
  288SOL     OW 1762   3.515   0.731   0.912
  288SOL    HW1 1763   3.516   0.798   0.987
  288SOL    HW2 1764   3.565   0.649   0.940
  289SOL     OW 1765   1.000   6.268   5.021
  289SOL    HW1 1766   0.999   6.310   5.112
  289SOL    HW2 1767   0.907   6.241   4.996
  290SOL     OW 1768   4.484   0.807   3.651
  290SOL    HW1 1769   4.502   0.885   3.711
  290SOL    HW2 1770   4.386   0.788   3.649
  291SOL     OW 1771   4.295   0.583   3.958
  291SOL    HW1 1772   4.341   0.545   3.878
  291SOL    HW2 1773   4.359   0.587   4.035
  292SOL     OW 1774   3.684   0.112   3.696
  292SOL    HW1 1775   3.739   0.130   3.778
  292SOL    HW2 1776   3.738   0.134   3.615
  293SOL     OW 1777   5.387   6.050   2.299
  293SOL    HW1 1778   5.414   5.969   2.352
  293SOL    HW2 1779   5.383   6.027   2.202
  294SOL     OW 1780   5.885   0.290   5.814
  294SOL    HW1 1781   5.983   0.306   5.816
  294SOL    HW2 1782   5.865   0.200   5.854
  295SOL     OW 1783   1.513   2.055   5.287
  295SOL    HW1 1784   1.562   1.983   5.238
  295SOL    HW2 1785   1.434   2.015   5.334
  296SOL     OW 1786   6.682   0.800   1.611
  296SOL    HW1 1787   6.688   0.898   1.596
  296SOL    HW2 1788   6.616   0.760   1.547
  297SOL     OW 1789   5.072   4.394   3.567
  297SOL    HW1 1790   5.018   4.427   3.489
  297SOL    HW2 1791   5.081   4.468   3.634
  298SOL     OW 1792   4.117   0.583   0.280
  298SOL    HW1 1793   4.025   0.623   0.278
  298SOL    HW2 1794   4.182   0.651   0.314
  299SOL     OW 1795   2.923   1.886   0.048
  299SOL    HW1 1796   2.935   1.853   0.142
  299SOL    HW2 1797   3.010   1.918   0.012
  300SOL     OW 1798   3.613   1.311   2.439
  300SOL    HW1 1799   3.613   1.411   2.428
  300SOL    HW2 1800   3.649   1.268   2.356
  301SOL     OW 1801   5.293   5.816   1.740
  301SOL    HW1 1802   5.244   5.739   1.699
  301SOL    HW2 1803   5.294   5.893   1.677
  302SOL     OW 1804   6.788   6.328   1.861
  302SOL    HW1 1805   6.728   6.321   1.940
  302SOL    HW2 1806   6.742   6.378   1.788
  303SOL     OW 1807   6.318   5.562   2.309
  303SOL    HW1 1808   6.319   5.468   2.275
  303SOL    HW2 1809   6.320   5.625   2.231
  304SOL     OW 1810   1.498   6.810   4.955
  304SOL    HW1 1811   1.510   6.728   4.900
  304SOL    HW2 1812   1.524   6.790   5.050
  305SOL     OW 1813   1.082   2.770   1.159
  305SOL    HW1 1814   1.075   2.821   1.073
  305SOL    HW2 1815   1.110   2.676   1.140
  306SOL     OW 1816   0.048   0.955   3.013
  306SOL    HW1 1817   0.093   0.902   3.085
  306SOL    HW2 1818   0.114   1.018   2.972
  307SOL     OW 1819   3.101   3.451   1.191
  307SOL    HW1 1820   3.100   3.388   1.114
  307SOL    HW2 1821   3.030   3.520   1.179
  308SOL     OW 1822   5.486   0.890   4.413
  308SOL    HW1 1823   5.578   0.876   4.449
  308SOL    HW2 1824   5.457   0.983   4.432
  309SOL     OW 1825   0.599   6.448   6.933
  309SOL    HW1 1826   0.639   6.378   6.874
  309SOL    HW2 1827   0.660   6.528   6.937
  310SOL     OW 1828   4.948   6.474   4.437
  310SOL    HW1 1829   4.969   6.422   4.519
  310SOL    HW2 1830   4.967   6.418   4.356
  311SOL     OW 1831   2.543   5.450   3.237
  311SOL    HW1 1832   2.501   5.360   3.231
  311SOL    HW2 1833   2.508   5.508   3.163
  312SOL     OW 1834   4.797   2.260   3.409
  312SOL    HW1 1835   4.876   2.198   3.406
  312SOL    HW2 1836   4.752   2.261   3.320
  313SOL     OW 1837   3.858   3.547   2.581
  313SOL    HW1 1838   3.848   3.452   2.609
  313SOL    HW2 1839   3.838   3.556   2.483
  314SOL     OW 1840   1.938   6.251   5.054
  314SOL    HW1 1841   1.892   6.207   4.977
  314SOL    HW2 1842   2.037   6.233   5.048
  315SOL     OW 1843   6.383   1.340   3.558
  315SOL    HW1 1844   6.379   1.438   3.576
  315SOL    HW2 1845   6.315   1.293   3.614
  316SOL     OW 1846   4.486   1.707   5.541
  316SOL    HW1 1847   4.581   1.682   5.558
  316SOL    HW2 1848   4.482   1.798   5.501
  317SOL     OW 1849   1.691   1.895   1.794
  317SOL    HW1 1850   1.726   1.954   1.867
  317SOL    HW2 1851   1.752   1.900   1.715
  318SOL     OW 1852   6.251   0.772   5.554
  318SOL    HW1 1853   6.214   0.861   5.581
  318SOL    HW2 1854   6.237   0.706   5.628
  319SOL     OW 1855   0.592   1.750   2.638
  319SOL    HW1 1856   0.519   1.717   2.579
  319SOL    HW2 1857   0.553   1.794   2.718
  320SOL     OW 1858   5.784   2.002   6.819
  320SOL    HW1 1859   5.718   2.036   6.753
  320SOL    HW2 1860   5.737   1.947   6.888
  321SOL     OW 1861   3.992   3.517   0.763
  321SOL    HW1 1862   4.079   3.469   0.767
  321SOL    HW2 1863   4.006   3.610   0.730
  322SOL     OW 1864   4.076   3.621   6.456
  322SOL    HW1 1865   3.993   3.592   6.503
  322SOL    HW2 1866   4.145   3.549   6.462
  323SOL     OW 1867   0.311   2.715   3.532
  323SOL    HW1 1868   0.246   2.744   3.463
  323SOL    HW2 1869   0.283   2.626   3.568
  324SOL     OW 1870   2.510   6.778   3.473
  324SOL    HW1 1871   2.548   6.691   3.441
  324SOL    HW2 1872   2.417   6.789   3.436
  325SOL     OW 1873   1.174   3.708   2.661
  325SOL    HW1 1874   1.185   3.670   2.753
  325SOL    HW2 1875   1.264   3.724   2.621
  326SOL     OW 1876   1.608   5.022   6.121
  326SOL    HW1 1877   1.609   4.957   6.197
  326SOL    HW2 1878   1.703   5.044   6.096
  327SOL     OW 1879   2.868   4.778   2.722
  327SOL    HW1 1880   2.935   4.791   2.795
  327SOL    HW2 1881   2.784   4.827   2.744
  328SOL     OW 1882   1.282   4.104   1.809
  328SOL    HW1 1883   1.322   4.127   1.898
  328SOL    HW2 1884   1.338   4.143   1.736
  329SOL     OW 1885   2.928   4.154   1.155
  329SOL    HW1 1886   2.828   4.162   1.157
  329SOL    HW2 1887   2.964   4.156   1.248
  330SOL     OW 1888   3.555   5.634   0.293
  330SOL    HW1 1889   3.573   5.732   0.301
  330SOL    HW2 1890   3.609   5.584   0.361
  331SOL     OW 1891   5.110   5.226   0.725
  331SOL    HW1 1892   5.133   5.140   0.771
  331SOL    HW2 1893   5.190   5.286   0.726
  332SOL     OW 1894   5.483   1.668   3.802
  332SOL    HW1 1895   5.513   1.729   3.728
  332SOL    HW2 1896   5.434   1.721   3.871
  333SOL     OW 1897   4.246   1.051   5.163
  333SOL    HW1 1898   4.280   0.979   5.103
  333SOL    HW2 1899   4.253   1.140   5.117
  334SOL     OW 1900   3.742   3.280   2.614
  334SOL    HW1 1901   3.756   3.182   2.601
  334SOL    HW2 1902   3.700   3.319   2.532
  335SOL     OW 1903   4.178   0.289   6.864
  335SOL    HW1 1904   4.187   0.318   6.959
  335SOL    HW2 1905   4.081   0.274   6.843
  336SOL     OW 1906   2.936   1.254   3.224
  336SOL    HW1 1907   2.882   1.175   3.251
  336SOL    HW2 1908   2.907   1.334   3.277
  337SOL     OW 1909   1.527   1.969   5.628
  337SOL    HW1 1910   1.608   2.026   5.640
  337SOL    HW2 1911   1.476   1.966   5.714
  338SOL     OW 1912   4.204   2.911   1.468
  338SOL    HW1 1913   4.152   2.993   1.445
  338SOL    HW2 1914   4.249   2.876   1.385
  339SOL     OW 1915   4.144   4.820   4.722
  339SOL    HW1 1916   4.152   4.848   4.818
  339SOL    HW2 1917   4.047   4.815   4.697
  340SOL     OW 1918   5.133   2.959   4.894
  340SOL    HW1 1919   5.135   3.033   4.961
  340SOL    HW2 1920   5.062   2.976   4.826
  341SOL     OW 1921   5.669   5.629   4.671
  341SOL    HW1 1922   5.593   5.625   4.735
  341SOL    HW2 1923   5.642   5.588   4.584
  342SOL     OW 1924   4.653   4.140   1.133
  342SOL    HW1 1925   4.576   4.121   1.071
  342SOL    HW2 1926   4.666   4.239   1.140
  343SOL     OW 1927   0.742   6.314   2.403
  343SOL    HW1 1928   0.716   6.274   2.491
  343SOL    HW2 1929   0.705   6.407   2.397
  344SOL     OW 1930   0.701   1.759   1.789
  344SOL    HW1 1931   0.733   1.750   1.884
  344SOL    HW2 1932   0.742   1.839   1.747
  345SOL     OW 1933   6.801   2.372   4.412
  345SOL    HW1 1934   6.816   2.362   4.510
  345SOL    HW2 1935   6.721   2.430   4.396
  346SOL     OW 1936   2.209   6.709   2.580
  346SOL    HW1 1937   2.197   6.619   2.538
  346SOL    HW2 1938   2.183   6.704   2.677
  347SOL     OW 1939   2.367   5.806   6.879
  347SOL    HW1 1940   2.430   5.810   6.957
  347SOL    HW2 1941   2.311   5.723   6.886
  348SOL     OW 1942   4.416   5.296   2.612
  348SOL    HW1 1943   4.401   5.303   2.710
  348SOL    HW2 1944   4.515   5.294   2.593
  349SOL     OW 1945   6.948   4.495   1.902
  349SOL    HW1 1946   6.928   4.593   1.900
  349SOL    HW2 1947   0.011   4.478   1.866
  350SOL     OW 1948   3.041   2.861   0.147
  350SOL    HW1 1949   3.108   2.803   0.194
  350SOL    HW2 1950   3.039   2.951   0.190
  351SOL     OW 1951   2.842   3.736   0.514
  351SOL    HW1 1952   2.748   3.711   0.488
  351SOL    HW2 1953   2.846   3.751   0.612
  352SOL     OW 1954   4.242   6.155   3.666
  352SOL    HW1 1955   4.149   6.170   3.701
  352SOL    HW2 1956   4.294   6.240   3.675
  353SOL     OW 1957   3.449   0.212   6.376
  353SOL    HW1 1958   3.472   0.151   6.451
  353SOL    HW2 1959   3.464   0.166   6.289
  354SOL     OW 1960   5.606   3.121   0.692
  354SOL    HW1 1961   5.592   3.170   0.778
  354SOL    HW2 1962   5.699   3.137   0.660
  355SOL     OW 1963   1.787   2.653   2.317
  355SOL    HW1 1964   1.872   2.656   2.369
  355SOL    HW2 1965   1.712   2.690   2.372
  356SOL     OW 1966   1.836   0.685   4.521
  356SOL    HW1 1967   1.764   0.753   4.507
  356SOL    HW2 1968   1.810   0.623   4.594
  357SOL     OW 1969   7.006   6.352   4.257
  357SOL    HW1 1970   6.919   6.370   4.210
  357SOL    HW2 1971   0.053   6.387   4.201
  358SOL     OW 1972   4.622   6.196   0.972
  358SOL    HW1 1973   4.638   6.294   0.959
  358SOL    HW2 1974   4.697   6.145   0.931
  359SOL     OW 1975   3.424   0.768   1.267
  359SOL    HW1 1976   3.442   0.851   1.214
  359SOL    HW2 1977   3.337   0.778   1.315
  360SOL     OW 1978   1.453   4.170   4.809
  360SOL    HW1 1979   1.468   4.133   4.901
  360SOL    HW2 1980   1.375   4.123   4.768
  361SOL     OW 1981   6.012   6.471   2.737
  361SOL    HW1 1982   5.975   6.484   2.645
  361SOL    HW2 1983   6.103   6.429   2.730
  362SOL     OW 1984   3.920   4.142   0.948
  362SOL    HW1 1985   3.925   4.195   1.032
  362SOL    HW2 1986   3.881   4.052   0.968
  363SOL     OW 1987   6.051   4.309   2.673
  363SOL    HW1 1988   5.967   4.342   2.631
  363SOL    HW2 1989   6.035   4.218   2.713
  364SOL     OW 1990   0.763   4.778   6.543
  364SOL    HW1 1991   0.790   4.845   6.612
  364SOL    HW2 1992   0.827   4.782   6.465
  365SOL     OW 1993   3.506   0.974   1.060
  365SOL    HW1 1994   3.587   0.992   1.003
  365SOL    HW2 1995   3.466   1.060   1.090
  366SOL     OW 1996   6.293   3.216   6.529
  366SOL    HW1 1997   6.289   3.236   6.627
  366SOL    HW2 1998   6.345   3.288   6.482
  367SOL     OW 1999   6.148   2.526   5.930
  367SOL    HW1 2000   6.165   2.623   5.948
  367SOL    HW2 2001   6.189   2.501   5.843
  368SOL     OW 2002   6.997   2.228   5.990
  368SOL    HW1 2003   7.013   2.314   5.942
  368SOL    HW2 2004   0.009   2.232   6.082
  369SOL     OW 2005   5.921   4.182   3.047
  369SOL    HW1 2006   5.996   4.246   3.064
  369SOL    HW2 2007   5.934   4.139   2.958
  370SOL     OW 2008   1.421   2.021   4.318
  370SOL    HW1 2009   1.355   1.991   4.249
  370SOL    HW2 2010   1.383   2.097   4.370
  371SOL     OW 2011   1.967   4.776   6.951
  371SOL    HW1 2012   1.897   4.826   6.901
  371SOL    HW2 2013   2.049   4.768   6.894
  372SOL     OW 2014   1.592   0.249   4.958
  372SOL    HW1 2015   1.559   0.197   5.037
  372SOL    HW2 2016   1.639   0.332   4.990
  373SOL     OW 2017   5.785   7.019   5.451
  373SOL    HW1 2018   5.848   0.064   5.427
  373SOL    HW2 2019   5.700   0.002   5.399
  374SOL     OW 2020   2.036   1.475   3.003
  374SOL    HW1 2021   1.980   1.509   2.927
  374SOL    HW2 2022   2.130   1.461   2.970
  375SOL     OW 2023   0.963   5.445   4.400
  375SOL    HW1 2024   1.018   5.448   4.317
  375SOL    HW2 2025   0.867   5.461   4.378
  376SOL     OW 2026   1.741   1.256   5.433
  376SOL    HW1 2027   1.756   1.351   5.405
  376SOL    HW2 2028   1.690   1.208   5.362
  377SOL     OW 2029   1.790   2.256   0.316
  377SOL    HW1 2030   1.835   2.339   0.284
  377SOL    HW2 2031   1.804   2.246   0.415
  378SOL     OW 2032   3.334   1.396   6.608
  378SOL    HW1 2033   3.251   1.447   6.589
  378SOL    HW2 2034   3.400   1.411   6.535
  379SOL     OW 2035   5.402   2.370   6.918
  379SOL    HW1 2036   5.377   2.398   6.825
  379SOL    HW2 2037   5.380   2.443   6.982
  380SOL     OW 2038   2.742   1.499   1.661
  380SOL    HW1 2039   2.833   1.461   1.643
  380SOL    HW2 2040   2.702   1.453   1.740
  381SOL     OW 2041   1.794   3.600   4.385
  381SOL    HW1 2042   1.821   3.525   4.324
  381SOL    HW2 2043   1.873   3.630   4.439
  382SOL     OW 2044   6.096   0.107   6.992
  382SOL    HW1 2045   6.053   0.018   7.004
  382SOL    HW2 2046   6.027   0.179   7.001
  383SOL     OW 2047   4.874   2.889   0.536
  383SOL    HW1 2048   4.942   2.834   0.585
  383SOL    HW2 2049   4.855   2.848   0.447
  384SOL     OW 2050   0.407   4.640   3.670
  384SOL    HW1 2051   0.467   4.560   3.681
  384SOL    HW2 2052   0.452   4.720   3.710
  385SOL     OW 2053   3.340   5.742   5.951
  385SOL    HW1 2054   3.420   5.801   5.936
  385SOL    HW2 2055   3.257   5.795   5.939
  386SOL     OW 2056   4.146   0.656   4.271
  386SOL    HW1 2057   4.214   0.694   4.333
  386SOL    HW2 2058   4.176   0.565   4.240
  387SOL     OW 2059   1.426   5.468   2.504
  387SOL    HW1 2060   1.401   5.510   2.417
  387SOL    HW2 2061   1.497   5.398   2.488
  388SOL     OW 2062   1.890   1.840   6.417
  388SOL    HW1 2063   1.837   1.895   6.482
  388SOL    HW2 2064   1.945   1.900   6.359
  389SOL     OW 2065   3.990   3.156   2.361
  389SOL    HW1 2066   4.014   3.139   2.456
  389SOL    HW2 2067   4.043   3.234   2.327
  390SOL     OW 2068   3.276   0.951   4.316
  390SOL    HW1 2069   3.220   0.875   4.282
  390SOL    HW2 2070   3.367   0.916   4.341
  391SOL     OW 2071   2.339   2.904   6.466
  391SOL    HW1 2072   2.403   2.829   6.485
  391SOL    HW2 2073   2.365   2.984   6.520
  392SOL     OW 2074   1.871   5.062   0.555
  392SOL    HW1 2075   1.802   5.021   0.496
  392SOL    HW2 2076   1.877   5.011   0.641
  393SOL     OW 2077   6.976   4.524   5.490
  393SOL    HW1 2078   6.918   4.579   5.430
  393SOL    HW2 2079   6.919   4.467   5.550
  394SOL     OW 2080   0.237   6.947   0.181
  394SOL    HW1 2081   0.213   0.009   0.216
  394SOL    HW2 2082   0.320   6.915   0.227
  395SOL     OW 2083   5.320   3.736   2.889
  395SOL    HW1 2084   5.330   3.741   2.789
  395SOL    HW2 2085   5.274   3.650   2.913
  396SOL     OW 2086   3.943   3.991   2.152
  396SOL    HW1 2087   4.002   4.072   2.148
  396SOL    HW2 2088   3.969   3.927   2.081
  397SOL     OW 2089   3.693   2.926   5.704
  397SOL    HW1 2090   3.702   3.018   5.741
  397SOL    HW2 2091   3.760   2.913   5.631
  398SOL     OW 2092   0.325   6.266   1.774
  398SOL    HW1 2093   0.263   6.283   1.698
  398SOL    HW2 2094   0.279   6.208   1.842
  399SOL     OW 2095   4.973   5.958   2.107
  399SOL    HW1 2096   4.966   6.009   2.193
  399SOL    HW2 2097   4.969   6.021   2.030
  400SOL     OW 2098   0.164   0.229   5.560
  400SOL    HW1 2099   0.188   0.149   5.506
  400SOL    HW2 2100   0.186   0.213   5.656
  401SOL     OW 2101   4.747   1.018   6.228
  401SOL    HW1 2102   4.750   1.041   6.130
  401SOL    HW2 2103   4.836   1.039   6.270
  402SOL     OW 2104   5.858   6.458   2.498
  402SOL    HW1 2105   5.898   6.485   2.410
  402SOL    HW2 2106   5.804   6.533   2.534
  403SOL     OW 2107   4.010   2.263   5.686
  403SOL    HW1 2108   3.970   2.334   5.628
  403SOL    HW2 2109   3.938   2.216   5.736
  404SOL     OW 2110   1.443   6.381   3.668
  404SOL    HW1 2111   1.354   6.420   3.644
  404SOL    HW2 2112   1.453   6.292   3.624
  405SOL     OW 2113   1.576   2.857   1.639
  405SOL    HW1 2114   1.483   2.844   1.605
  405SOL    HW2 2115   1.574   2.913   1.722
  406SOL     OW 2116   0.961   3.193   3.780
  406SOL    HW1 2117   0.892   3.163   3.846
  406SOL    HW2 2118   0.923   3.268   3.725
  407SOL     OW 2119   2.109   0.658   3.997
  407SOL    HW1 2120   2.112   0.751   3.960
  407SOL    HW2 2121   2.044   0.603   3.944
  408SOL     OW 2122   1.592   0.719   2.748
  408SOL    HW1 2123   1.550   0.726   2.658
  408SOL    HW2 2124   1.522   0.695   2.816
  409SOL     OW 2125   5.811   3.121   2.027
  409SOL    HW1 2126   5.831   3.108   2.124
  409SOL    HW2 2127   5.883   3.175   1.984
  410SOL     OW 2128   2.208   0.265   6.502
  410SOL    HW1 2129   2.239   0.182   6.454
  410SOL    HW2 2130   2.194   0.338   6.436
  411SOL     OW 2131   6.146   6.737   6.631
  411SOL    HW1 2132   6.092   6.685   6.697
  411SOL    HW2 2133   6.128   6.834   6.643
  412SOL     OW 2134   4.432   6.504   3.521
  412SOL    HW1 2135   4.372   6.480   3.445
  412SOL    HW2 2136   4.390   6.477   3.607
  413SOL     OW 2137   5.206   4.994   1.529
  413SOL    HW1 2138   5.303   4.973   1.518
  413SOL    HW2 2139   5.161   4.920   1.578
  414SOL     OW 2140   3.284   4.936   3.463
  414SOL    HW1 2141   3.203   4.877   3.466
  414SOL    HW2 2142   3.275   5.009   3.530
  415SOL     OW 2143   0.860   5.943   0.112
  415SOL    HW1 2144   0.801   5.892   0.050
  415SOL    HW2 2145   0.851   5.906   0.205
  416SOL     OW 2146   4.772   5.092   5.745
  416SOL    HW1 2147   4.785   5.002   5.702
  416SOL    HW2 2148   4.725   5.152   5.680
  417SOL     OW 2149   2.777   5.989   0.987
  417SOL    HW1 2150   2.743   6.083   0.977
  417SOL    HW2 2151   2.704   5.931   1.023
  418SOL     OW 2152   4.380   6.300   1.239
  418SOL    HW1 2153   4.413   6.281   1.332
  418SOL    HW2 2154   4.332   6.220   1.204
  419SOL     OW 2155   1.716   0.433   1.469
  419SOL    HW1 2156   1.812   0.441   1.444
  419SOL    HW2 2157   1.659   0.452   1.389
  420SOL     OW 2158   6.346   3.088   1.723
  420SOL    HW1 2159   6.411   3.117   1.652
  420SOL    HW2 2160   6.366   2.994   1.750
  421SOL     OW 2161   0.302   4.860   6.050
  421SOL    HW1 2162   0.342   4.795   5.985
  421SOL    HW2 2163   0.373   4.924   6.080
  422SOL     OW 2164   6.150   4.440   0.560
  422SOL    HW1 2165   6.219   4.456   0.489
  422SOL    HW2 2166   6.188   4.378   0.629
  423SOL     OW 2167   0.420   3.055   6.694
  423SOL    HW1 2168   0.411   3.085   6.789
  423SOL    HW2 2169   0.395   2.959   6.686
  424SOL     OW 2170   2.736   3.814   1.153
  424SOL    HW1 2171   2.826   3.841   1.121
  424SOL    HW2 2172   2.668   3.883   1.125
  425SOL     OW 2173   5.889   1.201   2.442
  425SOL    HW1 2174   5.803   1.188   2.392
  425SOL    HW2 2175   5.877   1.273   2.510
  426SOL     OW 2176   5.289   2.120   4.457
  426SOL    HW1 2177   5.387   2.105   4.462
  426SOL    HW2 2178   5.269   2.218   4.453
  427SOL     OW 2179   5.832   4.705   2.209
  427SOL    HW1 2180   5.734   4.705   2.229
  427SOL    HW2 2181   5.881   4.655   2.280
  428SOL     OW 2182   4.620   0.039   4.736
  428SOL    HW1 2183   4.600   7.017   4.651
  428SOL    HW2 2184   4.605   0.137   4.721
  429SOL     OW 2185   2.563   4.255   1.763
  429SOL    HW1 2186   2.626   4.276   1.689
  429SOL    HW2 2187   2.559   4.156   1.776
  430SOL     OW 2188   0.574   0.245   4.520
  430SOL    HW1 2189   0.478   0.218   4.517
  430SOL    HW2 2190   0.631   0.163   4.524
  431SOL     OW 2191   3.133   0.355   0.271
  431SOL    HW1 2192   3.109   0.258   0.272
  431SOL    HW2 2193   3.122   0.392   0.363
  432SOL     OW 2194   6.608   2.530   2.357
  432SOL    HW1 2195   6.685   2.471   2.384
  432SOL    HW2 2196   6.528   2.473   2.341
  433SOL     OW 2197   3.133   6.358   4.440
  433SOL    HW1 2198   3.113   6.260   4.435
  433SOL    HW2 2199   3.054   6.410   4.405
  434SOL     OW 2200   4.173   4.873   1.708
  434SOL    HW1 2201   4.123   4.958   1.691
  434SOL    HW2 2202   4.134   4.827   1.788
  435SOL     OW 2203   3.825   2.039   5.266
  435SOL    HW1 2204   3.762   2.097   5.214
  435SOL    HW2 2205   3.843   1.955   5.215
  436SOL     OW 2206   3.372   6.005   0.785
  436SOL    HW1 2207   3.411   6.097   0.779
  436SOL    HW2 2208   3.411   5.958   0.864
  437SOL     OW 2209   0.974   6.745   6.773
  437SOL    HW1 2210   1.049   6.724   6.837
  437SOL    HW2 2211   0.984   6.690   6.691
  438SOL     OW 2212   1.732   2.730   2.073
  438SOL    HW1 2213   1.752   2.679   2.157
  438SOL    HW2 2214   1.793   2.698   2.000
  439SOL     OW 2215   6.284   4.509   3.627
  439SOL    HW1 2216   6.260   4.593   3.577
  439SOL    HW2 2217   6.280   4.526   3.725
  440SOL     OW 2218   1.347   2.115   4.877
  440SOL    HW1 2219   1.248   2.116   4.867
  440SOL    HW2 2220   1.376   2.198   4.926
  441SOL     OW 2221   0.642   2.005   3.587
  441SOL    HW1 2222   0.559   1.951   3.603
  441SOL    HW2 2223   0.617   2.093   3.548
  442SOL     OW 2224   2.246   5.057   6.821
  442SOL    HW1 2225   2.237   5.019   6.729
  442SOL    HW2 2226   2.342   5.051   6.851
  443SOL     OW 2227   0.729   3.788   4.851
  443SOL    HW1 2228   0.636   3.816   4.829
  443SOL    HW2 2229   0.793   3.847   4.801
  444SOL     OW 2230   5.149   2.274   5.718
  444SOL    HW1 2231   5.184   2.251   5.627
  444SOL    HW2 2232   5.214   2.336   5.763
  445SOL     OW 2233   1.307   5.914   3.217
  445SOL    HW1 2234   1.313   5.856   3.298
  445SOL    HW2 2235   1.380   5.889   3.153
  446SOL     OW 2236   4.086   4.782   4.011
  446SOL    HW1 2237   4.134   4.699   4.041
  446SOL    HW2 2238   4.048   4.769   3.920
  447SOL     OW 2239   0.692   2.933   6.981
  447SOL    HW1 2240   0.723   2.883   0.034
  447SOL    HW2 2241   0.596   2.960   6.993
  448SOL     OW 2242   2.490   0.654   4.485
  448SOL    HW1 2243   2.554   0.696   4.549
  448SOL    HW2 2244   2.519   0.560   4.466
  449SOL     OW 2245   4.040   0.734   5.017
  449SOL    HW1 2246   4.056   0.724   5.116
  449SOL    HW2 2247   4.066   0.649   4.971
  450SOL     OW 2248   1.423   6.025   3.539
  450SOL    HW1 2249   1.447   6.049   3.633
  450SOL    HW2 2250   1.380   5.935   3.538
  451SOL     OW 2251   1.753   2.386   3.362
  451SOL    HW1 2252   1.757   2.356   3.267
  451SOL    HW2 2253   1.834   2.352   3.410
  452SOL     OW 2254   6.497   5.970   1.393
  452SOL    HW1 2255   6.553   6.040   1.438
  452SOL    HW2 2256   6.492   5.889   1.451
  453SOL     OW 2257   3.201   0.542   4.545
  453SOL    HW1 2258   3.155   0.520   4.459
  453SOL    HW2 2259   3.151   0.614   4.592
  454SOL     OW 2260   0.116   5.216   6.133
  454SOL    HW1 2261   0.180   5.265   6.074
  454SOL    HW2 2262   0.160   5.194   6.220
  455SOL     OW 2263   6.975   1.831   3.572
  455SOL    HW1 2264   7.016   1.883   3.648
  455SOL    HW2 2265   0.001   1.748   3.556
  456SOL     OW 2266   5.090   5.429   4.465
  456SOL    HW1 2267   5.167   5.485   4.435
  456SOL    HW2 2268   5.070   5.449   4.562
  457SOL     OW 2269   1.865   3.559   3.429
  457SOL    HW1 2270   1.788   3.622   3.415
  457SOL    HW2 2271   1.832   3.475   3.472
  458SOL     OW 2272   4.707   5.852   3.901
  458SOL    HW1 2273   4.790   5.905   3.884
  458SOL    HW2 2274   4.627   5.910   3.882
  459SOL     OW 2275   2.117   6.383   4.098
  459SOL    HW1 2276   2.133   6.435   4.014
  459SOL    HW2 2277   2.083   6.292   4.074
  460SOL     OW 2278   1.658   0.269   3.549
  460SOL    HW1 2279   1.733   0.321   3.510
  460SOL    HW2 2280   1.571   0.311   3.523
  461SOL     OW 2281   6.090   0.088   5.105
  461SOL    HW1 2282   6.111   0.175   5.060
  461SOL    HW2 2283   6.154   0.074   5.181
  462SOL     OW 2284   4.033   2.996   6.148
  462SOL    HW1 2285   4.068   2.951   6.067
  462SOL    HW2 2286   3.971   2.934   6.197
  463SOL     OW 2287   6.848   5.564   3.530
  463SOL    HW1 2288   6.928   5.612   3.567
  463SOL    HW2 2289   6.804   5.511   3.603
  464SOL     OW 2290   2.652   2.384   6.606
  464SOL    HW1 2291   2.708   2.332   6.542
  464SOL    HW2 2292   2.561   2.398   6.567
  465SOL     OW 2293   1.173   2.709   4.203
  465SOL    HW1 2294   1.094   2.656   4.172
  465SOL    HW2 2295   1.235   2.649   4.254
  466SOL     OW 2296   1.436   4.941   3.073
  466SOL    HW1 2297   1.367   4.889   3.122
  466SOL    HW2 2298   1.405   5.036   3.062
  467SOL     OW 2299   1.142   1.042   0.126
  467SOL    HW1 2300   1.068   0.977   0.142
  467SOL    HW2 2301   1.125   1.092   0.041
  468SOL     OW 2302   3.841   6.438   6.655
  468SOL    HW1 2303   3.776   6.491   6.710
  468SOL    HW2 2304   3.931   6.441   6.699
  469SOL     OW 2305   3.129   4.523   0.840
  469SOL    HW1 2306   3.049   4.468   0.817
  469SOL    HW2 2307   3.099   4.611   0.878
  470SOL     OW 2308   4.137   0.467   2.554
  470SOL    HW1 2309   4.107   0.556   2.518
  470SOL    HW2 2310   4.168   0.409   2.479
  471SOL     OW 2311   1.822   2.429   4.020
  471SOL    HW1 2312   1.749   2.367   3.993
  471SOL    HW2 2313   1.828   2.504   3.954
  472SOL     OW 2314   5.195   4.108   6.565
  472SOL    HW1 2315   5.258   4.055   6.622
  472SOL    HW2 2316   5.110   4.123   6.615
  473SOL     OW 2317   0.842   3.028   2.396
  473SOL    HW1 2318   0.811   3.122   2.382
  473SOL    HW2 2319   0.795   2.988   2.474
  474SOL     OW 2320   4.951   4.896   3.439
  474SOL    HW1 2321   4.897   4.817   3.470
  474SOL    HW2 2322   4.893   4.955   3.382
  475SOL     OW 2323   5.299   1.018   5.950
  475SOL    HW1 2324   5.393   1.049   5.933
  475SOL    HW2 2325   5.280   0.937   5.894
  476SOL     OW 2326   6.965   4.380   2.542
  476SOL    HW1 2327   0.033   4.377   2.568
  476SOL    HW2 2328   6.956   4.364   2.444
  477SOL     OW 2329   1.617   4.048   5.371
  477SOL    HW1 2330   1.707   4.017   5.401
  477SOL    HW2 2331   1.620   4.076   5.275
  478SOL     OW 2332   3.406   6.967   2.149
  478SOL    HW1 2333   3.436   6.959   2.245
  478SOL    HW2 2334   3.460   0.010   2.104
  479SOL     OW 2335   4.284   2.149   6.938
  479SOL    HW1 2336   4.184   2.149   6.927
  479SOL    HW2 2337   4.327   2.145   6.848
  480SOL     OW 2338   2.393   1.643   0.046
  480SOL    HW1 2339   2.364   1.671   0.137
  480SOL    HW2 2340   2.388   1.722   7.012
  481SOL     OW 2341   1.567   0.539   0.383
  481SOL    HW1 2342   1.604   0.617   0.332
  481SOL    HW2 2343   1.594   0.454   0.338
  482SOL     OW 2344   4.829   4.618   3.150
  482SOL    HW1 2345   4.847   4.622   3.052
  482SOL    HW2 2346   4.740   4.659   3.170
  483SOL     OW 2347   6.959   1.688   1.765
  483SOL    HW1 2348   6.880   1.637   1.799
  483SOL    HW2 2349   6.949   1.705   1.667
  484SOL     OW 2350   1.313   3.064   4.859
  484SOL    HW1 2351   1.357   3.011   4.786
  484SOL    HW2 2352   1.366   3.057   4.943
  485SOL     OW 2353   3.947   5.381   2.605
  485SOL    HW1 2354   3.974   5.328   2.685
  485SOL    HW2 2355   3.962   5.479   2.623
  486SOL     OW 2356   6.663   2.037   0.881
  486SOL    HW1 2357   6.651   2.136   0.873
  486SOL    HW2 2358   6.604   2.002   0.954
  487SOL     OW 2359   1.331   1.810   1.040
  487SOL    HW1 2360   1.428   1.795   1.021
  487SOL    HW2 2361   1.322   1.866   1.122
  488SOL     OW 2362   0.530   1.728   1.541
  488SOL    HW1 2363   0.444   1.730   1.592
  488SOL    HW2 2364   0.606   1.745   1.604
  489SOL     OW 2365   3.378   6.182   6.148
  489SOL    HW1 2366   3.295   6.199   6.200
  489SOL    HW2 2367   3.388   6.084   6.133
  490SOL     OW 2368   6.937   6.239   3.377
  490SOL    HW1 2369   6.941   6.238   3.477
  490SOL    HW2 2370   6.949   6.332   3.344
  491SOL     OW 2371   0.442   3.042   2.227
  491SOL    HW1 2372   0.517   3.007   2.169
  491SOL    HW2 2373   0.406   2.967   2.282
  492SOL     OW 2374   2.490   7.020   5.304
  492SOL    HW1 2375   2.391   7.002   5.306
  492SOL    HW2 2376   2.521   7.024   5.209
  493SOL     OW 2377   5.314   6.722   5.698
  493SOL    HW1 2378   5.381   6.760   5.634
  493SOL    HW2 2379   5.281   6.794   5.759
  494SOL     OW 2380   6.723   0.590   6.502
  494SOL    HW1 2381   6.690   0.543   6.584
  494SOL    HW2 2382   6.817   0.621   6.516
  495SOL     OW 2383   4.759   5.893   3.431
  495SOL    HW1 2384   4.704   5.826   3.480
  495SOL    HW2 2385   4.817   5.846   3.364
  496SOL     OW 2386   5.421   3.612   2.268
  496SOL    HW1 2387   5.383   3.538   2.212
  496SOL    HW2 2388   5.371   3.617   2.354
  497SOL     OW 2389   3.695   1.050   4.653
  497SOL    HW1 2390   3.712   0.968   4.707
  497SOL    HW2 2391   3.737   1.040   4.563
  498SOL     OW 2392   1.918   4.411   1.769
  498SOL    HW1 2393   1.880   4.340   1.828
  498SOL    HW2 2394   1.849   4.480   1.751
  499SOL     OW 2395   2.531   0.595   3.799
  499SOL    HW1 2396   2.571   0.620   3.887
  499SOL    HW2 2397   2.600   0.605   3.727
  500SOL     OW 2398   0.690   3.445   3.542
  500SOL    HW1 2399   0.790   3.452   3.537
  500SOL    HW2 2400   0.659   3.375   3.476
  501SOL     OW 2401   2.714   6.144   0.363
  501SOL    HW1 2402   2.755   6.174   0.277
  501SOL    HW2 2403   2.690   6.224   0.418
  502SOL     OW 2404   6.951   4.199   6.813
  502SOL    HW1 2405   7.010   4.136   6.862
  502SOL    HW2 2406   6.856   4.183   6.839
  503SOL     OW 2407   5.796   5.731   5.746
  503SOL    HW1 2408   5.858   5.748   5.823
  503SOL    HW2 2409   5.748   5.816   5.723
  504SOL     OW 2410   2.011   5.409   3.253
  504SOL    HW1 2411   1.993   5.467   3.174
  504SOL    HW2 2412   2.056   5.462   3.324
  505SOL     OW 2413   3.199   6.055   4.905
  505SOL    HW1 2414   3.145   6.073   4.987
  505SOL    HW2 2415   3.271   6.124   4.897
  506SOL     OW 2416   2.134   5.732   4.868
  506SOL    HW1 2417   2.103   5.820   4.831
  506SOL    HW2 2418   2.068   5.699   4.936
  507SOL     OW 2419   3.664   0.543   3.300
  507SOL    HW1 2420   3.676   0.625   3.245
  507SOL    HW2 2421   3.672   0.462   3.242
  508SOL     OW 2422   6.580   3.748   2.483
  508SOL    HW1 2423   6.531   3.785   2.404
  508SOL    HW2 2424   6.668   3.712   2.453
  509SOL     OW 2425   3.363   1.206   2.050
  509SOL    HW1 2426   3.282   1.160   2.012
  509SOL    HW2 2427   3.440   1.142   2.051
  510SOL     OW 2428   6.402   5.022   6.745
  510SOL    HW1 2429   6.477   4.958   6.732
  510SOL    HW2 2430   6.429   5.091   6.812
  511SOL     OW 2431   0.216   1.057   5.963
  511SOL    HW1 2432   0.223   1.140   5.907
  511SOL    HW2 2433   0.128   1.057   6.011
  512SOL     OW 2434   6.851   2.836   0.188
  512SOL    HW1 2435   6.862   2.814   0.091
  512SOL    HW2 2436   6.819   2.755   0.237
  513SOL     OW 2437   6.019   5.831   3.056
  513SOL    HW1 2438   6.003   5.851   2.960
  513SOL    HW2 2439   6.062   5.740   3.064
  514SOL     OW 2440   6.896   2.760   4.212
  514SOL    HW1 2441   6.975   2.818   4.232
  514SOL    HW2 2442   6.867   2.713   4.295
  515SOL     OW 2443   2.213   0.887   6.752
  515SOL    HW1 2444   2.127   0.861   6.797
  515SOL    HW2 2445   2.192   0.928   6.663
  516SOL     OW 2446   2.648   4.625   1.726
  516SOL    HW1 2447   2.712   4.682   1.777
  516SOL    HW2 2448   2.697   4.545   1.690
  517SOL     OW 2449   5.213   5.576   1.966
  517SOL    HW1 2450   5.196   5.567   1.868
  517SOL    HW2 2451   5.182   5.665   1.998
  518SOL     OW 2452   2.237   2.559   2.569
  518SOL    HW1 2453   2.271   2.539   2.661
  518SOL    HW2 2454   2.315   2.577   2.508
  519SOL     OW 2455   0.892   0.971   4.450
  519SOL    HW1 2456   0.942   1.055   4.427
  519SOL    HW2 2457   0.945   0.919   4.517
  520SOL     OW 2458   6.445   4.268   0.140
  520SOL    HW1 2459   6.538   4.300   0.123
  520SOL    HW2 2460   6.400   4.331   0.204
  521SOL     OW 2461   6.857   3.790   6.343
  521SOL    HW1 2462   6.906   3.702   6.344
  521SOL    HW2 2463   6.762   3.774   6.317
  522SOL     OW 2464   3.219   4.115   6.035
  522SOL    HW1 2465   3.153   4.181   6.071
  522SOL    HW2 2466   3.196   4.093   5.941
  523SOL     OW 2467   0.718   5.031   1.417
  523SOL    HW1 2468   0.749   4.955   1.361
  523SOL    HW2 2469   0.618   5.035   1.415
  524SOL     OW 2470   1.124   1.534   0.476
  524SOL    HW1 2471   1.120   1.434   0.469
  524SOL    HW2 2472   1.043   1.567   0.524
  525SOL     OW 2473   2.561   3.637   6.746
  525SOL    HW1 2474   2.597   3.729   6.733
  525SOL    HW2 2475   2.621   3.586   6.807
  526SOL     OW 2476   4.214   6.918   4.053
  526SOL    HW1 2477   4.306   6.921   4.013
  526SOL    HW2 2478   4.150   6.880   3.986
  527SOL     OW 2479   6.630   3.354   6.635
  527SOL    HW1 2480   6.687   3.426   6.675
  527SOL    HW2 2481   6.575   3.312   6.706
  528SOL     OW 2482   1.238   1.595   3.794
  528SOL    HW1 2483   1.211   1.507   3.756
  528SOL    HW2 2484   1.336   1.593   3.815
  529SOL     OW 2485   1.072   6.429   4.206
  529SOL    HW1 2486   1.147   6.471   4.155
  529SOL    HW2 2487   1.021   6.367   4.146
  530SOL     OW 2488   3.160   3.201   5.577
  530SOL    HW1 2489   3.081   3.216   5.518
  530SOL    HW2 2490   3.242   3.189   5.520
  531SOL     OW 2491   0.200   0.350   2.352
  531SOL    HW1 2492   0.196   0.344   2.452
  531SOL    HW2 2493   0.206   0.447   2.325
  532SOL     OW 2494   1.708   1.926   6.906
  532SOL    HW1 2495   1.728   1.862   6.980
  532SOL    HW2 2496   1.654   2.002   6.941
  533SOL     OW 2497   4.143   6.488   3.592
  533SOL    HW1 2498   4.166   6.575   3.549
  533SOL    HW2 2499   4.222   6.454   3.642
  534SOL     OW 2500   5.371   5.564   3.369
  534SOL    HW1 2501   5.294   5.509   3.404
  534SOL    HW2 2502   5.446   5.563   3.435
  535SOL     OW 2503   0.479   3.734   4.519
  535SOL    HW1 2504   0.471   3.772   4.611
  535SOL    HW2 2505   0.432   3.793   4.454
  536SOL     OW 2506   0.275   5.278   1.960
  536SOL    HW1 2507   0.355   5.265   2.018
  536SOL    HW2 2508   0.275   5.210   1.887
  537SOL     OW 2509   2.350   6.556   3.607
  537SOL    HW1 2510   2.280   6.491   3.635
  537SOL    HW2 2511   2.402   6.586   3.687
  538SOL     OW 2512   1.425   4.250   3.142
  538SOL    HW1 2513   1.342   4.216   3.186
  538SOL    HW2 2514   1.472   4.175   3.096
  539SOL     OW 2515   0.854   6.103   0.325
  539SOL    HW1 2516   0.887   6.196   0.341
  539SOL    HW2 2517   0.827   6.093   0.230
  540SOL     OW 2518   0.277   1.228   2.184
  540SOL    HW1 2519   0.356   1.261   2.236
  540SOL    HW2 2520   0.231   1.305   2.141
  541SOL     OW 2521   3.306   6.304   3.678
  541SOL    HW1 2522   3.405   6.289   3.682
  541SOL    HW2 2523   3.259   6.216   3.671
  542SOL     OW 2524   6.582   0.074   0.356
  542SOL    HW1 2525   6.592   0.112   0.448
  542SOL    HW2 2526   6.502   0.114   0.312
  543SOL     OW 2527   1.307   5.169   5.544
  543SOL    HW1 2528   1.395   5.157   5.499
  543SOL    HW2 2529   1.281   5.266   5.539
  544SOL     OW 2530   1.995   4.329   1.505
  544SOL    HW1 2531   1.963   4.423   1.499
  544SOL    HW2 2532   1.962   4.288   1.590
  545SOL     OW 2533   3.444   0.670   3.042
  545SOL    HW1 2534   3.507   0.734   3.086
  545SOL    HW2 2535   3.417   0.599   3.106
  546SOL     OW 2536   1.861   3.168   0.045
  546SOL    HW1 2537   1.919   3.210   7.003
  546SOL    HW2 2538   1.916   3.103   0.098
  547SOL     OW 2539   3.082   1.608   6.613
  547SOL    HW1 2540   3.006   1.673   6.620
  547SOL    HW2 2541   3.119   1.609   6.520
  548SOL     OW 2542   3.820   2.972   2.281
  548SOL    HW1 2543   3.888   3.037   2.315
  548SOL    HW2 2544   3.740   2.972   2.340
  549SOL     OW 2545   4.600   3.352   1.130
  549SOL    HW1 2546   4.661   3.393   1.198
  549SOL    HW2 2547   4.576   3.421   1.062
  550SOL     OW 2548   6.383   4.645   3.190
  550SOL    HW1 2549   6.447   4.598   3.251
  550SOL    HW2 2550   6.409   4.741   3.182
  551SOL     OW 2551   0.785   0.562   1.141
  551SOL    HW1 2552   0.864   0.566   1.202
  551SOL    HW2 2553   0.816   0.556   1.046
  552SOL     OW 2554   4.545   5.374   0.710
  552SOL    HW1 2555   4.520   5.288   0.664
  552SOL    HW2 2556   4.574   5.441   0.641
  553SOL     OW 2557   2.646   6.854   1.824
  553SOL    HW1 2558   2.713   6.781   1.822
  553SOL    HW2 2559   2.645   6.901   1.736
  554SOL     OW 2560   5.582   6.514   5.515
  554SOL    HW1 2561   5.488   6.479   5.523
  554SOL    HW2 2562   5.581   6.613   5.526
  555SOL     OW 2563   1.918   5.117   3.705
  555SOL    HW1 2564   1.899   5.126   3.607
  555SOL    HW2 2565   1.996   5.174   3.729
  556SOL     OW 2566   5.695   2.099   4.077
  556SOL    HW1 2567   5.767   2.161   4.046
  556SOL    HW2 2568   5.607   2.130   4.042
  557SOL     OW 2569   0.383   4.844   0.471
  557SOL    HW1 2570   0.363   4.937   0.440
  557SOL    HW2 2571   0.478   4.840   0.502
  558SOL     OW 2572   3.326   4.041   5.019
  558SOL    HW1 2573   3.312   4.082   5.109
  558SOL    HW2 2574   3.421   4.056   4.989
  559SOL     OW 2575   6.177   6.122   6.693
  559SOL    HW1 2576   6.129   6.105   6.607
  559SOL    HW2 2577   6.246   6.050   6.708
  560SOL     OW 2578   3.669   5.960   0.095
  560SOL    HW1 2579   3.705   5.870   0.071
  560SOL    HW2 2580   3.616   5.953   0.180
  561SOL     OW 2581   6.102   1.168   6.939
  561SOL    HW1 2582   6.141   1.258   6.957
  561SOL    HW2 2583   6.109   1.147   6.842
  562SOL     OW 2584   4.618   0.489   5.865
  562SOL    HW1 2585   4.524   0.496   5.897
  562SOL    HW2 2586   4.664   0.577   5.877
  563SOL     OW 2587   2.397   0.125   3.316
  563SOL    HW1 2588   2.329   0.081   3.258
  563SOL    HW2 2589   2.451   0.189   3.262
  564SOL     OW 2590   2.625   1.729   6.551
  564SOL    HW1 2591   2.535   1.730   6.508
  564SOL    HW2 2592   2.624   1.663   6.627
  565SOL     OW 2593   4.265   3.397   5.775
  565SOL    HW1 2594   4.349   3.431   5.817
  565SOL    HW2 2595   4.233   3.462   5.707
  566SOL     OW 2596   5.798   3.924   3.843
  566SOL    HW1 2597   5.772   4.003   3.788
  566SOL    HW2 2598   5.891   3.897   3.821
  567SOL     OW 2599   3.354   4.106   3.763
  567SOL    HW1 2600   3.399   4.160   3.692
  567SOL    HW2 2601   3.421   4.078   3.832
  568SOL     OW 2602   3.264   2.649   0.473
  568SOL    HW1 2603   3.168   2.676   0.467
  568SOL    HW2 2604   3.270   2.549   0.476
  569SOL     OW 2605   1.922   3.440   0.208
  569SOL    HW1 2606   1.919   3.375   0.132
  569SOL    HW2 2607   1.883   3.527   0.179
  570SOL     OW 2608   1.964   6.535   5.846
  570SOL    HW1 2609   2.009   6.618   5.876
  570SOL    HW2 2610   1.920   6.550   5.757
  571SOL     OW 2611   3.951   0.235   2.778
  571SOL    HW1 2612   4.038   0.188   2.762
  571SOL    HW2 2613   3.956   0.285   2.864
  572SOL     OW 2614   2.672   4.966   5.690
  572SOL    HW1 2615   2.580   4.928   5.682
  572SOL    HW2 2616   2.694   5.016   5.606
  573SOL     OW 2617   3.979   1.467   5.069
  573SOL    HW1 2618   4.043   1.538   5.098
  573SOL    HW2 2619   3.911   1.453   5.141
  574SOL     OW 2620   2.229   2.493   3.587
  574SOL    HW1 2621   2.167   2.446   3.649
  574SOL    HW2 2622   2.214   2.592   3.593
  575SOL     OW 2623   6.385   3.665   5.992
  575SOL    HW1 2624   6.312   3.630   5.933
  575SOL    HW2 2625   6.471   3.621   5.968
  576SOL     OW 2626   1.477   2.322   2.156
  576SOL    HW1 2627   1.518   2.232   2.147
  576SOL    HW2 2628   1.430   2.329   2.245
  577SOL     OW 2629   1.764   0.802   3.142
  577SOL    HW1 2630   1.669   0.773   3.152
  577SOL    HW2 2631   1.823   0.742   3.196
  578SOL     OW 2632   6.385   3.675   3.705
  578SOL    HW1 2633   6.327   3.751   3.673
  578SOL    HW2 2634   6.480   3.704   3.704
  579SOL     OW 2635   3.273   2.118   1.214
  579SOL    HW1 2636   3.247   2.201   1.164
  579SOL    HW2 2637   3.232   2.039   1.169
  580SOL     OW 2638   0.398   4.465   6.626
  580SOL    HW1 2639   0.406   4.563   6.639
  580SOL    HW2 2640   0.397   4.443   6.529
  581SOL     OW 2641   3.261   3.398   3.397
  581SOL    HW1 2642   3.210   3.484   3.401
  581SOL    HW2 2643   3.229   3.337   3.469
  582SOL     OW 2644   5.291   5.183   2.887
  582SOL    HW1 2645   5.381   5.145   2.863
  582SOL    HW2 2646   5.268   5.157   2.981
  583SOL     OW 2647   2.516   5.180   6.694
  583SOL    HW1 2648   2.436   5.233   6.720
  583SOL    HW2 2649   2.530   5.107   6.761
  584SOL     OW 2650   1.035   5.469   5.262
  584SOL    HW1 2651   1.113   5.448   5.321
  584SOL    HW2 2652   1.066   5.524   5.184
  585SOL     OW 2653   6.531   2.806   6.233
  585SOL    HW1 2654   6.547   2.897   6.194
  585SOL    HW2 2655   6.479   2.751   6.168
  586SOL     OW 2656   3.258   0.395   6.776
  586SOL    HW1 2657   3.188   0.324   6.784
  586SOL    HW2 2658   3.302   0.389   6.687
  587SOL     OW 2659   2.647   2.173   5.264
  587SOL    HW1 2660   2.725   2.229   5.236
  587SOL    HW2 2661   2.645   2.165   5.363
  588SOL     OW 2662   2.683   5.588   0.861
  588SOL    HW1 2663   2.737   5.505   0.873
  588SOL    HW2 2664   2.689   5.619   0.766
  589SOL     OW 2665   3.801   5.166   1.875
  589SOL    HW1 2666   3.846   5.175   1.787
  589SOL    HW2 2667   3.811   5.251   1.926
  590SOL     OW 2668   6.079   2.689   1.497
  590SOL    HW1 2669   6.171   2.649   1.492
  590SOL    HW2 2670   6.014   2.627   1.452
  591SOL     OW 2671   4.343   6.376   3.756
  591SOL    HW1 2672   4.433   6.373   3.797
  591SOL    HW2 2673   4.274   6.351   3.824
  592SOL     OW 2674   4.163   7.009   1.095
  592SOL    HW1 2675   4.100   6.991   1.170
  592SOL    HW2 2676   4.257   7.008   1.128
  593SOL     OW 2677   4.209   2.174   3.761
  593SOL    HW1 2678   4.303   2.140   3.768
  593SOL    HW2 2679   4.188   2.229   3.842
  594SOL     OW 2680   4.667   2.520   6.494
  594SOL    HW1 2681   4.700   2.425   6.492
  594SOL    HW2 2682   4.738   2.580   6.457
  595SOL     OW 2683   4.670   6.382   3.556
  595SOL    HW1 2684   4.589   6.436   3.534
  595SOL    HW2 2685   4.642   6.302   3.611
  596SOL     OW 2686   0.896   3.199   1.502
  596SOL    HW1 2687   0.918   3.123   1.441
  596SOL    HW2 2688   0.911   3.285   1.454
  597SOL     OW 2689   4.642   0.642   5.395
  597SOL    HW1 2690   4.732   0.614   5.428
  597SOL    HW2 2691   4.607   0.716   5.452
  598SOL     OW 2692   3.661   3.900   6.973
  598SOL    HW1 2693   3.752   3.942   6.982
  598SOL    HW2 2694   3.671   3.803   6.951
  599SOL     OW 2695   0.933   0.055   2.921
  599SOL    HW1 2696   1.013   0.084   2.869
  599SOL    HW2 2697   0.922   0.115   3.001
  600SOL     OW 2698   1.569   0.549   0.999
  600SOL    HW1 2699   1.541   0.634   0.954
  600SOL    HW2 2700   1.524   0.543   1.089
  601SOL     OW 2701   3.056   5.720   4.091
  601SOL    HW1 2702   3.129   5.735   4.024
  601SOL    HW2 2703   2.984   5.787   4.077
  602SOL     OW 2704   1.474   2.223   6.969
  602SOL    HW1 2705   1.536   2.296   6.999
  602SOL    HW2 2706   1.426   2.252   6.887
  603SOL     OW 2707   4.475   2.082   4.149
  603SOL    HW1 2708   4.413   2.036   4.086
  603SOL    HW2 2709   4.440   2.172   4.171
  604SOL     OW 2710   0.402   3.800   1.513
  604SOL    HW1 2711   0.426   3.705   1.530
  604SOL    HW2 2712   0.480   3.859   1.533
  605SOL     OW 2713   6.766   5.562   2.869
  605SOL    HW1 2714   6.838   5.519   2.923
  605SOL    HW2 2715   6.807   5.609   2.790
  606SOL     OW 2716   5.170   0.458   5.689
  606SOL    HW1 2717   5.159   0.554   5.663
  606SOL    HW2 2718   5.101   0.434   5.757
  607SOL     OW 2719   5.128   0.215   4.977
  607SOL    HW1 2720   5.090   0.230   5.068
  607SOL    HW2 2721   5.062   0.244   4.908
  608SOL     OW 2722   3.872   6.778   0.281
  608SOL    HW1 2723   3.850   6.859   0.227
  608SOL    HW2 2724   3.826   6.783   0.369
  609SOL     OW 2725   3.413   3.335   4.532
  609SOL    HW1 2726   3.425   3.249   4.582
  609SOL    HW2 2727   3.318   3.365   4.541
  610SOL     OW 2728   5.755   2.292   3.305
  610SOL    HW1 2729   5.780   2.312   3.400
  610SOL    HW2 2730   5.660   2.260   3.302
  611SOL     OW 2731   1.111   0.267   6.712
  611SOL    HW1 2732   1.015   0.253   6.690
  611SOL    HW2 2733   1.168   0.225   6.641
  612SOL     OW 2734   3.277   5.493   5.988
  612SOL    HW1 2735   3.304   5.586   5.965
  612SOL    HW2 2736   3.189   5.472   5.944
  613SOL     OW 2737   5.021   0.080   5.620
  613SOL    HW1 2738   5.018   7.009   5.632
  613SOL    HW2 2739   5.026   0.125   5.709
  614SOL     OW 2740   6.421   4.530   0.706
  614SOL    HW1 2741   6.379   4.439   0.714
  614SOL    HW2 2742   6.410   4.578   0.793
  615SOL     OW 2743   0.802   1.617   0.340
  615SOL    HW1 2744   0.857   1.544   0.300
  615SOL    HW2 2745   0.706   1.590   0.340
  616SOL     OW 2746   5.901   1.717   3.758
  616SOL    HW1 2747   5.841   1.746   3.832
  616SOL    HW2 2748   5.858   1.740   3.670
  617SOL     OW 2749   0.341   3.674   6.894
  617SOL    HW1 2750   0.392   3.701   6.813
  617SOL    HW2 2751   0.244   3.671   6.873
  618SOL     OW 2752   6.260   3.850   0.811
  618SOL    HW1 2753   6.187   3.806   0.862
  618SOL    HW2 2754   6.320   3.781   0.772
  619SOL     OW 2755   4.045   0.004   6.796
  619SOL    HW1 2756   4.106   0.024   6.719
  619SOL    HW2 2757   3.987   0.083   6.814
  620SOL     OW 2758   5.832   2.557   1.077
  620SOL    HW1 2759   5.802   2.592   0.988
  620SOL    HW2 2760   5.754   2.553   1.139
  621SOL     OW 2761   2.249   0.186   5.215
  621SOL    HW1 2762   2.287   0.278   5.201
  621SOL    HW2 2763   2.165   0.176   5.163
  622SOL     OW 2764   0.791   2.261   5.191
  622SOL    HW1 2765   0.729   2.220   5.258
  622SOL    HW2 2766   0.838   2.339   5.232
  623SOL     OW 2767   7.002   0.404   5.014
  623SOL    HW1 2768   0.041   0.474   4.989
  623SOL    HW2 2769   6.930   0.401   4.944
  624SOL     OW 2770   6.211   1.408   6.983
  624SOL    HW1 2771   6.134   1.472   6.987
  624SOL    HW2 2772   6.284   1.448   6.928
  625SOL     OW 2773   1.249   1.763   0.513
  625SOL    HW1 2774   1.214   1.673   0.485
  625SOL    HW2 2775   1.317   1.751   0.585
  626SOL     OW 2776   0.898   5.428   2.726
  626SOL    HW1 2777   0.973   5.393   2.782
  626SOL    HW2 2778   0.930   5.440   2.632
  627SOL     OW 2779   6.344   6.305   0.261
  627SOL    HW1 2780   6.375   6.395   0.292
  627SOL    HW2 2781   6.263   6.278   0.314
  628SOL     OW 2782   5.835   3.851   4.993
  628SOL    HW1 2783   5.808   3.932   5.044
  628SOL    HW2 2784   5.927   3.863   4.956
  629SOL     OW 2785   0.212   0.962   0.349
  629SOL    HW1 2786   0.257   1.035   0.401
  629SOL    HW2 2787   0.142   0.919   0.406
  630SOL     OW 2788   6.829   1.897   0.265
  630SOL    HW1 2789   6.765   1.893   0.341
  630SOL    HW2 2790   6.788   1.852   0.185
  631SOL     OW 2791   3.778   1.862   4.186
  631SOL    HW1 2792   3.797   1.953   4.223
  631SOL    HW2 2793   3.843   1.797   4.225
  632SOL     OW 2794   4.050   2.964   0.833
  632SOL    HW1 2795   4.131   3.018   0.812
  632SOL    HW2 2796   4.002   3.005   0.910
  633SOL     OW 2797   2.665   4.358   0.108
  633SOL    HW1 2798   2.575   4.380   0.147
  633SOL    HW2 2799   2.731   4.426   0.138
  634SOL     OW 2800   3.987   3.593   3.526
  634SOL    HW1 2801   3.948   3.632   3.610
  634SOL    HW2 2802   3.960   3.648   3.448
  635SOL     OW 2803   5.066   0.054   6.819
  635SOL    HW1 2804   5.050   7.015   6.892
  635SOL    HW2 2805   5.021   0.139   6.842
  636SOL     OW 2806   3.199   0.172   5.968
  636SOL    HW1 2807   3.150   0.146   5.885
  636SOL    HW2 2808   3.295   0.187   5.946
  637SOL     OW 2809   5.854   1.930   2.535
  637SOL    HW1 2810   5.843   2.029   2.527
  637SOL    HW2 2811   5.811   1.898   2.620
  638SOL     OW 2812   5.571   3.734   4.089
  638SOL    HW1 2813   5.523   3.662   4.039
  638SOL    HW2 2814   5.570   3.818   4.036
  639SOL     OW 2815   5.468   4.445   3.998
  639SOL    HW1 2816   5.374   4.425   4.023
  639SOL    HW2 2817   5.514   4.489   4.075
  640SOL     OW 2818   6.841   4.437   3.610
  640SOL    HW1 2819   6.748   4.415   3.641
  640SOL    HW2 2820   6.902   4.362   3.633
  641SOL     OW 2821   1.214   4.528   4.994
  641SOL    HW1 2822   1.179   4.568   4.909
  641SOL    HW2 2823   1.205   4.593   5.068
  642SOL     OW 2824   1.368   2.588   4.374
  642SOL    HW1 2825   1.419   2.665   4.412
  642SOL    HW2 2826   1.411   2.502   4.402
  643SOL     OW 2827   6.059   0.258   6.555
  643SOL    HW1 2828   6.159   0.268   6.562
  643SOL    HW2 2829   6.022   0.338   6.507
  644SOL     OW 2830   1.525   0.388   4.646
  644SOL    HW1 2831   1.451   0.375   4.712
  644SOL    HW2 2832   1.511   0.474   4.597
  645SOL     OW 2833   3.413   5.344   3.972
  645SOL    HW1 2834   3.414   5.302   3.881
  645SOL    HW2 2835   3.328   5.319   4.019
  646SOL     OW 2836   3.459   0.817   4.443
  646SOL    HW1 2837   3.395   0.813   4.520
  646SOL    HW2 2838   3.488   0.724   4.419
  647SOL     OW 2839   5.766   1.564   5.103
  647SOL    HW1 2840   5.708   1.624   5.158
  647SOL    HW2 2841   5.825   1.620   5.044
  648SOL     OW 2842   6.795   3.269   3.294
  648SOL    HW1 2843   6.741   3.339   3.341
  648SOL    HW2 2844   6.805   3.295   3.198
  649SOL     OW 2845   1.943   4.217   0.891
  649SOL    HW1 2846   2.000   4.148   0.846
  649SOL    HW2 2847   1.968   4.223   0.988
  650SOL     OW 2848   0.076   5.306   0.588
  650SOL    HW1 2849   0.024   5.239   0.641
  650SOL    HW2 2850   0.013   5.361   0.533
  651SOL     OW 2851   1.647   0.345   5.860
  651SOL    HW1 2852   1.718   0.349   5.790
  651SOL    HW2 2853   1.610   0.252   5.865
  652SOL     OW 2854   4.430   6.820   2.259
  652SOL    HW1 2855   4.470   6.890   2.317
  652SOL    HW2 2856   4.428   6.853   2.164
  653SOL     OW 2857   0.507   6.307   0.432
  653SOL    HW1 2858   0.520   6.403   0.456
  653SOL    HW2 2859   0.426   6.271   0.480
  654SOL     OW 2860   6.610   6.560   5.984
  654SOL    HW1 2861   6.622   6.537   6.080
  654SOL    HW2 2862   6.521   6.528   5.952
  655SOL     OW 2863   6.946   5.305   1.802
  655SOL    HW1 2864   7.002   5.231   1.763
  655SOL    HW2 2865   6.854   5.271   1.821
  656SOL     OW 2866   2.554   6.619   0.303
  656SOL    HW1 2867   2.605   6.666   0.376
  656SOL    HW2 2868   2.582   6.656   0.214
  657SOL     OW 2869   3.447   3.624   0.640
  657SOL    HW1 2870   3.377   3.652   0.575
  657SOL    HW2 2871   3.531   3.677   0.624
  658SOL     OW 2872   1.561   4.063   5.946
  658SOL    HW1 2873   1.474   4.021   5.919
  658SOL    HW2 2874   1.552   4.104   6.036
  659SOL     OW 2875   2.821   5.647   4.342
  659SOL    HW1 2876   2.854   5.585   4.271
  659SOL    HW2 2877   2.724   5.666   4.327
  660SOL     OW 2878   4.487   4.774   2.572
  660SOL    HW1 2879   4.561   4.841   2.563
  660SOL    HW2 2880   4.432   4.773   2.488
  661SOL     OW 2881   4.772   4.168   4.677
  661SOL    HW1 2882   4.721   4.240   4.723
  661SOL    HW2 2883   4.725   4.139   4.594
  662SOL     OW 2884   4.571   1.405   6.703
  662SOL    HW1 2885   4.551   1.339   6.630
  662SOL    HW2 2886   4.485   1.442   6.738
  663SOL     OW 2887   0.568   4.782   6.902
  663SOL    HW1 2888   0.587   4.684   6.913
  663SOL    HW2 2889   0.645   4.826   6.856
  664SOL     OW 2890   1.504   5.308   6.754
  664SOL    HW1 2891   1.470   5.313   6.660
  664SOL    HW2 2892   1.604   5.306   6.753
  665SOL     OW 2893   3.992   5.428   0.787
  665SOL    HW1 2894   3.974   5.347   0.842
  665SOL    HW2 2895   3.948   5.508   0.829
  666SOL     OW 2896   4.016   2.276   0.849
  666SOL    HW1 2897   4.055   2.197   0.896
  666SOL    HW2 2898   4.061   2.286   0.760
  667SOL     OW 2899   0.767   3.586   4.031
  667SOL    HW1 2900   0.793   3.541   3.946
  667SOL    HW2 2901   0.748   3.517   4.101
  668SOL     OW 2902   4.788   5.579   0.140
  668SOL    HW1 2903   4.746   5.594   0.050
  668SOL    HW2 2904   4.828   5.665   0.172
  669SOL     OW 2905   2.210   6.108   2.948
  669SOL    HW1 2906   2.183   6.045   2.875
  669SOL    HW2 2907   2.168   6.197   2.933
  670SOL     OW 2908   3.390   3.858   2.646
  670SOL    HW1 2909   3.322   3.859   2.719
  670SOL    HW2 2910   3.364   3.790   2.577
  671SOL     OW 2911   2.270   6.266   6.235
  671SOL    HW1 2912   2.351   6.312   6.273
  671SOL    HW2 2913   2.246   6.188   6.293
  672SOL     OW 2914   0.741   3.738   2.660
  672SOL    HW1 2915   0.781   3.760   2.749
  672SOL    HW2 2916   0.815   3.718   2.595
  673SOL     OW 2917   4.403   0.447   0.918
  673SOL    HW1 2918   4.392   0.516   0.989
  673SOL    HW2 2919   4.493   0.404   0.926
  674SOL     OW 2920   0.238   3.397   4.169
  674SOL    HW1 2921   0.334   3.424   4.159
  674SOL    HW2 2922   0.223   3.308   4.127
  675SOL     OW 2923   0.813   1.455   5.071
  675SOL    HW1 2924   0.754   1.374   5.064
  675SOL    HW2 2925   0.813   1.504   4.984
  676SOL     OW 2926   2.900   5.161   3.460
  676SOL    HW1 2927   2.907   5.086   3.393
  676SOL    HW2 2928   2.873   5.245   3.413
  677SOL     OW 2929   5.726   1.459   6.475
  677SOL    HW1 2930   5.704   1.365   6.451
  677SOL    HW2 2931   5.793   1.495   6.410
  678SOL     OW 2932   2.114   1.470   5.329
  678SOL    HW1 2933   2.183   1.410   5.289
  678SOL    HW2 2934   2.150   1.514   5.411
  679SOL     OW 2935   3.968   0.864   4.775
  679SOL    HW1 2936   3.989   0.821   4.863
  679SOL    HW2 2937   4.014   0.952   4.770
  680SOL     OW 2938   5.929   4.801   5.764
  680SOL    HW1 2939   6.012   4.747   5.778
  680SOL    HW2 2940   5.903   4.845   5.850
  681SOL     OW 2941   6.417   0.326   0.896
  681SOL    HW1 2942   6.496   0.280   0.935
  681SOL    HW2 2943   6.333   0.284   0.930
  682SOL     OW 2944   2.395   6.441   6.534
  682SOL    HW1 2945   2.447   6.468   6.615
  682SOL    HW2 2946   2.391   6.342   6.529
  683SOL     OW 2947   3.160   0.334   6.166
  683SOL    HW1 2948   3.157   0.288   6.077
  683SOL    HW2 2949   3.228   0.288   6.224
  684SOL     OW 2950   6.229   1.776   6.190
  684SOL    HW1 2951   6.206   1.692   6.141
  684SOL    HW2 2952   6.329   1.785   6.195
  685SOL     OW 2953   4.817   0.372   5.499
  685SOL    HW1 2954   4.721   0.362   5.527
  685SOL    HW2 2955   4.875   0.316   5.558
  686SOL     OW 2956   5.477   2.876   3.335
  686SOL    HW1 2957   5.490   2.875   3.236
  686SOL    HW2 2958   5.512   2.962   3.372
  687SOL     OW 2959   6.869   2.938   5.578
  687SOL    HW1 2960   6.853   2.844   5.550
  687SOL    HW2 2961   6.798   2.967   5.642
  688SOL     OW 2962   1.905   4.009   6.910
  688SOL    HW1 2963   1.806   3.999   6.907
  688SOL    HW2 2964   1.942   4.003   6.818
  689SOL     OW 2965   0.541   4.663   5.418
  689SOL    HW1 2966   0.460   4.643   5.364
  689SOL    HW2 2967   0.621   4.667   5.358
  690SOL     OW 2968   0.457   3.771   3.119
  690SOL    HW1 2969   0.426   3.788   3.213
  690SOL    HW2 2970   0.377   3.763   3.059
  691SOL     OW 2971   2.434   1.513   6.648
  691SOL    HW1 2972   2.419   1.516   6.747
  691SOL    HW2 2973   2.418   1.603   6.608
  692SOL     OW 2974   3.554   6.734   3.920
  692SOL    HW1 2975   3.568   6.793   3.841
  692SOL    HW2 2976   3.476   6.674   3.903
  693SOL     OW 2977   6.684   1.493   3.394
  693SOL    HW1 2978   6.687   1.417   3.459
  693SOL    HW2 2979   6.639   1.572   3.437
  694SOL     OW 2980   3.320   5.663   2.361
  694SOL    HW1 2981   3.408   5.706   2.341
  694SOL    HW2 2982   3.292   5.687   2.455
  695SOL     OW 2983   5.587   4.613   5.689
  695SOL    HW1 2984   5.619   4.694   5.640
  695SOL    HW2 2985   5.529   4.642   5.766
  696SOL     OW 2986   3.247   5.112   2.068
  696SOL    HW1 2987   3.297   5.198   2.066
  696SOL    HW2 2988   3.305   5.041   2.110
  697SOL     OW 2989   1.213   2.634   5.668
  697SOL    HW1 2990   1.205   2.718   5.722
  697SOL    HW2 2991   1.280   2.647   5.595
  698SOL     OW 2992   5.881   0.030   4.936
  698SOL    HW1 2993   5.826   0.106   4.902
  698SOL    HW2 2994   5.968   0.065   4.972
  699SOL     OW 2995   0.975   4.214   0.152
  699SOL    HW1 2996   1.042   4.268   0.101
  699SOL    HW2 2997   1.004   4.207   0.248
  700SOL     OW 2998   3.143   1.850   3.387
  700SOL    HW1 2999   3.128   1.789   3.465
  700SOL    HW2 3000   3.133   1.945   3.417
  701SOL     OW 3001   0.987   4.784   6.400
  701SOL    HW1 3002   0.998   4.720   6.324
  701SOL    HW2 3003   0.968   4.875   6.363
  702SOL     OW 3004   5.808   6.148   6.559
  702SOL    HW1 3005   5.806   6.093   6.642
  702SOL    HW2 3006   5.793   6.244   6.582
  703SOL     OW 3007   4.379   3.611   6.652
  703SOL    HW1 3008   4.307   3.641   6.715
  703SOL    HW2 3009   4.340   3.549   6.584
  704SOL     OW 3010   1.938   1.641   6.195
  704SOL    HW1 3011   1.838   1.632   6.189
  704SOL    HW2 3012   1.963   1.671   6.287
  705SOL     OW 3013   5.168   6.822   3.805
  705SOL    HW1 3014   5.256   6.870   3.809
  705SOL    HW2 3015   5.163   6.768   3.721
  706SOL     OW 3016   4.079   2.039   3.517
  706SOL    HW1 3017   4.148   2.005   3.581
  706SOL    HW2 3018   4.012   2.094   3.567
  707SOL     OW 3019   4.643   0.173   2.550
  707SOL    HW1 3020   4.706   0.136   2.619
  707SOL    HW2 3021   4.654   0.272   2.544
  708SOL     OW 3022   4.191   0.302   0.861
  708SOL    HW1 3023   4.260   0.361   0.903
  708SOL    HW2 3024   4.232   0.214   0.837
  709SOL     OW 3025   1.205   5.453   0.763
  709SOL    HW1 3026   1.171   5.547   0.757
  709SOL    HW2 3027   1.295   5.453   0.807
  710SOL     OW 3028   4.061   3.765   2.658
  710SOL    HW1 3029   4.012   3.775   2.744
  710SOL    HW2 3030   4.055   3.670   2.627
  711SOL     OW 3031   0.873   2.179   5.905
  711SOL    HW1 3032   0.905   2.118   5.832
  711SOL    HW2 3033   0.775   2.196   5.895
  712SOL     OW 3034   2.056   4.259   1.186
  712SOL    HW1 3035   2.094   4.243   1.277
  712SOL    HW2 3036   2.048   4.358   1.170
  713SOL     OW 3037   3.057   3.946   0.580
  713SOL    HW1 3038   2.994   3.869   0.573
  713SOL    HW2 3039   3.089   3.956   0.674
  714SOL     OW 3040   6.072   4.434   5.227
  714SOL    HW1 3041   6.011   4.499   5.181
  714SOL    HW2 3042   6.093   4.468   5.319
  715SOL     OW 3043   4.764   6.158   0.243
  715SOL    HW1 3044   4.690   6.095   0.219
  715SOL    HW2 3045   4.725   6.248   0.265
  716SOL     OW 3046   1.085   6.043   0.966
  716SOL    HW1 3047   0.993   6.069   0.940
  716SOL    HW2 3048   1.088   5.944   0.984
  717SOL     OW 3049   6.039   5.330   6.311
  717SOL    HW1 3050   6.059   5.422   6.278
  717SOL    HW2 3051   5.992   5.336   6.399
  718SOL     OW 3052   3.903   1.825   5.956
  718SOL    HW1 3053   3.856   1.744   5.991
  718SOL    HW2 3054   3.843   1.905   5.966
  719SOL     OW 3055   5.848   2.516   1.830
  719SOL    HW1 3056   5.890   2.544   1.916
  719SOL    HW2 3057   5.889   2.430   1.799
  720SOL     OW 3058   3.281   1.081   6.056
  720SOL    HW1 3059   3.261   1.123   5.968
  720SOL    HW2 3060   3.286   0.982   6.046
  721SOL     OW 3061   1.540   0.039   4.786
  721SOL    HW1 3062   1.591   0.114   4.827
  721SOL    HW2 3063   1.546   6.986   4.845
  722SOL     OW 3064   3.654   6.705   5.105
  722SOL    HW1 3065   3.734   6.648   5.087
  722SOL    HW2 3066   3.684   6.798   5.124
  723SOL     OW 3067   2.217   2.925   2.081
  723SOL    HW1 3068   2.181   3.018   2.086
  723SOL    HW2 3069   2.271   2.907   2.164
  724SOL     OW 3070   1.038   1.452   4.536
  724SOL    HW1 3071   1.019   1.550   4.526
  724SOL    HW2 3072   1.121   1.429   4.485
  725SOL     OW 3073   2.918   4.993   1.497
  725SOL    HW1 3074   2.988   4.984   1.568
  725SOL    HW2 3075   2.827   4.990   1.538
  726SOL     OW 3076   4.094   4.713   0.727
  726SOL    HW1 3077   4.153   4.644   0.770
  726SOL    HW2 3078   4.063   4.681   0.638
  727SOL     OW 3079   4.454   5.666   4.955
  727SOL    HW1 3080   4.422   5.722   4.878
  727SOL    HW2 3081   4.500   5.724   5.022
  728SOL     OW 3082   0.585   4.089   5.241
  728SOL    HW1 3083   0.677   4.106   5.207
  728SOL    HW2 3084   0.526   4.167   5.217
  729SOL     OW 3085   2.356   0.538   0.354
  729SOL    HW1 3086   2.403   0.620   0.385
  729SOL    HW2 3087   2.423   0.471   0.321
  730SOL     OW 3088   5.823   0.232   3.472
  730SOL    HW1 3089   5.742   0.214   3.528
  730SOL    HW2 3090   5.905   0.215   3.527
  731SOL     OW 3091   5.467   3.603   5.902
  731SOL    HW1 3092   5.566   3.597   5.894
  731SOL    HW2 3093   5.433   3.524   5.955
  732SOL     OW 3094   0.394   3.580   0.670
  732SOL    HW1 3095   0.319   3.569   0.735
  732SOL    HW2 3096   0.363   3.551   0.579
  733SOL     OW 3097   5.758   4.375   4.625
  733SOL    HW1 3098   5.664   4.345   4.641
  733SOL    HW2 3099   5.815   4.346   4.702
  734SOL     OW 3100   6.376   4.711   2.900
  734SOL    HW1 3101   6.378   4.670   2.991
  734SOL    HW2 3102   6.404   4.644   2.832
  735SOL     OW 3103   3.552   2.096   1.202
  735SOL    HW1 3104   3.455   2.079   1.219
  735SOL    HW2 3105   3.565   2.190   1.170
  736SOL     OW 3106   6.710   6.421   2.433
  736SOL    HW1 3107   6.647   6.463   2.498
  736SOL    HW2 3108   6.666   6.417   2.343
  737SOL     OW 3109   4.740   3.229   0.457
  737SOL    HW1 3110   4.738   3.130   0.469
  737SOL    HW2 3111   4.693   3.253   0.372
  738SOL     OW 3112   1.691   4.843   3.452
  738SOL    HW1 3113   1.659   4.902   3.378
  738SOL    HW2 3114   1.776   4.797   3.424
  739SOL     OW 3115   5.046   6.306   5.276
  739SOL    HW1 3116   5.087   6.224   5.237
  739SOL    HW2 3117   4.949   6.310   5.251
  740SOL     OW 3118   5.412   0.532   0.684
  740SOL    HW1 3119   5.386   0.541   0.780
  740SOL    HW2 3120   5.455   0.616   0.652
  741SOL     OW 3121   2.395   6.452   3.167
  741SOL    HW1 3122   2.490   6.420   3.171
  741SOL    HW2 3123   2.340   6.399   3.232
  742SOL     OW 3124   2.485   6.659   1.602
  742SOL    HW1 3125   2.393   6.654   1.564
  742SOL    HW2 3126   2.493   6.738   1.663
  743SOL     OW 3127   1.701   3.945   4.679
  743SOL    HW1 3128   1.762   4.017   4.646
  743SOL    HW2 3129   1.692   3.952   4.778
  744SOL     OW 3130   6.381   6.750   6.926
  744SOL    HW1 3131   6.282   6.763   6.933
  744SOL    HW2 3132   6.424   6.838   6.905
  745SOL     OW 3133   1.127   5.447   4.152
  745SOL    HW1 3134   1.134   5.546   4.142
  745SOL    HW2 3135   1.215   5.404   4.131
  746SOL     OW 3136   0.729   6.293   4.940
  746SOL    HW1 3137   0.656   6.355   4.912
  746SOL    HW2 3138   0.692   6.201   4.953
  747SOL     OW 3139   4.607   4.763   4.517
  747SOL    HW1 3140   4.662   4.798   4.593
  747SOL    HW2 3141   4.657   4.777   4.431
  748SOL     OW 3142   3.709   5.215   2.726
  748SOL    HW1 3143   3.786   5.158   2.755
  748SOL    HW2 3144   3.641   5.220   2.800
  749SOL     OW 3145   6.225   3.596   4.754
  749SOL    HW1 3146   6.204   3.581   4.850
  749SOL    HW2 3147   6.324   3.586   4.740
  750SOL     OW 3148   1.896   3.002   0.565
  750SOL    HW1 3149   1.844   3.018   0.649
  750SOL    HW2 3150   1.992   3.024   0.581
  751SOL     OW 3151   3.823   1.639   6.324
  751SOL    HW1 3152   3.905   1.659   6.270
  751SOL    HW2 3153   3.847   1.641   6.421
  752SOL     OW 3154   4.317   2.506   1.346
  752SOL    HW1 3155   4.284   2.412   1.355
  752SOL    HW2 3156   4.331   2.545   1.437
  753SOL     OW 3157   1.996   2.858   3.802
  753SOL    HW1 3158   1.947   2.772   3.817
  753SOL    HW2 3159   2.047   2.883   3.884
  754SOL     OW 3160   5.988   3.395   6.517
  754SOL    HW1 3161   5.941   3.366   6.600
  754SOL    HW2 3162   6.027   3.315   6.471
  755SOL     OW 3163   1.348   5.875   6.778
  755SOL    HW1 3164   1.352   5.858   6.877
  755SOL    HW2 3165   1.419   5.823   6.732
  756SOL     OW 3166   4.532   6.697   1.420
  756SOL    HW1 3167   4.582   6.783   1.408
  756SOL    HW2 3168   4.527   6.675   1.517
  757SOL     OW 3169   0.455   6.233   2.850
  757SOL    HW1 3170   0.503   6.320   2.861
  757SOL    HW2 3171   0.400   6.215   2.931
  758SOL     OW 3172   3.697   1.023   1.472
  758SOL    HW1 3173   3.682   1.079   1.391
  758SOL    HW2 3174   3.679   0.927   1.450
  759SOL     OW 3175   0.490   1.037   0.761
  759SOL    HW1 3176   0.466   1.058   0.856
  759SOL    HW2 3177   0.451   0.949   0.736
  760SOL     OW 3178   4.382   0.795   6.326
  760SOL    HW1 3179   4.366   0.777   6.423
  760SOL    HW2 3180   4.296   0.786   6.275
  761SOL     OW 3181   5.698   3.703   5.611
  761SOL    HW1 3182   5.750   3.785   5.634
  761SOL    HW2 3183   5.720   3.630   5.676
  762SOL     OW 3184   2.646   6.894   3.780
  762SOL    HW1 3185   2.628   6.880   3.877
  762SOL    HW2 3186   2.685   6.810   3.741
  763SOL     OW 3187   4.143   5.521   6.096
  763SOL    HW1 3188   4.049   5.486   6.096
  763SOL    HW2 3189   4.168   5.550   6.004
  764SOL     OW 3190   4.429   0.650   4.176
  764SOL    HW1 3191   4.464   0.595   4.251
  764SOL    HW2 3192   4.453   0.746   4.191
  765SOL     OW 3193   1.478   6.352   1.514
  765SOL    HW1 3194   1.444   6.436   1.557
  765SOL    HW2 3195   1.578   6.347   1.525
  766SOL     OW 3196   0.703   1.833   0.477
  766SOL    HW1 3197   0.746   1.751   0.440
  766SOL    HW2 3198   0.717   1.835   0.576
  767SOL     OW 3199   0.032   6.053   2.498
  767SOL    HW1 3200   0.068   5.963   2.523
  767SOL    HW2 3201   0.102   6.106   2.451
  768SOL     OW 3202   2.700   0.077   1.968
  768SOL    HW1 3203   2.627   0.067   2.036
  768SOL    HW2 3204   2.703   7.023   1.911
  769SOL     OW 3205   3.021   0.361   3.718
  769SOL    HW1 3206   3.053   0.444   3.673
  769SOL    HW2 3207   2.992   0.383   3.811
  770SOL     OW 3208   1.702   4.516   2.758
  770SOL    HW1 3209   1.691   4.433   2.703
  770SOL    HW2 3210   1.755   4.494   2.840
  771SOL     OW 3211   2.024   5.157   2.895
  771SOL    HW1 3212   1.978   5.104   2.966
  771SOL    HW2 3213   2.011   5.254   2.913
  772SOL     OW 3214   6.496   5.165   0.954
  772SOL    HW1 3215   6.535   5.218   0.879
  772SOL    HW2 3216   6.459   5.079   0.920
  773SOL     OW 3217   0.498   4.034   3.626
  773SOL    HW1 3218   0.413   4.005   3.584
  773SOL    HW2 3219   0.569   3.965   3.610
  774SOL     OW 3220   1.144   1.300   2.263
  774SOL    HW1 3221   1.130   1.394   2.231
  774SOL    HW2 3222   1.195   1.303   2.349
  775SOL     OW 3223   1.017   1.797   3.260
  775SOL    HW1 3224   0.930   1.777   3.306
  775SOL    HW2 3225   1.001   1.864   3.187
  776SOL     OW 3226   6.956   1.331   5.727
  776SOL    HW1 3227   6.995   1.249   5.684
  776SOL    HW2 3228   7.023   1.405   5.723
  777SOL     OW 3229   3.139   6.385   0.776
  777SOL    HW1 3230   3.132   6.347   0.684
  777SOL    HW2 3231   3.143   6.310   0.843
  778SOL     OW 3232   3.428   1.346   3.944
  778SOL    HW1 3233   3.428   1.446   3.946
  778SOL    HW2 3234   3.514   1.312   3.983
  779SOL     OW 3235   0.754   1.571   2.740
  779SOL    HW1 3236   0.713   1.653   2.699
  779SOL    HW2 3237   0.842   1.552   2.696
  780SOL     OW 3238   6.589   3.859   4.380
  780SOL    HW1 3239   6.556   3.908   4.299
  780SOL    HW2 3240   6.595   3.922   4.457
  781SOL     OW 3241   5.732   1.134   6.626
  781SOL    HW1 3242   5.684   1.046   6.629
  781SOL    HW2 3243   5.717   1.177   6.537
  782SOL     OW 3244   1.007   3.838   0.284
  782SOL    HW1 3245   0.928   3.890   0.251
  782SOL    HW2 3246   1.084   3.900   0.297
  783SOL     OW 3247   3.771   5.077   0.727
  783SOL    HW1 3248   3.820   5.018   0.791
  783SOL    HW2 3249   3.711   5.021   0.670
  784SOL     OW 3250   5.060   6.846   5.921
  784SOL    HW1 3251   5.003   6.905   5.977
  784SOL    HW2 3252   5.141   6.897   5.891
  785SOL     OW 3253   0.115   2.050   3.719
  785SOL    HW1 3254   0.123   2.100   3.805
  785SOL    HW2 3255   0.050   2.097   3.659
  786SOL     OW 3256   1.525   1.076   0.827
  786SOL    HW1 3257   1.463   1.065   0.749
  786SOL    HW2 3258   1.618   1.091   0.794
  787SOL     OW 3259   3.105   1.873   6.345
  787SOL    HW1 3260   3.179   1.891   6.280
  787SOL    HW2 3261   3.128   1.912   6.433
  788SOL     OW 3262   2.301   2.348   4.698
  788SOL    HW1 3263   2.389   2.371   4.740
  788SOL    HW2 3264   2.293   2.249   4.688
  789SOL     OW 3265   5.663   4.160   1.265
  789SOL    HW1 3266   5.637   4.099   1.190
  789SOL    HW2 3267   5.595   4.154   1.338
  790SOL     OW 3268   2.702   1.417   4.413
  790SOL    HW1 3269   2.747   1.343   4.361
  790SOL    HW2 3270   2.726   1.409   4.509
  791SOL     OW 3271   3.951   0.298   3.050
  791SOL    HW1 3272   3.997   0.387   3.047
  791SOL    HW2 3273   4.008   0.232   3.099
  792SOL     OW 3274   0.258   0.342   1.731
  792SOL    HW1 3275   0.248   0.313   1.635
  792SOL    HW2 3276   0.338   0.296   1.771
  793SOL     OW 3277   4.380   6.384   2.373
  793SOL    HW1 3278   4.317   6.433   2.313
  793SOL    HW2 3279   4.474   6.403   2.345
  794SOL     OW 3280   2.887   3.215   5.474
  794SOL    HW1 3281   2.861   3.148   5.404
  794SOL    HW2 3282   2.816   3.218   5.545
  795SOL     OW 3283   3.163   5.330   5.212
  795SOL    HW1 3284   3.150   5.235   5.184
  795SOL    HW2 3285   3.147   5.391   5.135
  796SOL     OW 3286   1.145   2.173   6.470
  796SOL    HW1 3287   1.203   2.179   6.552
  796SOL    HW2 3288   1.202   2.189   6.389
  797SOL     OW 3289   5.175   2.551   2.553
  797SOL    HW1 3290   5.079   2.576   2.541
  797SOL    HW2 3291   5.230   2.634   2.560
  798SOL     OW 3292   5.512   0.510   1.300
  798SOL    HW1 3293   5.459   0.585   1.340
  798SOL    HW2 3294   5.588   0.487   1.360
  799SOL     OW 3295   6.348   1.398   4.085
  799SOL    HW1 3296   6.285   1.332   4.045
  799SOL    HW2 3297   6.389   1.454   4.013
  800SOL     OW 3298   5.541   1.269   2.728
  800SOL    HW1 3299   5.469   1.291   2.662
  800SOL    HW2 3300   5.630   1.283   2.685
  801SOL     OW 3301   1.659   3.648   3.087
  801SOL    HW1 3302   1.659   3.714   3.162
  801SOL    HW2 3303   1.568   3.643   3.046
  802SOL     OW 3304   4.139   0.317   0.410
  802SOL    HW1 3305   4.150   0.403   0.360
  802SOL    HW2 3306   4.218   0.259   0.394
  803SOL     OW 3307   0.338   5.345   5.022
  803SOL    HW1 3308   0.283   5.296   4.954
  803SOL    HW2 3309   0.311   5.441   5.023
  804SOL     OW 3310   5.911   6.230   0.152
  804SOL    HW1 3311   5.940   6.189   0.065
  804SOL    HW2 3312   5.992   6.245   0.210
  805SOL     OW 3313   3.294   2.341   5.558
  805SOL    HW1 3314   3.359   2.365   5.486
  805SOL    HW2 3315   3.204   2.327   5.518
  806SOL     OW 3316   4.423   1.099   4.823
  806SOL    HW1 3317   4.396   1.035   4.895
  806SOL    HW2 3318   4.345   1.157   4.800
  807SOL     OW 3319   0.820   1.734   3.708
  807SOL    HW1 3320   0.804   1.769   3.801
  807SOL    HW2 3321   0.917   1.743   3.686
  808SOL     OW 3322   4.772   3.595   6.496
  808SOL    HW1 3323   4.713   3.661   6.450
  808SOL    HW2 3324   4.861   3.637   6.514
  809SOL     OW 3325   1.087   4.485   1.480
  809SOL    HW1 3326   1.018   4.417   1.456
  809SOL    HW2 3327   1.159   4.486   1.411
  810SOL     OW 3328   3.857   2.757   1.246
  810SOL    HW1 3329   3.867   2.852   1.273
  810SOL    HW2 3330   3.770   2.745   1.197
  811SOL     OW 3331   4.544   5.506   4.015
  811SOL    HW1 3332   4.488   5.473   3.940
  811SOL    HW2 3333   4.543   5.439   4.090
  812SOL     OW 3334   0.430   1.592   2.121
  812SOL    HW1 3335   0.419   1.626   2.215
  812SOL    HW2 3336   0.342   1.556   2.088
  813SOL     OW 3337   3.643   4.950   4.239
  813SOL    HW1 3338   3.723   4.911   4.193
  813SOL    HW2 3339   3.623   5.040   4.201
  814SOL     OW 3340   5.490   6.248   3.369
  814SOL    HW1 3341   5.470   6.344   3.355
  814SOL    HW2 3342   5.409   6.193   3.348
  815SOL     OW 3343   0.120   3.058   2.803
  815SOL    HW1 3344   0.121   3.089   2.708
  815SOL    HW2 3345   0.212   3.029   2.830
  816SOL     OW 3346   6.710   6.776   0.029
  816SOL    HW1 3347   6.614   6.794   0.048
  816SOL    HW2 3348   6.721   6.753   6.961
  817SOL     OW 3349   2.034   4.000   2.213
  817SOL    HW1 3350   2.118   4.039   2.174
  817SOL    HW2 3351   1.955   4.053   2.183
  818SOL     OW 3352   6.553   3.239   1.600
  818SOL    HW1 3353   6.623   3.213   1.533
  818SOL    HW2 3354   6.555   3.338   1.613
  819SOL     OW 3355   5.687   3.146   3.675
  819SOL    HW1 3356   5.660   3.062   3.722
  819SOL    HW2 3357   5.726   3.210   3.740
  820SOL     OW 3358   1.711   3.035   6.451
  820SOL    HW1 3359   1.644   3.103   6.419
  820SOL    HW2 3360   1.802   3.077   6.452
  821SOL     OW 3361   2.279   5.135   0.887
  821SOL    HW1 3362   2.308   5.092   0.973
  821SOL    HW2 3363   2.228   5.218   0.907
  822SOL     OW 3364   0.793   5.182   4.233
  822SOL    HW1 3365   0.871   5.188   4.295
  822SOL    HW2 3366   0.812   5.114   4.162
  823SOL     OW 3367   5.091   4.223   6.904
  823SOL    HW1 3368   5.124   4.137   6.943
  823SOL    HW2 3369   5.134   4.300   6.952
  824SOL     OW 3370   5.415   1.038   5.339
  824SOL    HW1 3371   5.403   0.939   5.345
  824SOL    HW2 3372   5.489   1.067   5.400
  825SOL     OW 3373   1.596   4.241   1.816
  825SOL    HW1 3374   1.560   4.217   1.726
  825SOL    HW2 3375   1.673   4.181   1.838
  826SOL     OW 3376   6.228   3.530   0.760
  826SOL    HW1 3377   6.326   3.515   0.748
  826SOL    HW2 3378   6.200   3.607   0.701
  827SOL     OW 3379   2.948   5.906   6.116
  827SOL    HW1 3380   2.878   5.921   6.185
  827SOL    HW2 3381   3.004   5.989   6.106
  828SOL     OW 3382   6.140   6.965   5.525
  828SOL    HW1 3383   6.068   6.903   5.495
  828SOL    HW2 3384   6.184   7.006   5.445
  829SOL     OW 3385   2.919   3.680   4.451
  829SOL    HW1 3386   2.968   3.593   4.440
  829SOL    HW2 3387   2.908   3.724   4.362
  830SOL     OW 3388   4.816   4.870   6.282
  830SOL    HW1 3389   4.768   4.956   6.300
  830SOL    HW2 3390   4.872   4.880   6.200
  831SOL     OW 3391   6.944   0.224   5.467
  831SOL    HW1 3392   6.928   0.312   5.423
  831SOL    HW2 3393   0.004   0.225   5.514
  832SOL     OW 3394   1.702   0.991   0.404
  832SOL    HW1 3395   1.724   1.006   0.500
  832SOL    HW2 3396   1.755   1.053   0.348
  833SOL     OW 3397   0.300   5.453   6.018
  833SOL    HW1 3398   0.290   5.549   5.993
  833SOL    HW2 3399   0.362   5.408   5.953
  834SOL     OW 3400   3.639   4.203   1.137
  834SOL    HW1 3401   3.632   4.155   1.224
  834SOL    HW2 3402   3.720   4.262   1.137
  835SOL     OW 3403   3.485   6.951   4.114
  835SOL    HW1 3404   3.513   6.863   4.075
  835SOL    HW2 3405   3.444   7.007   4.042
  836SOL     OW 3406   3.684   6.654   6.741
  836SOL    HW1 3407   3.751   6.706   6.793
  836SOL    HW2 3408   3.660   6.704   6.658
  837SOL     OW 3409   5.169   6.412   6.587
  837SOL    HW1 3410   5.191   6.486   6.523
  837SOL    HW2 3411   5.076   6.379   6.570
  838SOL     OW 3412   1.039   0.659   4.926
  838SOL    HW1 3413   1.065   0.566   4.950
  838SOL    HW2 3414   1.065   0.721   4.999
  839SOL     OW 3415   2.786   2.273   2.252
  839SOL    HW1 3416   2.869   2.232   2.291
  839SOL    HW2 3417   2.809   2.318   2.166
  840SOL     OW 3418   6.302   0.415   6.039
  840SOL    HW1 3419   6.256   0.497   6.075
  840SOL    HW2 3420   6.372   0.443   5.974
  841SOL     OW 3421   5.878   4.592   0.797
  841SOL    HW1 3422   5.921   4.683   0.801
  841SOL    HW2 3423   5.870   4.563   0.702
  842SOL     OW 3424   4.219   5.116   4.598
  842SOL    HW1 3425   4.163   5.084   4.521
  842SOL    HW2 3426   4.286   5.046   4.622
  843SOL     OW 3427   4.516   2.451   6.985
  843SOL    HW1 3428   4.611   2.452   7.016
  843SOL    HW2 3429   4.511   2.486   6.891
  844SOL     OW 3430   4.504   6.923   0.919
  844SOL    HW1 3431   4.583   6.872   0.885
  844SOL    HW2 3432   4.514   6.939   1.017
  845SOL     OW 3433   6.309   3.594   4.182
  845SOL    HW1 3434   6.212   3.614   4.173
  845SOL    HW2 3435   6.340   3.622   4.273
  846SOL     OW 3436   5.285   1.753   6.803
  846SOL    HW1 3437   5.335   1.681   6.850
  846SOL    HW2 3438   5.296   1.743   6.704
  847SOL     OW 3439   6.729   3.344   0.333
  847SOL    HW1 3440   6.696   3.348   0.238
  847SOL    HW2 3441   6.656   3.372   0.395
  848SOL     OW 3442   6.464   1.813   6.394
  848SOL    HW1 3443   6.378   1.816   6.446
  848SOL    HW2 3444   6.520   1.737   6.427
  849SOL     OW 3445   0.715   5.325   5.688
  849SOL    HW1 3446   0.814   5.318   5.678
  849SOL    HW2 3447   0.670   5.299   5.602
  850SOL     OW 3448   5.362   0.479   3.203
  850SOL    HW1 3449   5.337   0.384   3.221
  850SOL    HW2 3450   5.417   0.514   3.279
  851SOL     OW 3451   0.174   1.567   1.504
  851SOL    HW1 3452   0.147   1.601   1.414
  851SOL    HW2 3453   0.163   1.640   1.571
  852SOL     OW 3454   2.943   2.520   0.216
  852SOL    HW1 3455   2.943   2.430   0.260
  852SOL    HW2 3456   2.967   2.590   0.284
  853SOL     OW 3457   1.159   3.999   2.745
  853SOL    HW1 3458   1.192   3.906   2.723
  853SOL    HW2 3459   1.195   4.063   2.677
  854SOL     OW 3460   4.623   5.745   2.054
  854SOL    HW1 3461   4.605   5.819   2.120
  854SOL    HW2 3462   4.721   5.727   2.051
  855SOL     OW 3463   5.972   6.718   1.196
  855SOL    HW1 3464   5.879   6.731   1.231
  855SOL    HW2 3465   6.035   6.704   1.272
  856SOL     OW 3466   2.216   1.613   5.057
  856SOL    HW1 3467   2.154   1.671   5.004
  856SOL    HW2 3468   2.178   1.600   5.149
  857SOL     OW 3469   5.766   5.451   1.006
  857SOL    HW1 3470   5.717   5.367   0.982
  857SOL    HW2 3471   5.864   5.431   1.013
  858SOL     OW 3472   2.366   4.631   1.909
  858SOL    HW1 3473   2.280   4.596   1.871
  858SOL    HW2 3474   2.426   4.660   1.834
  859SOL     OW 3475   5.420   5.412   6.630
  859SOL    HW1 3476   5.371   5.388   6.547
  859SOL    HW2 3477   5.416   5.336   6.695
  860SOL     OW 3478   4.475   4.405   0.866
  860SOL    HW1 3479   4.506   4.400   0.960
  860SOL    HW2 3480   4.541   4.360   0.806
  861SOL     OW 3481   1.847   0.099   4.892
  861SOL    HW1 3482   1.874   0.102   4.796
  861SOL    HW2 3483   1.760   0.146   4.904
  862SOL     OW 3484   6.213   4.335   5.676
  862SOL    HW1 3485   6.148   4.343   5.752
  862SOL    HW2 3486   6.243   4.241   5.667
  863SOL     OW 3487   0.959   0.282   0.530
  863SOL    HW1 3488   0.945   0.301   0.433
  863SOL    HW2 3489   0.879   0.312   0.582
  864SOL     OW 3490   5.111   4.566   3.778
  864SOL    HW1 3491   5.119   4.660   3.744
  864SOL    HW2 3492   5.176   4.552   3.853
  865SOL     OW 3493   1.363   6.728   5.263
  865SOL    HW1 3494   1.347   6.630   5.279
  865SOL    HW2 3495   1.297   6.781   5.316
  866SOL     OW 3496   1.844   2.443   1.547
  866SOL    HW1 3497   1.904   2.387   1.604
  866SOL    HW2 3498   1.841   2.406   1.455
  867SOL     OW 3499   3.678   2.978   1.072
  867SOL    HW1 3500   3.635   2.936   1.151
  867SOL    HW2 3501   3.622   2.962   0.991
  868SOL     OW 3502   6.275   6.610   0.901
  868SOL    HW1 3503   6.374   6.623   0.910
  868SOL    HW2 3504   6.228   6.696   0.922
  869SOL     OW 3505   6.518   5.441   2.816
  869SOL    HW1 3506   6.517   5.418   2.719
  869SOL    HW2 3507   6.597   5.499   2.837
  870SOL     OW 3508   6.149   4.088   0.741
  870SOL    HW1 3509   6.188   4.000   0.765
  870SOL    HW2 3510   6.214   4.161   0.760
  871SOL     OW 3511   6.610   2.808   2.271
  871SOL    HW1 3512   6.604   2.721   2.319
  871SOL    HW2 3513   6.544   2.810   2.197
  872SOL     OW 3514   6.233   3.877   4.021
  872SOL    HW1 3515   6.189   3.960   4.054
  872SOL    HW2 3516   6.320   3.864   4.068
  873SOL     OW 3517   4.266   0.315   3.038
  873SOL    HW1 3518   4.315   0.239   2.996
  873SOL    HW2 3519   4.284   0.317   3.136
  874SOL     OW 3520   1.910   3.818   5.781
  874SOL    HW1 3521   1.863   3.891   5.731
  874SOL    HW2 3522   1.924   3.740   5.720
  875SOL     OW 3523   5.338   3.928   1.152
  875SOL    HW1 3524   5.295   3.840   1.133
  875SOL    HW2 3525   5.270   3.992   1.188
  876SOL     OW 3526   7.008   4.783   3.326
  876SOL    HW1 3527   0.069   4.793   3.282
  876SOL    HW2 3528   6.993   4.859   3.389
  877SOL     OW 3529   4.564   4.354   6.855
  877SOL    HW1 3530   4.663   4.346   6.843
  877SOL    HW2 3531   4.518   4.308   6.780
  878SOL     OW 3532   4.157   5.927   6.379
  878SOL    HW1 3533   4.204   5.839   6.367
  878SOL    HW2 3534   4.112   5.952   6.293
  879SOL     OW 3535   3.889   2.040   2.271
  879SOL    HW1 3536   3.903   2.115   2.207
  879SOL    HW2 3537   3.801   1.995   2.252
  880SOL     OW 3538   2.942   4.625   7.008
  880SOL    HW1 3539   2.956   4.574   6.923
  880SOL    HW2 3540   2.963   4.566   0.058
  881SOL     OW 3541   4.165   4.720   5.164
  881SOL    HW1 3542   4.193   4.623   5.162
  881SOL    HW2 3543   4.208   4.768   5.087
  882SOL     OW 3544   2.054   1.603   4.180
  882SOL    HW1 3545   2.082   1.678   4.240
  882SOL    HW2 3546   1.963   1.622   4.144
  883SOL     OW 3547   4.327   5.437   5.321
  883SOL    HW1 3548   4.334   5.444   5.222
  883SOL    HW2 3549   4.233   5.415   5.346
  884SOL     OW 3550   6.925   3.869   2.142
  884SOL    HW1 3551   6.843   3.911   2.181
  884SOL    HW2 3552   6.974   3.820   2.213
  885SOL     OW 3553   5.608   6.024   6.793
  885SOL    HW1 3554   5.583   6.104   6.738
  885SOL    HW2 3555   5.707   6.023   6.808
  886SOL     OW 3556   4.523   0.485   0.344
  886SOL    HW1 3557   4.581   0.566   0.344
  886SOL    HW2 3558   4.444   0.500   0.403
  887SOL     OW 3559   4.225   6.309   5.601
  887SOL    HW1 3560   4.250   6.277   5.693
  887SOL    HW2 3561   4.267   6.248   5.533
  888SOL     OW 3562   0.062   6.364   2.761
  888SOL    HW1 3563   7.015   6.349   2.696
  888SOL    HW2 3564   0.149   6.351   2.715
  889SOL     OW 3565   0.178   6.743   5.912
  889SOL    HW1 3566   0.082   6.719   5.896
  889SOL    HW2 3567   0.183   6.830   5.962
  890SOL     OW 3568   2.725   4.667   2.252
  890SOL    HW1 3569   2.782   4.709   2.322
  890SOL    HW2 3570   2.778   4.655   2.168
  891SOL     OW 3571   6.075   3.639   1.577
  891SOL    HW1 3572   6.032   3.718   1.620
  891SOL    HW2 3573   6.169   3.630   1.611
  892SOL     OW 3574   4.345   3.982   0.700
  892SOL    HW1 3575   4.382   4.012   0.612
  892SOL    HW2 3576   4.258   4.028   0.718
  893SOL     OW 3577   1.849   0.453   1.141
  893SOL    HW1 3578   1.892   0.370   1.105
  893SOL    HW2 3579   1.760   0.466   1.098
  894SOL     OW 3580   2.058   3.840   3.890
  894SOL    HW1 3581   2.016   3.836   3.981
  894SOL    HW2 3582   2.132   3.907   3.891
  895SOL     OW 3583   2.059   6.478   4.396
  895SOL    HW1 3584   1.962   6.493   4.415
  895SOL    HW2 3585   2.069   6.436   4.306
  896SOL     OW 3586   5.698   5.533   3.813
  896SOL    HW1 3587   5.763   5.593   3.858
  896SOL    HW2 3588   5.625   5.587   3.772
  897SOL     OW 3589   4.883   1.202   0.201
  897SOL    HW1 3590   4.795   1.168   0.170
  897SOL    HW2 3591   4.885   1.302   0.193
  898SOL     OW 3592   4.292   6.051   4.054
  898SOL    HW1 3593   4.317   5.992   4.131
  898SOL    HW2 3594   4.318   6.146   4.075
  899SOL     OW 3595   0.263   5.021   0.192
  899SOL    HW1 3596   0.253   5.118   0.171
  899SOL    HW2 3597   0.348   4.987   0.152
  900SOL     OW 3598   5.647   5.911   1.680
  900SOL    HW1 3599   5.609   5.846   1.746
  900SOL    HW2 3600   5.616   6.003   1.702
  901SOL     OW 3601   0.447   1.720   4.775
  901SOL    HW1 3602   0.364   1.707   4.721
  901SOL    HW2 3603   0.480   1.630   4.807
  902SOL     OW 3604   0.180   1.080   6.540
  902SOL    HW1 3605   0.131   1.120   6.463
  902SOL    HW2 3606   0.172   0.981   6.538
  903SOL     OW 3607   6.669   4.393   0.053
  903SOL    HW1 3608   6.760   4.352   0.067
  903SOL    HW2 3609   6.653   4.407   6.983
  904SOL     OW 3610   1.467   1.895   4.009
  904SOL    HW1 3611   1.519   1.927   4.088
  904SOL    HW2 3612   1.438   1.973   3.955
  905SOL     OW 3613   5.312   2.476   6.650
  905SOL    HW1 3614   5.219   2.445   6.629
  905SOL    HW2 3615   5.317   2.575   6.639
  906SOL     OW 3616   0.550   3.784   6.724
  906SOL    HW1 3617   0.575   3.797   6.820
  906SOL    HW2 3618   0.622   3.821   6.666
  907SOL     OW 3619   6.031   2.776   3.212
  907SOL    HW1 3620   5.969   2.698   3.209
  907SOL    HW2 3621   6.013   2.830   3.295
  908SOL     OW 3622   1.304   0.200   4.110
  908SOL    HW1 3623   1.307   0.162   4.017
  908SOL    HW2 3624   1.225   0.260   4.119
  909SOL     OW 3625   2.459   0.905   0.970
  909SOL    HW1 3626   2.409   0.850   1.037
  909SOL    HW2 3627   2.557   0.887   0.979
  910SOL     OW 3628   1.874   0.331   0.739
  910SOL    HW1 3629   1.791   0.318   0.685
  910SOL    HW2 3630   1.908   0.424   0.727
  911SOL     OW 3631   0.418   4.829   1.186
  911SOL    HW1 3632   0.495   4.820   1.123
  911SOL    HW2 3633   0.364   4.745   1.185
  912SOL     OW 3634   0.593   1.899   5.752
  912SOL    HW1 3635   0.527   1.960   5.796
  912SOL    HW2 3636   0.568   1.804   5.769
  913SOL     OW 3637   2.322   0.756   3.313
  913SOL    HW1 3638   2.303   0.665   3.350
  913SOL    HW2 3639   2.247   0.818   3.337
  914SOL     OW 3640   2.305   5.500   4.970
  914SOL    HW1 3641   2.246   5.471   5.046
  914SOL    HW2 3642   2.264   5.580   4.926
  915SOL     OW 3643   0.129   3.218   0.959
  915SOL    HW1 3644   0.044   3.187   1.001
  915SOL    HW2 3645   0.192   3.141   0.950
  916SOL     OW 3646   1.696   2.113   1.928
  916SOL    HW1 3647   1.764   2.183   1.949
  916SOL    HW2 3648   1.625   2.152   1.869
  917SOL     OW 3649   3.662   1.282   1.337
  917SOL    HW1 3650   3.655   1.322   1.428
  917SOL    HW2 3651   3.683   1.354   1.270
  918SOL     OW 3652   3.341   6.158   6.566
  918SOL    HW1 3653   3.316   6.069   6.605
  918SOL    HW2 3654   3.259   6.215   6.560
  919SOL     OW 3655   1.699   6.640   1.835
  919SOL    HW1 3656   1.673   6.543   1.842
  919SOL    HW2 3657   1.749   6.655   1.749
  920SOL     OW 3658   2.295   0.597   2.934
  920SOL    HW1 3659   2.195   0.599   2.938
  920SOL    HW2 3660   2.325   0.569   2.843
  921SOL     OW 3661   5.352   4.661   3.875
  921SOL    HW1 3662   5.382   4.748   3.913
  921SOL    HW2 3663   5.405   4.587   3.917
  922SOL     OW 3664   3.513   3.033   6.625
  922SOL    HW1 3665   3.529   3.010   6.721
  922SOL    HW2 3666   3.486   3.130   6.618
  923SOL     OW 3667   2.927   6.061   0.098
  923SOL    HW1 3668   3.025   6.064   0.118
  923SOL    HW2 3669   2.902   5.969   0.067
  924SOL     OW 3670   5.269   3.380   2.604
  924SOL    HW1 3671   5.274   3.335   2.515
  924SOL    HW2 3672   5.214   3.325   2.666
  925SOL     OW 3673   6.694   2.226   5.527
  925SOL    HW1 3674   6.733   2.159   5.591
  925SOL    HW2 3675   6.595   2.216   5.524
  926SOL     OW 3676   5.785   0.392   0.256
  926SOL    HW1 3677   5.833   0.419   0.340
  926SOL    HW2 3678   5.687   0.399   0.270
  927SOL     OW 3679   4.854   4.456   4.267
  927SOL    HW1 3680   4.821   4.484   4.177
  927SOL    HW2 3681   4.777   4.452   4.331
  928SOL     OW 3682   1.657   0.263   0.561
  928SOL    HW1 3683   1.727   0.222   0.502
  928SOL    HW2 3684   1.617   0.193   0.620
  929SOL     OW 3685   6.683   2.174   2.258
  929SOL    HW1 3686   6.719   2.249   2.202
  929SOL    HW2 3687   6.699   2.194   2.354
  930SOL     OW 3688   6.512   4.825   4.503
  930SOL    HW1 3689   6.517   4.731   4.470
  930SOL    HW2 3690   6.419   4.845   4.534
  931SOL     OW 3691   0.170   3.833   3.249
  931SOL    HW1 3692   0.155   3.875   3.160
  931SOL    HW2 3693   0.109   3.754   3.259
  932SOL     OW 3694   3.634   6.234   1.781
  932SOL    HW1 3695   3.593   6.318   1.818
  932SOL    HW2 3696   3.578   6.201   1.705
  933SOL     OW 3697   1.164   4.762   2.786
  933SOL    HW1 3698   1.066   4.760   2.768
  933SOL    HW2 3699   1.197   4.856   2.780
  934SOL     OW 3700   2.848   1.510   4.686
  934SOL    HW1 3701   2.902   1.588   4.655
  934SOL    HW2 3702   2.906   1.450   4.742
  935SOL     OW 3703   4.671   3.721   5.883
  935SOL    HW1 3704   4.631   3.739   5.973
  935SOL    HW2 3705   4.766   3.691   5.894
  936SOL     OW 3706   0.577   6.557   0.239
  936SOL    HW1 3707   0.616   6.600   0.320
  936SOL    HW2 3708   0.645   6.496   0.197
  937SOL     OW 3709   4.327   1.642   4.767
  937SOL    HW1 3710   4.328   1.571   4.696
  937SOL    HW2 3711   4.264   1.714   4.739
  938SOL     OW 3712   0.164   4.044   6.347
  938SOL    HW1 3713   0.127   4.067   6.437
  938SOL    HW2 3714   0.169   4.126   6.290
  939SOL     OW 3715   5.301   1.440   5.776
  939SOL    HW1 3716   5.230   1.396   5.722
  939SOL    HW2 3717   5.327   1.526   5.734
  940SOL     OW 3718   6.693   1.662   3.087
  940SOL    HW1 3719   6.673   1.616   3.001
  940SOL    HW2 3720   6.639   1.746   3.094
  941SOL     OW 3721   6.229   1.065   4.007
  941SOL    HW1 3722   6.251   0.967   4.008
  941SOL    HW2 3723   6.202   1.093   4.099
  942SOL     OW 3724   4.779   0.286   4.915
  942SOL    HW1 3725   4.727   0.266   4.832
  942SOL    HW2 3726   4.825   0.374   4.904
  943SOL     OW 3727   0.380   3.433   2.748
  943SOL    HW1 3728   0.416   3.494   2.677
  943SOL    HW2 3729   0.349   3.488   2.826
  944SOL     OW 3730   6.234   3.281   5.411
  944SOL    HW1 3731   6.203   3.304   5.319
  944SOL    HW2 3732   6.254   3.365   5.461
  945SOL     OW 3733   5.151   4.834   4.713
  945SOL    HW1 3734   5.111   4.801   4.628
  945SOL    HW2 3735   5.078   4.869   4.772
  946SOL     OW 3736   5.888   2.829   6.580
  946SOL    HW1 3737   5.967   2.785   6.538
  946SOL    HW2 3738   5.861   2.908   6.524
  947SOL     OW 3739   3.129   3.365   5.820
  947SOL    HW1 3740   3.050   3.425   5.826
  947SOL    HW2 3741   3.106   3.283   5.767
  948SOL     OW 3742   4.074   1.025   0.844
  948SOL    HW1 3743   4.020   1.107   0.825
  948SOL    HW2 3744   4.044   0.983   0.929
  949SOL     OW 3745   6.660   6.192   5.846
  949SOL    HW1 3746   6.566   6.218   5.867
  949SOL    HW2 3747   6.713   6.273   5.823
  950SOL     OW 3748   4.122   4.826   2.492
  950SOL    HW1 3749   4.191   4.891   2.459
  950SOL    HW2 3750   4.061   4.801   2.416
  951SOL     OW 3751   1.527   0.321   2.209
  951SOL    HW1 3752   1.483   0.242   2.251
  951SOL    HW2 3753   1.542   0.392   2.278
  952SOL     OW 3754   5.930   1.721   2.343
  952SOL    HW1 3755   5.886   1.700   2.256
  952SOL    HW2 3756   5.888   1.802   2.383
  953SOL     OW 3757   4.453   5.782   5.763
  953SOL    HW1 3758   4.467   5.860   5.702
  953SOL    HW2 3759   4.541   5.736   5.779
  954SOL     OW 3760   5.599   0.198   0.629
  954SOL    HW1 3761   5.627   0.191   0.533
  954SOL    HW2 3762   5.617   0.291   0.662
  955SOL     OW 3763   0.922   5.033   4.037
  955SOL    HW1 3764   0.908   4.960   3.971
  955SOL    HW2 3765   1.019   5.041   4.059
  956SOL     OW 3766   0.796   1.815   1.433
  956SOL    HW1 3767   0.857   1.892   1.415
  956SOL    HW2 3768   0.813   1.743   1.365
  957SOL     OW 3769   1.166   4.764   5.129
  957SOL    HW1 3770   1.113   4.746   5.212
  957SOL    HW2 3771   1.225   4.843   5.144
  958SOL     OW 3772   4.857   1.769   0.864
  958SOL    HW1 3773   4.927   1.698   0.861
  958SOL    HW2 3774   4.892   1.852   0.819
  959SOL     OW 3775   2.915   4.774   2.998
  959SOL    HW1 3776   2.827   4.771   3.045
  959SOL    HW2 3777   2.967   4.691   3.019
  960SOL     OW 3778   1.028   5.700   3.868
  960SOL    HW1 3779   1.090   5.776   3.850
  960SOL    HW2 3780   1.065   5.617   3.824
  961SOL     OW 3781   4.473   6.932   2.659
  961SOL    HW1 3782   4.554   6.903   2.609
  961SOL    HW2 3783   4.492   6.931   2.757
  962SOL     OW 3784   1.620   1.249   3.711
  962SOL    HW1 3785   1.556   1.263   3.787
  962SOL    HW2 3786   1.693   1.318   3.716
  963SOL     OW 3787   5.760   0.156   0.377
  963SOL    HW1 3788   5.829   0.157   0.449
  963SOL    HW2 3789   5.777   0.231   0.313
  964SOL     OW 3790   5.842   3.097   1.068
  964SOL    HW1 3791   5.862   3.185   1.027
  964SOL    HW2 3792   5.918   3.071   1.129
  965SOL     OW 3793   6.126   1.877   0.909
  965SOL    HW1 3794   6.079   1.797   0.943
  965SOL    HW2 3795   6.062   1.936   0.860
  966SOL     OW 3796   5.736   1.461   2.307
  966SOL    HW1 3797   5.649   1.508   2.317
  966SOL    HW2 3798   5.720   1.364   2.291
  967SOL     OW 3799   1.449   5.166   0.442
  967SOL    HW1 3800   1.500   5.080   0.439
  967SOL    HW2 3801   1.455   5.212   0.354
  968SOL     OW 3802   4.394   2.464   2.240
  968SOL    HW1 3803   4.324   2.513   2.188
  968SOL    HW2 3804   4.433   2.525   2.309
  969SOL     OW 3805   3.349   5.948   5.420
  969SOL    HW1 3806   3.279   5.929   5.489
  969SOL    HW2 3807   3.376   6.044   5.426
  970SOL     OW 3808   4.906   1.400   5.070
  970SOL    HW1 3809   4.854   1.332   5.019
  970SOL    HW2 3810   4.903   1.378   5.168
  971SOL     OW 3811   0.422   1.218   2.811
  971SOL    HW1 3812   0.464   1.308   2.823
  971SOL    HW2 3813   0.461   1.153   2.876
  972SOL     OW 3814   5.837   4.285   0.938
  972SOL    HW1 3815   5.843   4.385   0.935
  972SOL    HW2 3816   5.887   4.251   1.017
  973SOL     OW 3817   0.319   5.131   6.306
  973SOL    HW1 3818   0.399   5.108   6.251
  973SOL    HW2 3819   0.346   5.191   6.381
  974SOL     OW 3820   3.902   0.577   2.176
  974SOL    HW1 3821   3.992   0.613   2.152
  974SOL    HW2 3822   3.831   0.639   2.142
  975SOL     OW 3823   2.688   6.262   6.667
  975SOL    HW1 3824   2.683   6.329   6.742
  975SOL    HW2 3825   2.750   6.296   6.597
  976SOL     OW 3826   6.501   2.954   2.735
  976SOL    HW1 3827   6.408   2.990   2.734
  976SOL    HW2 3828   6.544   2.968   2.646
  977SOL     OW 3829   2.123   1.572   4.496
  977SOL    HW1 3830   2.149   1.637   4.567
  977SOL    HW2 3831   2.052   1.611   4.438
  978SOL     OW 3832   5.197   3.996   4.717
  978SOL    HW1 3833   5.168   4.091   4.712
  978SOL    HW2 3834   5.295   3.992   4.735
  979SOL     OW 3835   6.149   1.103   2.906
  979SOL    HW1 3836   6.158   1.077   2.810
  979SOL    HW2 3837   6.227   1.159   2.933
  980SOL     OW 3838   5.548   1.884   3.617
  980SOL    HW1 3839   5.613   1.958   3.636
  980SOL    HW2 3840   5.584   1.826   3.544
  981SOL     OW 3841   1.300   1.984   4.629
  981SOL    HW1 3842   1.342   2.022   4.711
  981SOL    HW2 3843   1.231   2.047   4.595
  982SOL     OW 3844   1.891   2.726   2.765
  982SOL    HW1 3845   1.939   2.757   2.683
  982SOL    HW2 3846   1.848   2.804   2.810
  983SOL     OW 3847   5.780   2.874   3.672
  983SOL    HW1 3848   5.685   2.847   3.688
  983SOL    HW2 3849   5.832   2.865   3.757
  984SOL     OW 3850   3.236   0.691   5.057
  984SOL    HW1 3851   3.235   0.593   5.037
  984SOL    HW2 3852   3.316   0.733   5.014
  985SOL     OW 3853   4.839   4.724   6.678
  985SOL    HW1 3854   4.852   4.745   6.775
  985SOL    HW2 3855   4.812   4.807   6.629
  986SOL     OW 3856   5.494   5.463   0.080
  986SOL    HW1 3857   5.539   5.407   0.149
  986SOL    HW2 3858   5.419   5.514   0.122
  987SOL     OW 3859   4.034   6.774   0.994
  987SOL    HW1 3860   4.073   6.860   1.027
  987SOL    HW2 3861   4.071   6.698   1.047
  988SOL     OW 3862   4.111   2.612   1.165
  988SOL    HW1 3863   4.025   2.649   1.201
  988SOL    HW2 3864   4.164   2.572   1.241
  989SOL     OW 3865   0.096   0.725   6.072
  989SOL    HW1 3866   0.112   0.765   5.981
  989SOL    HW2 3867   0.184   0.708   6.116
  990SOL     OW 3868   5.036   0.049   3.786
  990SOL    HW1 3869   5.019   0.027   3.690
  990SOL    HW2 3870   5.100   7.011   3.825
  991SOL     OW 3871   1.464   1.672   4.856
  991SOL    HW1 3872   1.410   1.745   4.899
  991SOL    HW2 3873   1.559   1.701   4.849
  992SOL     OW 3874   0.724   3.148   0.575
  992SOL    HW1 3875   0.630   3.146   0.540
  992SOL    HW2 3876   0.786   3.176   0.502
  993SOL     OW 3877   2.166   5.261   2.636
  993SOL    HW1 3878   2.069   5.280   2.624
  993SOL    HW2 3879   2.206   5.331   2.696
  994SOL     OW 3880   3.771   3.551   3.043
  994SOL    HW1 3881   3.774   3.513   3.135
  994SOL    HW2 3882   3.857   3.598   3.024
  995SOL     OW 3883   2.386   2.381   6.483
  995SOL    HW1 3884   2.336   2.463   6.510
  995SOL    HW2 3885   2.372   2.364   6.385
  996SOL     OW 3886   1.881   3.862   4.110
  996SOL    HW1 3887   1.826   3.780   4.094
  996SOL    HW2 3888   1.848   3.910   4.191
  997SOL     OW 3889   6.936   0.002   1.107
  997SOL    HW1 3890   6.866   6.986   1.051
  997SOL    HW2 3891   7.026   6.994   1.082
  998SOL     OW 3892   4.682   0.098   3.563
  998SOL    HW1 3893   4.690   7.027   3.572
  998SOL    HW2 3894   4.749   0.131   3.495
  999SOL     OW 3895   5.395   5.286   1.284
  999SOL    HW1 3896   5.376   5.232   1.202
  999SOL    HW2 3897   5.486   5.264   1.318
 1000SOL     OW 3898   0.926   0.839   2.477
 1000SOL    HW1 3899   0.854   0.867   2.541
 1000SOL    HW2 3900   0.920   0.893   2.394
 1001SOL     OW 3901   4.428   6.945   6.687
 1001SOL    HW1 3902   4.462   6.926   6.779
 1001SOL    HW2 3903   4.329   6.959   6.689
 1002SOL     OW 3904   5.517   1.894   6.350
 1002SOL    HW1 3905   5.463   1.924   6.271
 1002SOL    HW2 3906   5.457   1.859   6.421
 1003SOL     OW 3907   2.964   6.965   1.777
 1003SOL    HW1 3908   3.043   6.998   1.726
 1003SOL    HW2 3909   2.882   7.015   1.748
 1004SOL     OW 3910   6.825   0.687   0.207
 1004SOL    HW1 3911   6.844   0.668   0.303
 1004SOL    HW2 3912   6.859   0.778   0.184
 1005SOL     OW 3913   6.828   1.037   3.052
 1005SOL    HW1 3914   6.822   1.108   2.981
 1005SOL    HW2 3915   6.923   1.009   3.064
 1006SOL     OW 3916   2.477   6.249   1.708
 1006SOL    HW1 3917   2.525   6.167   1.739
 1006SOL    HW2 3918   2.437   6.296   1.787
 1007SOL     OW 3919   6.155   6.889   3.725
 1007SOL    HW1 3920   6.136   6.798   3.759
 1007SOL    HW2 3921   6.103   6.906   3.641
 1008SOL     OW 3922   1.685   2.983   4.348
 1008SOL    HW1 3923   1.681   3.081   4.366
 1008SOL    HW2 3924   1.768   2.962   4.296
 1009SOL     OW 3925   6.926   5.845   3.986
 1009SOL    HW1 3926   6.891   5.904   3.914
 1009SOL    HW2 3927   6.950   5.756   3.947
 1010SOL     OW 3928   4.063   2.758   0.113
 1010SOL    HW1 3929   4.145   2.799   0.074
 1010SOL    HW2 3930   4.044   2.672   0.067
 1011SOL     OW 3931   2.918   5.438   2.952
 1011SOL    HW1 3932   2.934   5.536   2.949
 1011SOL    HW2 3933   2.826   5.420   2.988
 1012SOL     OW 3934   6.671   5.379   0.362
 1012SOL    HW1 3935   6.593   5.332   0.403
 1012SOL    HW2 3936   6.682   5.469   0.404
 1013SOL     OW 3937   0.470   1.152   6.354
 1013SOL    HW1 3938   0.428   1.063   6.334
 1013SOL    HW2 3939   0.417   1.225   6.310
 1014SOL     OW 3940   5.344   5.924   7.028
 1014SOL    HW1 3941   5.410   5.861   0.041
 1014SOL    HW2 3942   5.362   5.931   6.930
 1015SOL     OW 3943   2.699   6.943   5.436
 1015SOL    HW1 3944   2.623   6.966   5.375
 1015SOL    HW2 3945   2.780   6.922   5.382
 1016SOL     OW 3946   2.146   2.984   0.885
 1016SOL    HW1 3947   2.087   2.922   0.937
 1016SOL    HW2 3948   2.167   2.945   0.796
 1017SOL     OW 3949   4.426   2.859   0.709
 1017SOL    HW1 3950   4.367   2.930   0.747
 1017SOL    HW2 3951   4.515   2.898   0.685
 1018SOL     OW 3952   1.773   3.615   4.044
 1018SOL    HW1 3953   1.789   3.537   4.103
 1018SOL    HW2 3954   1.803   3.593   3.951
 1019SOL     OW 3955   0.735   0.647   0.431
 1019SOL    HW1 3956   0.707   0.567   0.377
 1019SOL    HW2 3957   0.689   0.728   0.396
 1020SOL     OW 3958   1.565   6.642   1.166
 1020SOL    HW1 3959   1.490   6.583   1.135
 1020SOL    HW2 3960   1.602   6.693   1.088
 1021SOL     OW 3961   6.479   0.925   0.367
 1021SOL    HW1 3962   6.460   0.998   0.302
 1021SOL    HW2 3963   6.446   0.951   0.458
 1022SOL     OW 3964   4.086   5.023   5.798
 1022SOL    HW1 3965   4.182   5.051   5.802
 1022SOL    HW2 3966   4.080   4.924   5.812
 1023SOL     OW 3967   6.354   0.105   2.781
 1023SOL    HW1 3968   6.370   0.171   2.855
 1023SOL    HW2 3969   6.312   0.023   2.819
 1024SOL     OW 3970   6.477   2.861   4.419
 1024SOL    HW1 3971   6.472   2.864   4.319
 1024SOL    HW2 3972   6.521   2.945   4.451
 1025SOL     OW 3973   3.463   4.158   0.636
 1025SOL    HW1 3974   3.422   4.248   0.620
 1025SOL    HW2 3975   3.562   4.169   0.650
 1026SOL     OW 3976   1.027   1.873   0.613
 1026SOL    HW1 3977   1.034   1.960   0.662
 1026SOL    HW2 3978   1.116   1.848   0.576
 1027SOL     OW 3979   3.020   6.221   1.229
 1027SOL    HW1 3980   2.980   6.292   1.287
 1027SOL    HW2 3981   2.993   6.131   1.263
 1028SOL     OW 3982   3.190   5.887   6.619
 1028SOL    HW1 3983   3.113   5.835   6.584
 1028SOL    HW2 3984   3.275   5.837   6.601
 1029SOL     OW 3985   2.137   0.598   0.184
 1029SOL    HW1 3986   2.096   0.685   0.212
 1029SOL    HW2 3987   2.225   0.588   0.230
 1030SOL     OW 3988   3.342   3.352   3.134
 1030SOL    HW1 3989   3.428   3.306   3.153
 1030SOL    HW2 3990   3.293   3.369   3.219
 1031SOL     OW 3991   4.687   4.656   0.899
 1031SOL    HW1 3992   4.663   4.724   0.830
 1031SOL    HW2 3993   4.717   4.572   0.854
 1032SOL     OW 3994   1.273   1.730   4.569
 1032SOL    HW1 3995   1.193   1.738   4.509
 1032SOL    HW2 3996   1.291   1.818   4.612
 1033SOL     OW 3997   1.248   6.861   1.359
 1033SOL    HW1 3998   1.203   6.796   1.298
 1033SOL    HW2 3999   1.219   6.844   1.453
 1034SOL     OW 4000   1.563   6.356   4.505
 1034SOL    HW1 4001   1.480   6.384   4.554
 1034SOL    HW2 4002   1.572   6.412   4.422
 1035SOL     OW 4003   2.867   1.727   3.372
 1035SOL    HW1 4004   2.948   1.784   3.358
 1035SOL    HW2 4005   2.841   1.684   3.285
 1036SOL     OW 4006   3.265   0.266   0.774
 1036SOL    HW1 4007   3.309   0.343   0.820
 1036SOL    HW2 4008   3.170   0.259   0.805
 1037SOL     OW 4009   1.297   1.292   1.107
 1037SOL    HW1 4010   1.369   1.339   1.057
 1037SOL    HW2 4011   1.283   1.336   1.196
 1038SOL     OW 4012   1.248   0.721   5.865
 1038SOL    HW1 4013   1.337   0.677   5.859
 1038SOL    HW2 4014   1.191   0.692   5.788
 1039SOL     OW 4015   4.443   2.357   5.840
 1039SOL    HW1 4016   4.415   2.443   5.797
 1039SOL    HW2 4017   4.534   2.331   5.806
 1040SOL     OW 4018   5.523   3.156   3.069
 1040SOL    HW1 4019   5.517   3.147   3.168
 1040SOL    HW2 4020   5.595   3.223   3.046
 1041SOL     OW 4021   6.678   6.947   4.134
 1041SOL    HW1 4022   6.726   6.982   4.054
 1041SOL    HW2 4023   6.744   6.932   4.208
 1042SOL     OW 4024   3.173   4.939   2.530
 1042SOL    HW1 4025   3.114   4.864   2.498
 1042SOL    HW2 4026   3.178   4.937   2.630
 1043SOL     OW 4027   4.368   1.268   5.903
 1043SOL    HW1 4028   4.376   1.172   5.876
 1043SOL    HW2 4029   4.310   1.317   5.839
 1044SOL     OW 4030   4.383   2.614   1.608
 1044SOL    HW1 4031   4.438   2.695   1.629
 1044SOL    HW2 4032   4.286   2.638   1.610
 1045SOL     OW 4033   2.953   6.882   1.337
 1045SOL    HW1 4034   3.009   6.936   1.400
 1045SOL    HW2 4035   2.929   6.796   1.381
 1046SOL     OW 4036   2.246   6.812   6.559
 1046SOL    HW1 4037   2.248   6.762   6.645
 1046SOL    HW2 4038   2.319   6.780   6.499
 1047SOL     OW 4039   1.671   5.281   2.918
 1047SOL    HW1 4040   1.580   5.317   2.896
 1047SOL    HW2 4041   1.690   5.202   2.860
 1048SOL     OW 4042   4.220   5.653   5.567
 1048SOL    HW1 4043   4.219   5.617   5.473
 1048SOL    HW2 4044   4.228   5.752   5.565
 1049SOL     OW 4045   0.212   4.260   4.764
 1049SOL    HW1 4046   0.287   4.223   4.819
 1049SOL    HW2 4047   0.139   4.293   4.824
 1050SOL     OW 4048   2.708   5.401   1.218
 1050SOL    HW1 4049   2.728   5.378   1.123
 1050SOL    HW2 4050   2.699   5.500   1.228
 1051SOL     OW 4051   3.625   4.553   0.409
 1051SOL    HW1 4052   3.526   4.543   0.409
 1051SOL    HW2 4053   3.660   4.534   0.501
 1052SOL     OW 4054   4.534   0.298   3.920
 1052SOL    HW1 4055   4.620   0.247   3.924
 1052SOL    HW2 4056   4.511   0.330   4.012
 1053SOL     OW 4057   5.546   5.901   3.280
 1053SOL    HW1 4058   5.566   5.904   3.378
 1053SOL    HW2 4059   5.632   5.901   3.229
 1054SOL     OW 4060   2.384   4.951   5.316
 1054SOL    HW1 4061   2.358   4.908   5.230
 1054SOL    HW2 4062   2.467   4.909   5.351
 1055SOL     OW 4063   5.237   6.484   4.288
 1055SOL    HW1 4064   5.268   6.473   4.382
 1055SOL    HW2 4065   5.311   6.524   4.233
 1056SOL     OW 4066   1.442   6.272   5.281
 1056SOL    HW1 4067   1.421   6.186   5.234
 1056SOL    HW2 4068   1.538   6.272   5.310
 1057SOL     OW 4069   3.165   3.941   3.651
 1057SOL    HW1 4070   3.227   3.919   3.576
 1057SOL    HW2 4071   3.207   4.009   3.711
 1058SOL     OW 4072   4.766   1.725   2.547
 1058SOL    HW1 4073   4.766   1.631   2.513
 1058SOL    HW2 4074   4.672   1.758   2.555
 1059SOL     OW 4075   3.081   0.351   1.781
 1059SOL    HW1 4076   3.166   0.402   1.771
 1059SOL    HW2 4077   3.057   0.345   1.878
 1060SOL     OW 4078   6.922   3.709   5.339
 1060SOL    HW1 4079   6.931   3.731   5.436
 1060SOL    HW2 4080   6.839   3.751   5.303
 1061SOL     OW 4081   4.709   4.420   1.600
 1061SOL    HW1 4082   4.639   4.384   1.538
 1061SOL    HW2 4083   4.708   4.368   1.685
 1062SOL     OW 4084   6.697   5.959   5.980
 1062SOL    HW1 4085   6.679   6.050   5.943
 1062SOL    HW2 4086   6.715   5.895   5.905
 1063SOL     OW 4087   1.269   4.086   1.414
 1063SOL    HW1 4088   1.324   4.043   1.343
 1063SOL    HW2 4089   1.175   4.095   1.383
 1064SOL     OW 4090   1.105   4.143   2.460
 1064SOL    HW1 4091   1.193   4.097   2.468
 1064SOL    HW2 4092   1.054   4.104   2.383
 1065SOL     OW 4093   4.881   0.837   5.126
 1065SOL    HW1 4094   4.786   0.869   5.125
 1065SOL    HW2 4095   4.881   0.737   5.122
 1066SOL     OW 4096   5.281   0.506   4.153
 1066SOL    HW1 4097   5.345   0.429   4.147
 1066SOL    HW2 4098   5.208   0.484   4.217
 1067SOL     OW 4099   1.580   2.732   0.473
 1067SOL    HW1 4100   1.520   2.654   0.492
 1067SOL    HW2 4101   1.540   2.788   0.401
 1068SOL     OW 4102   5.814   3.681   1.988
 1068SOL    HW1 4103   5.809   3.627   1.904
 1068SOL    HW2 4104   5.766   3.632   2.061
 1069SOL     OW 4105   4.811   4.919   1.250
 1069SOL    HW1 4106   4.906   4.948   1.250
 1069SOL    HW2 4107   4.805   4.825   1.217
 1070SOL     OW 4108   0.878   0.992   6.632
 1070SOL    HW1 4109   0.948   0.928   6.663
 1070SOL    HW2 4110   0.901   1.026   6.541
 1071SOL     OW 4111   4.099   0.710   3.395
 1071SOL    HW1 4112   4.077   0.639   3.461
 1071SOL    HW2 4113   4.199   0.720   3.389
 1072SOL     OW 4114   2.003   6.291   2.263
 1072SOL    HW1 4115   2.019   6.389   2.252
 1072SOL    HW2 4116   1.918   6.266   2.217
 1073SOL     OW 4117   3.571   5.677   2.284
 1073SOL    HW1 4118   3.650   5.689   2.344
 1073SOL    HW2 4119   3.581   5.734   2.203
 1074SOL     OW 4120   1.809   5.876   1.823
 1074SOL    HW1 4121   1.900   5.891   1.787
 1074SOL    HW2 4122   1.750   5.838   1.752
 1075SOL     OW 4123   4.735   5.028   3.258
 1075SOL    HW1 4124   4.746   4.995   3.164
 1075SOL    HW2 4125   4.663   4.977   3.304
 1076SOL     OW 4126   0.701   4.469   5.080
 1076SOL    HW1 4127   0.737   4.486   4.989
 1076SOL    HW2 4128   0.720   4.548   5.139
 1077SOL     OW 4129   5.859   6.964   0.225
 1077SOL    HW1 4130   5.916   6.917   0.292
 1077SOL    HW2 4131   5.817   0.016   0.267
 1078SOL     OW 4132   1.724   0.973   2.104
 1078SOL    HW1 4133   1.799   0.973   2.169
 1078SOL    HW2 4134   1.646   1.022   2.144
 1079SOL     OW 4135   1.639   5.014   3.235
 1079SOL    HW1 4136   1.666   5.105   3.203
 1079SOL    HW2 4137   1.570   4.977   3.173
 1080SOL     OW 4138   2.008   4.489   3.531
 1080SOL    HW1 4139   1.926   4.491   3.474
 1080SOL    HW2 4140   1.991   4.432   3.611
 1081SOL     OW 4141   0.163   1.359   5.547
 1081SOL    HW1 4142   0.238   1.344   5.482
 1081SOL    HW2 4143   0.101   1.429   5.511
 1082SOL     OW 4144   1.465   0.153   5.996
 1082SOL    HW1 4145   1.440   0.206   6.076
 1082SOL    HW2 4146   1.556   0.114   6.009
 1083SOL     OW 4147   3.537   4.026   2.098
 1083SOL    HW1 4148   3.573   4.081   2.173
 1083SOL    HW2 4149   3.540   4.079   2.013
 1084SOL     OW 4150   6.427   5.477   0.881
 1084SOL    HW1 4151   6.369   5.558   0.869
 1084SOL    HW2 4152   6.418   5.443   0.974
 1085SOL     OW 4153   2.129   3.639   3.466
 1085SOL    HW1 4154   2.037   3.607   3.445
 1085SOL    HW2 4155   2.153   3.714   3.405
 1086SOL     OW 4156   6.116   5.572   3.023
 1086SOL    HW1 4157   6.177   5.544   2.948
 1086SOL    HW2 4158   6.069   5.491   3.059
 1087SOL     OW 4159   5.638   2.993   5.625
 1087SOL    HW1 4160   5.576   2.915   5.626
 1087SOL    HW2 4161   5.594   3.071   5.669
 1088SOL     OW 4162   6.078   4.850   3.332
 1088SOL    HW1 4163   6.015   4.927   3.321
 1088SOL    HW2 4164   6.156   4.862   3.271
 1089SOL     OW 4165   0.981   0.594   4.556
 1089SOL    HW1 4166   1.066   0.632   4.593
 1089SOL    HW2 4167   0.904   0.623   4.613
 1090SOL     OW 4168   2.884   1.425   4.038
 1090SOL    HW1 4169   2.953   1.417   3.966
 1090SOL    HW2 4170   2.877   1.520   4.067
 1091SOL     OW 4171   1.783   1.946   3.833
 1091SOL    HW1 4172   1.843   1.886   3.780
 1091SOL    HW2 4173   1.781   1.916   3.928
 1092SOL     OW 4174   2.077   3.596   1.516
 1092SOL    HW1 4175   1.977   3.604   1.519
 1092SOL    HW2 4176   2.117   3.649   1.590
 1093SOL     OW 4177   1.931   1.220   3.071
 1093SOL    HW1 4178   1.856   1.190   3.011
 1093SOL    HW2 4179   1.955   1.315   3.050
 1094SOL     OW 4180   6.981   6.548   2.364
 1094SOL    HW1 4181   0.039   6.548   2.416
 1094SOL    HW2 4182   6.958   6.455   2.337
 1095SOL     OW 4183   6.558   2.244   5.874
 1095SOL    HW1 4184   6.596   2.163   5.919
 1095SOL    HW2 4185   6.478   2.218   5.821
 1096SOL     OW 4186   3.349   4.876   1.612
 1096SOL    HW1 4187   3.339   4.927   1.526
 1096SOL    HW2 4188   3.346   4.778   1.593
 1097SOL     OW 4189   1.126   4.616   4.703
 1097SOL    HW1 4190   1.189   4.694   4.711
 1097SOL    HW2 4191   1.053   4.638   4.639
 1098SOL     OW 4192   5.470   2.770   0.854
 1098SOL    HW1 4193   5.375   2.799   0.850
 1098SOL    HW2 4194   5.525   2.840   0.899
 1099SOL     OW 4195   4.239   1.315   4.807
 1099SOL    HW1 4196   4.196   1.405   4.805
 1099SOL    HW2 4197   4.259   1.285   4.714
 1100SOL     OW 4198   1.704   1.479   6.144
 1100SOL    HW1 4199   1.767   1.441   6.076
 1100SOL    HW2 4200   1.648   1.549   6.101
 1101SOL     OW 4201   5.243   2.995   1.365
 1101SOL    HW1 4202   5.311   2.926   1.338
 1101SOL    HW2 4203   5.262   3.025   1.458
 1102SOL     OW 4204   1.519   4.627   3.581
 1102SOL    HW1 4205   1.578   4.638   3.661
 1102SOL    HW2 4206   1.544   4.695   3.512
 1103SOL     OW 4207   2.262   0.461   1.364
 1103SOL    HW1 4208   2.316   0.408   1.429
 1103SOL    HW2 4209   2.298   0.554   1.359
 1104SOL     OW 4210   2.009   4.245   6.001
 1104SOL    HW1 4211   2.033   4.182   6.075
 1104SOL    HW2 4212   2.092   4.271   5.952
 1105SOL     OW 4213   5.051   3.935   6.103
 1105SOL    HW1 4214   5.127   3.949   6.167
 1105SOL    HW2 4215   4.996   3.858   6.134
 1106SOL     OW 4216   1.154   1.603   0.206
 1106SOL    HW1 4217   1.063   1.632   0.176
 1106SOL    HW2 4218   1.157   1.598   0.306
 1107SOL     OW 4219   0.746   0.155   6.864
 1107SOL    HW1 4220   0.780   0.074   6.817
 1107SOL    HW2 4221   0.785   0.159   6.956
 1108SOL     OW 4222   2.608   0.419   5.821
 1108SOL    HW1 4223   2.530   0.381   5.871
 1108SOL    HW2 4224   2.619   0.369   5.735
 1109SOL     OW 4225   4.362   5.427   5.057
 1109SOL    HW1 4226   4.393   5.346   5.008
 1109SOL    HW2 4227   4.404   5.508   5.015
 1110SOL     OW 4228   3.459   1.844   1.983
 1110SOL    HW1 4229   3.408   1.784   1.921
 1110SOL    HW2 4230   3.408   1.930   1.994
 1111SOL     OW 4231   5.382   6.213   0.369
 1111SOL    HW1 4232   5.375   6.188   0.466
 1111SOL    HW2 4233   5.444   6.290   0.359
 1112SOL     OW 4234   6.232   1.097   2.647
 1112SOL    HW1 4235   6.148   1.047   2.626
 1112SOL    HW2 4236   6.240   1.176   2.585
 1113SOL     OW 4237   6.153   2.932   2.499
 1113SOL    HW1 4238   6.237   2.971   2.460
 1113SOL    HW2 4239   6.149   2.834   2.479
 1114SOL     OW 4240   4.763   1.025   6.541
 1114SOL    HW1 4241   4.742   0.968   6.620
 1114SOL    HW2 4242   4.817   0.974   6.475
 1115SOL     OW 4243   4.551   3.076   0.048
 1115SOL    HW1 4244   4.525   3.171   0.032
 1115SOL    HW2 4245   4.515   3.047   0.137
 1116SOL     OW 4246   5.145   5.510   4.146
 1116SOL    HW1 4247   5.066   5.570   4.130
 1116SOL    HW2 4248   5.194   5.540   4.228
 1117SOL     OW 4249   2.742   2.604   1.391
 1117SOL    HW1 4250   2.755   2.576   1.486
 1117SOL    HW2 4251   2.701   2.529   1.339
 1118SOL     OW 4252   1.111   5.046   2.391
 1118SOL    HW1 4253   1.198   5.043   2.440
 1118SOL    HW2 4254   1.084   5.142   2.377
 1119SOL     OW 4255   3.456   3.911   0.889
 1119SOL    HW1 4256   3.371   3.874   0.852
 1119SOL    HW2 4257   3.441   4.003   0.923
 1120SOL     OW 4258   5.457   6.494   5.824
 1120SOL    HW1 4259   5.450   6.472   5.727
 1120SOL    HW2 4260   5.411   6.581   5.842
 1121SOL     OW 4261   5.148   3.212   2.765
 1121SOL    HW1 4262   5.066   3.266   2.782
 1121SOL    HW2 4263   5.128   3.115   2.780
 1122SOL     OW 4264   4.891   2.736   6.151
 1122SOL    HW1 4265   4.942   2.664   6.104
 1122SOL    HW2 4266   4.814   2.764   6.094
 1123SOL     OW 4267   4.737   1.685   2.227
 1123SOL    HW1 4268   4.651   1.697   2.278
 1123SOL    HW2 4269   4.763   1.771   2.185
 1124SOL     OW 4270   0.016   4.111   5.034
 1124SOL    HW1 4271   0.016   4.015   5.063
 1124SOL    HW2 4272   0.047   4.169   5.110
 1125SOL     OW 4273   2.710   2.002   5.074
 1125SOL    HW1 4274   2.667   2.062   5.141
 1125SOL    HW2 4275   2.658   2.005   4.989
 1126SOL     OW 4276   4.908   7.021   6.609
 1126SOL    HW1 4277   4.959   0.019   6.691
 1126SOL    HW2 4278   4.810   0.005   6.625
 1127SOL     OW 4279   3.297   4.876   5.607
 1127SOL    HW1 4280   3.391   4.845   5.618
 1127SOL    HW2 4281   3.292   4.973   5.629
 1128SOL     OW 4282   4.459   2.346   4.696
 1128SOL    HW1 4283   4.549   2.384   4.718
 1128SOL    HW2 4284   4.436   2.367   4.601
 1129SOL     OW 4285   3.884   0.061   0.189
 1129SOL    HW1 4286   3.979   0.034   0.209
 1129SOL    HW2 4287   3.864   0.147   0.237
 1130SOL     OW 4288   1.343   4.222   0.302
 1130SOL    HW1 4289   1.292   4.301   0.335
 1130SOL    HW2 4290   1.400   4.249   0.224
 1131SOL     OW 4291   0.616   6.116   6.063
 1131SOL    HW1 4292   0.562   6.037   6.089
 1131SOL    HW2 4293   0.571   6.200   6.095
 1132SOL     OW 4294   4.458   0.245   6.937
 1132SOL    HW1 4295   4.363   0.253   6.906
 1132SOL    HW2 4296   4.461   0.258   0.008
 1133SOL     OW 4297   6.904   2.303   1.011
 1133SOL    HW1 4298   6.823   2.267   1.059
 1133SOL    HW2 4299   6.953   2.227   0.969
 1134SOL     OW 4300   5.623   1.949   0.023
 1134SOL    HW1 4301   5.551   2.008   7.016
 1134SOL    HW2 4302   5.586   1.858   0.042
 1135SOL     OW 4303   3.195   1.929   2.786
 1135SOL    HW1 4304   3.273   1.971   2.740
 1135SOL    HW2 4305   3.168   1.985   2.865
 1136SOL     OW 4306   3.074   4.843   4.556
 1136SOL    HW1 4307   3.139   4.878   4.623
 1136SOL    HW2 4308   3.122   4.782   4.492
 1137SOL     OW 4309   0.981   3.155   0.102
 1137SOL    HW1 4310   1.012   3.236   0.052
 1137SOL    HW2 4311   1.020   3.073   0.059
 1138SOL     OW 4312   1.828   2.022   5.940
 1138SOL    HW1 4313   1.745   1.969   5.955
 1138SOL    HW2 4314   1.831   2.054   5.845
 1139SOL     OW 4315   2.614   6.539   2.932
 1139SOL    HW1 4316   2.696   6.576   2.889
 1139SOL    HW2 4317   2.577   6.465   2.876
 1140SOL     OW 4318   3.960   2.151   2.522
 1140SOL    HW1 4319   3.999   2.232   2.477
 1140SOL    HW2 4320   3.910   2.097   2.455
 1141SOL     OW 4321   6.022   5.789   5.897
 1141SOL    HW1 4322   6.121   5.781   5.888
 1141SOL    HW2 4323   6.000   5.849   5.974
 1142SOL     OW 4324   4.925   0.526   4.832
 1142SOL    HW1 4325   4.929   0.611   4.780
 1142SOL    HW2 4326   4.996   0.463   4.800
 1143SOL     OW 4327   3.698   2.091   2.686
 1143SOL    HW1 4328   3.784   2.142   2.691
 1143SOL    HW2 4329   3.661   2.096   2.594
 1144SOL     OW 4330   6.754   4.013   4.569
 1144SOL    HW1 4331   6.759   4.096   4.512
 1144SOL    HW2 4332   6.794   4.031   4.658
 1145SOL     OW 4333   0.231   5.184   3.427
 1145SOL    HW1 4334   0.328   5.183   3.401
 1145SOL    HW2 4335   0.187   5.265   3.390
 1146SOL     OW 4336   5.459   1.161   0.973
 1146SOL    HW1 4337   5.511   1.078   0.952
 1146SOL    HW2 4338   5.414   1.150   1.062
 1147SOL     OW 4339   1.368   4.237   1.037
 1147SOL    HW1 4340   1.399   4.309   1.098
 1147SOL    HW2 4341   1.374   4.268   0.942
 1148SOL     OW 4342   2.926   6.252   6.932
 1148SOL    HW1 4343   2.918   6.170   6.875
 1148SOL    HW2 4344   2.955   6.226   7.024
 1149SOL     OW 4345   5.490   3.562   3.053
 1149SOL    HW1 4346   5.436   3.643   3.030
 1149SOL    HW2 4347   5.454   3.520   3.137
 1150SOL     OW 4348   2.333   4.406   1.686
 1150SOL    HW1 4349   2.415   4.355   1.709
 1150SOL    HW2 4350   2.357   4.500   1.662
 1151SOL     OW 4351   5.151   5.871   6.541
 1151SOL    HW1 4352   5.177   5.964   6.564
 1151SOL    HW2 4353   5.158   5.813   6.622
 1152SOL     OW 4354   1.117   0.116   4.642
 1152SOL    HW1 4355   1.066   0.183   4.696
 1152SOL    HW2 4356   1.086   0.024   4.667
 1153SOL     OW 4357   2.836   6.683   2.506
 1153SOL    HW1 4358   2.761   6.678   2.573
 1153SOL    HW2 4359   2.923   6.689   2.554
 1154SOL     OW 4360   0.465   3.345   1.660
 1154SOL    HW1 4361   0.459   3.253   1.622
 1154SOL    HW2 4362   0.495   3.341   1.755
 1155SOL     OW 4363   3.621   5.428   6.930
 1155SOL    HW1 4364   3.626   5.400   7.026
 1155SOL    HW2 4365   3.652   5.353   6.871
 1156SOL     OW 4366   2.358   0.516   4.010
 1156SOL    HW1 4367   2.394   0.577   3.940
 1156SOL    HW2 4368   2.259   0.529   4.019
 1157SOL     OW 4369   6.546   2.155   4.603
 1157SOL    HW1 4370   6.586   2.161   4.511
 1157SOL    HW2 4371   6.499   2.241   4.625
 1158SOL     OW 4372   6.309   5.401   5.653
 1158SOL    HW1 4373   6.351   5.446   5.574
 1158SOL    HW2 4374   6.295   5.304   5.632
 1159SOL     OW 4375   4.758   1.004   2.961
 1159SOL    HW1 4376   4.750   1.053   2.874
 1159SOL    HW2 4377   4.848   1.020   3.000
 1160SOL     OW 4378   3.442   3.758   1.578
 1160SOL    HW1 4379   3.400   3.741   1.489
 1160SOL    HW2 4380   3.406   3.692   1.644
 1161SOL     OW 4381   4.756   0.211   5.156
 1161SOL    HW1 4382   4.786   0.247   5.067
 1161SOL    HW2 4383   4.747   0.111   5.149
 1162SOL     OW 4384   3.911   3.102   1.016
 1162SOL    HW1 4385   3.887   3.199   1.016
 1162SOL    HW2 4386   3.831   3.047   1.037
 1163SOL     OW 4387   5.330   2.667   1.981
 1163SOL    HW1 4388   5.315   2.693   2.076
 1163SOL    HW2 4389   5.305   2.571   1.968
 1164SOL     OW 4390   5.554   2.509   3.923
 1164SOL    HW1 4391   5.522   2.599   3.893
 1164SOL    HW2 4392   5.550   2.503   4.023
 1165SOL     OW 4393   1.906   3.930   3.607
 1165SOL    HW1 4394   1.833   3.957   3.669
 1165SOL    HW2 4395   1.985   3.897   3.659
 1166SOL     OW 4396   3.702   1.047   0.073
 1166SOL    HW1 4397   3.642   1.094   0.008
 1166SOL    HW2 4398   3.725   0.956   0.037
 1167SOL     OW 4399   3.031   0.375   5.646
 1167SOL    HW1 4400   2.993   0.379   5.553
 1167SOL    HW2 4401   2.956   0.370   5.712
 1168SOL     OW 4402   6.073   7.008   2.378
 1168SOL    HW1 4403   6.161   0.023   2.358
 1168SOL    HW2 4404   6.087   6.909   2.391
 1169SOL     OW 4405   0.197   3.199   0.529
 1169SOL    HW1 4406   0.199   3.113   0.581
 1169SOL    HW2 4407   0.229   3.182   0.436
 1170SOL     OW 4408   4.105   0.637   1.818
 1170SOL    HW1 4409   4.108   0.721   1.871
 1170SOL    HW2 4410   4.010   0.611   1.800
 1171SOL     OW 4411   2.788   5.893   0.448
 1171SOL    HW1 4412   2.761   5.978   0.403
 1171SOL    HW2 4413   2.817   5.913   0.542
 1172SOL     OW 4414   3.045   3.942   4.033
 1172SOL    HW1 4415   3.059   4.028   3.985
 1172SOL    HW2 4416   3.033   3.868   3.967
 1173SOL     OW 4417   3.802   0.086   5.831
 1173SOL    HW1 4418   3.862   0.025   5.780
 1173SOL    HW2 4419   3.773   0.162   5.772
 1174SOL     OW 4420   2.974   5.780   1.302
 1174SOL    HW1 4421   2.936   5.868   1.330
 1174SOL    HW2 4422   3.027   5.741   1.377
 1175SOL     OW 4423   5.125   3.975   0.020
 1175SOL    HW1 4424   5.216   3.961   0.057
 1175SOL    HW2 4425   5.057   3.932   0.080
 1176SOL     OW 4426   6.088   4.513   0.224
 1176SOL    HW1 4427   6.141   4.575   0.166
 1176SOL    HW2 4428   6.151   4.452   0.273
 1177SOL     OW 4429   0.363   2.258   5.146
 1177SOL    HW1 4430   0.328   2.312   5.222
 1177SOL    HW2 4431   0.458   2.284   5.127
 1178SOL     OW 4432   4.598   3.890   1.686
 1178SOL    HW1 4433   4.634   3.975   1.725
 1178SOL    HW2 4434   4.502   3.903   1.661
 1179SOL     OW 4435   2.172   4.769   0.457
 1179SOL    HW1 4436   2.114   4.737   0.532
 1179SOL    HW2 4437   2.149   4.863   0.434
 1180SOL     OW 4438   2.689   0.780   3.996
 1180SOL    HW1 4439   2.668   0.780   4.093
 1180SOL    HW2 4440   2.619   0.832   3.947
 1181SOL     OW 4441   1.129   3.313   4.341
 1181SOL    HW1 4442   1.162   3.323   4.247
 1181SOL    HW2 4443   1.088   3.399   4.371
 1182SOL     OW 4444   2.052   4.603   3.197
 1182SOL    HW1 4445   2.059   4.504   3.191
 1182SOL    HW2 4446   2.134   4.645   3.158
 1183SOL     OW 4447   4.274   5.400   2.398
 1183SOL    HW1 4448   4.321   5.384   2.484
 1183SOL    HW2 4449   4.196   5.461   2.413
 1184SOL     OW 4450   3.666   2.425   5.621
 1184SOL    HW1 4451   3.603   2.496   5.592
 1184SOL    HW2 4452   3.650   2.403   5.718
 1185SOL     OW 4453   2.242   0.483   0.619
 1185SOL    HW1 4454   2.200   0.393   0.608
 1185SOL    HW2 4455   2.271   0.517   0.529
 1186SOL     OW 4456   6.170   0.263   6.252
 1186SOL    HW1 4457   6.203   0.307   6.169
 1186SOL    HW2 4458   6.079   0.224   6.235
 1187SOL     OW 4459   5.446   6.447   5.141
 1187SOL    HW1 4460   5.465   6.392   5.222
 1187SOL    HW2 4461   5.351   6.479   5.144
 1188SOL     OW 4462   3.009   6.515   6.473
 1188SOL    HW1 4463   2.981   6.509   6.568
 1188SOL    HW2 4464   2.997   6.609   6.440
 1189SOL     OW 4465   4.988   1.285   2.063
 1189SOL    HW1 4466   5.062   1.265   2.128
 1189SOL    HW2 4467   4.908   1.230   2.086
 1190SOL     OW 4468   4.230   4.793   4.413
 1190SOL    HW1 4469   4.157   4.803   4.480
 1190SOL    HW2 4470   4.257   4.697   4.406
 1191SOL     OW 4471   3.247   5.151   5.710
 1191SOL    HW1 4472   3.166   5.208   5.728
 1191SOL    HW2 4473   3.299   5.140   5.794
 1192SOL     OW 4474   5.310   4.602   2.939
 1192SOL    HW1 4475   5.219   4.599   2.979
 1192SOL    HW2 4476   5.378   4.573   3.007
 1193SOL     OW 4477   6.518   0.057   4.311
 1193SOL    HW1 4478   6.574   7.025   4.253
 1193SOL    HW2 4479   6.509   0.017   4.402
 1194SOL     OW 4480   0.315   1.451   0.582
 1194SOL    HW1 4481   0.403   1.408   0.565
 1194SOL    HW2 4482   0.330   1.543   0.620
 1195SOL     OW 4483   6.149   1.919   0.506
 1195SOL    HW1 4484   6.198   1.840   0.466
 1195SOL    HW2 4485   6.107   1.892   0.592
 1196SOL     OW 4486   0.110   5.131   1.676
 1196SOL    HW1 4487   0.050   5.148   1.598
 1196SOL    HW2 4488   0.137   5.035   1.676
 1197SOL     OW 4489   3.797   6.119   5.876
 1197SOL    HW1 4490   3.839   6.050   5.817
 1197SOL    HW2 4491   3.831   6.210   5.851
 1198SOL     OW 4492   2.300   2.799   2.332
 1198SOL    HW1 4493   2.365   2.735   2.373
 1198SOL    HW2 4494   2.255   2.852   2.404
 1199SOL     OW 4495   4.078   3.463   3.111
 1199SOL    HW1 4496   4.056   3.554   3.148
 1199SOL    HW2 4497   4.052   3.393   3.177
 1200SOL     OW 4498   4.397   3.554   5.301
 1200SOL    HW1 4499   4.483   3.568   5.253
 1200SOL    HW2 4500   4.404   3.473   5.360
 1201SOL     OW 4501   0.691   1.131   4.523
 1201SOL    HW1 4502   0.774   1.077   4.516
 1201SOL    HW2 4503   0.643   1.131   4.436
 1202SOL     OW 4504   5.920   0.900   5.940
 1202SOL    HW1 4505   6.013   0.933   5.925
 1202SOL    HW2 4506   5.881   0.946   6.020
 1203SOL     OW 4507   5.582   6.747   0.979
 1203SOL    HW1 4508   5.513   6.706   1.039
 1203SOL    HW2 4509   5.609   6.680   0.910
 1204SOL     OW 4510   4.205   1.406   0.184
 1204SOL    HW1 4511   4.237   1.325   0.232
 1204SOL    HW2 4512   4.109   1.423   0.208
 1205SOL     OW 4513   5.302   3.228   6.868
 1205SOL    HW1 4514   5.210   3.223   6.907
 1205SOL    HW2 4515   5.359   3.156   6.908
 1206SOL     OW 4516   1.527   1.427   5.022
 1206SOL    HW1 4517   1.522   1.343   4.967
 1206SOL    HW2 4518   1.484   1.502   4.972
 1207SOL     OW 4519   6.592   6.616   1.142
 1207SOL    HW1 4520   6.675   6.662   1.172
 1207SOL    HW2 4521   6.589   6.615   1.042
 1208SOL     OW 4522   3.486   4.061   2.851
 1208SOL    HW1 4523   3.407   3.999   2.853
 1208SOL    HW2 4524   3.532   4.053   2.762
 1209SOL     OW 4525   5.844   6.507   5.116
 1209SOL    HW1 4526   5.760   6.558   5.095
 1209SOL    HW2 4527   5.870   6.525   5.211
 1210SOL     OW 4528   4.166   0.057   2.809
 1210SOL    HW1 4529   4.158   6.997   2.854
 1210SOL    HW2 4530   4.241   0.109   2.850
 1211SOL     OW 4531   1.509   3.379   3.717
 1211SOL    HW1 4532   1.525   3.303   3.780
 1211SOL    HW2 4533   1.451   3.448   3.761
 1212SOL     OW 4534   0.607   2.924   5.455
 1212SOL    HW1 4535   0.701   2.895   5.471
 1212SOL    HW2 4536   0.601   2.976   5.370
 1213SOL     OW 4537   6.208   2.520   4.897
 1213SOL    HW1 4538   6.246   2.429   4.884
 1213SOL    HW2 4539   6.149   2.520   4.978
 1214SOL     OW 4540   1.624   3.171   3.903
 1214SOL    HW1 4541   1.678   3.173   3.988
 1214SOL    HW2 4542   1.563   3.092   3.906
 1215SOL     OW 4543   2.127   4.479   2.257
 1215SOL    HW1 4544   2.110   4.531   2.173
 1215SOL    HW2 4545   2.221   4.445   2.257
 1216SOL     OW 4546   0.191   7.018   1.413
 1216SOL    HW1 4547   0.281   6.998   1.452
 1216SOL    HW2 4548   0.199   7.026   1.313
 1217SOL     OW 4549   1.236   6.686   0.934
 1217SOL    HW1 4550   1.274   6.600   0.899
 1217SOL    HW2 4551   1.183   6.667   1.016
 1218SOL     OW 4552   1.014   2.764   4.699
 1218SOL    HW1 4553   0.925   2.720   4.715
 1218SOL    HW2 4554   1.078   2.737   4.771
 1219SOL     OW 4555   4.391   5.142   1.121
 1219SOL    HW1 4556   4.367   5.220   1.179
 1219SOL    HW2 4557   4.323   5.132   1.049
 1220SOL     OW 4558   5.138   3.858   2.458
 1220SOL    HW1 4559   5.204   3.925   2.492
 1220SOL    HW2 4560   5.157   3.838   2.362
 1221SOL     OW 4561   6.148   3.545   6.733
 1221SOL    HW1 4562   6.145   3.558   6.634
 1221SOL    HW2 4563   6.239   3.570   6.767
 1222SOL     OW 4564   6.864   0.365   0.487
 1222SOL    HW1 4565   6.914   0.329   0.566
 1222SOL    HW2 4566   6.908   0.449   0.456
 1223SOL     OW 4567   5.245   0.949   0.847
 1223SOL    HW1 4568   5.224   0.946   0.750
 1223SOL    HW2 4569   5.344   0.950   0.860
 1224SOL     OW 4570   3.534   6.206   6.784
 1224SOL    HW1 4571   3.609   6.140   6.787
 1224SOL    HW2 4572   3.485   6.196   6.698
 1225SOL     OW 4573   3.892   1.973   1.161
 1225SOL    HW1 4574   3.886   2.006   1.255
 1225SOL    HW2 4575   3.978   2.005   1.120
 1226SOL     OW 4576   5.647   6.524   0.804
 1226SOL    HW1 4577   5.696   6.528   0.717
 1226SOL    HW2 4578   5.686   6.450   0.860
 1227SOL     OW 4579   6.302   5.131   5.613
 1227SOL    HW1 4580   6.233   5.063   5.592
 1227SOL    HW2 4581   6.393   5.091   5.601
 1228SOL     OW 4582   3.812   3.082   1.319
 1228SOL    HW1 4583   3.781   3.077   1.224
 1228SOL    HW2 4584   3.734   3.100   1.378
 1229SOL     OW 4585   1.600   6.965   2.178
 1229SOL    HW1 4586   1.680   7.008   2.136
 1229SOL    HW2 4587   1.524   0.002   2.179
 1230SOL     OW 4588   5.098   5.650   3.033
 1230SOL    HW1 4589   5.031   5.702   3.086
 1230SOL    HW2 4590   5.050   5.591   2.968
 1231SOL     OW 4591   1.576   2.946   6.096
 1231SOL    HW1 4592   1.594   2.870   6.033
 1231SOL    HW2 4593   1.489   2.989   6.072
 1232SOL     OW 4594   4.655   1.326   5.333
 1232SOL    HW1 4595   4.595   1.285   5.401
 1232SOL    HW2 4596   4.602   1.379   5.267
 1233SOL     OW 4597   0.436   5.432   3.533
 1233SOL    HW1 4598   0.414   5.379   3.452
 1233SOL    HW2 4599   0.398   5.524   3.524
 1234SOL     OW 4600   0.150   2.829   6.915
 1234SOL    HW1 4601   0.118   2.908   6.863
 1234SOL    HW2 4602   0.078   2.761   6.920
 1235SOL     OW 4603   6.346   5.314   6.765
 1235SOL    HW1 4604   6.322   5.374   6.842
 1235SOL    HW2 4605   6.304   5.350   6.681
 1236SOL     OW 4606   3.202   1.859   0.403
 1236SOL    HW1 4607   3.267   1.800   0.355
 1236SOL    HW2 4608   3.251   1.918   0.468
 1237SOL     OW 4609   1.519   6.593   4.790
 1237SOL    HW1 4610   1.451   6.525   4.762
 1237SOL    HW2 4611   1.597   6.590   4.728
 1238SOL     OW 4612   0.337   6.679   3.353
 1238SOL    HW1 4613   0.374   6.617   3.283
 1238SOL    HW2 4614   0.373   6.654   3.442
 1239SOL     OW 4615   6.816   5.124   4.864
 1239SOL    HW1 4616   6.830   5.192   4.792
 1239SOL    HW2 4617   6.721   5.095   4.865
 1240SOL     OW 4618   6.004   5.576   2.246
 1240SOL    HW1 4619   6.036   5.571   2.341
 1240SOL    HW2 4620   5.944   5.498   2.227
 1241SOL     OW 4621   6.706   4.779   4.693
 1241SOL    HW1 4622   6.652   4.820   4.620
 1241SOL    HW2 4623   6.660   4.696   4.727
 1242SOL     OW 4624   1.843   4.279   0.009
 1242SOL    HW1 4625   1.858   4.316   0.101
 1242SOL    HW2 4626   1.902   4.199   7.023
 1243SOL     OW 4627   0.259   2.152   4.930
 1243SOL    HW1 4628   0.307   2.185   5.011
 1243SOL    HW2 4629   0.177   2.206   4.915
 1244SOL     OW 4630   5.106   6.999   5.326
 1244SOL    HW1 4631   5.131   6.907   5.357
 1244SOL    HW2 4632   5.040   0.010   5.389
 1245SOL     OW 4633   5.313   5.670   1.135
 1245SOL    HW1 4634   5.390   5.672   1.199
 1245SOL    HW2 4635   5.258   5.753   1.147
 1246SOL     OW 4636   4.348   1.192   1.507
 1246SOL    HW1 4637   4.305   1.240   1.431
 1246SOL    HW2 4638   4.293   1.206   1.590
 1247SOL     OW 4639   6.312   6.733   4.558
 1247SOL    HW1 4640   6.261   6.674   4.495
 1247SOL    HW2 4641   6.406   6.699   4.566
 1248SOL     OW 4642   0.860   6.209   4.178
 1248SOL    HW1 4643   0.856   6.185   4.081
 1248SOL    HW2 4644   0.775   6.182   4.223
 1249SOL     OW 4645   6.924   4.153   1.492
 1249SOL    HW1 4646   6.912   4.098   1.409
 1249SOL    HW2 4647   6.921   4.093   1.572
 1250SOL     OW 4648   6.183   3.553   5.420
 1250SOL    HW1 4649   6.186   3.616   5.497
 1250SOL    HW2 4650   6.276   3.534   5.389
 1251SOL     OW 4651   1.919   0.970   2.604
 1251SOL    HW1 4652   2.011   0.936   2.620
 1251SOL    HW2 4653   1.865   0.962   2.688
 1252SOL     OW 4654   3.533   5.201   6.530
 1252SOL    HW1 4655   3.473   5.130   6.566
 1252SOL    HW2 4656   3.614   5.209   6.588
 1253SOL     OW 4657   3.009   1.067   1.426
 1253SOL    HW1 4658   3.019   1.119   1.511
 1253SOL    HW2 4659   3.041   0.973   1.441
 1254SOL     OW 4660   6.505   1.444   3.186
 1254SOL    HW1 4661   6.578   1.478   3.127
 1254SOL    HW2 4662   6.544   1.405   3.269
 1255SOL     OW 4663   5.524   2.742   5.169
 1255SOL    HW1 4664   5.477   2.698   5.093
 1255SOL    HW2 4665   5.598   2.799   5.134
 1256SOL     OW 4666   6.658   6.430   3.151
 1256SOL    HW1 4667   6.754   6.459   3.156
 1256SOL    HW2 4668   6.638   6.369   3.228
 1257SOL     OW 4669   6.894   4.523   4.488
 1257SOL    HW1 4670   6.935   4.543   4.576
 1257SOL    HW2 4671   6.866   4.427   4.485
 1258SOL     OW 4672   2.228   6.279   3.339
 1258SOL    HW1 4673   2.156   6.294   3.272
 1258SOL    HW2 4674   2.260   6.184   3.332
 1259SOL     OW 4675   3.760   6.791   4.778
 1259SOL    HW1 4676   3.805   6.703   4.791
 1259SOL    HW2 4677   3.661   6.778   4.773
 1260SOL     OW 4678   2.933   0.873   2.042
 1260SOL    HW1 4679   2.975   0.836   2.125
 1260SOL    HW2 4680   2.842   0.907   2.063
 1261SOL     OW 4681   6.923   3.474   0.466
 1261SOL    HW1 4682   6.958   3.557   0.421
 1261SOL    HW2 4683   6.864   3.424   0.403
 1262SOL     OW 4684   4.562   4.415   1.138
 1262SOL    HW1 4685   4.520   4.387   1.224
 1262SOL    HW2 4686   4.558   4.515   1.130
 1263SOL     OW 4687   6.143   2.308   1.558
 1263SOL    HW1 4688   6.224   2.265   1.519
 1263SOL    HW2 4689   6.084   2.342   1.485
 1264SOL     OW 4690   0.255   4.408   3.145
 1264SOL    HW1 4691   0.180   4.379   3.204
 1264SOL    HW2 4692   0.294   4.328   3.099
 1265SOL     OW 4693   6.740   4.549   3.973
 1265SOL    HW1 4694   6.803   4.588   3.907
 1265SOL    HW2 4695   6.676   4.488   3.927
 1266SOL     OW 4696   2.711   1.687   4.469
 1266SOL    HW1 4697   2.698   1.590   4.448
 1266SOL    HW2 4698   2.635   1.720   4.525
 1267SOL     OW 4699   5.920   5.803   1.671
 1267SOL    HW1 4700   5.947   5.829   1.578
 1267SOL    HW2 4701   5.846   5.863   1.702
 1268SOL     OW 4702   5.321   2.752   0.471
 1268SOL    HW1 4703   5.313   2.745   0.372
 1268SOL    HW2 4704   5.370   2.836   0.495
 1269SOL     OW 4705   6.167   6.458   5.300
 1269SOL    HW1 4706   6.125   6.368   5.297
 1269SOL    HW2 4707   6.246   6.457   5.362
 1270SOL     OW 4708   2.160   3.893   4.304
 1270SOL    HW1 4709   2.079   3.938   4.266
 1270SOL    HW2 4710   2.167   3.916   4.401
 1271SOL     OW 4711   3.479   1.572   2.850
 1271SOL    HW1 4712   3.462   1.539   2.942
 1271SOL    HW2 4713   3.498   1.494   2.790
 1272SOL     OW 4714   0.096   6.194   1.231
 1272SOL    HW1 4715   0.159   6.117   1.217
 1272SOL    HW2 4716   0.098   6.254   1.151
 1273SOL     OW 4717   2.183   3.991   0.024
 1273SOL    HW1 4718   2.096   3.965   7.010
 1273SOL    HW2 4719   2.258   3.967   6.991
 1274SOL     OW 4720   0.089   3.006   1.625
 1274SOL    HW1 4721   0.167   2.978   1.681
 1274SOL    HW2 4722   0.088   2.954   1.540
 1275SOL     OW 4723   4.690   0.551   3.546
 1275SOL    HW1 4724   4.776   0.514   3.580
 1275SOL    HW2 4725   4.622   0.551   3.620
 1276SOL     OW 4726   6.977   0.450   3.693
 1276SOL    HW1 4727   6.927   0.381   3.746
 1276SOL    HW2 4728   0.024   0.405   3.644
 1277SOL     OW 4729   1.093   0.666   4.270
 1277SOL    HW1 4730   1.181   0.618   4.272
 1277SOL    HW2 4731   1.043   0.648   4.354
 1278SOL     OW 4732   1.793   1.580   5.071
 1278SOL    HW1 4733   1.777   1.614   4.978
 1278SOL    HW2 4734   1.715   1.525   5.100
 1279SOL     OW 4735   1.992   6.825   0.859
 1279SOL    HW1 4736   1.942   6.801   0.776
 1279SOL    HW2 4737   2.036   6.743   0.896
 1280SOL     OW 4738   2.731   6.433   3.553
 1280SOL    HW1 4739   2.778   6.472   3.474
 1280SOL    HW2 4740   2.638   6.408   3.527
 1281SOL     OW 4741   1.120   5.622   3.075
 1281SOL    HW1 4742   1.191   5.643   3.008
 1281SOL    HW2 4743   1.030   5.630   3.032
 1282SOL     OW 4744   0.738   1.075   0.624
 1282SOL    HW1 4745   0.653   1.101   0.670
 1282SOL    HW2 4746   0.808   1.055   0.693
 1283SOL     OW 4747   5.401   3.208   5.445
 1283SOL    HW1 4748   5.347   3.208   5.530
 1283SOL    HW2 4749   5.496   3.230   5.466
 1284SOL     OW 4750   3.079   3.024   2.132
 1284SOL    HW1 4751   3.017   2.964   2.183
 1284SOL    HW2 4752   3.157   2.971   2.099
 1285SOL     OW 4753   5.430   3.652   6.256
 1285SOL    HW1 4754   5.353   3.625   6.198
 1285SOL    HW2 4755   5.454   3.575   6.316
 1286SOL     OW 4756   4.448   4.590   2.748
 1286SOL    HW1 4757   4.470   4.671   2.692
 1286SOL    HW2 4758   4.466   4.507   2.695
 1287SOL     OW 4759   5.343   4.529   6.214
 1287SOL    HW1 4760   5.325   4.626   6.202
 1287SOL    HW2 4761   5.271   4.489   6.272
 1288SOL     OW 4762   6.842   3.128   1.319
 1288SOL    HW1 4763   6.836   3.063   1.394
 1288SOL    HW2 4764   6.762   3.188   1.320
 1289SOL     OW 4765   0.789   6.214   1.602
 1289SOL    HW1 4766   0.704   6.191   1.649
 1289SOL    HW2 4767   0.788   6.174   1.510
 1290SOL     OW 4768   0.567   0.895   0.443
 1290SOL    HW1 4769   0.559   0.966   0.373
 1290SOL    HW2 4770   0.565   0.937   0.534
 1291SOL     OW 4771   1.656   4.620   6.183
 1291SOL    HW1 4772   1.718   4.550   6.147
 1291SOL    HW2 4773   1.586   4.641   6.114
 1292SOL     OW 4774   6.685   4.969   2.430
 1292SOL    HW1 4775   6.602   4.956   2.376
 1292SOL    HW2 4776   6.720   5.061   2.417
 1293SOL     OW 4777   2.880   1.564   6.243
 1293SOL    HW1 4778   2.865   1.590   6.147
 1293SOL    HW2 4779   2.978   1.570   6.263
 1294SOL     OW 4780   0.478   3.002   0.770
 1294SOL    HW1 4781   0.577   2.993   0.754
 1294SOL    HW2 4782   0.452   3.098   0.760
 1295SOL     OW 4783   6.441   3.599   2.660
 1295SOL    HW1 4784   6.504   3.645   2.597
 1295SOL    HW2 4785   6.493   3.545   2.726
 1296SOL     OW 4786   4.385   1.281   6.162
 1296SOL    HW1 4787   4.450   1.214   6.197
 1296SOL    HW2 4788   4.395   1.288   6.063
 1297SOL     OW 4789   5.945   0.917   6.429
 1297SOL    HW1 4790   5.949   1.003   6.378
 1297SOL    HW2 4791   5.856   0.909   6.474
 1298SOL     OW 4792   6.170   3.391   3.436
 1298SOL    HW1 4793   6.102   3.464   3.428
 1298SOL    HW2 4794   6.131   3.305   3.404
 1299SOL     OW 4795   1.537   4.048   2.991
 1299SOL    HW1 4796   1.539   3.953   3.023
 1299SOL    HW2 4797   1.535   4.049   2.891
 1300SOL     OW 4798   3.907   3.523   2.080
 1300SOL    HW1 4799   3.826   3.480   2.117
 1300SOL    HW2 4800   3.989   3.476   2.114
 1301SOL     OW 4801   0.969   5.510   2.472
 1301SOL    HW1 4802   1.050   5.541   2.523
 1301SOL    HW2 4803   0.915   5.589   2.445
 1302SOL     OW 4804   2.957   6.733   4.943
 1302SOL    HW1 4805   2.921   6.709   4.852
 1302SOL    HW2 4806   2.965   6.651   4.999
 1303SOL     OW 4807   4.442   1.813   0.392
 1303SOL    HW1 4808   4.384   1.804   0.473
 1303SOL    HW2 4809   4.399   1.769   0.314
 1304SOL     OW 4810   1.995   1.583   6.505
 1304SOL    HW1 4811   2.045   1.602   6.590
 1304SOL    HW2 4812   1.945   1.666   6.477
 1305SOL     OW 4813   5.976   5.745   6.769
 1305SOL    HW1 4814   5.988   5.661   6.821
 1305SOL    HW2 4815   6.065   5.785   6.748
 1306SOL     OW 4816   0.399   4.746   5.636
 1306SOL    HW1 4817   0.444   4.722   5.723
 1306SOL    HW2 4818   0.457   4.718   5.560
 1307SOL     OW 4819   1.799   3.065   3.713
 1307SOL    HW1 4820   1.743   3.080   3.795
 1307SOL    HW2 4821   1.862   2.990   3.729
 1308SOL     OW 4822   3.635   5.746   4.788
 1308SOL    HW1 4823   3.730   5.739   4.818
 1308SOL    HW2 4824   3.624   5.699   4.701
 1309SOL     OW 4825   5.204   3.064   5.332
 1309SOL    HW1 4826   5.187   3.086   5.236
 1309SOL    HW2 4827   5.289   3.107   5.362
 1310SOL     OW 4828   5.769   3.533   5.097
 1310SOL    HW1 4829   5.679   3.568   5.122
 1310SOL    HW2 4830   5.786   3.552   5.000
 1311SOL     OW 4831   6.480   6.435   4.256
 1311SOL    HW1 4832   6.520   6.476   4.174
 1311SOL    HW2 4833   6.440   6.507   4.312
 1312SOL     OW 4834   0.765   0.444   6.811
 1312SOL    HW1 4835   0.667   0.461   6.809
 1312SOL    HW2 4836   0.782   0.346   6.814
 1313SOL     OW 4837   2.118   5.599   5.651
 1313SOL    HW1 4838   2.139   5.502   5.650
 1313SOL    HW2 4839   2.182   5.646   5.712
 1314SOL     OW 4840   1.642   1.640   5.713
 1314SOL    HW1 4841   1.727   1.619   5.761
 1314SOL    HW2 4842   1.658   1.638   5.614
 1315SOL     OW 4843   0.883   1.096   0.360
 1315SOL    HW1 4844   0.873   1.195   0.348
 1315SOL    HW2 4845   0.807   1.062   0.417
 1316SOL     OW 4846   2.338   0.387   3.115
 1316SOL    HW1 4847   2.278   0.426   3.046
 1316SOL    HW2 4848   2.432   0.417   3.100
 1317SOL     OW 4849   0.990   4.135   4.847
 1317SOL    HW1 4850   0.899   4.097   4.834
 1317SOL    HW2 4851   1.009   4.200   4.773
 1318SOL     OW 4852   0.045   0.907   0.570
 1318SOL    HW1 4853   0.005   0.993   0.540
 1318SOL    HW2 4854   0.069   0.914   0.667
 1319SOL     OW 4855   6.777   1.816   6.993
 1319SOL    HW1 4856   6.763   1.756   6.915
 1319SOL    HW2 4857   6.853   1.878   6.974
 1320SOL     OW 4858   5.752   4.149   0.101
 1320SOL    HW1 4859   5.832   4.199   0.131
 1320SOL    HW2 4860   5.756   4.055   0.137
 1321SOL     OW 4861   4.259   2.487   6.795
 1321SOL    HW1 4862   4.219   2.419   6.733
 1321SOL    HW2 4863   4.334   2.534   6.749
 1322SOL     OW 4864   5.470   0.938   3.271
 1322SOL    HW1 4865   5.438   0.924   3.177
 1322SOL    HW2 4866   5.397   0.912   3.334
 1323SOL     OW 4867   5.051   2.231   5.271
 1323SOL    HW1 4868   5.087   2.253   5.361
 1323SOL    HW2 4869   5.051   2.132   5.258
 1324SOL     OW 4870   1.122   2.252   1.704
 1324SOL    HW1 4871   1.174   2.307   1.770
 1324SOL    HW2 4872   1.173   2.168   1.683
 1325SOL     OW 4873   3.153   7.009   2.031
 1325SOL    HW1 4874   3.229   6.988   2.093
 1325SOL    HW2 4875   3.173   6.971   1.941
 1326SOL     OW 4876   4.969   2.922   4.682
 1326SOL    HW1 4877   5.012   2.855   4.743
 1326SOL    HW2 4878   4.891   2.880   4.636
 1327SOL     OW 4879   3.051   5.684   3.016
 1327SOL    HW1 4880   3.009   5.770   3.044
 1327SOL    HW2 4881   3.137   5.702   2.969
 1328SOL     OW 4882   0.891   3.209   0.364
 1328SOL    HW1 4883   0.929   3.189   0.274
 1328SOL    HW2 4884   0.965   3.226   0.429
 1329SOL     OW 4885   6.727   1.485   0.218
 1329SOL    HW1 4886   6.781   1.479   0.133
 1329SOL    HW2 4887   6.737   1.399   0.268
 1330SOL     OW 4888   6.861   6.957   0.712
 1330SOL    HW1 4889   6.772   6.942   0.754
 1330SOL    HW2 4890   6.890   0.023   0.728
 1331SOL     OW 4891   4.552   2.076   2.829
 1331SOL    HW1 4892   4.502   2.024   2.898
 1331SOL    HW2 4893   4.528   2.173   2.837
 1332SOL     OW 4894   3.291   0.334   0.027
 1332SOL    HW1 4895   3.259   0.341   6.961
 1332SOL    HW2 4896   3.219   0.365   0.089
 1333SOL     OW 4897   4.057   3.906   6.039
 1333SOL    HW1 4898   4.110   3.966   5.979
 1333SOL    HW2 4899   4.013   3.961   6.110
 1334SOL     OW 4900   0.536   3.102   4.182
 1334SOL    HW1 4901   0.496   3.089   4.273
 1334SOL    HW2 4902   0.607   3.034   4.167
 1335SOL     OW 4903   2.922   6.341   2.994
 1335SOL    HW1 4904   2.957   6.428   2.961
 1335SOL    HW2 4905   2.958   6.266   2.938
 1336SOL     OW 4906   2.024   1.017   6.109
 1336SOL    HW1 4907   2.044   0.950   6.180
 1336SOL    HW2 4908   2.052   0.980   6.020
 1337SOL     OW 4909   0.958   2.333   4.809
 1337SOL    HW1 4910   0.998   2.253   4.854
 1337SOL    HW2 4911   0.878   2.364   4.860
 1338SOL     OW 4912   4.501   3.800   6.085
 1338SOL    HW1 4913   4.498   3.900   6.080
 1338SOL    HW2 4914   4.408   3.765   6.091
 1339SOL     OW 4915   0.285   6.530   0.217
 1339SOL    HW1 4916   0.249   6.440   0.241
 1339SOL    HW2 4917   0.380   6.538   0.250
 1340SOL     OW 4918   0.986   1.523   1.611
 1340SOL    HW1 4919   0.899   1.479   1.632
 1340SOL    HW2 4920   1.026   1.482   1.529
 1341SOL     OW 4921   3.808   0.265   5.591
 1341SOL    HW1 4922   3.784   0.184   5.538
 1341SOL    HW2 4923   3.848   0.334   5.531
 1342SOL     OW 4924   1.014   5.396   6.258
 1342SOL    HW1 4925   1.029   5.494   6.270
 1342SOL    HW2 4926   0.935   5.368   6.313
 1343SOL     OW 4927   3.979   6.763   2.533
 1343SOL    HW1 4928   4.057   6.703   2.551
 1343SOL    HW2 4929   4.010   6.843   2.481
 1344SOL     OW 4930   0.003   3.606   3.347
 1344SOL    HW1 4931   6.968   3.567   3.415
 1344SOL    HW2 4932   0.096   3.601   3.382
 1345SOL     OW 4933   0.789   1.672   3.414
 1345SOL    HW1 4934   0.812   1.575   3.402
 1345SOL    HW2 4935   0.782   1.692   3.512
 1346SOL     OW 4936   1.751   0.140   2.824
 1346SOL    HW1 4937   1.723   0.074   2.894
 1346SOL    HW2 4938   1.830   0.191   2.857
 1347SOL     OW 4939   6.391   6.379   3.760
 1347SOL    HW1 4940   6.401   6.453   3.693
 1347SOL    HW2 4941   6.322   6.406   3.828
 1348SOL     OW 4942   5.935   5.175   3.031
 1348SOL    HW1 4943   5.938   5.142   2.937
 1348SOL    HW2 4944   5.849   5.224   3.045
 1349SOL     OW 4945   5.176   2.713   6.610
 1349SOL    HW1 4946   5.170   2.798   6.558
 1349SOL    HW2 4947   5.123   2.722   6.695
 1350SOL     OW 4948   4.086   4.812   7.019
 1350SOL    HW1 4949   4.074   4.756   6.937
 1350SOL    HW2 4950   4.178   4.849   7.022
 1351SOL     OW 4951   0.887   1.175   3.241
 1351SOL    HW1 4952   0.920   1.182   3.146
 1351SOL    HW2 4953   0.800   1.126   3.242
 1352SOL     OW 4954   0.298   0.509   3.221
 1352SOL    HW1 4955   0.295   0.569   3.301
 1352SOL    HW2 4956   0.390   0.474   3.208
 1353SOL     OW 4957   0.036   4.223   5.862
 1353SOL    HW1 4958   0.016   4.167   5.782
 1353SOL    HW2 4959   6.986   4.282   5.882
 1354SOL     OW 4960   6.659   1.933   0.457
 1354SOL    HW1 4961   6.581   1.991   0.482
 1354SOL    HW2 4962   6.726   1.934   0.531
 1355SOL     OW 4963   5.221   3.197   6.139
 1355SOL    HW1 4964   5.129   3.191   6.102
 1355SOL    HW2 4965   5.217   3.212   6.238
 1356SOL     OW 4966   3.450   3.699   4.578
 1356SOL    HW1 4967   3.436   3.721   4.675
 1356SOL    HW2 4968   3.404   3.769   4.522
 1357SOL     OW 4969   2.939   3.144   5.798
 1357SOL    HW1 4970   2.886   3.084   5.739
 1357SOL    HW2 4971   2.919   3.123   5.894
 1358SOL     OW 4972   2.934   2.084   6.223
 1358SOL    HW1 4973   2.845   2.095   6.267
 1358SOL    HW2 4974   2.983   2.008   6.265
 1359SOL     OW 4975   6.603   4.499   1.145
 1359SOL    HW1 4976   6.665   4.524   1.071
 1359SOL    HW2 4977   6.656   4.478   1.227
 1360SOL     OW 4978   3.930   3.826   2.900
 1360SOL    HW1 4979   3.949   3.806   2.996
 1360SOL    HW2 4980   3.876   3.910   2.894
 1361SOL     OW 4981   6.590   6.787   6.488
 1361SOL    HW1 4982   6.620   6.859   6.426
 1361SOL    HW2 4983   6.661   6.716   6.494
 1362SOL     OW 4984   2.844   3.727   5.164
 1362SOL    HW1 4985   2.789   3.689   5.090
 1362SOL    HW2 4986   2.876   3.653   5.223
 1363SOL     OW 4987   6.752   6.494   4.420
 1363SOL    HW1 4988   6.795   6.417   4.467
 1363SOL    HW2 4989   6.706   6.461   4.337
 1364SOL     OW 4990   6.902   2.261   6.823
 1364SOL    HW1 4991   6.950   2.267   6.911
 1364SOL    HW2 4992   6.927   2.341   6.767
 1365SOL     OW 4993   1.409   3.435   5.357
 1365SOL    HW1 4994   1.366   3.348   5.335
 1365SOL    HW2 4995   1.458   3.427   5.444
 1366SOL     OW 4996   0.254   3.818   1.289
 1366SOL    HW1 4997   0.320   3.805   1.364
 1366SOL    HW2 4998   0.207   3.905   1.301
 1367SOL     OW 4999   1.303   5.151   3.007
 1367SOL    HW1 5000   1.323   5.249   3.014
 1367SOL    HW2 5001   1.262   5.131   2.919
 1368SOL     OW 5002   6.769   0.677   3.976
 1368SOL    HW1 5003   6.682   0.671   3.928
 1368SOL    HW2 5004   6.788   0.773   3.997
 1369SOL     OW 5005   2.159   6.141   2.109
 1369SOL    HW1 5006   2.110   6.190   2.181
 1369SOL    HW2 5007   2.117   6.162   2.020
 1370SOL     OW 5008   6.587   2.101   4.323
 1370SOL    HW1 5009   6.683   2.105   4.296
 1370SOL    HW2 5010   6.533   2.158   4.261
 1371SOL     OW 5011   5.017   0.871   4.600
 1371SOL    HW1 5012   5.093   0.882   4.663
 1371SOL    HW2 5013   5.013   0.950   4.539
 1372SOL     OW 5014   6.668   2.194   1.139
 1372SOL    HW1 5015   6.607   2.236   1.072
 1372SOL    HW2 5016   6.640   2.100   1.156
 1373SOL     OW 5017   5.088   1.781   0.550
 1373SOL    HW1 5018   5.093   1.755   0.646
 1373SOL    HW2 5019   5.075   1.880   0.543
 1374SOL     OW 5020   5.453   4.396   7.000
 1374SOL    HW1 5021   5.379   4.391   6.934
 1374SOL    HW2 5022   5.456   4.311   0.025
 1375SOL     OW 5023   6.820   6.642   6.518
 1375SOL    HW1 5024   6.836   6.562   6.576
 1375SOL    HW2 5025   6.901   6.659   6.462
 1376SOL     OW 5026   3.142   4.973   6.406
 1376SOL    HW1 5027   3.189   4.958   6.319
 1376SOL    HW2 5028   3.120   4.885   6.447
 1377SOL     OW 5029   1.018   2.782   3.906
 1377SOL    HW1 5030   0.952   2.800   3.833
 1377SOL    HW2 5031   0.969   2.741   3.984
 1378SOL     OW 5032   4.989   2.569   4.775
 1378SOL    HW1 5033   5.053   2.493   4.789
 1378SOL    HW2 5034   5.001   2.636   4.849
 1379SOL     OW 5035   4.296   5.599   2.842
 1379SOL    HW1 5036   4.339   5.535   2.906
 1379SOL    HW2 5037   4.357   5.616   2.766
 1380SOL     OW 5038   0.015   6.123   2.946
 1380SOL    HW1 5039   0.023   6.206   2.891
 1380SOL    HW2 5040   6.989   6.142   3.028
 1381SOL     OW 5041   6.003   1.576   6.867
 1381SOL    HW1 5042   5.929   1.638   6.839
 1381SOL    HW2 5043   5.965   1.488   6.894
 1382SOL     OW 5044   4.904   2.875   1.069
 1382SOL    HW1 5045   4.806   2.856   1.055
 1382SOL    HW2 5046   4.935   2.833   1.154
 1383SOL     OW 5047   0.865   0.100   1.373
 1383SOL    HW1 5048   0.934   0.172   1.367
 1383SOL    HW2 5049   0.888   0.025   1.311
 1384SOL     OW 5050   4.464   6.970   1.549
 1384SOL    HW1 5051   4.476   0.041   1.550
 1384SOL    HW2 5052   4.535   6.928   1.493
 1385SOL     OW 5053   2.384   4.732   3.500
 1385SOL    HW1 5054   2.353   4.724   3.405
 1385SOL    HW2 5055   2.306   4.725   3.562
 1386SOL     OW 5056   3.405   0.279   3.478
 1386SOL    HW1 5057   3.332   0.227   3.524
 1386SOL    HW2 5058   3.387   0.377   3.487
 1387SOL     OW 5059   2.947   5.680   2.398
 1387SOL    HW1 5060   2.989   5.643   2.480
 1387SOL    HW2 5061   2.911   5.605   2.342
 1388SOL     OW 5062   6.463   6.825   2.364
 1388SOL    HW1 5063   6.417   6.861   2.445
 1388SOL    HW2 5064   6.546   6.877   2.347
 1389SOL     OW 5065   6.034   2.178   4.398
 1389SOL    HW1 5066   6.073   2.266   4.372
 1389SOL    HW2 5067   6.104   2.107   4.392
 1390SOL     OW 5068   0.298   3.946   6.788
 1390SOL    HW1 5069   0.321   4.038   6.758
 1390SOL    HW2 5070   0.373   3.884   6.767
 1391SOL     OW 5071   6.171   6.722   4.810
 1391SOL    HW1 5072   6.220   6.705   4.724
 1391SOL    HW2 5073   6.151   6.635   4.855
 1392SOL     OW 5074   5.850   5.966   6.108
 1392SOL    HW1 5075   5.845   6.047   6.050
 1392SOL    HW2 5076   5.771   5.907   6.089
 1393SOL     OW 5077   6.296   4.816   5.521
 1393SOL    HW1 5078   6.290   4.741   5.454
 1393SOL    HW2 5079   6.207   4.860   5.529
 1394SOL     OW 5080   2.841   5.276   5.102
 1394SOL    HW1 5081   2.926   5.232   5.073
 1394SOL    HW2 5082   2.848   5.302   5.199
 1395SOL     OW 5083   2.387   4.080   5.562
 1395SOL    HW1 5084   2.360   4.121   5.474
 1395SOL    HW2 5085   2.484   4.094   5.577
 1396SOL     OW 5086   1.184   1.135   5.121
 1396SOL    HW1 5087   1.119   1.201   5.159
 1396SOL    HW2 5088   1.214   1.166   5.031
 1397SOL     OW 5089   0.552   0.327   3.774
 1397SOL    HW1 5090   0.548   0.393   3.699
 1397SOL    HW2 5091   0.645   0.290   3.781
 1398SOL     OW 5092   2.913   0.453   6.096
 1398SOL    HW1 5093   2.946   0.545   6.117
 1398SOL    HW2 5094   2.978   0.386   6.131
 1399SOL     OW 5095   3.585   5.281   0.612
 1399SOL    HW1 5096   3.568   5.315   0.705
 1399SOL    HW2 5097   3.682   5.290   0.591
 1400SOL     OW 5098   0.140   1.156   2.816
 1400SOL    HW1 5099   0.153   1.059   2.793
 1400SOL    HW2 5100   0.226   1.205   2.806
 1401SOL     OW 5101   6.478   1.750   4.609
 1401SOL    HW1 5102   6.387   1.792   4.607
 1401SOL    HW2 5103   6.529   1.777   4.527
 1402SOL     OW 5104   0.166   3.470   0.208
 1402SOL    HW1 5105   0.249   3.505   0.166
 1402SOL    HW2 5106   0.087   3.520   0.174
 1403SOL     OW 5107   2.206   2.359   1.934
 1403SOL    HW1 5108   2.288   2.307   1.910
 1403SOL    HW2 5109   2.227   2.457   1.936
 1404SOL     OW 5110   5.548   6.564   0.041
 1404SOL    HW1 5111   5.549   6.663   0.029
 1404SOL    HW2 5112   5.642   6.530   0.038
 1405SOL     OW 5113   1.773   4.043   1.390
 1405SOL    HW1 5114   1.752   4.074   1.298
 1405SOL    HW2 5115   1.690   4.007   1.434
 1406SOL     OW 5116   1.131   5.310   1.053
 1406SOL    HW1 5117   1.055   5.341   0.996
 1406SOL    HW2 5118   1.168   5.225   1.015
 1407SOL     OW 5119   0.369   2.236   2.703
 1407SOL    HW1 5120   0.364   2.137   2.714
 1407SOL    HW2 5121   0.431   2.274   2.772
 1408SOL     OW 5122   5.682   1.120   5.466
 1408SOL    HW1 5123   5.724   1.054   5.529
 1408SOL    HW2 5124   5.604   1.163   5.510
 1409SOL     OW 5125   0.664   0.730   5.278
 1409SOL    HW1 5126   0.613   0.788   5.214
 1409SOL    HW2 5127   0.683   0.641   5.236
 1410SOL     OW 5128   1.682   3.308   6.317
 1410SOL    HW1 5129   1.656   3.322   6.413
 1410SOL    HW2 5130   1.627   3.367   6.258
 1411SOL     OW 5131   2.858   6.694   1.507
 1411SOL    HW1 5132   2.843   6.728   1.600
 1411SOL    HW2 5133   2.857   6.594   1.508
 1412SOL     OW 5134   0.188   2.320   0.602
 1412SOL    HW1 5135   0.185   2.339   0.700
 1412SOL    HW2 5136   0.255   2.381   0.558
 1413SOL     OW 5137   1.494   1.765   5.456
 1413SOL    HW1 5138   1.482   1.838   5.523
 1413SOL    HW2 5139   1.591   1.756   5.433
 1414SOL     OW 5140   2.217   1.491   2.155
 1414SOL    HW1 5141   2.265   1.489   2.067
 1414SOL    HW2 5142   2.123   1.459   2.142
 1415SOL     OW 5143   2.226   0.485   4.571
 1415SOL    HW1 5144   2.318   0.525   4.574
 1415SOL    HW2 5145   2.159   0.556   4.592
 1416SOL     OW 5146   4.899   5.046   4.508
 1416SOL    HW1 5147   4.971   5.115   4.501
 1416SOL    HW2 5148   4.823   5.083   4.563
 1417SOL     OW 5149   2.697   2.220   0.335
 1417SOL    HW1 5150   2.793   2.201   0.315
 1417SOL    HW2 5151   2.644   2.220   0.250
 1418SOL     OW 5152   2.853   3.600   3.864
 1418SOL    HW1 5153   2.939   3.650   3.851
 1418SOL    HW2 5154   2.784   3.636   3.802
 1419SOL     OW 5155   2.375   5.864   4.830
 1419SOL    HW1 5156   2.279   5.851   4.854
 1419SOL    HW2 5157   2.388   5.957   4.796
 1420SOL     OW 5158   2.543   0.034   1.032
 1420SOL    HW1 5159   2.459   0.045   1.085
 1420SOL    HW2 5160   2.558   6.965   1.013
 1421SOL     OW 5161   1.919   3.975   3.331
 1421SOL    HW1 5162   1.884   4.069   3.326
 1421SOL    HW2 5163   1.925   3.947   3.427
 1422SOL     OW 5164   1.245   3.775   1.543
 1422SOL    HW1 5165   1.292   3.687   1.529
 1422SOL    HW2 5166   1.287   3.845   1.485
 1423SOL     OW 5167   5.643   6.339   2.837
 1423SOL    HW1 5168   5.714   6.402   2.869
 1423SOL    HW2 5169   5.592   6.303   2.915
 1424SOL     OW 5170   6.467   5.633   6.223
 1424SOL    HW1 5171   6.528   5.713   6.226
 1424SOL    HW2 5172   6.518   5.552   6.250
 1425SOL     OW 5173   1.113   6.433   4.842
 1425SOL    HW1 5174   1.200   6.435   4.890
 1425SOL    HW2 5175   1.048   6.376   4.893
 1426SOL     OW 5176   1.955   3.356   6.397
 1426SOL    HW1 5177   1.955   3.306   6.484
 1426SOL    HW2 5178   1.879   3.325   6.340
 1427SOL     OW 5179   0.210   6.837   3.693
 1427SOL    HW1 5180   0.192   6.935   3.703
 1427SOL    HW2 5181   0.303   6.816   3.723
 1428SOL     OW 5182   6.474   3.305   0.672
 1428SOL    HW1 5183   6.573   3.322   0.668
 1428SOL    HW2 5184   6.444   3.308   0.767
 1429SOL     OW 5185   4.915   2.198   0.032
 1429SOL    HW1 5186   4.815   2.196   0.027
 1429SOL    HW2 5187   4.950   2.105   0.030
 1430SOL     OW 5188   1.759   3.991   3.856
 1430SOL    HW1 5189   1.855   3.979   3.880
 1430SOL    HW2 5190   1.737   4.088   3.856
 1431SOL     OW 5191   2.437   2.169   1.126
 1431SOL    HW1 5192   2.488   2.086   1.151
 1431SOL    HW2 5193   2.441   2.182   1.027
 1432SOL     OW 5194   2.764   1.107   2.425
 1432SOL    HW1 5195   2.751   1.043   2.349
 1432SOL    HW2 5196   2.859   1.101   2.457
 1433SOL     OW 5197   3.934   0.685   5.516
 1433SOL    HW1 5198   3.893   0.768   5.477
 1433SOL    HW2 5199   4.025   0.707   5.552
 1434SOL     OW 5200   0.225   0.101   5.801
 1434SOL    HW1 5201   0.315   0.061   5.785
 1434SOL    HW2 5202   0.226   0.153   5.887
 1435SOL     OW 5203   5.975   0.186   3.165
 1435SOL    HW1 5204   6.041   0.254   3.133
 1435SOL    HW2 5205   5.970   0.111   3.099
 1436SOL     OW 5206   5.782   3.649   0.320
 1436SOL    HW1 5207   5.821   3.656   0.412
 1436SOL    HW2 5208   5.696   3.599   0.325
 1437SOL     OW 5209   2.994   2.268   3.556
 1437SOL    HW1 5210   2.912   2.296   3.506
 1437SOL    HW2 5211   2.975   2.269   3.654
 1438SOL     OW 5212   3.183   5.995   1.468
 1438SOL    HW1 5213   3.180   5.931   1.390
 1438SOL    HW2 5214   3.215   5.946   1.549
 1439SOL     OW 5215   6.918   5.822   1.414
 1439SOL    HW1 5216   6.970   5.743   1.383
 1439SOL    HW2 5217   6.881   5.803   1.505
 1440SOL     OW 5218   3.254   3.024   6.916
 1440SOL    HW1 5219   3.178   3.027   6.981
 1440SOL    HW2 5220   3.239   2.950   6.850
 1441SOL     OW 5221   6.340   0.644   4.048
 1441SOL    HW1 5222   6.318   0.629   4.144
 1441SOL    HW2 5223   6.256   0.671   3.999
 1442SOL     OW 5224   0.268   6.039   0.281
 1442SOL    HW1 5225   0.216   5.974   0.337
 1442SOL    HW2 5226   0.280   6.003   0.189
 1443SOL     OW 5227   0.666   3.084   3.678
 1443SOL    HW1 5228   0.673   3.142   3.759
 1443SOL    HW2 5229   0.674   3.140   3.596
 1444SOL     OW 5230   4.901   6.054   0.890
 1444SOL    HW1 5231   4.994   6.090   0.899
 1444SOL    HW2 5232   4.905   5.964   0.847
 1445SOL     OW 5233   0.960   2.777   3.366
 1445SOL    HW1 5234   0.975   2.876   3.375
 1445SOL    HW2 5235   1.008   2.730   3.440
 1446SOL     OW 5236   6.194   1.506   0.222
 1446SOL    HW1 5237   6.226   1.454   0.143
 1446SOL    HW2 5238   6.113   1.462   0.260
 1447SOL     OW 5239   5.875   6.009   4.003
 1447SOL    HW1 5240   5.971   6.035   4.012
 1447SOL    HW2 5241   5.851   6.003   3.906
 1448SOL     OW 5242   6.617   3.188   5.458
 1448SOL    HW1 5243   6.669   3.195   5.373
 1448SOL    HW2 5244   6.639   3.266   5.517
 1449SOL     OW 5245   1.734   3.340   5.717
 1449SOL    HW1 5246   1.806   3.305   5.778
 1449SOL    HW2 5247   1.713   3.435   5.741
 1450SOL     OW 5248   1.133   2.157   6.903
 1450SOL    HW1 5249   1.186   2.200   6.829
 1450SOL    HW2 5250   1.155   2.060   6.907
 1451SOL     OW 5251   0.822   5.738   2.424
 1451SOL    HW1 5252   0.728   5.742   2.391
 1451SOL    HW2 5253   0.844   5.822   2.474
 1452SOL     OW 5254   4.374   2.285   5.493
 1452SOL    HW1 5255   4.342   2.306   5.585
 1452SOL    HW2 5256   4.460   2.334   5.476
 1453SOL     OW 5257   0.583   4.289   6.017
 1453SOL    HW1 5258   0.594   4.351   6.095
 1453SOL    HW2 5259   0.655   4.307   5.950
 1454SOL     OW 5260   0.484   2.598   2.224
 1454SOL    HW1 5261   0.476   2.498   2.225
 1454SOL    HW2 5262   0.504   2.630   2.132
 1455SOL     OW 5263   1.608   6.676   2.119
 1455SOL    HW1 5264   1.624   6.659   2.022
 1455SOL    HW2 5265   1.613   6.775   2.137
 1456SOL     OW 5266   6.341   0.325   6.484
 1456SOL    HW1 5267   6.279   0.312   6.406
 1456SOL    HW2 5268   6.411   0.392   6.459
 1457SOL     OW 5269   0.849   6.322   1.141
 1457SOL    HW1 5270   0.922   6.315   1.208
 1457SOL    HW2 5271   0.837   6.418   1.114
 1458SOL     OW 5272   5.997   5.140   4.647
 1458SOL    HW1 5273   5.980   5.042   4.656
 1458SOL    HW2 5274   5.994   5.166   4.550
 1459SOL     OW 5275   3.941   6.727   5.673
 1459SOL    HW1 5276   3.981   6.818   5.660
 1459SOL    HW2 5277   3.858   6.734   5.728
 1460SOL     OW 5278   0.834   0.288   4.984
 1460SOL    HW1 5279   0.741   0.286   5.021
 1460SOL    HW2 5280   0.894   0.335   5.048
 1461SOL     OW 5281   6.840   4.267   2.747
 1461SOL    HW1 5282   6.748   4.243   2.715
 1461SOL    HW2 5283   6.895   4.297   2.670
 1462SOL     OW 5284   1.713   1.222   6.585
 1462SOL    HW1 5285   1.702   1.251   6.680
 1462SOL    HW2 5286   1.739   1.301   6.529
 1463SOL     OW 5287   0.453   5.722   5.865
 1463SOL    HW1 5288   0.372   5.678   5.827
 1463SOL    HW2 5289   0.532   5.703   5.805
 1464SOL     OW 5290   0.240   6.109   1.971
 1464SOL    HW1 5291   0.159   6.162   1.998
 1464SOL    HW2 5292   0.213   6.017   1.945
 1465SOL     OW 5293   1.500   1.029   4.091
 1465SOL    HW1 5294   1.475   0.939   4.127
 1465SOL    HW2 5295   1.597   1.031   4.071
 1466SOL     OW 5296   2.551   1.559   2.569
 1466SOL    HW1 5297   2.579   1.641   2.519
 1466SOL    HW2 5298   2.452   1.551   2.566
 1467SOL     OW 5299   2.037   1.346   3.647
 1467SOL    HW1 5300   1.962   1.286   3.617
 1467SOL    HW2 5301   2.107   1.291   3.692
 1468SOL     OW 5302   2.230   5.345   2.363
 1468SOL    HW1 5303   2.281   5.430   2.376
 1468SOL    HW2 5304   2.177   5.325   2.445
 1469SOL     OW 5305   6.945   0.523   2.786
 1469SOL    HW1 5306   6.935   0.434   2.830
 1469SOL    HW2 5307   6.940   0.596   2.855
 1470SOL     OW 5308   1.094   1.816   2.119
 1470SOL    HW1 5309   1.112   1.896   2.176
 1470SOL    HW2 5310   1.066   1.846   2.028
 1471SOL     OW 5311   0.666   0.214   0.765
 1471SOL    HW1 5312   0.732   0.203   0.839
 1471SOL    HW2 5313   0.700   0.281   0.699
 1472SOL     OW 5314   2.228   5.743   5.849
 1472SOL    HW1 5315   2.244   5.778   5.941
 1472SOL    HW2 5316   2.243   5.816   5.782
 1473SOL     OW 5317   3.449   5.375   5.687
 1473SOL    HW1 5318   3.396   5.291   5.672
 1473SOL    HW2 5319   3.406   5.450   5.638
 1474SOL     OW 5320   4.980   4.803   1.653
 1474SOL    HW1 5321   4.963   4.763   1.563
 1474SOL    HW2 5322   4.899   4.791   1.711
 1475SOL     OW 5323   5.171   0.730   1.222
 1475SOL    HW1 5324   5.120   0.651   1.255
 1475SOL    HW2 5325   5.135   0.758   1.133
 1476SOL     OW 5326   2.707   0.973   1.471
 1476SOL    HW1 5327   2.658   1.059   1.452
 1476SOL    HW2 5328   2.802   0.983   1.441
 1477SOL     OW 5329   3.505   6.633   6.026
 1477SOL    HW1 5330   3.518   6.665   6.120
 1477SOL    HW2 5331   3.443   6.554   6.027
 1478SOL     OW 5332   6.189   5.676   5.382
 1478SOL    HW1 5333   6.117   5.653   5.317
 1478SOL    HW2 5334   6.274   5.633   5.354
 1479SOL     OW 5335   2.527   3.028   1.237
 1479SOL    HW1 5336   2.494   3.120   1.213
 1479SOL    HW2 5337   2.624   3.021   1.211
 1480SOL     OW 5338   2.983   0.129   4.750
 1480SOL    HW1 5339   3.053   0.198   4.733
 1480SOL    HW2 5340   2.898   0.174   4.779
 1481SOL     OW 5341   6.072   3.092   6.402
 1481SOL    HW1 5342   6.099   3.005   6.361
 1481SOL    HW2 5343   6.151   3.133   6.448
 1482SOL     OW 5344   4.685   0.875   1.592
 1482SOL    HW1 5345   4.765   0.864   1.534
 1482SOL    HW2 5346   4.703   0.946   1.660
 1483SOL     OW 5347   5.264   2.616   5.562
 1483SOL    HW1 5348   5.175   2.607   5.608
 1483SOL    HW2 5349   5.263   2.698   5.505
 1484SOL     OW 5350   4.773   5.126   4.122
 1484SOL    HW1 5351   4.850   5.174   4.164
 1484SOL    HW2 5352   4.766   5.150   4.025
 1485SOL     OW 5353   4.636   0.777   4.630
 1485SOL    HW1 5354   4.598   0.868   4.612
 1485SOL    HW2 5355   4.704   0.784   4.704
 1486SOL     OW 5356   5.613   0.649   3.286
 1486SOL    HW1 5357   5.622   0.617   3.192
 1486SOL    HW2 5358   5.687   0.713   3.307
 1487SOL     OW 5359   0.480   2.313   0.013
 1487SOL    HW1 5360   0.424   2.259   6.978
 1487SOL    HW2 5361   0.500   2.259   0.095
 1488SOL     OW 5362   5.405   6.982   3.775
 1488SOL    HW1 5363   5.488   7.005   3.826
 1488SOL    HW2 5364   5.423   6.987   3.677
 1489SOL     OW 5365   4.131   5.284   6.386
 1489SOL    HW1 5366   4.147   5.260   6.481
 1489SOL    HW2 5367   4.139   5.383   6.374
 1490SOL     OW 5368   0.220   3.482   0.911
 1490SOL    HW1 5369   0.189   3.387   0.913
 1490SOL    HW2 5370   0.228   3.517   1.004
 1491SOL     OW 5371   6.540   4.622   2.429
 1491SOL    HW1 5372   6.615   4.687   2.430
 1491SOL    HW2 5373   6.453   4.672   2.428
 1492SOL     OW 5374   6.359   0.079   2.358
 1492SOL    HW1 5375   6.376   0.161   2.412
 1492SOL    HW2 5376   6.398   0.090   2.266
 1493SOL     OW 5377   3.738   6.940   6.490
 1493SOL    HW1 5378   3.776   7.024   6.451
 1493SOL    HW2 5379   3.667   6.963   6.557
 1494SOL     OW 5380   4.992   2.356   6.307
 1494SOL    HW1 5381   5.053   2.433   6.328
 1494SOL    HW2 5382   4.937   2.335   6.388
 1495SOL     OW 5383   0.493   3.845   5.245
 1495SOL    HW1 5384   0.477   3.813   5.338
 1495SOL    HW2 5385   0.525   3.940   5.247
 1496SOL     OW 5386   1.114   1.234   0.775
 1496SOL    HW1 5387   1.204   1.269   0.750
 1496SOL    HW2 5388   1.116   1.199   0.869
 1497SOL     OW 5389   5.287   2.782   2.529
 1497SOL    HW1 5390   5.357   2.836   2.575
 1497SOL    HW2 5391   5.208   2.840   2.509
 1498SOL     OW 5392   2.716   4.455   6.676
 1498SOL    HW1 5393   2.725   4.550   6.706
 1498SOL    HW2 5394   2.646   4.409   6.731
 1499SOL     OW 5395   0.634   2.587   5.619
 1499SOL    HW1 5396   0.583   2.594   5.533
 1499SOL    HW2 5397   0.716   2.644   5.614
 1500SOL     OW 5398   0.559   6.827   0.097
 1500SOL    HW1 5399   0.521   6.800   0.008
 1500SOL    HW2 5400   0.625   6.757   0.126
 1501SOL     OW 5401   5.419   2.241   6.543
 1501SOL    HW1 5402   5.372   2.238   6.455
 1501SOL    HW2 5403   5.380   2.312   6.600
 1502SOL     OW 5404   4.401   0.590   6.778
 1502SOL    HW1 5405   4.420   0.620   6.872
 1502SOL    HW2 5406   4.433   0.496   6.767
 1503SOL     OW 5407   1.382   2.814   2.277
 1503SOL    HW1 5408   1.331   2.874   2.338
 1503SOL    HW2 5409   1.319   2.755   2.227
 1504SOL     OW 5410   0.632   0.723   4.057
 1504SOL    HW1 5411   0.724   0.744   4.023
 1504SOL    HW2 5412   0.612   0.627   4.040
 1505SOL     OW 5413   4.273   0.561   5.346
 1505SOL    HW1 5414   4.333   0.561   5.266
 1505SOL    HW2 5415   4.195   0.621   5.328
 1506SOL     OW 5416   0.891   6.357   0.407
 1506SOL    HW1 5417   0.950   6.432   0.439
 1506SOL    HW2 5418   0.833   6.390   0.333
 1507SOL     OW 5419   0.121   1.963   5.939
 1507SOL    HW1 5420   0.195   1.967   5.872
 1507SOL    HW2 5421   0.076   2.052   5.943
 1508SOL     OW 5422   6.122   1.082   0.697
 1508SOL    HW1 5423   6.046   1.146   0.705
 1508SOL    HW2 5424   6.135   1.033   0.783
 1509SOL     OW 5425   4.521   2.021   4.778
 1509SOL    HW1 5426   4.485   2.114   4.765
 1509SOL    HW2 5427   4.567   2.015   4.866
 1510SOL     OW 5428   5.027   0.263   4.716
 1510SOL    HW1 5429   4.954   0.225   4.660
 1510SOL    HW2 5430   5.112   0.214   4.699
 1511SOL     OW 5431   4.062   3.293   3.865
 1511SOL    HW1 5432   3.963   3.290   3.878
 1511SOL    HW2 5433   4.106   3.325   3.949
 1512SOL     OW 5434   6.271   5.870   0.981
 1512SOL    HW1 5435   6.188   5.839   1.027
 1512SOL    HW2 5436   6.351   5.845   1.035
 1513SOL     OW 5437   3.712   0.749   4.725
 1513SOL    HW1 5438   3.792   0.809   4.726
 1513SOL    HW2 5439   3.739   0.659   4.691
 1514SOL     OW 5440   3.852   2.900   5.378
 1514SOL    HW1 5441   3.872   2.802   5.376
 1514SOL    HW2 5442   3.938   2.951   5.385
 1515SOL     OW 5443   5.284   2.369   1.968
 1515SOL    HW1 5444   5.286   2.299   1.896
 1515SOL    HW2 5445   5.345   2.342   2.042
 1516SOL     OW 5446   6.203   5.562   5.834
 1516SOL    HW1 5447   6.221   5.522   5.744
 1516SOL    HW2 5448   6.288   5.594   5.874
 1517SOL     OW 5449   4.232   5.926   2.524
 1517SOL    HW1 5450   4.302   5.997   2.512
 1517SOL    HW2 5451   4.178   5.945   2.606
 1518SOL     OW 5452   0.261   2.130   0.199
 1518SOL    HW1 5453   0.262   2.067   0.276
 1518SOL    HW2 5454   0.354   2.159   0.178
 1519SOL     OW 5455   6.329   4.518   1.432
 1519SOL    HW1 5456   6.236   4.482   1.431
 1519SOL    HW2 5457   6.380   4.476   1.507
 1520SOL     OW 5458   0.473   4.454   1.741
 1520SOL    HW1 5459   0.462   4.362   1.702
 1520SOL    HW2 5460   0.444   4.453   1.837
 1521SOL     OW 5461   2.271   4.633   6.211
 1521SOL    HW1 5462   2.187   4.588   6.243
 1521SOL    HW2 5463   2.282   4.720   6.258
 1522SOL     OW 5464   5.685   6.138   4.874
 1522SOL    HW1 5465   5.650   6.048   4.899
 1522SOL    HW2 5466   5.749   6.170   4.944
 1523SOL     OW 5467   4.086   6.583   0.006
 1523SOL    HW1 5468   4.034   6.537   0.077
 1523SOL    HW2 5469   4.181   6.597   0.037
 1524SOL     OW 5470   2.198   1.898   2.523
 1524SOL    HW1 5471   2.207   1.997   2.523
 1524SOL    HW2 5472   2.234   1.860   2.608
 1525SOL     OW 5473   6.488   3.720   0.690
 1525SOL    HW1 5474   6.585   3.701   0.706
 1525SOL    HW2 5475   6.461   3.681   0.602
 1526SOL     OW 5476   6.922   1.088   6.729
 1526SOL    HW1 5477   6.888   1.062   6.819
 1526SOL    HW2 5478   7.015   1.125   6.738
 1527SOL     OW 5479   3.988   1.583   4.613
 1527SOL    HW1 5480   4.037   1.670   4.625
 1527SOL    HW2 5481   3.930   1.566   4.693
 1528SOL     OW 5482   3.602   4.881   2.895
 1528SOL    HW1 5483   3.618   4.786   2.923
 1528SOL    HW2 5484   3.563   4.932   2.972
 1529SOL     OW 5485   4.194   0.367   0.082
 1529SOL    HW1 5486   4.178   0.290   0.145
 1529SOL    HW2 5487   4.177   0.453   0.131
 1530SOL     OW 5488   4.105   1.593   2.196
 1530SOL    HW1 5489   4.184   1.634   2.152
 1530SOL    HW2 5490   4.056   1.536   2.130
 1531SOL     OW 5491   4.650   0.024   5.548
 1531SOL    HW1 5492   4.639   0.122   5.531
 1531SOL    HW2 5493   4.687   7.007   5.467
 1532SOL     OW 5494   3.594   4.328   6.186
 1532SOL    HW1 5495   3.499   4.358   6.181
 1532SOL    HW2 5496   3.629   4.342   6.279
 1533SOL     OW 5497   6.201   5.135   0.063
 1533SOL    HW1 5498   6.136   5.151   0.137
 1533SOL    HW2 5499   6.151   5.107   7.009
 1534SOL     OW 5500   2.998   6.005   6.786
 1534SOL    HW1 5501   3.036   5.924   6.742
 1534SOL    HW2 5502   3.011   6.084   6.726
 1535SOL     OW 5503   4.877   6.159   4.427
 1535SOL    HW1 5504   4.918   6.190   4.342
 1535SOL    HW2 5505   4.849   6.064   4.418
 1536SOL     OW 5506   3.651   4.659   6.191
 1536SOL    HW1 5507   3.555   4.674   6.170
 1536SOL    HW2 5508   3.689   4.593   6.126
 1537SOL     OW 5509   4.031   6.036   3.966
 1537SOL    HW1 5510   4.011   5.939   3.956
 1537SOL    HW2 5511   4.123   6.048   4.003
 1538SOL     OW 5512   3.038   7.023   6.541
 1538SOL    HW1 5513   3.062   0.032   6.451
 1538SOL    HW2 5514   3.078   0.053   6.613
 1539SOL     OW 5515   4.946   3.449   2.085
 1539SOL    HW1 5516   5.029   3.473   2.034
 1539SOL    HW2 5517   4.887   3.393   2.028
 1540SOL     OW 5518   0.380   6.757   5.192
 1540SOL    HW1 5519   0.373   6.658   5.206
 1540SOL    HW2 5520   0.353   6.805   5.276
 1541SOL     OW 5521   3.206   2.962   4.356
 1541SOL    HW1 5522   3.299   2.957   4.392
 1541SOL    HW2 5523   3.177   2.872   4.325
 1542SOL     OW 5524   6.490   0.367   2.238
 1542SOL    HW1 5525   6.551   0.442   2.215
 1542SOL    HW2 5526   6.443   0.386   2.325
 1543SOL     OW 5527   3.503   4.893   5.224
 1543SOL    HW1 5528   3.504   4.944   5.310
 1543SOL    HW2 5529   3.479   4.955   5.149
 1544SOL     OW 5530   2.994   3.266   2.676
 1544SOL    HW1 5531   2.980   3.358   2.713
 1544SOL    HW2 5532   3.024   3.205   2.750
 1545SOL     OW 5533   4.998   0.605   2.883
 1545SOL    HW1 5534   4.970   0.510   2.867
 1545SOL    HW2 5535   5.069   0.607   2.953
 1546SOL     OW 5536   4.196   6.980   5.419
 1546SOL    HW1 5537   4.286   6.975   5.376
 1546SOL    HW2 5538   4.136   0.010   5.365
 1547SOL     OW 5539   1.988   4.029   1.655
 1547SOL    HW1 5540   2.037   3.942   1.661
 1547SOL    HW2 5541   1.975   4.054   1.559
 1548SOL     OW 5542   5.563   4.106   6.559
 1548SOL    HW1 5543   5.515   4.120   6.473
 1548SOL    HW2 5544   5.497   4.082   6.631
 1549SOL     OW 5545   4.405   2.218   1.694
 1549SOL    HW1 5546   4.428   2.195   1.600
 1549SOL    HW2 5547   4.348   2.301   1.695
 1550SOL     OW 5548   2.436   3.607   0.473
 1550SOL    HW1 5549   2.340   3.634   0.473
 1550SOL    HW2 5550   2.464   3.583   0.380
 1551SOL     OW 5551   1.913   4.247   6.372
 1551SOL    HW1 5552   1.991   4.291   6.415
 1551SOL    HW2 5553   1.944   4.191   6.296
 1552SOL     OW 5554   2.089   5.356   0.812
 1552SOL    HW1 5555   2.098   5.449   0.847
 1552SOL    HW2 5556   2.134   5.350   0.723
 1553SOL     OW 5557   6.698   1.485   6.810
 1553SOL    HW1 5558   6.693   1.440   6.721
 1553SOL    HW2 5559   6.668   1.580   6.801
 1554SOL     OW 5560   3.793   2.135   3.332
 1554SOL    HW1 5561   3.802   2.037   3.349
 1554SOL    HW2 5562   3.751   2.150   3.243
 1555SOL     OW 5563   5.743   3.100   0.264
 1555SOL    HW1 5564   5.721   3.105   0.166
 1555SOL    HW2 5565   5.677   3.153   0.316
 1556SOL     OW 5566   2.974   2.174   0.205
 1556SOL    HW1 5567   2.964   2.171   0.105
 1556SOL    HW2 5568   3.066   2.204   0.228
 1557SOL     OW 5569   1.767   2.229   5.376
 1557SOL    HW1 5570   1.745   2.323   5.404
 1557SOL    HW2 5571   1.683   2.181   5.352
 1558SOL     OW 5572   5.936   0.789   4.650
 1558SOL    HW1 5573   5.840   0.768   4.667
 1558SOL    HW2 5574   5.991   0.760   4.728
 1559SOL     OW 5575   1.751   3.095   6.803
 1559SOL    HW1 5576   1.785   3.102   6.897
 1559SOL    HW2 5577   1.655   3.121   6.800
 1560SOL     OW 5578   6.600   1.078   5.666
 1560SOL    HW1 5579   6.645   1.163   5.638
 1560SOL    HW2 5580   6.663   1.024   5.723
 1561SOL     OW 5581   6.148   6.406   3.928
 1561SOL    HW1 5582   6.081   6.341   3.892
 1561SOL    HW2 5583   6.156   6.396   4.027
 1562SOL     OW 5584   4.839   5.482   2.255
 1562SOL    HW1 5585   4.848   5.541   2.175
 1562SOL    HW2 5586   4.742   5.467   2.276
 1563SOL     OW 5587   1.965   0.020   5.258
 1563SOL    HW1 5588   2.055   7.020   5.291
 1563SOL    HW2 5589   1.942   6.998   5.175
 1564SOL     OW 5590   1.142   2.076   3.318
 1564SOL    HW1 5591   1.061   2.067   3.375
 1564SOL    HW2 5592   1.117   2.117   3.230
 1565SOL     OW 5593   4.526   4.472   3.690
 1565SOL    HW1 5594   4.598   4.431   3.745
 1565SOL    HW2 5595   4.481   4.545   3.742
 1566SOL     OW 5596   5.922   4.765   2.910
 1566SOL    HW1 5597   5.889   4.671   2.900
 1566SOL    HW2 5598   5.883   4.805   2.993
 1567SOL     OW 5599   6.372   6.052   0.815
 1567SOL    HW1 5600   6.339   5.972   0.865
 1567SOL    HW2 5601   6.439   6.101   0.871
 1568SOL     OW 5602   1.356   6.564   6.873
 1568SOL    HW1 5603   1.340   6.626   6.796
 1568SOL    HW2 5604   1.365   6.471   6.838
 1569SOL     OW 5605   4.716   6.152   3.312
 1569SOL    HW1 5606   4.715   6.088   3.389
 1569SOL    HW2 5607   4.740   6.243   3.345
 1570SOL     OW 5608   1.985   0.452   1.400
 1570SOL    HW1 5609   2.082   0.473   1.409
 1570SOL    HW2 5610   1.961   0.446   1.303
 1571SOL     OW 5611   5.446   2.481   0.801
 1571SOL    HW1 5612   5.398   2.451   0.719
 1571SOL    HW2 5613   5.439   2.581   0.809
 1572SOL     OW 5614   0.220   6.611   0.918
 1572SOL    HW1 5615   0.287   6.582   0.850
 1572SOL    HW2 5616   0.256   6.594   1.009
 1573SOL     OW 5617   5.582   2.368   2.638
 1573SOL    HW1 5618   5.507   2.382   2.703
 1573SOL    HW2 5619   5.562   2.418   2.554
 1574SOL     OW 5620   6.353   0.758   1.925
 1574SOL    HW1 5621   6.367   0.677   1.983
 1574SOL    HW2 5622   6.268   0.804   1.952
 1575SOL     OW 5623   3.194   1.393   0.860
 1575SOL    HW1 5624   3.291   1.377   0.881
 1575SOL    HW2 5625   3.186   1.432   0.768
 1576SOL     OW 5626   0.446   6.661   3.596
 1576SOL    HW1 5627   0.470   6.758   3.592
 1576SOL    HW2 5628   0.511   6.612   3.654
 1577SOL     OW 5629   3.233   2.197   4.380
 1577SOL    HW1 5630   3.202   2.249   4.460
 1577SOL    HW2 5631   3.193   2.237   4.298
 1578SOL     OW 5632   6.357   3.291   5.918
 1578SOL    HW1 5633   6.422   3.288   5.995
 1578SOL    HW2 5634   6.389   3.357   5.850
 1579SOL     OW 5635   6.978   1.592   2.722
 1579SOL    HW1 5636   6.908   1.652   2.762
 1579SOL    HW2 5637   0.032   1.594   2.778
 1580SOL     OW 5638   2.695   3.687   5.475
 1580SOL    HW1 5639   2.718   3.633   5.555
 1580SOL    HW2 5640   2.764   3.674   5.404
 1581SOL     OW 5641   0.497   4.315   5.132
 1581SOL    HW1 5642   0.452   4.280   5.050
 1581SOL    HW2 5643   0.564   4.384   5.106
 1582SOL     OW 5644   1.563   6.555   4.321
 1582SOL    HW1 5645   1.564   6.636   4.379
 1582SOL    HW2 5646   1.616   6.573   4.238
 1583SOL     OW 5647   0.926   4.413   3.754
 1583SOL    HW1 5648   1.002   4.398   3.816
 1583SOL    HW2 5649   0.886   4.326   3.727
 1584SOL     OW 5650   1.328   6.455   4.620
 1584SOL    HW1 5651   1.283   6.542   4.599
 1584SOL    HW2 5652   1.282   6.381   4.570
 1585SOL     OW 5653   5.956   1.286   3.744
 1585SOL    HW1 5654   5.985   1.374   3.781
 1585SOL    HW2 5655   5.879   1.299   3.682
 1586SOL     OW 5656   3.198   4.116   0.780
 1586SOL    HW1 5657   3.275   4.141   0.838
 1586SOL    HW2 5658   3.214   4.148   0.686
 1587SOL     OW 5659   2.658   5.631   6.938
 1587SOL    HW1 5660   2.676   5.723   6.905
 1587SOL    HW2 5661   2.704   5.616   7.025
 1588SOL     OW 5662   5.405   1.575   2.826
 1588SOL    HW1 5663   5.382   1.627   2.743
 1588SOL    HW2 5664   5.379   1.479   2.814
 1589SOL     OW 5665   6.362   4.038   2.621
 1589SOL    HW1 5666   6.302   3.958   2.629
 1589SOL    HW2 5667   6.348   4.081   2.533
 1590SOL     OW 5668   2.483   6.644   6.373
 1590SOL    HW1 5669   2.452   6.554   6.403
 1590SOL    HW2 5670   2.577   6.659   6.402
 1591SOL     OW 5671   0.917   4.866   2.665
 1591SOL    HW1 5672   0.848   4.847   2.735
 1591SOL    HW2 5673   0.873   4.911   2.587
 1592SOL     OW 5674   2.419   4.446   1.308
 1592SOL    HW1 5675   2.359   4.368   1.327
 1592SOL    HW2 5676   2.400   4.519   1.373
 1593SOL     OW 5677   0.809   6.195   3.911
 1593SOL    HW1 5678   0.835   6.283   3.873
 1593SOL    HW2 5679   0.727   6.206   3.968
 1594SOL     OW 5680   6.904   5.899   2.854
 1594SOL    HW1 5681   6.957   5.895   2.769
 1594SOL    HW2 5682   6.947   5.964   2.917
 1595SOL     OW 5683   1.004   5.209   6.918
 1595SOL    HW1 5684   0.990   5.234   6.822
 1595SOL    HW2 5685   1.020   5.292   6.972
 1596SOL     OW 5686   0.763   3.015   4.629
 1596SOL    HW1 5687   0.840   3.030   4.568
 1596SOL    HW2 5688   0.728   3.104   4.660
 1597SOL     OW 5689   2.539   5.873   0.090
 1597SOL    HW1 5690   2.638   5.861   0.099
 1597SOL    HW2 5691   2.519   5.965   0.056
 1598SOL     OW 5692   0.853   3.645   0.479
 1598SOL    HW1 5693   0.800   3.561   0.465
 1598SOL    HW2 5694   0.914   3.660   0.402
 1599SOL     OW 5695   5.166   4.088   5.656
 1599SOL    HW1 5696   5.222   4.171   5.648
 1599SOL    HW2 5697   5.191   4.024   5.583
 1600SOL     OW 5698   5.041   1.954   5.198
 1600SOL    HW1 5699   5.031   1.986   5.104
 1600SOL    HW2 5700   4.977   1.879   5.215
 1601SOL     OW 5701   0.233   4.772   4.304
 1601SOL    HW1 5702   0.308   4.738   4.248
 1601SOL    HW2 5703   0.253   4.865   4.333
 1602SOL     OW 5704   2.012   5.212   4.113
 1602SOL    HW1 5705   2.023   5.262   4.199
 1602SOL    HW2 5706   2.100   5.173   4.086
 1603SOL     OW 5707   0.262   5.900   2.296
 1603SOL    HW1 5708   0.269   5.968   2.369
 1603SOL    HW2 5709   0.330   5.920   2.225
 1604SOL     OW 5710   6.159   4.558   6.688
 1604SOL    HW1 5711   6.178   4.496   6.764
 1604SOL    HW2 5712   6.061   4.556   6.667
 1605SOL     OW 5713   6.286   6.279   2.589
 1605SOL    HW1 5714   6.345   6.202   2.564
 1605SOL    HW2 5715   6.308   6.308   2.682
 1606SOL     OW 5716   3.260   0.407   5.009
 1606SOL    HW1 5717   3.329   0.362   5.066
 1606SOL    HW2 5718   3.259   0.364   4.919
 1607SOL     OW 5719   4.348   2.621   0.588
 1607SOL    HW1 5720   4.392   2.709   0.607
 1607SOL    HW2 5721   4.250   2.629   0.602
 1608SOL     OW 5722   1.504   0.853   5.182
 1608SOL    HW1 5723   1.534   0.890   5.270
 1608SOL    HW2 5724   1.422   0.797   5.195
 1609SOL     OW 5725   4.453   0.617   0.027
 1609SOL    HW1 5726   4.478   0.572   0.113
 1609SOL    HW2 5727   4.453   0.716   0.041
 1610SOL     OW 5728   6.238   4.053   5.556
 1610SOL    HW1 5729   6.234   3.986   5.629
 1610SOL    HW2 5730   6.147   4.063   5.515
 1611SOL     OW 5731   3.054   3.517   1.671
 1611SOL    HW1 5732   2.962   3.541   1.702
 1611SOL    HW2 5733   3.079   3.427   1.708
 1612SOL     OW 5734   3.003   1.192   5.341
 1612SOL    HW1 5735   3.033   1.270   5.285
 1612SOL    HW2 5736   2.917   1.156   5.304
 1613SOL     OW 5737   1.898   6.329   1.981
 1613SOL    HW1 5738   1.843   6.277   2.047
 1613SOL    HW2 5739   1.969   6.269   1.943
 1614SOL     OW 5740   6.595   3.778   0.367
 1614SOL    HW1 5741   6.568   3.858   0.314
 1614SOL    HW2 5742   6.513   3.727   0.393
 1615SOL     OW 5743   6.165   4.720   0.511
 1615SOL    HW1 5744   6.216   4.736   0.426
 1615SOL    HW2 5745   6.155   4.622   0.525
 1616SOL     OW 5746   4.181   2.080   5.588
 1616SOL    HW1 5747   4.126   2.155   5.624
 1616SOL    HW2 5748   4.259   2.116   5.536
 1617SOL     OW 5749   6.192   6.659   1.381
 1617SOL    HW1 5750   6.229   6.752   1.385
 1617SOL    HW2 5751   6.244   6.605   1.314
 1618SOL     OW 5752   1.098   3.633   0.920
 1618SOL    HW1 5753   1.060   3.574   0.992
 1618SOL    HW2 5754   1.022   3.678   0.872
 1619SOL     OW 5755   1.098   1.765   3.644
 1619SOL    HW1 5756   1.138   1.682   3.683
 1619SOL    HW2 5757   1.171   1.826   3.612
 1620SOL     OW 5758   2.082   5.920   0.872
 1620SOL    HW1 5759   2.078   5.894   0.968
 1620SOL    HW2 5760   2.170   5.963   0.852
 1621SOL     OW 5761   0.892   1.378   0.251
 1621SOL    HW1 5762   0.851   1.360   0.161
 1621SOL    HW2 5763   0.980   1.330   0.257
 1622SOL     OW 5764   0.878   2.655   4.328
 1622SOL    HW1 5765   0.782   2.650   4.355
 1622SOL    HW2 5766   0.936   2.619   4.401
 1623SOL     OW 5767   2.632   3.249   5.746
 1623SOL    HW1 5768   2.570   3.311   5.698
 1623SOL    HW2 5769   2.622   3.262   5.845
 1624SOL     OW 5770   3.455   1.006   5.812
 1624SOL    HW1 5771   3.495   0.993   5.721
 1624SOL    HW2 5772   3.370   1.058   5.804
 1625SOL     OW 5773   1.537   5.795   2.125
 1625SOL    HW1 5774   1.487   5.724   2.076
 1625SOL    HW2 5775   1.474   5.867   2.153
 1626SOL     OW 5776   2.855   2.065   6.676
 1626SOL    HW1 5777   2.849   2.144   6.615
 1626SOL    HW2 5778   2.860   2.096   6.771
 1627SOL     OW 5779   6.426   2.239   4.154
 1627SOL    HW1 5780   6.390   2.223   4.063
 1627SOL    HW2 5781   6.434   2.338   4.170
 1628SOL     OW 5782   4.319   4.917   0.313
 1628SOL    HW1 5783   4.242   4.921   0.378
 1628SOL    HW2 5784   4.287   4.876   0.228
 1629SOL     OW 5785   2.906   2.018   4.332
 1629SOL    HW1 5786   2.923   2.114   4.312
 1629SOL    HW2 5787   2.808   2.001   4.331
 1630SOL     OW 5788   1.250   6.454   5.599
 1630SOL    HW1 5789   1.280   6.528   5.659
 1630SOL    HW2 5790   1.194   6.389   5.651
 1631SOL     OW 5791   0.204   1.361   6.284
 1631SOL    HW1 5792   0.119   1.308   6.285
 1631SOL    HW2 5793   0.200   1.427   6.209
 1632SOL     OW 5794   7.023   1.554   7.017
 1632SOL    HW1 5795   7.026   1.626   0.058
 1632SOL    HW2 5796   7.002   1.594   6.928
 1633SOL     OW 5797   5.070   1.938   3.866
 1633SOL    HW1 5798   5.077   2.026   3.818
 1633SOL    HW2 5799   4.977   1.925   3.898
 1634SOL     OW 5800   4.358   5.093   5.840
 1634SOL    HW1 5801   4.449   5.061   5.867
 1634SOL    HW2 5802   4.337   5.179   5.888
 1635SOL     OW 5803   6.335   5.408   5.324
 1635SOL    HW1 5804   6.404   5.414   5.251
 1635SOL    HW2 5805   6.316   5.312   5.344
 1636SOL     OW 5806   2.461   3.852   1.520
 1636SOL    HW1 5807   2.513   3.781   1.472
 1636SOL    HW2 5808   2.387   3.810   1.572
 1637SOL     OW 5809   0.150   0.437   2.980
 1637SOL    HW1 5810   0.214   0.424   3.056
 1637SOL    HW2 5811   0.096   0.354   2.969
 1638SOL     OW 5812   0.588   4.303   4.425
 1638SOL    HW1 5813   0.494   4.328   4.447
 1638SOL    HW2 5814   0.624   4.364   4.355
 1639SOL     OW 5815   4.431   0.082   2.974
 1639SOL    HW1 5816   4.509   0.025   2.951
 1639SOL    HW2 5817   4.367   0.028   3.030
 1640SOL     OW 5818   5.731   1.891   1.151
 1640SOL    HW1 5819   5.781   1.927   1.072
 1640SOL    HW2 5820   5.634   1.886   1.130
 1641SOL     OW 5821   5.077   3.004   4.120
 1641SOL    HW1 5822   5.122   2.953   4.047
 1641SOL    HW2 5823   5.003   3.059   4.081
 1642SOL     OW 5824   6.618   3.496   6.880
 1642SOL    HW1 5825   6.595   3.524   6.973
 1642SOL    HW2 5826   6.694   3.431   6.883
 1643SOL     OW 5827   2.407   5.359   4.081
 1643SOL    HW1 5828   2.370   5.267   4.095
 1643SOL    HW2 5829   2.441   5.367   3.987
 1644SOL     OW 5830   1.441   2.451   1.063
 1644SOL    HW1 5831   1.412   2.510   1.138
 1644SOL    HW2 5832   1.449   2.357   1.095
 1645SOL     OW 5833   2.937   6.363   5.408
 1645SOL    HW1 5834   2.952   6.359   5.309
 1645SOL    HW2 5835   2.913   6.456   5.434
 1646SOL     OW 5836   2.602   6.421   1.531
 1646SOL    HW1 5837   2.545   6.352   1.576
 1646SOL    HW2 5838   2.564   6.512   1.549
 1647SOL     OW 5839   5.511   2.489   4.510
 1647SOL    HW1 5840   5.488   2.394   4.489
 1647SOL    HW2 5841   5.540   2.535   4.426
 1648SOL     OW 5842   5.882   6.011   1.086
 1648SOL    HW1 5843   5.907   6.041   0.994
 1648SOL    HW2 5844   5.949   6.045   1.152
 1649SOL     OW 5845   3.796   0.598   3.541
 1649SOL    HW1 5846   3.820   0.695   3.553
 1649SOL    HW2 5847   3.759   0.584   3.450
 1650SOL     OW 5848   2.509   6.764   4.394
 1650SOL    HW1 5849   2.443   6.693   4.370
 1650SOL    HW2 5850   2.463   6.836   4.447
 1651SOL     OW 5851   1.133   1.148   1.613
 1651SOL    HW1 5852   1.120   1.212   1.538
 1651SOL    HW2 5853   1.062   1.162   1.681
 1652SOL     OW 5854   1.602   3.068   1.971
 1652SOL    HW1 5855   1.655   3.108   1.897
 1652SOL    HW2 5856   1.570   2.977   1.944
 1653SOL     OW 5857   0.255   6.661   1.428
 1653SOL    HW1 5858   0.176   6.636   1.483
 1653SOL    HW2 5859   0.280   6.757   1.445
 1654SOL     OW 5860   6.692   2.699   1.897
 1654SOL    HW1 5861   6.634   2.632   1.943
 1654SOL    HW2 5862   6.775   2.713   1.950
 1655SOL     OW 5863   5.657   3.347   5.486
 1655SOL    HW1 5864   5.612   3.394   5.562
 1655SOL    HW2 5865   5.750   3.384   5.474
 1656SOL     OW 5866   1.756   4.406   3.104
 1656SOL    HW1 5867   1.733   4.498   3.136
 1656SOL    HW2 5868   1.680   4.344   3.123
 1657SOL     OW 5869   6.987   0.831   4.346
 1657SOL    HW1 5870   0.051   0.799   4.367
 1657SOL    HW2 5871   6.923   0.800   4.417
 1658SOL     OW 5872   0.604   0.590   2.902
 1658SOL    HW1 5873   0.572   0.552   2.988
 1658SOL    HW2 5874   0.532   0.583   2.833
 1659SOL     OW 5875   3.734   1.562   5.911
 1659SOL    HW1 5876   3.809   1.511   5.954
 1659SOL    HW2 5877   3.684   1.501   5.850
 1660SOL     OW 5878   1.497   4.670   4.075
 1660SOL    HW1 5879   1.576   4.684   4.135
 1660SOL    HW2 5880   1.427   4.738   4.095
 1661SOL     OW 5881   3.164   1.671   1.581
 1661SOL    HW1 5882   3.097   1.730   1.535
 1661SOL    HW2 5883   3.127   1.579   1.588
 1662SOL     OW 5884   6.632   1.285   3.922
 1662SOL    HW1 5885   6.602   1.343   3.997
 1662SOL    HW2 5886   6.593   1.193   3.933
 1663SOL     OW 5887   3.102   1.390   3.052
 1663SOL    HW1 5888   3.048   1.469   3.022
 1663SOL    HW2 5889   3.048   1.336   3.117
 1664SOL     OW 5890   1.611   0.437   3.921
 1664SOL    HW1 5891   1.704   0.459   3.950
 1664SOL    HW2 5892   1.554   0.520   3.927
 1665SOL     OW 5893   6.676   1.517   2.534
 1665SOL    HW1 5894   6.603   1.452   2.512
 1665SOL    HW2 5895   6.757   1.495   2.480
 1666SOL     OW 5896   6.122   3.722   0.577
 1666SOL    HW1 5897   6.145   3.817   0.600
 1666SOL    HW2 5898   6.159   3.700   0.487
 1667SOL     OW 5899   5.354   6.567   0.982
 1667SOL    HW1 5900   5.309   6.638   1.037
 1667SOL    HW2 5901   5.410   6.510   1.041
 1668SOL     OW 5902   5.370   5.740   5.821
 1668SOL    HW1 5903   5.290   5.682   5.805
 1668SOL    HW2 5904   5.356   5.796   5.903
 1669SOL     OW 5905   5.951   6.854   0.475
 1669SOL    HW1 5906   5.897   6.900   0.545
 1669SOL    HW2 5907   6.027   6.805   0.518
 1670SOL     OW 5908   6.676   5.438   6.859
 1670SOL    HW1 5909   6.598   5.461   6.918
 1670SOL    HW2 5910   6.739   5.379   6.910
 1671SOL     OW 5911   4.438   2.405   0.714
 1671SOL    HW1 5912   4.397   2.480   0.662
 1671SOL    HW2 5913   4.389   2.394   0.800
 1672SOL     OW 5914   2.065   4.227   2.422
 1672SOL    HW1 5915   2.118   4.312   2.416
 1672SOL    HW2 5916   2.029   4.203   2.332
 1673SOL     OW 5917   0.650   2.550   4.449
 1673SOL    HW1 5918   0.566   2.537   4.396
 1673SOL    HW2 5919   0.689   2.460   4.472
 1674SOL     OW 5920   0.721   3.795   2.104
 1674SOL    HW1 5921   0.743   3.804   2.007
 1674SOL    HW2 5922   0.781   3.853   2.158
 1675SOL     OW 5923   4.085   0.315   6.349
 1675SOL    HW1 5924   4.167   0.372   6.360
 1675SOL    HW2 5925   4.111   0.226   6.310
 1676SOL     OW 5926   3.303   1.239   2.324
 1676SOL    HW1 5927   3.325   1.259   2.228
 1676SOL    HW2 5928   3.383   1.258   2.381
 1677SOL     OW 5929   4.171   2.820   5.349
 1677SOL    HW1 5930   4.134   2.741   5.301
 1677SOL    HW2 5931   4.171   2.803   5.448
 1678SOL     OW 5932   4.897   4.731   4.592
 1678SOL    HW1 5933   4.840   4.771   4.664
 1678SOL    HW2 5934   4.921   4.801   4.525
 1679SOL     OW 5935   2.069   3.200   4.907
 1679SOL    HW1 5936   2.137   3.169   4.974
 1679SOL    HW2 5937   2.106   3.276   4.854
 1680SOL     OW 5938   0.929   1.944   4.119
 1680SOL    HW1 5939   0.868   2.019   4.145
 1680SOL    HW2 5940   0.938   1.941   4.020
 1681SOL     OW 5941   6.565   6.147   1.181
 1681SOL    HW1 5942   6.551   6.082   1.256
 1681SOL    HW2 5943   6.541   6.239   1.213
 1682SOL     OW 5944   6.664   2.642   4.905
 1682SOL    HW1 5945   6.610   2.649   4.989
 1682SOL    HW2 5946   6.606   2.663   4.827
 1683SOL     OW 5947   3.497   5.707   0.978
 1683SOL    HW1 5948   3.549   5.622   0.985
 1683SOL    HW2 5949   3.558   5.782   0.952
 1684SOL     OW 5950   1.544   6.111   2.779
 1684SOL    HW1 5951   1.579   6.131   2.870
 1684SOL    HW2 5952   1.447   6.133   2.774
 1685SOL     OW 5953   2.841   1.161   6.305
 1685SOL    HW1 5954   2.940   1.170   6.300
 1685SOL    HW2 5955   2.798   1.249   6.283
 1686SOL     OW 5956   1.973   4.890   5.385
 1686SOL    HW1 5957   1.884   4.848   5.367
 1686SOL    HW2 5958   1.987   4.965   5.320
 1687SOL     OW 5959   1.837   3.346   1.361
 1687SOL    HW1 5960   1.832   3.251   1.330
 1687SOL    HW2 5961   1.895   3.399   1.299
 1688SOL     OW 5962   1.219   2.592   3.867
 1688SOL    HW1 5963   1.299   2.645   3.893
 1688SOL    HW2 5964   1.140   2.653   3.857
 1689SOL     OW 5965   4.084   1.136   1.586
 1689SOL    HW1 5966   4.124   1.063   1.530
 1689SOL    HW2 5967   4.057   1.212   1.527
 1690SOL     OW 5968   1.254   2.770   3.557
 1690SOL    HW1 5969   1.269   2.866   3.536
 1690SOL    HW2 5970   1.311   2.744   3.636
 1691SOL     OW 5971   4.859   3.822   3.492
 1691SOL    HW1 5972   4.863   3.794   3.588
 1691SOL    HW2 5973   4.834   3.744   3.435
 1692SOL     OW 5974   6.657   0.143   1.066
 1692SOL    HW1 5975   6.692   0.200   0.992
 1692SOL    HW2 5976   6.614   0.061   1.027
 1693SOL     OW 5977   0.462   2.336   2.180
 1693SOL    HW1 5978   0.555   2.300   2.189
 1693SOL    HW2 5979   0.396   2.267   2.210
 1694SOL     OW 5980   5.000   6.872   4.103
 1694SOL    HW1 5981   5.019   6.877   4.201
 1694SOL    HW2 5982   5.022   6.960   4.060
 1695SOL     OW 5983   2.253   1.381   5.860
 1695SOL    HW1 5984   2.220   1.383   5.955
 1695SOL    HW2 5985   2.200   1.314   5.808
 1696SOL     OW 5986   5.592   5.095   0.228
 1696SOL    HW1 5987   5.536   5.173   0.257
 1696SOL    HW2 5988   5.686   5.126   0.211
 1697SOL     OW 5989   6.279   6.453   2.356
 1697SOL    HW1 5990   6.278   6.421   2.262
 1697SOL    HW2 5991   6.269   6.376   2.418
 1698SOL     OW 5992   4.706   0.944   0.556
 1698SOL    HW1 5993   4.647   0.863   0.559
 1698SOL    HW2 5994   4.660   1.020   0.602
 1699SOL     OW 5995   2.689   0.955   2.075
 1699SOL    HW1 5996   2.641   1.040   2.096
 1699SOL    HW2 5997   2.649   0.880   2.126
 1700SOL     OW 5998   6.365   2.028   3.639
 1700SOL    HW1 5999   6.282   1.989   3.680
 1700SOL    HW2 6000   6.342   2.074   3.554
 1701SOL     OW 6001   4.973   2.952   5.452
 1701SOL    HW1 6002   4.923   2.888   5.394
 1701SOL    HW2 6003   5.056   2.982   5.405
 1702SOL     OW 6004   6.982   3.142   0.682
 1702SOL    HW1 6005   0.037   3.190   0.655
 1702SOL    HW2 6006   6.923   3.129   0.602
 1703SOL     OW 6007   3.643   4.128   3.544
 1703SOL    HW1 6008   3.661   4.213   3.593
 1703SOL    HW2 6009   3.573   4.144   3.474
 1704SOL     OW 6010   0.542   1.583   1.328
 1704SOL    HW1 6011   0.561   1.499   1.379
 1704SOL    HW2 6012   0.522   1.657   1.392
 1705SOL     OW 6013   3.620   2.017   2.173
 1705SOL    HW1 6014   3.530   2.017   2.216
 1705SOL    HW2 6015   3.628   2.095   2.112
 1706SOL     OW 6016   4.252   6.809   1.533
 1706SOL    HW1 6017   4.324   6.879   1.543
 1706SOL    HW2 6018   4.284   6.737   1.471
 1707SOL     OW 6019   4.414   1.499   3.000
 1707SOL    HW1 6020   4.453   1.486   2.909
 1707SOL    HW2 6021   4.340   1.434   3.015
 1708SOL     OW 6022   5.203   5.839   2.141
 1708SOL    HW1 6023   5.127   5.904   2.131
 1708SOL    HW2 6024   5.195   5.793   2.229
 1709SOL     OW 6025   2.552   5.985   1.835
 1709SOL    HW1 6026   2.601   6.045   1.898
 1709SOL    HW2 6027   2.564   5.890   1.862
 1710SOL     OW 6028   5.746   4.596   3.874
 1710SOL    HW1 6029   5.818   4.568   3.938
 1710SOL    HW2 6030   5.690   4.668   3.915
 1711SOL     OW 6031   1.456   4.129   5.079
 1711SOL    HW1 6032   1.433   4.033   5.068
 1711SOL    HW2 6033   1.373   4.183   5.094
 1712SOL     OW 6034   1.251   3.080   6.483
 1712SOL    HW1 6035   1.185   3.145   6.522
 1712SOL    HW2 6036   1.289   3.119   6.399
 1713SOL     OW 6037   3.325   1.886   0.906
 1713SOL    HW1 6038   3.304   1.832   0.825
 1713SOL    HW2 6039   3.400   1.950   0.885
 1714SOL     OW 6040   4.391   1.661   6.071
 1714SOL    HW1 6041   4.331   1.611   6.134
 1714SOL    HW2 6042   4.336   1.727   6.020
 1715SOL     OW 6043   6.711   3.923   2.680
 1715SOL    HW1 6044   6.699   4.014   2.639
 1715SOL    HW2 6045   6.655   3.857   2.632
 1716SOL     OW 6046   5.068   0.041   1.253
 1716SOL    HW1 6047   5.119   0.099   1.317
 1716SOL    HW2 6048   4.971   0.065   1.256
 1717SOL     OW 6049   1.822   6.273   6.855
 1717SOL    HW1 6050   1.807   6.287   6.758
 1717SOL    HW2 6051   1.909   6.226   6.869
 1718SOL     OW 6052   2.010   1.785   0.918
 1718SOL    HW1 6053   2.007   1.689   0.944
 1718SOL    HW2 6054   1.976   1.794   0.824
 1719SOL     OW 6055   2.260   4.234   1.430
 1719SOL    HW1 6056   2.317   4.271   1.504
 1719SOL    HW2 6057   2.164   4.257   1.447
 1720SOL     OW 6058   6.828   1.063   1.334
 1720SOL    HW1 6059   6.891   1.121   1.386
 1720SOL    HW2 6060   6.858   0.968   1.340
 1721SOL     OW 6061   1.055   6.264   2.722
 1721SOL    HW1 6062   0.981   6.210   2.683
 1721SOL    HW2 6063   1.066   6.348   2.669
 1722SOL     OW 6064   4.886   1.313   3.566
 1722SOL    HW1 6065   4.960   1.294   3.630
 1722SOL    HW2 6066   4.909   1.394   3.511
 1723SOL     OW 6067   6.710   2.900   3.121
 1723SOL    HW1 6068   6.687   2.803   3.115
 1723SOL    HW2 6069   6.742   2.933   3.032
 1724SOL     OW 6070   5.488   1.861   1.055
 1724SOL    HW1 6071   5.465   1.792   0.987
 1724SOL    HW2 6072   5.422   1.935   1.052
 1725SOL     OW 6073   2.715   4.924   0.487
 1725SOL    HW1 6074   2.784   4.852   0.489
 1725SOL    HW2 6075   2.647   4.903   0.417
 1726SOL     OW 6076   6.579   4.277   5.273
 1726SOL    HW1 6077   6.499   4.226   5.242
 1726SOL    HW2 6078   6.661   4.243   5.227
 1727SOL     OW 6079   3.815   2.959   4.587
 1727SOL    HW1 6080   3.909   2.943   4.617
 1727SOL    HW2 6081   3.751   2.925   4.656
 1728SOL     OW 6082   5.448   5.569   4.849
 1728SOL    HW1 6083   5.456   5.500   4.921
 1728SOL    HW2 6084   5.408   5.528   4.767
 1729SOL     OW 6085   2.179   3.654   3.758
 1729SOL    HW1 6086   2.159   3.745   3.794
 1729SOL    HW2 6087   2.147   3.647   3.664
 1730SOL     OW 6088   6.716   0.470   4.542
 1730SOL    HW1 6089   6.621   0.500   4.540
 1730SOL    HW2 6090   6.724   0.381   4.496
 1731SOL     OW 6091   0.925   5.427   2.068
 1731SOL    HW1 6092   0.988   5.368   2.017
 1731SOL    HW2 6093   0.841   5.438   2.016
 1732SOL     OW 6094   2.458   4.614   5.985
 1732SOL    HW1 6095   2.386   4.606   6.054
 1732SOL    HW2 6096   2.438   4.552   5.910
 1733SOL     OW 6097   1.160   3.718   2.964
 1733SOL    HW1 6098   1.176   3.785   3.037
 1733SOL    HW2 6099   1.074   3.739   2.918
 1734SOL     OW 6100   4.914   3.015   1.837
 1734SOL    HW1 6101   4.873   3.028   1.747
 1734SOL    HW2 6102   4.842   3.002   1.905
 1735SOL     OW 6103   5.730   5.663   0.831
 1735SOL    HW1 6104   5.755   5.607   0.910
 1735SOL    HW2 6105   5.685   5.606   0.762
 1736SOL     OW 6106   4.774   2.104   0.527
 1736SOL    HW1 6107   4.779   2.112   0.627
 1736SOL    HW2 6108   4.794   2.192   0.485
 1737SOL     OW 6109   2.969   0.916   4.506
 1737SOL    HW1 6110   3.012   1.006   4.514
 1737SOL    HW2 6111   2.990   0.877   4.416
 1738SOL     OW 6112   1.811   2.209   3.734
 1738SOL    HW1 6113   1.806   2.115   3.769
 1738SOL    HW2 6114   1.728   2.258   3.758
 1739SOL     OW 6115   4.824   2.796   5.261
 1739SOL    HW1 6116   4.726   2.795   5.240
 1739SOL    HW2 6117   4.876   2.823   5.181
 1740SOL     OW 6118   0.356   1.629   6.666
 1740SOL    HW1 6119   0.448   1.647   6.701
 1740SOL    HW2 6120   0.357   1.544   6.612
 1741SOL     OW 6121   2.608   0.873   3.704
 1741SOL    HW1 6122   2.519   0.832   3.726
 1741SOL    HW2 6123   2.664   0.807   3.655
 1742SOL     OW 6124   4.285   6.164   5.817
 1742SOL    HW1 6125   4.368   6.122   5.852
 1742SOL    HW2 6126   4.209   6.098   5.823
 1743SOL     OW 6127   2.028   1.685   2.041
 1743SOL    HW1 6128   2.070   1.675   2.131
 1743SOL    HW2 6129   1.937   1.644   2.043
 1744SOL     OW 6130   0.723   0.247   1.574
 1744SOL    HW1 6131   0.683   0.184   1.640
 1744SOL    HW2 6132   0.768   0.195   1.501
 1745SOL     OW 6133   6.876   0.911   4.067
 1745SOL    HW1 6134   6.921   0.998   4.047
 1745SOL    HW2 6135   6.889   0.888   4.163
 1746SOL     OW 6136   1.947   5.072   5.174
 1746SOL    HW1 6137   2.004   5.153   5.163
 1746SOL    HW2 6138   1.854   5.092   5.141
 1747SOL     OW 6139   5.278   7.005   2.509
 1747SOL    HW1 6140   5.342   7.019   2.585
 1747SOL    HW2 6141   5.290   0.051   2.442
 1748SOL     OW 6142   0.245   0.924   3.605
 1748SOL    HW1 6143   0.211   0.992   3.670
 1748SOL    HW2 6144   0.201   0.836   3.624
 1749SOL     OW 6145   2.800   6.439   5.155
 1749SOL    HW1 6146   2.737   6.517   5.160
 1749SOL    HW2 6147   2.894   6.472   5.165
 1750SOL     OW 6148   6.500   0.408   3.267
 1750SOL    HW1 6149   6.469   0.503   3.258
 1750SOL    HW2 6150   6.421   0.347   3.271
 1751SOL     OW 6151   3.641   5.624   4.548
 1751SOL    HW1 6152   3.629   5.638   4.449
 1751SOL    HW2 6153   3.672   5.531   4.565
 1752SOL     OW 6154   0.092   2.215   2.389
 1752SOL    HW1 6155   0.032   2.148   2.431
 1752SOL    HW2 6156   0.138   2.268   2.461
 1753SOL     OW 6157   0.247   1.989   0.436
 1753SOL    HW1 6158   0.167   2.048   0.427
 1753SOL    HW2 6159   0.219   1.899   0.470
 1754SOL     OW 6160   3.273   3.259   1.717
 1754SOL    HW1 6161   3.238   3.224   1.804
 1754SOL    HW2 6162   3.232   3.208   1.642
 1755SOL     OW 6163   5.906   5.337   2.139
 1755SOL    HW1 6164   5.829   5.346   2.077
 1755SOL    HW2 6165   5.930   5.240   2.148
 1756SOL     OW 6166   4.332   4.414   6.404
 1756SOL    HW1 6167   4.350   4.498   6.455
 1756SOL    HW2 6168   4.233   4.397   6.401
 1757SOL     OW 6169   2.405   5.529   4.650
 1757SOL    HW1 6170   2.397   5.437   4.689
 1757SOL    HW2 6171   2.316   5.557   4.612
 1758SOL     OW 6172   2.187   0.583   3.688
 1758SOL    HW1 6173   2.092   0.562   3.710
 1758SOL    HW2 6174   2.243   0.502   3.706
 1759SOL     OW 6175   0.908   4.839   5.702
 1759SOL    HW1 6176   0.915   4.783   5.784
 1759SOL    HW2 6177   0.949   4.790   5.624
 1760SOL     OW 6178   6.585   1.213   1.254
 1760SOL    HW1 6179   6.621   1.299   1.219
 1760SOL    HW2 6180   6.660   1.154   1.281
 1761SOL     OW 6181   0.110   0.149   0.230
 1761SOL    HW1 6182   0.179   0.202   0.180
 1761SOL    HW2 6183   0.026   0.144   0.176
 1762SOL     OW 6184   6.219   1.545   5.208
 1762SOL    HW1 6185   6.221   1.535   5.108
 1762SOL    HW2 6186   6.313   1.544   5.243
 1763SOL     OW 6187   2.154   3.437   4.403
 1763SOL    HW1 6188   2.217   3.510   4.429
 1763SOL    HW2 6189   2.085   3.473   4.340
 1764SOL     OW 6190   1.364   4.055   2.583
 1764SOL    HW1 6191   1.434   4.042   2.653
 1764SOL    HW2 6192   1.399   4.023   2.495
 1765SOL     OW 6193   3.574   2.005   6.893
 1765SOL    HW1 6194   3.580   2.104   6.905
 1765SOL    HW2 6195   3.664   1.964   6.903
 1766SOL     OW 6196   4.982   3.269   3.684
 1766SOL    HW1 6197   4.950   3.291   3.776
 1766SOL    HW2 6198   5.069   3.220   3.689
 1767SOL     OW 6199   6.176   3.367   2.976
 1767SOL    HW1 6200   6.212   3.334   2.889
 1767SOL    HW2 6201   6.237   3.438   3.012
 1768SOL     OW 6202   3.672   1.709   4.687
 1768SOL    HW1 6203   3.710   1.651   4.759
 1768SOL    HW2 6204   3.622   1.652   4.621
 1769SOL     OW 6205   4.232   2.291   4.856
 1769SOL    HW1 6206   4.318   2.294   4.805
 1769SOL    HW2 6207   4.240   2.350   4.937
 1770SOL     OW 6208   0.508   5.302   4.499
 1770SOL    HW1 6209   0.528   5.217   4.451
 1770SOL    HW2 6210   0.504   5.285   4.597
 1771SOL     OW 6211   2.684   5.212   0.510
 1771SOL    HW1 6212   2.724   5.121   0.498
 1771SOL    HW2 6213   2.643   5.218   0.601
 1772SOL     OW 6214   3.154   6.903   3.621
 1772SOL    HW1 6215   3.080   6.961   3.656
 1772SOL    HW2 6216   3.198   6.949   3.544
 1773SOL     OW 6217   2.709   4.636   6.119
 1773SOL    HW1 6218   2.627   4.605   6.072
 1773SOL    HW2 6219   2.706   4.605   6.214
 1774SOL     OW 6220   4.221   6.814   1.819
 1774SOL    HW1 6221   4.258   6.796   1.728
 1774SOL    HW2 6222   4.206   6.727   1.866
 1775SOL     OW 6223   1.000   4.476   4.108
 1775SOL    HW1 6224   1.068   4.491   4.179
 1775SOL    HW2 6225   1.040   4.423   4.033
 1776SOL     OW 6226   3.337   7.024   3.893
 1776SOL    HW1 6227   3.346   0.089   3.857
 1776SOL    HW2 6228   3.363   6.959   3.822
 1777SOL     OW 6229   3.009   5.461   5.914
 1777SOL    HW1 6230   2.915   5.495   5.913
 1777SOL    HW2 6231   3.018   5.384   5.851
 1778SOL     OW 6232   4.531   3.154   5.837
 1778SOL    HW1 6233   4.536   3.253   5.849
 1778SOL    HW2 6234   4.593   3.125   5.764
 1779SOL     OW 6235   4.077   1.088   4.644
 1779SOL    HW1 6236   4.032   1.175   4.624
 1779SOL    HW2 6237   4.052   1.021   4.574
 1780SOL     OW 6238   3.056   3.176   6.123
 1780SOL    HW1 6239   3.012   3.265   6.134
 1780SOL    HW2 6240   3.154   3.189   6.104
 1781SOL     OW 6241   4.682   5.578   3.782
 1781SOL    HW1 6242   4.645   5.507   3.842
 1781SOL    HW2 6243   4.688   5.664   3.831
 1782SOL     OW 6244   3.641   1.799   2.519
 1782SOL    HW1 6245   3.631   1.875   2.456
 1782SOL    HW2 6246   3.587   1.815   2.601
 1783SOL     OW 6247   1.588   4.442   6.404
 1783SOL    HW1 6248   1.680   4.441   6.444
 1783SOL    HW2 6249   1.589   4.500   6.322
 1784SOL     OW 6250   3.770   1.175   5.684
 1784SOL    HW1 6251   3.806   1.110   5.617
 1784SOL    HW2 6252   3.847   1.223   5.728
 1785SOL     OW 6253   6.523   5.169   3.504
 1785SOL    HW1 6254   6.465   5.200   3.429
 1785SOL    HW2 6255   6.533   5.243   3.571
 1786SOL     OW 6256   1.298   2.410   0.833
 1786SOL    HW1 6257   1.368   2.433   0.901
 1786SOL    HW2 6258   1.309   2.315   0.804
 1787SOL     OW 6259   2.220   0.895   5.154
 1787SOL    HW1 6260   2.277   0.859   5.228
 1787SOL    HW2 6261   2.196   0.821   5.091
 1788SOL     OW 6262   3.399   2.763   6.992
 1788SOL    HW1 6263   3.410   2.857   7.023
 1788SOL    HW2 6264   3.329   2.718   0.019
 1789SOL     OW 6265   5.908   2.380   3.531
 1789SOL    HW1 6266   5.895   2.477   3.510
 1789SOL    HW2 6267   6.002   2.365   3.563
 1790SOL     OW 6268   3.680   6.199   4.167
 1790SOL    HW1 6269   3.672   6.205   4.067
 1790SOL    HW2 6270   3.592   6.170   4.205
 1791SOL     OW 6271   6.673   1.031   3.519
 1791SOL    HW1 6272   6.671   1.131   3.524
 1791SOL    HW2 6273   6.767   1.000   3.510
 1792SOL     OW 6274   6.684   2.957   4.177
 1792SOL    HW1 6275   6.697   2.990   4.271
 1792SOL    HW2 6276   6.757   2.894   4.154
 1793SOL     OW 6277   6.462   6.540   3.307
 1793SOL    HW1 6278   6.485   6.603   3.382
 1793SOL    HW2 6279   6.546   6.503   3.268
 1794SOL     OW 6280   5.816   6.221   5.955
 1794SOL    HW1 6281   5.778   6.278   5.883
 1794SOL    HW2 6282   5.794   6.261   6.044
 1795SOL     OW 6283   0.637   2.948   1.346
 1795SOL    HW1 6284   0.590   2.994   1.270
 1795SOL    HW2 6285   0.632   2.849   1.332
 1796SOL     OW 6286   2.391   0.424   4.277
 1796SOL    HW1 6287   2.401   0.460   4.185
 1796SOL    HW2 6288   2.298   0.391   4.290
 1797SOL     OW 6289   1.387   0.203   6.942
 1797SOL    HW1 6290   1.312   0.240   6.886
 1797SOL    HW2 6291   1.388   0.250   0.002
 1798SOL     OW 6292   5.065   2.113   4.310
 1798SOL    HW1 6293   5.148   2.126   4.364
 1798SOL    HW2 6294   5.046   2.015   4.302
 1799SOL     OW 6295   6.362   2.064   5.771
 1799SOL    HW1 6296   6.297   2.017   5.711
 1799SOL    HW2 6297   6.424   1.997   5.812
 1800SOL     OW 6298   3.918   5.021   2.502
 1800SOL    HW1 6299   3.876   4.984   2.585
 1800SOL    HW2 6300   4.014   4.993   2.498
 1801SOL     OW 6301   0.324   0.706   2.281
 1801SOL    HW1 6302   0.380   0.640   2.230
 1801SOL    HW2 6303   0.229   0.674   2.283
 1802SOL     OW 6304   5.599   5.411   2.844
 1802SOL    HW1 6305   5.551   5.324   2.855
 1802SOL    HW2 6306   5.532   5.485   2.834
 1803SOL     OW 6307   0.236   6.251   6.779
 1803SOL    HW1 6308   0.260   6.290   6.869
 1803SOL    HW2 6309   0.138   6.232   6.777
 1804SOL     OW 6310   2.258   3.747   5.632
 1804SOL    HW1 6311   2.304   3.770   5.547
 1804SOL    HW2 6312   2.325   3.728   5.704
 1805SOL     OW 6313   6.035   4.400   5.881
 1805SOL    HW1 6314   6.027   4.409   5.980
 1805SOL    HW2 6315   6.054   4.489   5.841
 1806SOL     OW 6316   1.085   1.033   0.557
 1806SOL    HW1 6317   1.004   1.066   0.509
 1806SOL    HW2 6318   1.099   1.088   0.640
 1807SOL     OW 6319   4.982   2.563   5.596
 1807SOL    HW1 6320   4.938   2.506   5.666
 1807SOL    HW2 6321   4.945   2.540   5.506
 1808SOL     OW 6322   0.521   3.631   5.876
 1808SOL    HW1 6323   0.522   3.672   5.967
 1808SOL    HW2 6324   0.556   3.697   5.810
 1809SOL     OW 6325   2.245   2.470   4.472
 1809SOL    HW1 6326   2.274   2.444   4.564
 1809SOL    HW2 6327   2.232   2.569   4.468
 1810SOL     OW 6328   3.073   0.224   3.479
 1810SOL    HW1 6329   3.056   0.275   3.395
 1810SOL    HW2 6330   3.049   0.281   3.558
 1811SOL     OW 6331   4.799   4.647   3.511
 1811SOL    HW1 6332   4.837   4.572   3.458
 1811SOL    HW2 6333   4.790   4.620   3.607
 1812SOL     OW 6334   4.258   6.609   5.157
 1812SOL    HW1 6335   4.357   6.609   5.173
 1812SOL    HW2 6336   4.235   6.679   5.090
 1813SOL     OW 6337   6.194   5.144   0.757
 1813SOL    HW1 6338   6.183   5.196   0.672
 1813SOL    HW2 6339   6.237   5.202   0.826
 1814SOL     OW 6340   6.559   1.642   0.363
 1814SOL    HW1 6341   6.576   1.738   0.343
 1814SOL    HW2 6342   6.628   1.586   0.315
 1815SOL     OW 6343   5.874   2.139   1.874
 1815SOL    HW1 6344   5.800   2.192   1.914
 1815SOL    HW2 6345   5.865   2.140   1.774
 1816SOL     OW 6346   2.344   3.807   1.166
 1816SOL    HW1 6347   2.265   3.775   1.219
 1816SOL    HW2 6348   2.370   3.898   1.197
 1817SOL     OW 6349   3.702   0.247   3.135
 1817SOL    HW1 6350   3.648   0.273   3.055
 1817SOL    HW2 6351   3.798   0.270   3.121
 1818SOL     OW 6352   1.853   6.534   2.686
 1818SOL    HW1 6353   1.801   6.467   2.633
 1818SOL    HW2 6354   1.943   6.548   2.645
 1819SOL     OW 6355   0.550   5.278   1.473
 1819SOL    HW1 6356   0.594   5.347   1.416
 1819SOL    HW2 6357   0.456   5.304   1.491
 1820SOL     OW 6358   5.044   0.893   2.099
 1820SOL    HW1 6359   5.143   0.887   2.111
 1820SOL    HW2 6360   5.019   0.860   2.008
 1821SOL     OW 6361   1.901   0.793   1.573
 1821SOL    HW1 6362   1.926   0.706   1.615
 1821SOL    HW2 6363   1.928   0.868   1.633
 1822SOL     OW 6364   2.191   2.633   1.599
 1822SOL    HW1 6365   2.278   2.678   1.617
 1822SOL    HW2 6366   2.205   2.534   1.593
 1823SOL     OW 6367   2.908   5.889   3.142
 1823SOL    HW1 6368   2.918   5.937   3.230
 1823SOL    HW2 6369   2.853   5.806   3.156
 1824SOL     OW 6370   3.048   2.713   1.786
 1824SOL    HW1 6371   3.146   2.710   1.808
 1824SOL    HW2 6372   3.002   2.636   1.830
 1825SOL     OW 6373   1.482   1.553   3.522
 1825SOL    HW1 6374   1.581   1.562   3.537
 1825SOL    HW2 6375   1.438   1.640   3.545
 1826SOL     OW 6376   2.905   7.003   0.858
 1826SOL    HW1 6377   2.869   6.990   0.950
 1826SOL    HW2 6378   2.974   6.934   0.839
 1827SOL     OW 6379   6.819   6.046   1.672
 1827SOL    HW1 6380   6.870   6.129   1.693
 1827SOL    HW2 6381   6.881   5.969   1.668
 1828SOL     OW 6382   1.376   2.584   0.569
 1828SOL    HW1 6383   1.316   2.538   0.503
 1828SOL    HW2 6384   1.436   2.516   0.612
 1829SOL     OW 6385   3.618   0.160   3.377
 1829SOL    HW1 6386   3.646   0.184   3.284
 1829SOL    HW2 6387   3.533   0.208   3.399
 1830SOL     OW 6388   6.132   5.866   3.893
 1830SOL    HW1 6389   6.145   5.882   3.991
 1830SOL    HW2 6390   6.220   5.850   3.850
 1831SOL     OW 6391   6.168   0.189   2.052
 1831SOL    HW1 6392   6.190   0.286   2.038
 1831SOL    HW2 6393   6.248   0.142   2.090
 1832SOL     OW 6394   5.207   1.169   1.164
 1832SOL    HW1 6395   5.181   1.171   1.067
 1832SOL    HW2 6396   5.245   1.258   1.190
 1833SOL     OW 6397   5.540   0.132   5.743
 1833SOL    HW1 6398   5.598   0.210   5.720
 1833SOL    HW2 6399   5.461   0.130   5.683
 1834SOL     OW 6400   2.356   3.997   0.620
 1834SOL    HW1 6401   2.419   3.964   0.549
 1834SOL    HW2 6402   2.406   4.055   0.684
 1835SOL     OW 6403   1.112   3.399   1.884
 1835SOL    HW1 6404   1.063   3.325   1.838
 1835SOL    HW2 6405   1.138   3.468   1.817
 1836SOL     OW 6406   5.137   1.673   0.797
 1836SOL    HW1 6407   5.169   1.581   0.774
 1836SOL    HW2 6408   5.178   1.702   0.884
 1837SOL     OW 6409   0.810   2.148   4.241
 1837SOL    HW1 6410   0.749   2.093   4.298
 1837SOL    HW2 6411   0.837   2.230   4.292
 1838SOL     OW 6412   0.141   1.422   4.303
 1838SOL    HW1 6413   0.124   1.454   4.396
 1838SOL    HW2 6414   0.216   1.356   4.303
 1839SOL     OW 6415   5.321   2.764   4.797
 1839SOL    HW1 6416   5.273   2.838   4.843
 1839SOL    HW2 6417   5.398   2.802   4.745
 1840SOL     OW 6418   3.764   5.906   1.643
 1840SOL    HW1 6419   3.730   5.998   1.621
 1840SOL    HW2 6420   3.738   5.843   1.569
 1841SOL     OW 6421   2.494   1.650   4.093
 1841SOL    HW1 6422   2.485   1.714   4.170
 1841SOL    HW2 6423   2.409   1.649   4.041
 1842SOL     OW 6424   1.002   5.216   0.330
 1842SOL    HW1 6425   1.065   5.287   0.361
 1842SOL    HW2 6426   1.000   5.215   0.230
 1843SOL     OW 6427   6.857   2.052   4.247
 1843SOL    HW1 6428   6.886   1.961   4.278
 1843SOL    HW2 6429   6.830   2.047   4.151
 1844SOL     OW 6430   3.825   7.019   5.474
 1844SOL    HW1 6431   3.745   6.961   5.489
 1844SOL    HW2 6432   3.903   6.962   5.447
 1845SOL     OW 6433   1.872   6.802   4.745
 1845SOL    HW1 6434   1.901   6.893   4.715
 1845SOL    HW2 6435   1.866   6.741   4.665
 1846SOL     OW 6436   4.253   2.199   0.345
 1846SOL    HW1 6437   4.195   2.125   0.309
 1846SOL    HW2 6438   4.271   2.266   0.273
 1847SOL     OW 6439   1.096   0.672   6.084
 1847SOL    HW1 6440   1.146   0.595   6.123
 1847SOL    HW2 6441   1.154   0.718   6.016
 1848SOL     OW 6442   0.813   6.977   2.472
 1848SOL    HW1 6443   0.812   0.043   2.438
 1848SOL    HW2 6444   0.792   6.977   2.570
 1849SOL     OW 6445   3.498   2.099   0.834
 1849SOL    HW1 6446   3.462   2.162   0.765
 1849SOL    HW2 6447   3.597   2.110   0.842
 1850SOL     OW 6448   0.268   3.225   2.613
 1850SOL    HW1 6449   0.231   3.282   2.540
 1850SOL    HW2 6450   0.309   3.283   2.683
 1851SOL     OW 6451   0.192   2.593   1.509
 1851SOL    HW1 6452   0.200   2.514   1.447
 1851SOL    HW2 6453   0.121   2.575   1.577
 1852SOL     OW 6454   6.030   3.836   2.076
 1852SOL    HW1 6455   5.950   3.783   2.049
 1852SOL    HW2 6456   6.000   3.917   2.127
 1853SOL     OW 6457   0.250   3.439   3.093
 1853SOL    HW1 6458   0.214   3.522   3.052
 1853SOL    HW2 6459   0.348   3.450   3.111
 1854SOL     OW 6460   2.489   6.380   3.451
 1854SOL    HW1 6461   2.448   6.469   3.473
 1854SOL    HW2 6462   2.419   6.309   3.460
 1855SOL     OW 6463   5.382   3.990   6.768
 1855SOL    HW1 6464   5.362   3.898   6.733
 1855SOL    HW2 6465   5.394   3.986   6.867
 1856SOL     OW 6466   6.266   3.694   5.636
 1856SOL    HW1 6467   6.327   3.765   5.671
 1856SOL    HW2 6468   6.208   3.661   5.711
 1857SOL     OW 6469   4.182   0.931   5.921
 1857SOL    HW1 6470   4.189   1.000   5.993
 1857SOL    HW2 6471   4.086   0.906   5.908
 1858SOL     OW 6472   5.969   3.552   3.430
 1858SOL    HW1 6473   5.961   3.651   3.434
 1858SOL    HW2 6474   5.883   3.513   3.396
 1859SOL     OW 6475   4.413   1.937   3.302
 1859SOL    HW1 6476   4.404   2.012   3.367
 1859SOL    HW2 6477   4.388   1.851   3.345
 1860SOL     OW 6478   7.007   0.582   4.098
 1860SOL    HW1 6479   6.921   0.632   4.089
 1860SOL    HW2 6480   0.017   0.599   4.189
 1861SOL     OW 6481   5.450   0.322   2.190
 1861SOL    HW1 6482   5.440   0.339   2.092
 1861SOL    HW2 6483   5.542   0.287   2.209
 1862SOL     OW 6484   2.457   0.554   6.416
 1862SOL    HW1 6485   2.513   0.525   6.339
 1862SOL    HW2 6486   2.493   0.639   6.454
 1863SOL     OW 6487   1.818   1.545   1.134
 1863SOL    HW1 6488   1.795   1.450   1.112
 1863SOL    HW2 6489   1.896   1.574   1.078
 1864SOL     OW 6490   0.885   6.747   5.803
 1864SOL    HW1 6491   0.876   6.664   5.749
 1864SOL    HW2 6492   0.797   6.772   5.842
 1865SOL     OW 6493   3.491   6.918   6.242
 1865SOL    HW1 6494   3.550   6.971   6.180
 1865SOL    HW2 6495   3.545   6.847   6.287
 1866SOL     OW 6496   4.063   4.790   3.479
 1866SOL    HW1 6497   4.048   4.780   3.381
 1866SOL    HW2 6498   4.135   4.727   3.508
 1867SOL     OW 6499   0.625   3.862   0.032
 1867SOL    HW1 6500   0.555   3.917   0.078
 1867SOL    HW2 6501   0.625   3.770   0.070
 1868SOL     OW 6502   4.591   4.661   0.171
 1868SOL    HW1 6503   4.496   4.633   0.188
 1868SOL    HW2 6504   4.632   4.693   0.256
 1869SOL     OW 6505   6.260   2.548   5.690
 1869SOL    HW1 6506   6.216   2.533   5.602
 1869SOL    HW2 6507   6.294   2.642   5.694
 1870SOL     OW 6508   2.245   2.686   5.913
 1870SOL    HW1 6509   2.245   2.662   5.816
 1870SOL    HW2 6510   2.245   2.786   5.922
 1871SOL     OW 6511   0.457   0.584   0.038
 1871SOL    HW1 6512   0.490   0.581   6.972
 1871SOL    HW2 6513   0.357   0.576   0.038
 1872SOL     OW 6514   3.353   2.209   6.419
 1872SOL    HW1 6515   3.291   2.229   6.343
 1872SOL    HW2 6516   3.447   2.208   6.387
 1873SOL     OW 6517   4.729   1.667   5.654
 1873SOL    HW1 6518   4.776   1.601   5.713
 1873SOL    HW2 6519   4.771   1.757   5.666
 1874SOL     OW 6520   3.400   1.182   1.378
 1874SOL    HW1 6521   3.344   1.264   1.382
 1874SOL    HW2 6522   3.494   1.206   1.353
 1875SOL     OW 6523   0.537   1.123   0.322
 1875SOL    HW1 6524   0.466   1.193   0.327
 1875SOL    HW2 6525   0.553   1.097   0.227
 1876SOL     OW 6526   4.124   6.848   5.947
 1876SOL    HW1 6527   4.097   6.759   5.983
 1876SOL    HW2 6528   4.102   6.852   5.849
 1877SOL     OW 6529   0.519   6.844   2.471
 1877SOL    HW1 6530   0.517   6.894   2.384
 1877SOL    HW2 6531   0.548   6.905   2.544
 1878SOL     OW 6532   6.780   2.244   3.563
 1878SOL    HW1 6533   6.717   2.283   3.497
 1878SOL    HW2 6534   6.822   2.162   3.524
 1879SOL     OW 6535   1.410   4.362   4.326
 1879SOL    HW1 6536   1.474   4.286   4.335
 1879SOL    HW2 6537   1.432   4.433   4.392
 1880SOL     OW 6538   0.013   1.576   4.536
 1880SOL    HW1 6539   7.010   1.522   4.614
 1880SOL    HW2 6540   6.989   1.549   4.455
 1881SOL     OW 6541   5.962   2.200   3.799
 1881SOL    HW1 6542   5.992   2.181   3.892
 1881SOL    HW2 6543   5.898   2.277   3.800
 1882SOL     OW 6544   1.213   4.202   6.168
 1882SOL    HW1 6545   1.247   4.109   6.153
 1882SOL    HW2 6546   1.190   4.244   6.080
 1883SOL     OW 6547   0.078   1.787   3.213
 1883SOL    HW1 6548   0.131   1.763   3.295
 1883SOL    HW2 6549   7.018   1.739   3.216
 1884SOL     OW 6550   0.209   2.366   0.873
 1884SOL    HW1 6551   0.169   2.429   0.939
 1884SOL    HW2 6552   0.284   2.316   0.915
 1885SOL     OW 6553   1.837   2.196   6.484
 1885SOL    HW1 6554   1.839   2.120   6.549
 1885SOL    HW2 6555   1.923   2.246   6.489
 1886SOL     OW 6556   1.939   0.975   1.787
 1886SOL    HW1 6557   1.991   1.060   1.794
 1886SOL    HW2 6558   1.953   0.920   1.870
 1887SOL     OW 6559   1.131   6.015   4.639
 1887SOL    HW1 6560   1.081   6.039   4.556
 1887SOL    HW2 6561   1.066   5.987   4.710
 1888SOL     OW 6562   2.963   2.107   0.482
 1888SOL    HW1 6563   2.965   2.096   0.383
 1888SOL    HW2 6564   2.921   2.026   0.524
 1889SOL     OW 6565   0.169   3.137   5.711
 1889SOL    HW1 6566   0.242   3.119   5.644
 1889SOL    HW2 6567   0.190   3.221   5.761
 1890SOL     OW 6568   1.633   6.144   4.208
 1890SOL    HW1 6569   1.645   6.147   4.307
 1890SOL    HW2 6570   1.662   6.231   4.169
 1891SOL     OW 6571   5.610   2.686   1.935
 1891SOL    HW1 6572   5.631   2.649   1.844
 1891SOL    HW2 6573   5.511   2.691   1.946
 1892SOL     OW 6574   2.198   0.267   2.593
 1892SOL    HW1 6575   2.250   0.246   2.510
 1892SOL    HW2 6576   2.257   0.312   2.660
 1893SOL     OW 6577   3.032   3.610   0.850
 1893SOL    HW1 6578   3.132   3.619   0.845
 1893SOL    HW2 6579   3.009   3.533   0.909
 1894SOL     OW 6580   3.396   4.168   4.265
 1894SOL    HW1 6581   3.316   4.113   4.291
 1894SOL    HW2 6582   3.389   4.259   4.306
 1895SOL     OW 6583   4.716   0.577   1.661
 1895SOL    HW1 6584   4.629   0.577   1.612
 1895SOL    HW2 6585   4.744   0.670   1.681
 1896SOL     OW 6586   4.935   0.794   1.529
 1896SOL    HW1 6587   5.013   0.778   1.590
 1896SOL    HW2 6588   4.912   0.709   1.482
 1897SOL     OW 6589   2.646   5.679   1.514
 1897SOL    HW1 6590   2.592   5.752   1.557
 1897SOL    HW2 6591   2.588   5.599   1.500
 1898SOL     OW 6592   2.430   5.571   3.676
 1898SOL    HW1 6593   2.492   5.645   3.649
 1898SOL    HW2 6594   2.469   5.521   3.753
 1899SOL     OW 6595   0.607   1.358   1.516
 1899SOL    HW1 6596   0.519   1.329   1.553
 1899SOL    HW2 6597   0.668   1.383   1.591
 1900SOL     OW 6598   1.989   0.498   6.480
 1900SOL    HW1 6599   2.064   0.522   6.418
 1900SOL    HW2 6600   2.010   0.532   6.572
 1901SOL     OW 6601   1.814   2.185   1.148
 1901SOL    HW1 6602   1.879   2.147   1.082
 1901SOL    HW2 6603   1.787   2.277   1.121
 1902SOL     OW 6604   1.936   0.944   5.141
 1902SOL    HW1 6605   2.027   0.985   5.138
 1902SOL    HW2 6606   1.925   0.892   5.226
 1903SOL     OW 6607   0.460   3.782   2.791
 1903SOL    HW1 6608   0.399   3.861   2.784
 1903SOL    HW2 6609   0.501   3.764   2.701
 1904SOL     OW 6610   5.510   5.682   3.695
 1904SOL    HW1 6611   5.426   5.631   3.678
 1904SOL    HW2 6612   5.523   5.749   3.623
 1905SOL     OW 6613   1.013   6.871   3.310
 1905SOL    HW1 6614   1.085   6.878   3.378
 1905SOL    HW2 6615   1.054   6.872   3.218
 1906SOL     OW 6616   1.922   0.124   4.637
 1906SOL    HW1 6617   1.885   0.217   4.630
 1906SOL    HW2 6618   2.015   0.122   4.601
 1907SOL     OW 6619   3.723   1.342   1.865
 1907SOL    HW1 6620   3.710   1.425   1.810
 1907SOL    HW2 6621   3.637   1.291   1.867
 1908SOL     OW 6622   3.616   6.514   5.665
 1908SOL    HW1 6623   3.591   6.463   5.747
 1908SOL    HW2 6624   3.714   6.504   5.648
 1909SOL     OW 6625   0.794   3.616   3.109
 1909SOL    HW1 6626   0.760   3.706   3.081
 1909SOL    HW2 6627   0.865   3.626   3.178
 1910SOL     OW 6628   6.843   5.232   6.195
 1910SOL    HW1 6629   6.941   5.209   6.189
 1910SOL    HW2 6630   6.808   5.206   6.285
 1911SOL     OW 6631   0.061   3.806   5.058
 1911SOL    HW1 6632   0.075   3.713   5.024
 1911SOL    HW2 6633   0.034   3.802   5.155
 1912SOL     OW 6634   3.107   5.750   0.718
 1912SOL    HW1 6635   3.088   5.839   0.677
 1912SOL    HW2 6636   3.095   5.754   0.817
 1913SOL     OW 6637   2.278   0.269   4.760
 1913SOL    HW1 6638   2.363   0.290   4.808
 1913SOL    HW2 6639   2.234   0.354   4.730
 1914SOL     OW 6640   3.984   3.023   6.582
 1914SOL    HW1 6641   4.011   2.932   6.550
 1914SOL    HW2 6642   3.924   3.065   6.514
 1915SOL     OW 6643   3.734   2.397   5.365
 1915SOL    HW1 6644   3.662   2.433   5.306
 1915SOL    HW2 6645   3.695   2.375   5.455
 1916SOL     OW 6646   4.160   5.655   1.338
 1916SOL    HW1 6647   4.128   5.747   1.315
 1916SOL    HW2 6648   4.254   5.643   1.306
 1917SOL     OW 6649   2.351   2.773   6.783
 1917SOL    HW1 6650   2.405   2.738   6.860
 1917SOL    HW2 6651   2.396   2.853   6.745
 1918SOL     OW 6652   1.346   1.462   4.738
 1918SOL    HW1 6653   1.306   1.478   4.647
 1918SOL    HW2 6654   1.391   1.546   4.769
 1919SOL     OW 6655   1.223   2.065   2.145
 1919SOL    HW1 6656   1.317   2.047   2.118
 1919SOL    HW2 6657   1.221   2.089   2.243
 1920SOL     OW 6658   0.246   3.992   2.911
 1920SOL    HW1 6659   0.298   4.038   2.983
 1920SOL    HW2 6660   0.247   4.049   2.828
 1921SOL     OW 6661   1.430   3.682   6.398
 1921SOL    HW1 6662   1.491   3.759   6.383
 1921SOL    HW2 6663   1.344   3.697   6.349
 1922SOL     OW 6664   2.953   3.205   1.574
 1922SOL    HW1 6665   2.965   3.115   1.615
 1922SOL    HW2 6666   2.869   3.247   1.609
 1923SOL     OW 6667   4.032   1.457   6.156
 1923SOL    HW1 6668   3.999   1.452   6.251
 1923SOL    HW2 6669   4.131   1.468   6.156
 1924SOL     OW 6670   4.669   6.710   0.152
 1924SOL    HW1 6671   4.668   6.675   0.059
 1924SOL    HW2 6672   4.731   6.655   0.208
 1925SOL     OW 6673   1.538   4.764   0.618
 1925SOL    HW1 6674   1.596   4.806   0.689
 1925SOL    HW2 6675   1.540   4.665   0.628
 1926SOL     OW 6676   3.106   6.745   2.569
 1926SOL    HW1 6677   3.101   6.821   2.505
 1926SOL    HW2 6678   3.200   6.731   2.598
 1927SOL     OW 6679   2.436   5.052   0.186
 1927SOL    HW1 6680   2.473   5.144   0.176
 1927SOL    HW2 6681   2.417   5.034   0.283
 1928SOL     OW 6682   5.984   3.996   4.683
 1928SOL    HW1 6683   6.031   3.948   4.757
 1928SOL    HW2 6684   5.964   4.090   4.712
 1929SOL     OW 6685   2.648   0.306   1.285
 1929SOL    HW1 6686   2.622   0.400   1.307
 1929SOL    HW2 6687   2.654   0.295   1.186
 1930SOL     OW 6688   5.379   3.710   6.804
 1930SOL    HW1 6689   5.349   3.626   6.758
 1930SOL    HW2 6690   5.457   3.689   6.862
 1931SOL     OW 6691   0.916   2.298   1.024
 1931SOL    HW1 6692   0.877   2.331   1.110
 1931SOL    HW2 6693   0.968   2.372   0.982
 1932SOL     OW 6694   4.993   2.721   3.309
 1932SOL    HW1 6695   5.053   2.721   3.389
 1932SOL    HW2 6696   4.941   2.635   3.307
 1933SOL     OW 6697   1.329   3.006   0.581
 1933SOL    HW1 6698   1.278   3.013   0.495
 1933SOL    HW2 6699   1.304   3.082   0.640
 1934SOL     OW 6700   6.837   1.234   4.949
 1934SOL    HW1 6701   6.766   1.236   5.020
 1934SOL    HW2 6702   6.909   1.171   4.976
 1935SOL     OW 6703   4.555   4.895   3.428
 1935SOL    HW1 6704   4.523   4.842   3.349
 1935SOL    HW2 6705   4.554   4.836   3.509
 1936SOL     OW 6706   4.801   4.012   3.851
 1936SOL    HW1 6707   4.856   4.042   3.774
 1936SOL    HW2 6708   4.705   4.002   3.822
 1937SOL     OW 6709   3.944   6.191   7.015
 1937SOL    HW1 6710   3.887   6.242   0.051
 1937SOL    HW2 6711   4.005   6.130   0.037
 1938SOL     OW 6712   1.593   1.840   1.140
 1938SOL    HW1 6713   1.686   1.875   1.157
 1938SOL    HW2 6714   1.546   1.828   1.227
 1939SOL     OW 6715   6.730   6.683   4.752
 1939SOL    HW1 6716   6.698   6.663   4.659
 1939SOL    HW2 6717   6.685   6.766   4.785
 1940SOL     OW 6718   6.462   4.709   1.277
 1940SOL    HW1 6719   6.535   4.650   1.242
 1940SOL    HW2 6720   6.420   4.666   1.357
 1941SOL     OW 6721   1.638   2.617   4.138
 1941SOL    HW1 6722   1.639   2.553   4.060
 1941SOL    HW2 6723   1.656   2.567   4.222
 1942SOL     OW 6724   5.607   2.712   2.498
 1942SOL    HW1 6725   5.559   2.768   2.566
 1942SOL    HW2 6726   5.640   2.771   2.425
 1943SOL     OW 6727   1.836   0.058   3.241
 1943SOL    HW1 6728   1.927   0.099   3.233
 1943SOL    HW2 6729   1.767   0.128   3.222
 1944SOL     OW 6730   5.789   3.912   0.248
 1944SOL    HW1 6731   5.876   3.938   0.289
 1944SOL    HW2 6732   5.787   3.813   0.235
 1945SOL     OW 6733   3.902   5.643   6.807
 1945SOL    HW1 6734   3.912   5.547   6.781
 1945SOL    HW2 6735   3.873   5.649   6.902
 1946SOL     OW 6736   5.628   0.204   1.095
 1946SOL    HW1 6737   5.674   0.270   1.035
 1946SOL    HW2 6738   5.624   0.115   1.050
 1947SOL     OW 6739   5.225   5.842   4.508
 1947SOL    HW1 6740   5.188   5.906   4.441
 1947SOL    HW2 6741   5.303   5.884   4.555
 1948SOL     OW 6742   5.945   5.110   2.756
 1948SOL    HW1 6743   5.864   5.110   2.698
 1948SOL    HW2 6744   6.001   5.190   2.735
 1949SOL     OW 6745   3.944   3.429   0.163
 1949SOL    HW1 6746   3.888   3.374   0.225
 1949SOL    HW2 6747   3.886   3.474   0.095
 1950SOL     OW 6748   3.347   2.894   2.769
 1950SOL    HW1 6749   3.350   2.994   2.763
 1950SOL    HW2 6750   3.364   2.856   2.678
 1951SOL     OW 6751   6.798   4.469   6.285
 1951SOL    HW1 6752   6.747   4.385   6.269
 1951SOL    HW2 6753   6.885   4.447   6.328
 1952SOL     OW 6754   5.815   4.722   1.222
 1952SOL    HW1 6755   5.855   4.739   1.132
 1952SOL    HW2 6756   5.744   4.652   1.215
 1953SOL     OW 6757   6.803   2.073   5.716
 1953SOL    HW1 6758   6.898   2.052   5.690
 1953SOL    HW2 6759   6.798   2.084   5.815
 1954SOL     OW 6760   6.168   0.148   1.219
 1954SOL    HW1 6761   6.155   0.174   1.124
 1954SOL    HW2 6762   6.266   0.148   1.240
 1955SOL     OW 6763   0.501   0.184   2.389
 1955SOL    HW1 6764   0.460   0.167   2.478
 1955SOL    HW2 6765   0.448   0.254   2.341
 1956SOL     OW 6766   4.770   0.325   1.619
 1956SOL    HW1 6767   4.856   0.303   1.575
 1956SOL    HW2 6768   4.770   0.421   1.646
 1957SOL     OW 6769   4.878   4.529   3.968
 1957SOL    HW1 6770   4.969   4.514   3.930
 1957SOL    HW2 6771   4.841   4.615   3.936
 1958SOL     OW 6772   4.772   1.617   1.761
 1958SOL    HW1 6773   4.791   1.548   1.830
 1958SOL    HW2 6774   4.739   1.574   1.677
 1959SOL     OW 6775   0.427   6.945   3.858
 1959SOL    HW1 6776   0.508   6.913   3.906
 1959SOL    HW2 6777   0.424   0.017   3.860
 1960SOL     OW 6778   0.433   4.054   2.631
 1960SOL    HW1 6779   0.518   4.057   2.683
 1960SOL    HW2 6780   0.444   3.991   2.554
 1961SOL     OW 6781   6.027   4.047   4.432
 1961SOL    HW1 6782   5.993   4.135   4.400
 1961SOL    HW2 6783   5.985   4.024   4.520
 1962SOL     OW 6784   1.358   6.558   2.500
 1962SOL    HW1 6785   1.419   6.636   2.502
 1962SOL    HW2 6786   1.373   6.501   2.582
 1963SOL     OW 6787   1.483   1.598   1.365
 1963SOL    HW1 6788   1.405   1.548   1.403
 1963SOL    HW2 6789   1.556   1.603   1.433
 1964SOL     OW 6790   3.589   5.093   1.480
 1964SOL    HW1 6791   3.598   5.028   1.405
 1964SOL    HW2 6792   3.600   5.046   1.568
 1965SOL     OW 6793   1.783   2.225   4.474
 1965SOL    HW1 6794   1.805   2.128   4.485
 1965SOL    HW2 6795   1.861   2.281   4.503
 1966SOL     OW 6796   1.204   5.794   1.314
 1966SOL    HW1 6797   1.271   5.859   1.278
 1966SOL    HW2 6798   1.169   5.738   1.240
 1967SOL     OW 6799   6.217   2.709   4.220
 1967SOL    HW1 6800   6.258   2.797   4.198
 1967SOL    HW2 6801   6.131   2.698   4.169
 1968SOL     OW 6802   2.521   0.555   5.536
 1968SOL    HW1 6803   2.596   0.497   5.569
 1968SOL    HW2 6804   2.434   0.514   5.563
 1969SOL     OW 6805   3.000   1.428   1.587
 1969SOL    HW1 6806   3.035   1.345   1.630
 1969SOL    HW2 6807   3.018   1.425   1.488
 1970SOL     OW 6808   0.582   0.293   5.136
 1970SOL    HW1 6809   0.571   0.256   5.228
 1970SOL    HW2 6810   0.503   0.350   5.113
 1971SOL     OW 6811   0.405   0.908   5.693
 1971SOL    HW1 6812   0.477   0.890   5.760
 1971SOL    HW2 6813   0.316   0.883   5.731
 1972SOL     OW 6814   5.912   2.332   0.935
 1972SOL    HW1 6815   5.916   2.409   0.999
 1972SOL    HW2 6816   5.881   2.250   0.984
 1973SOL     OW 6817   2.699   4.296   1.549
 1973SOL    HW1 6818   2.797   4.305   1.562
 1973SOL    HW2 6819   2.679   4.286   1.451
 1974SOL     OW 6820   4.902   6.854   4.698
 1974SOL    HW1 6821   4.993   6.878   4.732
 1974SOL    HW2 6822   4.841   6.933   4.707
 1975SOL     OW 6823   2.409   1.991   4.181
 1975SOL    HW1 6824   2.312   1.999   4.157
 1975SOL    HW2 6825   2.464   2.018   4.102
 1976SOL     OW 6826   5.380   5.722   0.829
 1976SOL    HW1 6827   5.321   5.649   0.794
 1976SOL    HW2 6828   5.367   5.730   0.927
 1977SOL     OW 6829   1.942   3.273   5.354
 1977SOL    HW1 6830   1.872   3.281   5.283
 1977SOL    HW2 6831   2.018   3.218   5.320
 1978SOL     OW 6832   1.904   5.568   3.035
 1978SOL    HW1 6833   1.885   5.529   2.945
 1978SOL    HW2 6834   1.892   5.668   3.031
 1979SOL     OW 6835   5.380   5.249   6.909
 1979SOL    HW1 6836   5.282   5.257   6.929
 1979SOL    HW2 6837   5.432   5.302   6.976
 1980SOL     OW 6838   4.304   0.442   3.490
 1980SOL    HW1 6839   4.262   0.510   3.549
 1980SOL    HW2 6840   4.355   0.488   3.416
 1981SOL     OW 6841   5.865   2.701   2.638
 1981SOL    HW1 6842   5.802   2.719   2.562
 1981SOL    HW2 6843   5.958   2.690   2.602
 1982SOL     OW 6844   0.012   3.723   3.666
 1982SOL    HW1 6845   6.969   3.665   3.626
 1982SOL    HW2 6846   7.015   3.819   3.655
 1983SOL     OW 6847   1.671   0.747   1.422
 1983SOL    HW1 6848   1.662   0.816   1.350
 1983SOL    HW2 6849   1.759   0.759   1.469
 1984SOL     OW 6850   4.462   2.477   5.023
 1984SOL    HW1 6851   4.367   2.472   5.054
 1984SOL    HW2 6852   4.464   2.497   4.925
 1985SOL     OW 6853   0.062   5.917   1.891
 1985SOL    HW1 6854   0.059   5.968   1.805
 1985SOL    HW2 6855   0.013   5.967   1.962
 1986SOL     OW 6856   3.281   0.815   6.007
 1986SOL    HW1 6857   3.380   0.821   5.993
 1986SOL    HW2 6858   3.258   0.725   6.045
 1987SOL     OW 6859   2.616   1.406   4.049
 1987SOL    HW1 6860   2.710   1.390   4.080
 1987SOL    HW2 6861   2.580   1.489   4.093
 1988SOL     OW 6862   0.657   2.117   0.813
 1988SOL    HW1 6863   0.753   2.088   0.819
 1988SOL    HW2 6864   0.651   2.203   0.763
 1989SOL     OW 6865   2.042   5.856   4.351
 1989SOL    HW1 6866   2.135   5.868   4.386
 1989SOL    HW2 6867   1.994   5.943   4.355
 1990SOL     OW 6868   3.296   5.571   0.190
 1990SOL    HW1 6869   3.236   5.650   0.173
 1990SOL    HW2 6870   3.371   5.600   0.250
 1991SOL     OW 6871   1.861   5.911   0.237
 1991SOL    HW1 6872   1.872   6.004   0.202
 1991SOL    HW2 6873   1.765   5.883   0.229
 1992SOL     OW 6874   0.184   0.631   0.162
 1992SOL    HW1 6875   0.125   0.661   0.236
 1992SOL    HW2 6876   0.133   0.567   0.103
 1993SOL     OW 6877   3.305   1.565   5.198
 1993SOL    HW1 6878   3.233   1.571   5.266
 1993SOL    HW2 6879   3.267   1.584   5.107
 1994SOL     OW 6880   5.842   2.304   1.610
 1994SOL    HW1 6881   5.811   2.388   1.565
 1994SOL    HW2 6882   5.912   2.260   1.554
 1995SOL     OW 6883   5.475   2.733   3.816
 1995SOL    HW1 6884   5.448   2.756   3.722
 1995SOL    HW2 6885   5.527   2.809   3.855
 1996SOL     OW 6886   2.538   1.811   1.382
 1996SOL    HW1 6887   2.552   1.834   1.478
 1996SOL    HW2 6888   2.580   1.722   1.363
 1997SOL     OW 6889   3.372   1.631   3.950
 1997SOL    HW1 6890   3.366   1.649   4.049
 1997SOL    HW2 6891   3.456   1.673   3.915
 1998SOL     OW 6892   1.392   4.137   0.734
 1998SOL    HW1 6893   1.359   4.224   0.697
 1998SOL    HW2 6894   1.492   4.135   0.731
 1999SOL     OW 6895   0.783   0.356   5.442
 1999SOL    HW1 6896   0.685   0.335   5.435
 1999SOL    HW2 6897   0.822   0.364   5.350
 2000SOL     OW 6898   3.765   3.215   5.786
 2000SOL    HW1 6899   3.805   3.205   5.877
 2000SOL    HW2 6900   3.668   3.240   5.795
 2001SOL     OW 6901   2.254   1.367   0.583
 2001SOL    HW1 6902   2.230   1.370   0.680
 2001SOL    HW2 6903   2.348   1.336   0.573
 2002SOL     OW 6904   0.370   5.133   0.830
 2002SOL    HW1 6905   0.360   5.166   0.737
 2002SOL    HW2 6906   0.360   5.034   0.832
 2003SOL     OW 6907   6.706   4.675   1.825
 2003SOL    HW1 6908   6.748   4.592   1.861
 2003SOL    HW2 6909   6.757   4.755   1.857
 2004SOL     OW 6910   4.441   0.457   4.905
 2004SOL    HW1 6911   4.428   0.545   4.860
 2004SOL    HW2 6912   4.499   0.469   4.985
 2005SOL     OW 6913   0.019   4.820   0.127
 2005SOL    HW1 6914   0.036   4.905   0.077
 2005SOL    HW2 6915   0.089   4.753   0.105
 2006SOL     OW 6916   5.487   6.577   4.118
 2006SOL    HW1 6917   5.500   6.667   4.158
 2006SOL    HW2 6918   5.407   6.578   4.057
 2007SOL     OW 6919   5.425   4.169   1.456
 2007SOL    HW1 6920   5.420   4.241   1.525
 2007SOL    HW2 6921   5.352   4.103   1.471
 2008SOL     OW 6922   2.149   3.403   3.282
 2008SOL    HW1 6923   2.142   3.431   3.378
 2008SOL    HW2 6924   2.171   3.483   3.225
 2009SOL     OW 6925   5.197   6.174   2.477
 2009SOL    HW1 6926   5.198   6.272   2.458
 2009SOL    HW2 6927   5.269   6.129   2.424
 2010SOL     OW 6928   2.082   1.444   1.790
 2010SOL    HW1 6929   1.993   1.462   1.831
 2010SOL    HW2 6930   2.136   1.529   1.788
 2011SOL     OW 6931   0.363   1.023   4.881
 2011SOL    HW1 6932   0.277   1.073   4.870
 2011SOL    HW2 6933   0.436   1.072   4.833
 2012SOL     OW 6934   1.531   3.574   2.301
 2012SOL    HW1 6935   1.518   3.656   2.245
 2012SOL    HW2 6936   1.599   3.514   2.258
 2013SOL     OW 6937   6.701   3.480   3.852
 2013SOL    HW1 6938   6.670   3.416   3.781
 2013SOL    HW2 6939   6.623   3.533   3.885
 2014SOL     OW 6940   3.121   0.012   2.829
 2014SOL    HW1 6941   3.099   0.096   2.779
 2014SOL    HW2 6942   3.170   6.977   2.769
 2015SOL     OW 6943   3.235   6.390   0.273
 2015SOL    HW1 6944   3.209   6.323   0.204
 2015SOL    HW2 6945   3.292   6.461   0.232
 2016SOL     OW 6946   1.389   5.712   5.056
 2016SOL    HW1 6947   1.470   5.757   5.019
 2016SOL    HW2 6948   1.377   5.737   5.152
 2017SOL     OW 6949   4.656   0.396   3.318
 2017SOL    HW1 6950   4.660   0.431   3.412
 2017SOL    HW2 6951   4.567   0.354   3.302
 2018SOL     OW 6952   6.465   2.792   3.929
 2018SOL    HW1 6953   6.393   2.840   3.979
 2018SOL    HW2 6954   6.538   2.856   3.905
 2019SOL     OW 6955   5.959   4.016   6.317
 2019SOL    HW1 6956   5.961   4.045   6.413
 2019SOL    HW2 6957   5.908   4.083   6.263
 2020SOL     OW 6958   1.733   6.233   5.695
 2020SOL    HW1 6959   1.681   6.167   5.750
 2020SOL    HW2 6960   1.703   6.325   5.718
 2021SOL     OW 6961   6.246   6.536   4.363
 2021SOL    HW1 6962   6.228   6.451   4.313
 2021SOL    HW2 6963   6.219   6.614   4.307
 2022SOL     OW 6964   1.759   4.628   4.435
 2022SOL    HW1 6965   1.789   4.560   4.369
 2022SOL    HW2 6966   1.836   4.658   4.490
 2023SOL     OW 6967   0.952   0.117   0.024
 2023SOL    HW1 6968   1.010   0.193   7.023
 2023SOL    HW2 6969   1.007   0.050   0.074
 2024SOL     OW 6970   6.763   5.971   3.814
 2024SOL    HW1 6971   6.715   6.040   3.761
 2024SOL    HW2 6972   6.702   5.893   3.831
 2025SOL     OW 6973   3.273   0.757   4.091
 2025SOL    HW1 6974   3.371   0.741   4.083
 2025SOL    HW2 6975   3.235   0.780   4.002
 2026SOL     OW 6976   6.806   1.921   6.661
 2026SOL    HW1 6977   6.834   1.937   6.755
 2026SOL    HW2 6978   6.879   1.950   6.599
 2027SOL     OW 6979   0.443   6.908   1.508
 2027SOL    HW1 6980   0.508   6.898   1.582
 2027SOL    HW2 6981   0.488   6.888   1.421
 2028SOL     OW 6982   3.624   5.624   3.457
 2028SOL    HW1 6983   3.534   5.664   3.476
 2028SOL    HW2 6984   3.639   5.547   3.519
 2029SOL     OW 6985   6.445   2.447   6.985
 2029SOL    HW1 6986   6.538   2.410   6.986
 2029SOL    HW2 6987   6.410   2.446   6.891
 2030SOL     OW 6988   3.495   0.459   2.708
 2030SOL    HW1 6989   3.473   0.547   2.666
 2030SOL    HW2 6990   3.580   0.424   2.669
 2031SOL     OW 6991   0.197   6.217   2.347
 2031SOL    HW1 6992   0.105   6.250   2.323
 2031SOL    HW2 6993   0.265   6.269   2.296
 2032SOL     OW 6994   3.457   1.502   1.374
 2032SOL    HW1 6995   3.451   1.587   1.427
 2032SOL    HW2 6996   3.535   1.507   1.311
 2033SOL     OW 6997   2.332   0.616   0.878
 2033SOL    HW1 6998   2.326   0.651   0.972
 2033SOL    HW2 6999   2.292   0.683   0.815
 2034SOL     OW 7000   1.550   5.118   5.425
 2034SOL    HW1 7001   1.595   5.030   5.441
 2034SOL    HW2 7002   1.619   5.188   5.404
 2035SOL     OW 7003   6.310   6.597   2.609
 2035SOL    HW1 7004   6.271   6.549   2.530
 2035SOL    HW2 7005   6.285   6.694   2.603
 2036SOL     OW 7006   1.543   3.844   3.526
 2036SOL    HW1 7007   1.444   3.831   3.518
 2036SOL    HW2 7008   1.578   3.782   3.596
 2037SOL     OW 7009   6.410   2.709   6.450
 2037SOL    HW1 7010   6.447   2.752   6.368
 2037SOL    HW2 7011   6.468   2.632   6.477
 2038SOL     OW 7012   2.415   1.024   0.483
 2038SOL    HW1 7013   2.411   1.049   0.386
 2038SOL    HW2 7014   2.431   1.107   0.538
 2039SOL     OW 7015   7.022   6.826   2.835
 2039SOL    HW1 7016   6.988   6.903   2.889
 2039SOL    HW2 7017   7.010   6.741   2.888
 2040SOL     OW 7018   2.311   1.934   0.450
 2040SOL    HW1 7019   2.389   1.981   0.489
 2040SOL    HW2 7020   2.342   1.862   0.388
 2041SOL     OW 7021   1.071   0.305   5.513
 2041SOL    HW1 7022   1.109   0.380   5.567
 2041SOL    HW2 7023   0.971   0.305   5.521
 2042SOL     OW 7024   5.016   0.347   5.879
 2042SOL    HW1 7025   5.051   0.390   5.962
 2042SOL    HW2 7026   4.928   0.303   5.898
 2043SOL     OW 7027   6.147   2.401   2.821
 2043SOL    HW1 7028   6.143   2.325   2.757
 2043SOL    HW2 7029   6.054   2.426   2.849
 2044SOL     OW 7030   6.063   0.756   0.682
 2044SOL    HW1 7031   6.035   0.661   0.674
 2044SOL    HW2 7032   6.094   0.789   0.592
 2045SOL     OW 7033   1.047   5.177   4.357
 2045SOL    HW1 7034   1.052   5.225   4.445
 2045SOL    HW2 7035   1.064   5.080   4.372
 2046SOL     OW 7036   6.214   2.479   5.428
 2046SOL    HW1 7037   6.293   2.417   5.422
 2046SOL    HW2 7038   6.141   2.445   5.369
 2047SOL     OW 7039   6.546   2.733   1.031
 2047SOL    HW1 7040   6.610   2.666   0.993
 2047SOL    HW2 7041   6.460   2.687   1.054
 2048SOL     OW 7042   0.325   0.592   4.736
 2048SOL    HW1 7043   0.240   0.632   4.702
 2048SOL    HW2 7044   0.377   0.555   4.659
 2049SOL     OW 7045   5.184   1.410   3.940
 2049SOL    HW1 7046   5.243   1.427   3.861
 2049SOL    HW2 7047   5.130   1.493   3.959
 2050SOL     OW 7048   6.903   2.725   4.600
 2050SOL    HW1 7049   6.859   2.715   4.689
 2050SOL    HW2 7050   6.834   2.734   4.529
 2051SOL     OW 7051   1.926   5.856   6.869
 2051SOL    HW1 7052   1.954   5.784   6.806
 2051SOL    HW2 7053   2.003   5.882   6.927
 2052SOL     OW 7054   1.545   2.937   0.752
 2052SOL    HW1 7055   1.535   2.840   0.777
 2052SOL    HW2 7056   1.491   2.956   0.671
 2053SOL     OW 7057   1.146   5.428   4.788
 2053SOL    HW1 7058   1.162   5.396   4.694
 2053SOL    HW2 7059   1.119   5.351   4.845
 2054SOL     OW 7060   3.167   3.626   3.531
 2054SOL    HW1 7061   3.184   3.597   3.625
 2054SOL    HW2 7062   3.070   3.649   3.519
 2055SOL     OW 7063   6.300   2.892   5.006
 2055SOL    HW1 7064   6.354   2.820   5.049
 2055SOL    HW2 7065   6.352   2.933   4.931
 2056SOL     OW 7066   4.220   4.747   1.477
 2056SOL    HW1 7067   4.308   4.712   1.444
 2056SOL    HW2 7068   4.235   4.795   1.564
 2057SOL     OW 7069   4.907   3.307   5.027
 2057SOL    HW1 7070   4.857   3.393   5.036
 2057SOL    HW2 7071   4.868   3.253   4.953
 2058SOL     OW 7072   0.617   6.587   2.447
 2058SOL    HW1 7073   0.608   6.599   2.348
 2058SOL    HW2 7074   0.577   6.666   2.494
 2059SOL     OW 7075   2.770   0.077   5.696
 2059SOL    HW1 7076   2.745   0.172   5.673
 2059SOL    HW2 7077   2.756   0.019   5.615
 2060SOL     OW 7078   0.133   3.201   1.865
 2060SOL    HW1 7079   0.042   3.160   1.859
 2060SOL    HW2 7080   0.142   3.272   1.795
 2061SOL     OW 7081   2.020   2.087   2.264
 2061SOL    HW1 7082   1.971   2.151   2.204
 2061SOL    HW2 7083   2.103   2.131   2.298
 2062SOL     OW 7084   6.822   6.016   5.345
 2062SOL    HW1 7085   6.831   6.114   5.326
 2062SOL    HW2 7086   6.735   5.999   5.392
 2063SOL     OW 7087   1.196   6.711   4.596
 2063SOL    HW1 7088   1.211   6.749   4.687
 2063SOL    HW2 7089   1.124   6.642   4.599
 2064SOL     OW 7090   0.964   3.110   4.460
 2064SOL    HW1 7091   1.010   3.195   4.435
 2064SOL    HW2 7092   1.028   3.034   4.454
 2065SOL     OW 7093   5.456   3.446   5.664
 2065SOL    HW1 7094   5.364   3.481   5.644
 2065SOL    HW2 7095   5.494   3.494   5.743
 2066SOL     OW 7096   6.485   4.401   5.609
 2066SOL    HW1 7097   6.507   4.452   5.525
 2066SOL    HW2 7098   6.390   4.418   5.634
 2067SOL     OW 7099   6.339   4.921   1.143
 2067SOL    HW1 7100   6.368   4.835   1.186
 2067SOL    HW2 7101   6.246   4.943   1.174
 2068SOL     OW 7102   3.845   1.201   4.343
 2068SOL    HW1 7103   3.875   1.262   4.416
 2068SOL    HW2 7104   3.910   1.126   4.333
 2069SOL     OW 7105   0.413   2.181   4.104
 2069SOL    HW1 7106   0.359   2.265   4.095
 2069SOL    HW2 7107   0.366   2.117   4.165
 2070SOL     OW 7108   1.397   2.951   0.999
 2070SOL    HW1 7109   1.354   2.864   0.978
 2070SOL    HW2 7110   1.461   2.975   0.925
 2071SOL     OW 7111   5.825   2.074   6.171
 2071SOL    HW1 7112   5.877   2.137   6.113
 2071SOL    HW2 7113   5.874   2.059   6.256
 2072SOL     OW 7114   4.112   5.204   5.397
 2072SOL    HW1 7115   4.101   5.302   5.418
 2072SOL    HW2 7116   4.145   5.156   5.478
 2073SOL     OW 7117   3.497   6.281   5.760
 2073SOL    HW1 7118   3.550   6.300   5.843
 2073SOL    HW2 7119   3.521   6.190   5.726
 2074SOL     OW 7120   1.664   2.445   6.561
 2074SOL    HW1 7121   1.697   2.503   6.487
 2074SOL    HW2 7122   1.718   2.361   6.564
 2075SOL     OW 7123   6.697   2.102   3.121
 2075SOL    HW1 7124   6.789   2.089   3.083
 2075SOL    HW2 7125   6.632   2.047   3.069
 2076SOL     OW 7126   6.345   0.320   5.560
 2076SOL    HW1 7127   6.418   0.306   5.627
 2076SOL    HW2 7128   6.264   0.269   5.587
 2077SOL     OW 7129   5.877   1.972   1.585
 2077SOL    HW1 7130   5.898   1.967   1.487
 2077SOL    HW2 7131   5.962   1.976   1.638
 2078SOL     OW 7132   1.265   5.173   5.912
 2078SOL    HW1 7133   1.352   5.129   5.891
 2078SOL    HW2 7134   1.275   5.273   5.903
 2079SOL     OW 7135   5.956   0.714   2.222
 2079SOL    HW1 7136   5.897   0.794   2.210
 2079SOL    HW2 7137   5.972   0.698   2.319
 2080SOL     OW 7138   3.551   1.809   4.921
 2080SOL    HW1 7139   3.571   1.755   4.840
 2080SOL    HW2 7140   3.456   1.842   4.917
 2081SOL     OW 7141   0.977   6.710   4.277
 2081SOL    HW1 7142   1.056   6.649   4.271
 2081SOL    HW2 7143   0.901   6.671   4.225
 2082SOL     OW 7144   0.661   6.450   3.099
 2082SOL    HW1 7145   0.738   6.386   3.099
 2082SOL    HW2 7146   0.679   6.525   3.163
 2083SOL     OW 7147   0.650   5.982   4.376
 2083SOL    HW1 7148   0.553   6.004   4.364
 2083SOL    HW2 7149   0.689   5.955   4.287
 2084SOL     OW 7150   0.876   2.679   1.445
 2084SOL    HW1 7151   0.962   2.678   1.394
 2084SOL    HW2 7152   0.799   2.671   1.382
 2085SOL     OW 7153   5.225   6.307   0.748
 2085SOL    HW1 7154   5.171   6.336   0.826
 2085SOL    HW2 7155   5.291   6.379   0.724
 2086SOL     OW 7156   3.678   5.706   6.610
 2086SOL    HW1 7157   3.580   5.724   6.615
 2086SOL    HW2 7158   3.718   5.715   6.702
 2087SOL     OW 7159   4.704   1.873   0.381
 2087SOL    HW1 7160   4.717   1.960   0.429
 2087SOL    HW2 7161   4.608   1.845   0.389
 2088SOL     OW 7162   0.992   5.846   5.455
 2088SOL    HW1 7163   0.924   5.776   5.435
 2088SOL    HW2 7164   0.969   5.930   5.407
 2089SOL     OW 7165   3.993   2.291   5.303
 2089SOL    HW1 7166   3.979   2.197   5.271
 2089SOL    HW2 7167   3.905   2.332   5.323
 2090SOL     OW 7168   4.929   2.851   5.693
 2090SOL    HW1 7169   4.926   2.902   5.607
 2090SOL    HW2 7170   4.982   2.767   5.680
 2091SOL     OW 7171   6.725   6.142   0.935
 2091SOL    HW1 7172   6.784   6.221   0.943
 2091SOL    HW2 7173   6.656   6.144   1.008
 2092SOL     OW 7174   5.802   3.764   0.893
 2092SOL    HW1 7175   5.880   3.767   0.954
 2092SOL    HW2 7176   5.832   3.783   0.799
 2093SOL     OW 7177   3.583   2.067   2.435
 2093SOL    HW1 7178   3.646   2.070   2.358
 2093SOL    HW2 7179   3.497   2.112   2.409
 2094SOL     OW 7180   5.584   2.155   0.725
 2094SOL    HW1 7181   5.641   2.103   0.661
 2094SOL    HW2 7182   5.491   2.161   0.689
 2095SOL     OW 7183   6.161   5.851   3.529
 2095SOL    HW1 7184   6.209   5.870   3.615
 2095SOL    HW2 7185   6.200   5.769   3.487
 2096SOL     OW 7186   4.502   5.938   2.821
 2096SOL    HW1 7187   4.466   5.923   2.913
 2096SOL    HW2 7188   4.601   5.949   2.826
 2097SOL     OW 7189   2.773   3.473   6.833
 2097SOL    HW1 7190   2.782   3.376   6.856
 2097SOL    HW2 7191   2.852   3.523   6.869
 2098SOL     OW 7192   4.138   5.932   3.233
 2098SOL    HW1 7193   4.230   5.963   3.211
 2098SOL    HW2 7194   4.071   5.998   3.199
 2099SOL     OW 7195   4.274   1.817   6.752
 2099SOL    HW1 7196   4.284   1.848   6.847
 2099SOL    HW2 7197   4.178   1.798   6.734
 2100SOL     OW 7198   5.138   1.406   0.745
 2100SOL    HW1 7199   5.109   1.324   0.794
 2100SOL    HW2 7200   5.058   1.452   0.706
 2101SOL     OW 7201   6.822   6.358   1.051
 2101SOL    HW1 7202   6.791   6.388   1.141
 2101SOL    HW2 7203   6.921   6.372   1.044
 2102SOL     OW 7204   4.615   3.770   1.422
 2102SOL    HW1 7205   4.616   3.814   1.512
 2102SOL    HW2 7206   4.633   3.839   1.352
 2103SOL     OW 7207   2.810   3.450   0.636
 2103SOL    HW1 7208   2.875   3.513   0.593
 2103SOL    HW2 7209   2.834   3.437   0.732
 2104SOL     OW 7210   1.143   4.819   1.957
 2104SOL    HW1 7211   1.207   4.849   2.028
 2104SOL    HW2 7212   1.049   4.830   1.990
 2105SOL     OW 7213   3.554   4.320   0.091
 2105SOL    HW1 7214   3.595   4.317   7.028
 2105SOL    HW2 7215   3.607   4.381   0.150
 2106SOL     OW 7216   5.508   3.585   1.155
 2106SOL    HW1 7217   5.563   3.501   1.160
 2106SOL    HW2 7218   5.501   3.625   1.246
 2107SOL     OW 7219   6.060   3.143   5.619
 2107SOL    HW1 7220   6.003   3.063   5.637
 2107SOL    HW2 7221   6.055   3.168   5.522
 2108SOL     OW 7222   5.767   6.395   5.753
 2108SOL    HW1 7223   5.773   6.314   5.695
 2108SOL    HW2 7224   5.680   6.440   5.738
 2109SOL     OW 7225   3.282   5.749   2.050
 2109SOL    HW1 7226   3.232   5.825   2.008
 2109SOL    HW2 7227   3.262   5.745   2.148
 2110SOL     OW 7228   4.075   0.498   5.946
 2110SOL    HW1 7229   4.019   0.420   5.918
 2110SOL    HW2 7230   4.047   0.579   5.894
 2111SOL     OW 7231   1.288   1.975   5.806
 2111SOL    HW1 7232   1.276   2.034   5.886
 2111SOL    HW2 7233   1.253   2.020   5.725
 2112SOL     OW 7234   5.764   2.395   6.343
 2112SOL    HW1 7235   5.696   2.406   6.271
 2112SOL    HW2 7236   5.751   2.465   6.413
 2113SOL     OW 7237   1.799   6.990   4.418
 2113SOL    HW1 7238   1.701   7.006   4.405
 2113SOL    HW2 7239   1.840   0.039   4.466
 2114SOL     OW 7240   2.146   2.688   0.149
 2114SOL    HW1 7241   2.059   2.708   0.105
 2114SOL    HW2 7242   2.142   2.595   0.188
 2115SOL     OW 7243   1.326   4.442   1.618
 2115SOL    HW1 7244   1.244   4.450   1.563
 2115SOL    HW2 7245   1.307   4.472   1.712
 2116SOL     OW 7246   0.660   2.619   0.995
 2116SOL    HW1 7247   0.737   2.649   0.938
 2116SOL    HW2 7248   0.574   2.642   0.949
 2117SOL     OW 7249   5.122   3.041   1.668
 2117SOL    HW1 7250   5.038   3.033   1.723
 2117SOL    HW2 7251   5.194   2.984   1.707
 2118SOL     OW 7252   6.121   3.653   2.296
 2118SOL    HW1 7253   6.125   3.696   2.387
 2118SOL    HW2 7254   6.075   3.715   2.233
 2119SOL     OW 7255   1.402   1.436   0.165
 2119SOL    HW1 7256   1.327   1.497   0.137
 2119SOL    HW2 7257   1.397   1.421   0.264
 2120SOL     OW 7258   6.300   1.763   2.708
 2120SOL    HW1 7259   6.290   1.733   2.803
 2120SOL    HW2 7260   6.336   1.688   2.653
 2121SOL     OW 7261   2.292   2.268   6.238
 2121SOL    HW1 7262   2.193   2.278   6.231
 2121SOL    HW2 7263   2.333   2.269   6.147
 2122SOL     OW 7264   5.944   6.561   6.230
 2122SOL    HW1 7265   5.985   6.561   6.321
 2122SOL    HW2 7266   6.014   6.534   6.162
 2123SOL     OW 7267   6.457   6.056   2.525
 2123SOL    HW1 7268   6.483   5.968   2.563
 2123SOL    HW2 7269   6.538   6.112   2.511
 2124SOL     OW 7270   2.940   1.778   5.815
 2124SOL    HW1 7271   2.881   1.858   5.826
 2124SOL    HW2 7272   2.982   1.779   5.725
 2125SOL     OW 7273   1.635   6.274   3.010
 2125SOL    HW1 7274   1.663   6.285   3.106
 2125SOL    HW2 7275   1.598   6.360   2.976
 2126SOL     OW 7276   4.220   3.010   0.061
 2126SOL    HW1 7277   4.147   3.050   0.006
 2126SOL    HW2 7278   4.307   3.017   0.012
 2127SOL     OW 7279   0.414   2.164   5.497
 2127SOL    HW1 7280   0.390   2.172   5.593
 2127SOL    HW2 7281   0.337   2.196   5.441
 2128SOL     OW 7282   5.986   3.753   1.101
 2128SOL    HW1 7283   5.900   3.765   1.150
 2128SOL    HW2 7284   6.026   3.664   1.125
 2129SOL     OW 7285   5.068   4.280   4.273
 2129SOL    HW1 7286   4.982   4.331   4.270
 2129SOL    HW2 7287   5.049   4.182   4.285
 2130SOL     OW 7288   2.584   1.527   1.426
 2130SOL    HW1 7289   2.493   1.488   1.444
 2130SOL    HW2 7290   2.645   1.505   1.502
 2131SOL     OW 7291   5.404   2.069   0.535
 2131SOL    HW1 7292   5.304   2.071   0.530
 2131SOL    HW2 7293   5.435   1.978   0.564
 2132SOL     OW 7294   3.291   1.339   0.002
 2132SOL    HW1 7295   3.279   1.401   0.079
 2132SOL    HW2 7296   3.217   1.354   6.964
 2133SOL     OW 7297   2.291   2.372   1.484
 2133SOL    HW1 7298   2.334   2.284   1.503
 2133SOL    HW2 7299   2.251   2.371   1.392
 2134SOL     OW 7300   1.230   0.686   4.630
 2134SOL    HW1 7301   1.288   0.641   4.562
 2134SOL    HW2 7302   1.253   0.784   4.634
 2135SOL     OW 7303   0.565   1.958   3.989
 2135SOL    HW1 7304   0.494   1.988   4.053
 2135SOL    HW2 7305   0.522   1.929   3.903
 2136SOL     OW 7306   0.837   3.527   4.866
 2136SOL    HW1 7307   0.840   3.480   4.778
 2136SOL    HW2 7308   0.803   3.620   4.853
 2137SOL     OW 7309   0.928   7.002   4.881
 2137SOL    HW1 7310   0.987   6.924   4.903
 2137SOL    HW2 7311   0.896   0.016   4.966
 2138SOL     OW 7312   6.286   2.508   1.783
 2138SOL    HW1 7313   6.274   2.560   1.698
 2138SOL    HW2 7314   6.255   2.414   1.769
 2139SOL     OW 7315   3.788   0.857   3.673
 2139SOL    HW1 7316   3.721   0.842   3.746
 2139SOL    HW2 7317   3.750   0.922   3.606
 2140SOL     OW 7318   3.063   6.182   2.818
 2140SOL    HW1 7319   3.037   6.240   2.742
 2140SOL    HW2 7320   3.005   6.100   2.819
 2141SOL     OW 7321   6.673   3.147   1.832
 2141SOL    HW1 7322   6.590   3.198   1.809
 2141SOL    HW2 7323   6.698   3.087   1.757
 2142SOL     OW 7324   1.402   2.110   3.210
 2142SOL    HW1 7325   1.472   2.134   3.278
 2142SOL    HW2 7326   1.311   2.117   3.252
 2143SOL     OW 7327   3.643   6.176   1.110
 2143SOL    HW1 7328   3.580   6.253   1.101
 2143SOL    HW2 7329   3.598   6.101   1.158
 2144SOL     OW 7330   1.517   0.714   3.171
 2144SOL    HW1 7331   1.480   0.696   3.080
 2144SOL    HW2 7332   1.516   0.629   3.224
 2145SOL     OW 7333   3.485   5.680   3.759
 2145SOL    HW1 7334   3.519   5.771   3.735
 2145SOL    HW2 7335   3.456   5.632   3.676
 2146SOL     OW 7336   3.472   4.102   2.567
 2146SOL    HW1 7337   3.430   4.193   2.572
 2146SOL    HW2 7338   3.406   4.033   2.599
 2147SOL     OW 7339   0.227   1.376   6.986
 2147SOL    HW1 7340   0.182   1.339   6.905
 2147SOL    HW2 7341   0.163   1.433   0.009
 2148SOL     OW 7342   4.931   3.411   3.930
 2148SOL    HW1 7343   5.025   3.443   3.922
 2148SOL    HW2 7344   4.870   3.489   3.942
 2149SOL     OW 7345   3.524   0.689   1.791
 2149SOL    HW1 7346   3.613   0.734   1.804
 2149SOL    HW2 7347   3.491   0.656   1.879
 2150SOL     OW 7348   3.394   2.110   2.717
 2150SOL    HW1 7349   3.447   2.195   2.706
 2150SOL    HW2 7350   3.457   2.033   2.728
 2151SOL     OW 7351   3.418   2.099   5.389
 2151SOL    HW1 7352   3.404   2.024   5.323
 2151SOL    HW2 7353   3.455   2.062   5.474
 2152SOL     OW 7354   5.381   6.346   1.680
 2152SOL    HW1 7355   5.354   6.276   1.746
 2152SOL    HW2 7356   5.448   6.407   1.723
 2153SOL     OW 7357   4.030   0.940   4.408
 2153SOL    HW1 7358   4.116   0.905   4.370
 2153SOL    HW2 7359   3.968   0.864   4.427
 2154SOL     OW 7360   3.286   5.809   4.749
 2154SOL    HW1 7361   3.214   5.761   4.700
 2154SOL    HW2 7362   3.250   5.895   4.785
 2155SOL     OW 7363   1.664   5.141   0.081
 2155SOL    HW1 7364   1.622   5.065   0.030
 2155SOL    HW2 7365   1.763   5.133   0.077
 2156SOL     OW 7366   2.202   0.201   1.833
 2156SOL    HW1 7367   2.279   0.176   1.774
 2156SOL    HW2 7368   2.203   0.143   1.914
 2157SOL     OW 7369   6.549   1.115   4.493
 2157SOL    HW1 7370   6.490   1.050   4.541
 2157SOL    HW2 7371   6.588   1.180   4.559
 2158SOL     OW 7372   3.187   6.572   6.960
 2158SOL    HW1 7373   3.274   6.550   7.004
 2158SOL    HW2 7374   3.189   6.667   6.927
 2159SOL     OW 7375   1.608   6.351   4.995
 2159SOL    HW1 7376   1.680   6.355   4.926
 2159SOL    HW2 7377   1.649   6.361   5.086
 2160SOL     OW 7378   4.548   4.165   1.628
 2160SOL    HW1 7379   4.501   4.203   1.708
 2160SOL    HW2 7380   4.481   4.124   1.566
 2161SOL     OW 7381   4.877   3.560   3.338
 2161SOL    HW1 7382   4.942   3.529   3.407
 2161SOL    HW2 7383   4.826   3.482   3.303
 2162SOL     OW 7384   1.715   0.709   0.264
 2162SOL    HW1 7385   1.697   0.801   0.297
 2162SOL    HW2 7386   1.813   0.698   0.245
 2163SOL     OW 7387   0.777   6.594   6.456
 2163SOL    HW1 7388   0.709   6.647   6.507
 2163SOL    HW2 7389   0.792   6.507   6.503
 2164SOL     OW 7390   2.079   0.830   5.895
 2164SOL    HW1 7391   1.985   0.820   5.861
 2164SOL    HW2 7392   2.143   0.813   5.820
 2165SOL     OW 7393   1.861   0.902   2.344
 2165SOL    HW1 7394   1.958   0.926   2.338
 2165SOL    HW2 7395   1.832   0.902   2.439
 2166SOL     OW 7396   1.933   2.586   5.858
 2166SOL    HW1 7397   1.950   2.669   5.804
 2166SOL    HW2 7398   2.011   2.569   5.918
 2167SOL     OW 7399   3.103   0.318   2.082
 2167SOL    HW1 7400   3.113   0.220   2.097
 2167SOL    HW2 7401   3.015   0.349   2.119
 2168SOL     OW 7402   6.284   3.034   5.328
 2168SOL    HW1 7403   6.268   3.127   5.362
 2168SOL    HW2 7404   6.223   3.016   5.251
 2169SOL     OW 7405   5.282   2.448   5.961
 2169SOL    HW1 7406   5.292   2.541   5.996
 2169SOL    HW2 7407   5.368   2.418   5.919
 2170SOL     OW 7408   5.145   4.683   5.082
 2170SOL    HW1 7409   5.203   4.688   5.163
 2170SOL    HW2 7410   5.171   4.605   5.026
 2171SOL     OW 7411   6.709   2.603   0.044
 2171SOL    HW1 7412   6.651   2.613   0.125
 2171SOL    HW2 7413   6.740   2.508   0.037
 2172SOL     OW 7414   3.138   1.280   0.413
 2172SOL    HW1 7415   3.053   1.243   0.449
 2172SOL    HW2 7416   3.165   1.229   0.331
 2173SOL     OW 7417   4.115   0.149   5.889
 2173SOL    HW1 7418   4.119   0.099   5.976
 2173SOL    HW2 7419   4.027   0.197   5.883
 2174SOL     OW 7420   6.608   4.525   5.877
 2174SOL    HW1 7421   6.605   4.495   5.782
 2174SOL    HW2 7422   6.534   4.481   5.928
 2175SOL     OW 7423   3.340   1.320   3.491
 2175SOL    HW1 7424   3.375   1.230   3.465
 2175SOL    HW2 7425   3.273   1.351   3.423
 2176SOL     OW 7426   1.476   2.197   1.781
 2176SOL    HW1 7427   1.444   2.102   1.773
 2176SOL    HW2 7428   1.477   2.239   1.690
 2177SOL     OW 7429   6.587   1.276   2.034
 2177SOL    HW1 7430   6.579   1.367   2.075
 2177SOL    HW2 7431   6.674   1.235   2.060
 2178SOL     OW 7432   1.085   3.904   0.568
 2178SOL    HW1 7433   1.148   3.895   0.645
 2178SOL    HW2 7434   1.030   3.820   0.559
 2179SOL     OW 7435   1.891   5.402   3.837
 2179SOL    HW1 7436   1.923   5.332   3.901
 2179SOL    HW2 7437   1.916   5.376   3.744
 2180SOL     OW 7438   3.128   3.730   2.995
 2180SOL    HW1 7439   3.169   3.779   2.918
 2180SOL    HW2 7440   3.195   3.723   3.069
 2181SOL     OW 7441   4.654   4.498   5.707
 2181SOL    HW1 7442   4.670   4.404   5.738
 2181SOL    HW2 7443   4.632   4.555   5.786
 2182SOL     OW 7444   0.008   3.583   6.322
 2182SOL    HW1 7445   0.076   3.634   6.375
 2182SOL    HW2 7446   0.011   3.487   6.348
 2183SOL     OW 7447   3.135   3.241   1.041
 2183SOL    HW1 7448   3.066   3.177   1.007
 2183SOL    HW2 7449   3.226   3.208   1.018
 2184SOL     OW 7450   3.760   0.622   6.366
 2184SOL    HW1 7451   3.833   0.603   6.300
 2184SOL    HW2 7452   3.747   0.720   6.375
 2185SOL     OW 7453   1.709   1.633   0.517
 2185SOL    HW1 7454   1.666   1.711   0.472
 2185SOL    HW2 7455   1.798   1.660   0.554
 2186SOL     OW 7456   0.025   4.779   2.180
 2186SOL    HW1 7457   0.112   4.774   2.230
 2186SOL    HW2 7458   7.002   4.694   2.194
 2187SOL     OW 7459   0.320   1.365   1.600
 2187SOL    HW1 7460   0.281   1.432   1.538
 2187SOL    HW2 7461   0.278   1.275   1.585
 2188SOL     OW 7462   4.962   5.977   3.820
 2188SOL    HW1 7463   4.963   6.023   3.730
 2188SOL    HW2 7464   5.022   5.898   3.817
 2189SOL     OW 7465   1.693   6.785   5.959
 2189SOL    HW1 7466   1.731   6.718   5.895
 2189SOL    HW2 7467   1.598   6.763   5.980
 2190SOL     OW 7468   6.036   2.986   1.820
 2190SOL    HW1 7469   5.960   3.043   1.791
 2190SOL    HW2 7470   6.087   2.955   1.740
 2191SOL     OW 7471   3.520   2.464   5.892
 2191SOL    HW1 7472   3.486   2.474   5.985
 2191SOL    HW2 7473   3.443   2.447   5.830
 2192SOL     OW 7474   4.509   6.327   5.282
 2192SOL    HW1 7475   4.466   6.281   5.204
 2192SOL    HW2 7476   4.504   6.267   5.363
 2193SOL     OW 7477   0.026   5.478   5.887
 2193SOL    HW1 7478   0.052   5.403   5.948
 2193SOL    HW2 7479   7.006   5.549   5.938
 2194SOL     OW 7480   1.956   5.946   0.512
 2194SOL    HW1 7481   1.942   5.912   0.419
 2194SOL    HW2 7482   2.043   5.996   0.517
 2195SOL     OW 7483   0.271   6.491   1.935
 2195SOL    HW1 7484   0.314   6.433   1.866
 2195SOL    HW2 7485   0.225   6.568   1.889
 2196SOL     OW 7486   2.889   0.830   5.378
 2196SOL    HW1 7487   2.860   0.921   5.346
 2196SOL    HW2 7488   2.846   0.811   5.466
 2197SOL     OW 7489   4.798   4.055   1.913
 2197SOL    HW1 7490   4.849   3.979   1.953
 2197SOL    HW2 7491   4.731   4.089   1.979
 2198SOL     OW 7492   0.020   3.611   6.866
 2198SOL    HW1 7493   0.016   3.709   6.845
 2198SOL    HW2 7494   0.074   3.564   6.796
 2199SOL     OW 7495   4.900   0.101   0.692
 2199SOL    HW1 7496   4.950   0.129   0.774
 2199SOL    HW2 7497   4.856   0.012   0.709
 2200SOL     OW 7498   4.188   0.747   4.612
 2200SOL    HW1 7499   4.220   0.807   4.538
 2200SOL    HW2 7500   4.090   0.763   4.627
 2201SOL     OW 7501   6.019   4.010   2.502
 2201SOL    HW1 7502   5.975   4.008   2.412
 2201SOL    HW2 7503   6.102   4.065   2.497
 2202SOL     OW 7504   3.473   4.926   4.463
 2202SOL    HW1 7505   3.505   4.916   4.557
 2202SOL    HW2 7506   3.550   4.920   4.399
 2203SOL     OW 7507   3.683   2.133   3.067
 2203SOL    HW1 7508   3.673   2.096   2.975
 2203SOL    HW2 7509   3.600   2.115   3.120
 2204SOL     OW 7510   3.479   1.181   6.961
 2204SOL    HW1 7511   3.459   1.195   6.864
 2204SOL    HW2 7512   3.402   1.214   7.016
 2205SOL     OW 7513   1.712   0.548   6.497
 2205SOL    HW1 7514   1.810   0.565   6.488
 2205SOL    HW2 7515   1.682   0.486   6.424
 2206SOL     OW 7516   3.029   3.659   6.339
 2206SOL    HW1 7517   2.997   3.599   6.412
 2206SOL    HW2 7518   3.104   3.614   6.289
 2207SOL     OW 7519   1.050   4.604   6.198
 2207SOL    HW1 7520   1.149   4.618   6.208
 2207SOL    HW2 7521   1.025   4.515   6.235
 2208SOL     OW 7522   1.123   3.834   1.951
 2208SOL    HW1 7523   1.104   3.905   1.883
 2208SOL    HW2 7524   1.050   3.766   1.951
 2209SOL     OW 7525   1.693   6.002   6.182
 2209SOL    HW1 7526   1.625   5.996   6.255
 2209SOL    HW2 7527   1.759   6.074   6.203
 2210SOL     OW 7528   0.714   5.043   2.984
 2210SOL    HW1 7529   0.719   5.095   2.899
 2210SOL    HW2 7530   0.626   5.061   3.028
 2211SOL     OW 7531   5.781   1.859   5.732
 2211SOL    HW1 7532   5.846   1.815   5.795
 2211SOL    HW2 7533   5.810   1.953   5.715
 2212SOL     OW 7534   0.219   6.320   6.232
 2212SOL    HW1 7535   0.235   6.410   6.191
 2212SOL    HW2 7536   0.176   6.260   6.165
 2213SOL     OW 7537   4.331   2.329   4.170
 2213SOL    HW1 7538   4.280   2.325   4.256
 2213SOL    HW2 7539   4.407   2.393   4.179
 2214SOL     OW 7540   5.139   0.689   5.533
 2214SOL    HW1 7541   5.183   0.764   5.485
 2214SOL    HW2 7542   5.071   0.646   5.473
 2215SOL     OW 7543   6.912   1.742   5.593
 2215SOL    HW1 7544   6.951   1.722   5.683
 2215SOL    HW2 7545   6.812   1.734   5.596
 2216SOL     OW 7546   1.159   0.223   0.838
 2216SOL    HW1 7547   1.241   0.230   0.896
 2216SOL    HW2 7548   1.166   0.289   0.763
 2217SOL     OW 7549   3.994   0.369   0.661
 2217SOL    HW1 7550   4.066   0.354   0.730
 2217SOL    HW2 7551   4.026   0.335   0.573
 2218SOL     OW 7552   1.389   6.096   6.601
 2218SOL    HW1 7553   1.395   6.170   6.668
 2218SOL    HW2 7554   1.338   6.019   6.640
 2219SOL     OW 7555   1.594   4.056   2.722
 2219SOL    HW1 7556   1.610   3.964   2.685
 2219SOL    HW2 7557   1.677   4.111   2.712
 2220SOL     OW 7558   0.455   1.989   4.762
 2220SOL    HW1 7559   0.378   2.020   4.817
 2220SOL    HW2 7560   0.453   1.889   4.755
 2221SOL     OW 7561   6.608   1.914   1.178
 2221SOL    HW1 7562   6.621   1.945   1.272
 2221SOL    HW2 7563   6.541   1.840   1.177
 2222SOL     OW 7564   3.856   0.513   1.414
 2222SOL    HW1 7565   3.829   0.600   1.372
 2222SOL    HW2 7566   3.817   0.437   1.362
 2223SOL     OW 7567   6.332   5.280   3.359
 2223SOL    HW1 7568   6.348   5.309   3.264
 2223SOL    HW2 7569   6.244   5.233   3.365
 2224SOL     OW 7570   1.987   4.802   1.587
 2224SOL    HW1 7571   2.049   4.767   1.517
 2224SOL    HW2 7572   2.025   4.886   1.627
 2225SOL     OW 7573   5.988   4.572   2.369
 2225SOL    HW1 7574   6.079   4.587   2.409
 2225SOL    HW2 7575   5.941   4.502   2.423
 2226SOL     OW 7576   3.771   3.244   1.710
 2226SOL    HW1 7577   3.712   3.194   1.645
 2226SOL    HW2 7578   3.753   3.342   1.702
 2227SOL     OW 7579   6.536   4.087   6.064
 2227SOL    HW1 7580   6.520   4.185   6.053
 2227SOL    HW2 7581   6.601   4.072   6.139
 2228SOL     OW 7582   2.897   4.860   0.090
 2228SOL    HW1 7583   2.979   4.903   0.127
 2228SOL    HW2 7584   2.921   4.771   0.051
 2229SOL     OW 7585   4.760   1.591   4.134
 2229SOL    HW1 7586   4.722   1.500   4.148
 2229SOL    HW2 7587   4.837   1.586   4.070
 2230SOL     OW 7588   1.671   5.275   4.023
 2230SOL    HW1 7589   1.663   5.335   3.944
 2230SOL    HW2 7590   1.717   5.190   3.995
 2231SOL     OW 7591   1.833   1.585   2.364
 2231SOL    HW1 7592   1.900   1.658   2.350
 2231SOL    HW2 7593   1.849   1.511   2.300
 2232SOL     OW 7594   0.583   3.286   3.354
 2232SOL    HW1 7595   0.655   3.218   3.340
 2232SOL    HW2 7596   0.576   3.344   3.273
 2233SOL     OW 7597   3.591   4.864   0.182
 2233SOL    HW1 7598   3.680   4.850   0.138
 2233SOL    HW2 7599   3.520   4.815   0.131
 2234SOL     OW 7600   3.785   2.139   0.897
 2234SOL    HW1 7601   3.854   2.207   0.874
 2234SOL    HW2 7602   3.806   2.097   0.985
 2235SOL     OW 7603   1.186   0.077   6.537
 2235SOL    HW1 7604   1.205   7.014   6.574
 2235SOL    HW2 7605   1.255   0.101   6.469
 2236SOL     OW 7606   0.560   4.321   0.920
 2236SOL    HW1 7607   0.470   4.305   0.880
 2236SOL    HW2 7608   0.630   4.275   0.865
 2237SOL     OW 7609   6.660   3.601   4.513
 2237SOL    HW1 7610   6.653   3.683   4.456
 2237SOL    HW2 7611   6.755   3.588   4.541
 2238SOL     OW 7612   6.997   5.654   1.955
 2238SOL    HW1 7613   0.037   5.587   1.983
 2238SOL    HW2 7614   0.010   5.745   1.953
 2239SOL     OW 7615   4.340   4.641   3.833
 2239SOL    HW1 7616   4.265   4.596   3.783
 2239SOL    HW2 7617   4.322   4.637   3.931
 2240SOL     OW 7618   6.929   5.442   3.273
 2240SOL    HW1 7619   6.906   5.471   3.366
 2240SOL    HW2 7620   6.850   5.396   3.233
 2241SOL     OW 7621   0.317   6.477   2.195
 2241SOL    HW1 7622   0.315   6.577   2.199
 2241SOL    HW2 7623   0.282   6.447   2.107
 2242SOL     OW 7624   5.253   1.866   3.038
 2242SOL    HW1 7625   5.212   1.915   2.961
 2242SOL    HW2 7626   5.340   1.826   3.010
 2243SOL     OW 7627   2.809   6.023   4.724
 2243SOL    HW1 7628   2.720   6.052   4.689
 2243SOL    HW2 7629   2.799   5.936   4.772
 2244SOL     OW 7630   3.903   0.916   4.039
 2244SOL    HW1 7631   3.844   0.938   4.117
 2244SOL    HW2 7632   3.913   0.816   4.032
 2245SOL     OW 7633   6.810   1.964   2.135
 2245SOL    HW1 7634   6.778   2.055   2.161
 2245SOL    HW2 7635   6.906   1.969   2.108
 2246SOL     OW 7636   1.536   2.832   5.245
 2246SOL    HW1 7637   1.623   2.803   5.205
 2246SOL    HW2 7638   1.521   2.928   5.225
 2247SOL     OW 7639   2.595   2.230   5.536
 2247SOL    HW1 7640   2.649   2.235   5.620
 2247SOL    HW2 7641   2.525   2.301   5.537
 2248SOL     OW 7642   5.169   4.203   5.296
 2248SOL    HW1 7643   5.126   4.244   5.215
 2248SOL    HW2 7644   5.107   4.136   5.336
 2249SOL     OW 7645   5.540   5.915   2.811
 2249SOL    HW1 7646   5.475   5.977   2.766
 2249SOL    HW2 7647   5.614   5.892   2.747
 2250SOL     OW 7648   5.588   3.688   1.458
 2250SOL    HW1 7649   5.588   3.740   1.543
 2250SOL    HW2 7650   5.614   3.594   1.476
 2251SOL     OW 7651   6.219   1.799   0.221
 2251SOL    HW1 7652   6.233   1.827   0.125
 2251SOL    HW2 7653   6.227   1.700   0.228
 2252SOL     OW 7654   5.771   2.848   5.061
 2252SOL    HW1 7655   5.836   2.772   5.068
 2252SOL    HW2 7656   5.820   2.932   5.039
 2253SOL     OW 7657   1.928   3.148   6.609
 2253SOL    HW1 7658   1.855   3.108   6.663
 2253SOL    HW2 7659   1.972   3.077   6.553
 2254SOL     OW 7660   2.191   3.333   5.983
 2254SOL    HW1 7661   2.246   3.252   6.006
 2254SOL    HW2 7662   2.245   3.396   5.927
 2255SOL     OW 7663   6.126   2.635   1.945
 2255SOL    HW1 7664   6.193   2.600   1.881
 2255SOL    HW2 7665   6.077   2.712   1.903
 2256SOL     OW 7666   3.115   4.796   2.135
 2256SOL    HW1 7667   3.030   4.754   2.103
 2256SOL    HW2 7668   3.127   4.776   2.232
 2257SOL     OW 7669   1.468   3.392   4.577
 2257SOL    HW1 7670   1.399   3.331   4.537
 2257SOL    HW2 7671   1.460   3.389   4.677
 2258SOL     OW 7672   1.774   4.558   4.903
 2258SOL    HW1 7673   1.779   4.536   5.001
 2258SOL    HW2 7674   1.847   4.510   4.855
 2259SOL     OW 7675   5.577   4.420   6.478
 2259SOL    HW1 7676   5.656   4.361   6.494
 2259SOL    HW2 7677   5.606   4.515   6.477
 2260SOL     OW 7678   3.853   4.998   2.791
 2260SOL    HW1 7679   3.781   4.943   2.832
 2260SOL    HW2 7680   3.940   4.979   2.837
 2261SOL     OW 7681   5.392   6.520   0.689
 2261SOL    HW1 7682   5.329   6.573   0.746
 2261SOL    HW2 7683   5.482   6.518   0.731
 2262SOL     OW 7684   5.797   1.569   4.208
 2262SOL    HW1 7685   5.728   1.622   4.159
 2262SOL    HW2 7686   5.841   1.627   4.277
 2263SOL     OW 7687   2.045   5.881   6.192
 2263SOL    HW1 7688   2.138   5.859   6.163
 2263SOL    HW2 7689   2.001   5.939   6.124
 2264SOL     OW 7690   3.013   3.077   2.461
 2264SOL    HW1 7691   2.917   3.050   2.457
 2264SOL    HW2 7692   3.022   3.158   2.520
 2265SOL     OW 7693   0.122   1.072   2.509
 2265SOL    HW1 7694   0.055   1.123   2.455
 2265SOL    HW2 7695   0.213   1.109   2.492
 2266SOL     OW 7696   6.370   0.996   0.612
 2266SOL    HW1 7697   6.273   1.016   0.619
 2266SOL    HW2 7698   6.423   1.069   0.656
 2267SOL     OW 7699   5.622   2.429   4.903
 2267SOL    HW1 7700   5.640   2.507   4.843
 2267SOL    HW2 7701   5.708   2.397   4.943
 2268SOL     OW 7702   6.720   6.003   0.698
 2268SOL    HW1 7703   6.653   6.043   0.635
 2268SOL    HW2 7704   6.712   6.047   0.787
 2269SOL     OW 7705   6.356   5.856   5.498
 2269SOL    HW1 7706   6.281   5.797   5.469
 2269SOL    HW2 7707   6.358   5.862   5.598
 2270SOL     OW 7708   3.256   3.714   1.903
 2270SOL    HW1 7709   3.295   3.648   1.839
 2270SOL    HW2 7710   3.198   3.666   1.969
 2271SOL     OW 7711   5.785   4.504   1.562
 2271SOL    HW1 7712   5.846   4.560   1.505
 2271SOL    HW2 7713   5.784   4.410   1.526
 2272SOL     OW 7714   5.281   2.242   5.051
 2272SOL    HW1 7715   5.199   2.191   5.078
 2272SOL    HW2 7716   5.311   2.299   5.128
 2273SOL     OW 7717   0.566   0.565   3.187
 2273SOL    HW1 7718   0.645   0.539   3.243
 2273SOL    HW2 7719   0.567   0.664   3.171
 2274SOL     OW 7720   1.989   3.587   4.810
 2274SOL    HW1 7721   1.930   3.514   4.844
 2274SOL    HW2 7722   1.995   3.660   4.877
 2275SOL     OW 7723   4.820   5.969   4.771
 2275SOL    HW1 7724   4.891   5.917   4.724
 2275SOL    HW2 7725   4.730   5.943   4.735
 2276SOL     OW 7726   3.766   4.784   1.095
 2276SOL    HW1 7727   3.803   4.811   1.006
 2276SOL    HW2 7728   3.837   4.794   1.165
 2277SOL     OW 7729   3.353   3.477   5.730
 2277SOL    HW1 7730   3.262   3.440   5.749
 2277SOL    HW2 7731   3.363   3.494   5.632
 2278SOL     OW 7732   4.923   6.078   2.334
 2278SOL    HW1 7733   4.990   6.129   2.387
 2278SOL    HW2 7734   4.836   6.077   2.383
 2279SOL     OW 7735   5.202   3.702   4.429
 2279SOL    HW1 7736   5.240   3.789   4.395
 2279SOL    HW2 7737   5.146   3.660   4.358
 2280SOL     OW 7738   6.597   6.323   5.300
 2280SOL    HW1 7739   6.521   6.365   5.350
 2280SOL    HW2 7740   6.565   6.295   5.209
 2281SOL     OW 7741   3.654   2.000   1.870
 2281SOL    HW1 7742   3.661   2.092   1.909
 2281SOL    HW2 7743   3.625   1.935   1.940
 2282SOL     OW 7744   4.615   5.344   4.852
 2282SOL    HW1 7745   4.650   5.407   4.783
 2282SOL    HW2 7746   4.691   5.295   4.893
 2283SOL     OW 7747   6.528   4.037   3.076
 2283SOL    HW1 7748   6.560   3.955   3.027
 2283SOL    HW2 7749   6.477   4.095   3.013
 2284SOL     OW 7750   2.470   2.482   2.187
 2284SOL    HW1 7751   2.409   2.548   2.142
 2284SOL    HW2 7752   2.530   2.440   2.118
 2285SOL     OW 7753   1.675   3.939   0.485
 2285SOL    HW1 7754   1.733   3.986   0.419
 2285SOL    HW2 7755   1.579   3.950   0.460
 2286SOL     OW 7756   6.836   5.663   5.012
 2286SOL    HW1 7757   6.823   5.572   5.050
 2286SOL    HW2 7758   6.754   5.690   4.960
 2287SOL     OW 7759   2.109   2.949   1.408
 2287SOL    HW1 7760   2.015   2.956   1.443
 2287SOL    HW2 7761   2.121   2.861   1.363
 2288SOL     OW 7762   0.749   6.050   3.291
 2288SOL    HW1 7763   0.846   6.028   3.303
 2288SOL    HW2 7764   0.729   6.136   3.336
 2289SOL     OW 7765   5.435   2.165   1.857
 2289SOL    HW1 7766   5.504   2.151   1.786
 2289SOL    HW2 7767   5.429   2.083   1.914
 2290SOL     OW 7768   2.899   3.450   3.284
 2290SOL    HW1 7769   2.929   3.364   3.241
 2290SOL    HW2 7770   2.892   3.521   3.215
 2291SOL     OW 7771   2.075   1.844   1.276
 2291SOL    HW1 7772   2.081   1.926   1.333
 2291SOL    HW2 7773   2.119   1.862   1.188
 2292SOL     OW 7774   4.887   2.600   4.123
 2292SOL    HW1 7775   4.883   2.511   4.168
 2292SOL    HW2 7776   4.974   2.608   4.073
 2293SOL     OW 7777   5.397   1.397   0.807
 2293SOL    HW1 7778   5.420   1.322   0.869
 2293SOL    HW2 7779   5.302   1.388   0.778
 2294SOL     OW 7780   2.410   2.410   5.488
 2294SOL    HW1 7781   2.396   2.505   5.519
 2294SOL    HW2 7782   2.359   2.396   5.403
 2295SOL     OW 7783   6.789   0.311   1.573
 2295SOL    HW1 7784   6.792   0.248   1.495
 2295SOL    HW2 7785   6.815   0.402   1.543
 2296SOL     OW 7786   2.294   5.027   3.705
 2296SOL    HW1 7787   2.219   5.071   3.754
 2296SOL    HW2 7788   2.264   4.938   3.670
 2297SOL     OW 7789   5.153   4.489   5.717
 2297SOL    HW1 7790   5.143   4.459   5.812
 2297SOL    HW2 7791   5.212   4.570   5.714
 2298SOL     OW 7792   4.045   3.238   4.345
 2298SOL    HW1 7793   3.969   3.173   4.353
 2298SOL    HW2 7794   4.058   3.286   4.432
 2299SOL     OW 7795   5.098   3.571   4.641
 2299SOL    HW1 7796   5.135   3.627   4.567
 2299SOL    HW2 7797   5.011   3.609   4.671
 2300SOL     OW 7798   3.420   6.869   3.156
 2300SOL    HW1 7799   3.403   6.827   3.067
 2300SOL    HW2 7800   3.377   6.814   3.227
 2301SOL     OW 7801   3.049   3.153   4.683
 2301SOL    HW1 7802   3.081   3.117   4.770
 2301SOL    HW2 7803   2.956   3.190   4.694
 2302SOL     OW 7804   3.972   1.308   0.318
 2302SOL    HW1 7805   4.062   1.266   0.326
 2302SOL    HW2 7806   3.903   1.237   0.306
 2303SOL     OW 7807   2.426   2.774   1.332
 2303SOL    HW1 7808   2.484   2.844   1.291
 2303SOL    HW2 7809   2.333   2.809   1.342
 2304SOL     OW 7810   6.612   5.738   3.852
 2304SOL    HW1 7811   6.543   5.719   3.921
 2304SOL    HW2 7812   6.655   5.653   3.823
 2305SOL     OW 7813   1.765   1.048   3.992
 2305SOL    HW1 7814   1.805   1.139   4.003
 2305SOL    HW2 7815   1.794   1.009   3.904
 2306SOL     OW 7816   1.802   4.681   3.245
 2306SOL    HW1 7817   1.895   4.660   3.214
 2306SOL    HW2 7818   1.750   4.721   3.170
 2307SOL     OW 7819   1.470   2.800   5.539
 2307SOL    HW1 7820   1.482   2.786   5.440
 2307SOL    HW2 7821   1.557   2.831   5.578
 2308SOL     OW 7822   2.025   5.297   1.542
 2308SOL    HW1 7823   2.121   5.293   1.570
 2308SOL    HW2 7824   1.980   5.372   1.590
 2309SOL     OW 7825   1.567   0.272   4.168
 2309SOL    HW1 7826   1.475   0.232   4.168
 2309SOL    HW2 7827   1.575   0.339   4.095
 2310SOL     OW 7828   4.654   7.009   1.944
 2310SOL    HW1 7829   4.688   0.027   1.863
 2310SOL    HW2 7830   4.689   0.027   2.026
 2311SOL     OW 7831   2.406   6.015   0.353
 2311SOL    HW1 7832   2.415   5.938   0.416
 2311SOL    HW2 7833   2.426   5.985   0.260
 2312SOL     OW 7834   3.799   5.956   2.655
 2312SOL    HW1 7835   3.757   5.874   2.693
 2312SOL    HW2 7836   3.839   5.935   2.566
 2313SOL     OW 7837   5.212   4.906   2.686
 2313SOL    HW1 7838   5.176   4.901   2.779
 2313SOL    HW2 7839   5.217   5.002   2.657
 2314SOL     OW 7840   3.583   5.485   3.004
 2314SOL    HW1 7841   3.671   5.459   2.966
 2314SOL    HW2 7842   3.535   5.403   3.036
 2315SOL     OW 7843   4.630   2.974   6.377
 2315SOL    HW1 7844   4.595   3.017   6.295
 2315SOL    HW2 7845   4.620   3.036   6.455
 2316SOL     OW 7846   5.332   2.476   3.676
 2316SOL    HW1 7847   5.267   2.448   3.746
 2316SOL    HW2 7848   5.344   2.575   3.679
 2317SOL     OW 7849   1.328   4.705   2.280
 2317SOL    HW1 7850   1.275   4.674   2.360
 2317SOL    HW2 7851   1.315   4.803   2.267
 2318SOL     OW 7852   0.602   1.776   3.258
 2318SOL    HW1 7853   0.656   1.736   3.332
 2318SOL    HW2 7854   0.589   1.708   3.186
 2319SOL     OW 7855   2.068   3.965   4.558
 2319SOL    HW1 7856   2.091   3.979   4.654
 2319SOL    HW2 7857   2.015   4.043   4.525
 2320SOL     OW 7858   0.186   2.378   4.143
 2320SOL    HW1 7859   0.142   2.455   4.097
 2320SOL    HW2 7860   0.125   2.343   4.214
 2321SOL     OW 7861   3.103   6.957   4.994
 2321SOL    HW1 7862   3.071   7.017   4.921
 2321SOL    HW2 7863   3.076   6.863   4.976
 2322SOL     OW 7864   1.183   1.739   5.818
 2322SOL    HW1 7865   1.232   1.825   5.813
 2322SOL    HW2 7866   1.115   1.736   5.744
 2323SOL     OW 7867   4.520   5.387   3.307
 2323SOL    HW1 7868   4.454   5.352   3.241
 2323SOL    HW2 7869   4.488   5.475   3.343
 2324SOL     OW 7870   0.915   6.088   2.596
 2324SOL    HW1 7871   0.834   6.138   2.565
 2324SOL    HW2 7872   0.897   6.047   2.685
 2325SOL     OW 7873   0.912   3.444   1.386
 2325SOL    HW1 7874   0.902   3.522   1.447
 2325SOL    HW2 7875   0.835   3.441   1.323
 2326SOL     OW 7876   1.581   4.843   6.353
 2326SOL    HW1 7877   1.594   4.751   6.316
 2326SOL    HW2 7878   1.615   4.847   6.447
 2327SOL     OW 7879   4.755   2.790   4.571
 2327SOL    HW1 7880   4.725   2.847   4.494
 2327SOL    HW2 7881   4.793   2.704   4.535
 2328SOL     OW 7882   5.291   1.334   2.842
 2328SOL    HW1 7883   5.315   1.281   2.923
 2328SOL    HW2 7884   5.257   1.273   2.770
 2329SOL     OW 7885   1.344   5.320   4.051
 2329SOL    HW1 7886   1.394   5.287   4.131
 2329SOL    HW2 7887   1.408   5.339   3.977
 2330SOL     OW 7888   0.539   4.712   1.920
 2330SOL    HW1 7889   0.554   4.745   1.827
 2330SOL    HW2 7890   0.566   4.616   1.926
 2331SOL     OW 7891   0.087   4.263   5.273
 2331SOL    HW1 7892   0.095   4.204   5.354
 2331SOL    HW2 7893   0.166   4.324   5.270
 2332SOL     OW 7894   5.221   2.889   6.190
 2332SOL    HW1 7895   5.146   2.949   6.217
 2332SOL    HW2 7896   5.296   2.897   6.256
 2333SOL     OW 7897   0.910   5.169   3.111
 2333SOL    HW1 7898   0.875   5.196   3.200
 2333SOL    HW2 7899   0.846   5.105   3.068
 2334SOL     OW 7900   3.522   6.750   0.170
 2334SOL    HW1 7901   3.612   6.785   0.145
 2334SOL    HW2 7902   3.451   6.813   0.137
 2335SOL     OW 7903   5.566   0.163   3.599
 2335SOL    HW1 7904   5.474   0.200   3.617
 2335SOL    HW2 7905   5.600   0.118   3.681
 2336SOL     OW 7906   5.116   1.207   5.958
 2336SOL    HW1 7907   5.121   1.282   6.024
 2336SOL    HW2 7908   5.194   1.146   5.971
 2337SOL     OW 7909   5.698   0.184   2.910
 2337SOL    HW1 7910   5.628   0.112   2.918
 2337SOL    HW2 7911   5.712   0.227   2.999
 2338SOL     OW 7912   0.112   6.524   0.522
 2338SOL    HW1 7913   0.153   6.610   0.490
 2338SOL    HW2 7914   0.129   6.453   0.454
 2339SOL     OW 7915   3.480   4.603   6.762
 2339SOL    HW1 7916   3.567   4.583   6.719
 2339SOL    HW2 7917   3.406   4.589   6.696
 2340SOL     OW 7918   3.422   6.140   5.145
 2340SOL    HW1 7919   3.405   6.047   5.113
 2340SOL    HW2 7920   3.470   6.192   5.074
 2341SOL     OW 7921   5.578   5.120   0.628
 2341SOL    HW1 7922   5.555   5.112   0.725
 2341SOL    HW2 7923   5.533   5.047   0.577
 2342SOL     OW 7924   6.993   0.421   5.286
 2342SOL    HW1 7925   7.016   0.382   5.197
 2342SOL    HW2 7926   6.992   0.521   5.280
 2343SOL     OW 7927   1.453   6.108   1.031
 2343SOL    HW1 7928   1.404   6.135   0.947
 2343SOL    HW2 7929   1.551   6.116   1.016
 2344SOL     OW 7930   2.563   1.702   2.851
 2344SOL    HW1 7931   2.512   1.646   2.917
 2344SOL    HW2 7932   2.591   1.645   2.774
 2345SOL     OW 7933   1.300   0.982   4.746
 2345SOL    HW1 7934   1.329   0.926   4.824
 2345SOL    HW2 7935   1.375   1.042   4.719
 2346SOL     OW 7936   4.971   3.254   5.420
 2346SOL    HW1 7937   4.889   3.296   5.380
 2346SOL    HW2 7938   4.969   3.156   5.405
 2347SOL     OW 7939   1.461   3.462   1.864
 2347SOL    HW1 7940   1.413   3.536   1.912
 2347SOL    HW2 7941   1.398   3.416   1.801
 2348SOL     OW 7942   2.722   6.641   3.726
 2348SOL    HW1 7943   2.716   6.573   3.652
 2348SOL    HW2 7944   2.761   6.599   3.807
 2349SOL     OW 7945   6.796   6.830   6.072
 2349SOL    HW1 7946   6.850   6.774   6.008
 2349SOL    HW2 7947   6.731   6.886   6.020
 2350SOL     OW 7948   2.813   0.314   4.920
 2350SOL    HW1 7949   2.787   0.260   5.000
 2350SOL    HW2 7950   2.864   0.395   4.949
 2351SOL     OW 7951   2.651   4.868   3.500
 2351SOL    HW1 7952   2.618   4.960   3.476
 2351SOL    HW2 7953   2.584   4.800   3.469
 2352SOL     OW 7954   6.884   4.472   2.961
 2352SOL    HW1 7955   6.888   4.375   2.937
 2352SOL    HW2 7956   6.909   4.484   3.057
 2353SOL     OW 7957   2.636   3.907   5.847
 2353SOL    HW1 7958   2.730   3.886   5.873
 2353SOL    HW2 7959   2.636   3.970   5.770
 2354SOL     OW 7960   3.757   2.628   0.638
 2354SOL    HW1 7961   3.761   2.593   0.731
 2354SOL    HW2 7962   3.663   2.649   0.614
 2355SOL     OW 7963   0.658   6.612   0.847
 2355SOL    HW1 7964   0.718   6.645   0.774
 2355SOL    HW2 7965   0.570   6.585   0.809
 2356SOL     OW 7966   2.384   5.152   2.847
 2356SOL    HW1 7967   2.430   5.131   2.761
 2356SOL    HW2 7968   2.300   5.203   2.828
 2357SOL     OW 7969   5.222   4.479   2.711
 2357SOL    HW1 7970   5.226   4.521   2.801
 2357SOL    HW2 7971   5.148   4.411   2.709
 2358SOL     OW 7972   3.386   0.139   4.735
 2358SOL    HW1 7973   3.397   0.048   4.694
 2358SOL    HW2 7974   3.475   0.175   4.760
 2359SOL     OW 7975   2.631   1.525   5.726
 2359SOL    HW1 7976   2.640   1.595   5.656
 2359SOL    HW2 7977   2.553   1.465   5.704
 2360SOL     OW 7978   3.690   4.790   0.666
 2360SOL    HW1 7979   3.729   4.698   0.666
 2360SOL    HW2 7980   3.619   4.795   0.737
 2361SOL     OW 7981   3.320   6.789   2.909
 2361SOL    HW1 7982   3.325   6.861   2.839
 2361SOL    HW2 7983   3.318   6.700   2.865
 2362SOL     OW 7984   4.338   5.828   4.774
 2362SOL    HW1 7985   4.260   5.779   4.734
 2362SOL    HW2 7986   4.308   5.875   4.856
 2363SOL     OW 7987   3.758   2.658   6.654
 2363SOL    HW1 7988   3.829   2.686   6.718
 2363SOL    HW2 7989   3.696   2.594   6.699
 2364SOL     OW 7990   4.974   1.814   1.967
 2364SOL    HW1 7991   4.933   1.755   1.898
 2364SOL    HW2 7992   5.037   1.762   2.023
 2365SOL     OW 7993   4.903   3.508   4.292
 2365SOL    HW1 7994   4.993   3.514   4.250
 2365SOL    HW2 7995   4.873   3.599   4.321
 2366SOL     OW 7996   1.895   4.233   5.501
 2366SOL    HW1 7997   1.841   4.155   5.534
 2366SOL    HW2 7998   1.956   4.201   5.428
 2367SOL     OW 7999   0.813   3.563   6.139
 2367SOL    HW1 8000   0.783   3.658   6.130
 2367SOL    HW2 8001   0.904   3.552   6.099
 2368SOL     OW 8002   5.053   0.588   4.553
 2368SOL    HW1 8003   4.968   0.631   4.523
 2368SOL    HW2 8004   5.130   0.651   4.537
 2369SOL     OW 8005   3.526   1.461   3.618
 2369SOL    HW1 8006   3.468   1.393   3.573
 2369SOL    HW2 8007   3.484   1.552   3.608
 2370SOL     OW 8008   4.641   2.825   1.045
 2370SOL    HW1 8009   4.620   2.914   1.004
 2370SOL    HW2 8010   4.586   2.812   1.128
 2371SOL     OW 8011   0.841   6.544   2.644
 2371SOL    HW1 8012   0.927   6.525   2.596
 2371SOL    HW2 8013   0.768   6.558   2.578
 2372SOL     OW 8014   6.355   1.757   5.810
 2372SOL    HW1 8015   6.423   1.786   5.877
 2372SOL    HW2 8016   6.361   1.658   5.798
 2373SOL     OW 8017   6.224   0.660   6.137
 2373SOL    HW1 8018   6.132   0.695   6.153
 2373SOL    HW2 8019   6.288   0.701   6.201
 2374SOL     OW 8020   6.216   5.641   3.386
 2374SOL    HW1 8021   6.142   5.576   3.372
 2374SOL    HW2 8022   6.271   5.648   3.302
 2375SOL     OW 8023   0.892   0.559   3.897
 2375SOL    HW1 8024   0.820   0.496   3.927
 2375SOL    HW2 8025   0.953   0.513   3.834
 2376SOL     OW 8026   6.898   2.306   2.911
 2376SOL    HW1 8027   6.834   2.302   2.834
 2376SOL    HW2 8028   6.905   2.215   2.953
 2377SOL     OW 8029   3.327   4.630   6.525
 2377SOL    HW1 8030   3.339   4.651   6.428
 2377SOL    HW2 8031   3.229   4.621   6.544
 2378SOL     OW 8032   6.125   2.195   0.504
 2378SOL    HW1 8033   6.136   2.113   0.448
 2378SOL    HW2 8034   6.036   2.237   0.486
 2379SOL     OW 8035   0.138   4.800   0.610
 2379SOL    HW1 8036   0.102   4.892   0.629
 2379SOL    HW2 8037   0.213   4.807   0.545
 2380SOL     OW 8038   5.972   3.076   5.328
 2380SOL    HW1 8039   5.875   3.061   5.347
 2380SOL    HW2 8040   5.982   3.146   5.257
 2381SOL     OW 8041   2.173   4.704   5.255
 2381SOL    HW1 8042   2.197   4.628   5.316
 2381SOL    HW2 8043   2.129   4.776   5.309
 2382SOL     OW 8044   1.886   6.131   2.987
 2382SOL    HW1 8045   1.914   6.061   2.923
 2382SOL    HW2 8046   1.835   6.203   2.939
 2383SOL     OW 8047   5.457   5.853   5.541
 2383SOL    HW1 8048   5.448   5.806   5.629
 2383SOL    HW2 8049   5.547   5.833   5.502
 2384SOL     OW 8050   0.606   2.259   1.336
 2384SOL    HW1 8051   0.549   2.307   1.402
 2384SOL    HW2 8052   0.553   2.237   1.255
 2385SOL     OW 8053   0.557   1.902   0.267
 2385SOL    HW1 8054   0.466   1.863   0.266
 2385SOL    HW2 8055   0.601   1.882   0.354
 2386SOL     OW 8056   3.273   5.213   4.202
 2386SOL    HW1 8057   3.359   5.242   4.245
 2386SOL    HW2 8058   3.196   5.254   4.251
 2387SOL     OW 8059   0.620   2.477   4.040
 2387SOL    HW1 8060   0.699   2.525   4.001
 2387SOL    HW2 8061   0.628   2.379   4.019
 2388SOL     OW 8062   0.118   2.229   6.205
 2388SOL    HW1 8063   0.178   2.309   6.200
 2388SOL    HW2 8064   0.172   2.146   6.211
 2389SOL     OW 8065   4.977   5.294   4.195
 2389SOL    HW1 8066   5.005   5.354   4.120
 2389SOL    HW2 8067   5.015   5.328   4.281
 2390SOL     OW 8068   4.472   3.804   6.492
 2390SOL    HW1 8069   4.386   3.802   6.442
 2390SOL    HW2 8070   4.465   3.743   6.572
 2391SOL     OW 8071   3.547   3.152   6.927
 2391SOL    HW1 8072   3.617   3.084   6.945
 2391SOL    HW2 8073   3.456   3.113   6.944
 2392SOL     OW 8074   3.003   4.888   5.822
 2392SOL    HW1 8075   2.995   4.824   5.746
 2392SOL    HW2 8076   3.011   4.981   5.787
 2393SOL     OW 8077   4.134   5.200   1.802
 2393SOL    HW1 8078   4.217   5.146   1.812
 2393SOL    HW2 8079   4.107   5.202   1.705
 2394SOL     OW 8080   6.902   3.955   3.629
 2394SOL    HW1 8081   6.848   4.013   3.567
 2394SOL    HW2 8082   6.911   4.001   3.717
 2395SOL     OW 8083   0.651   3.458   6.647
 2395SOL    HW1 8084   0.682   3.535   6.702
 2395SOL    HW2 8085   0.726   3.427   6.588
 2396SOL     OW 8086   5.648   0.584   5.595
 2396SOL    HW1 8087   5.602   0.600   5.507
 2396SOL    HW2 8088   5.592   0.622   5.669
 2397SOL     OW 8089   0.470   5.107   5.881
 2397SOL    HW1 8090   0.505   5.062   5.799
 2397SOL    HW2 8091   0.476   5.206   5.871
 2398SOL     OW 8092   2.600   5.740   3.544
 2398SOL    HW1 8093   2.693   5.747   3.508
 2398SOL    HW2 8094   2.534   5.763   3.472
 2399SOL     OW 8095   2.980   2.191   3.838
 2399SOL    HW1 8096   2.947   2.125   3.771
 2399SOL    HW2 8097   2.938   2.172   3.927
 2400SOL     OW 8098   2.132   3.641   0.498
 2400SOL    HW1 8099   2.078   3.596   0.570
 2400SOL    HW2 8100   2.110   3.739   0.497
 2401SOL     OW 8101   3.625   0.237   4.152
 2401SOL    HW1 8102   3.690   0.296   4.198
 2401SOL    HW2 8103   3.543   0.227   4.209
 2402SOL     OW 8104   1.107   2.285   3.137
 2402SOL    HW1 8105   1.047   2.342   3.192
 2402SOL    HW2 8106   1.189   2.337   3.111
 2403SOL     OW 8107   4.047   3.151   1.479
 2403SOL    HW1 8108   4.012   3.199   1.559
 2403SOL    HW2 8109   3.972   3.106   1.431
 2404SOL     OW 8110   6.024   1.152   1.139
 2404SOL    HW1 8111   6.053   1.163   1.044
 2404SOL    HW2 8112   6.067   1.071   1.178
 2405SOL     OW 8113   2.674   4.940   6.517
 2405SOL    HW1 8114   2.607   4.987   6.574
 2405SOL    HW2 8115   2.720   5.006   6.458
 2406SOL     OW 8116   1.906   0.346   3.400
 2406SOL    HW1 8117   1.978   0.332   3.468
 2406SOL    HW2 8118   1.942   0.328   3.308
 2407SOL     OW 8119   4.700   2.210   3.155
 2407SOL    HW1 8120   4.737   2.143   3.090
 2407SOL    HW2 8121   4.620   2.254   3.115
 2408SOL     OW 8122   2.451   5.780   3.327
 2408SOL    HW1 8123   2.446   5.690   3.282
 2408SOL    HW2 8124   2.433   5.852   3.259
 2409SOL     OW 8125   2.634   2.691   1.045
 2409SOL    HW1 8126   2.694   2.759   1.087
 2409SOL    HW2 8127   2.539   2.712   1.067
 2410SOL     OW 8128   6.253   3.578   6.227
 2410SOL    HW1 8129   6.182   3.609   6.289
 2410SOL    HW2 8130   6.282   3.654   6.168
 2411SOL     OW 8131   2.750   4.141   6.459
 2411SOL    HW1 8132   2.666   4.089   6.447
 2411SOL    HW2 8133   2.817   4.113   6.391
 2412SOL     OW 8134   2.768   2.960   0.124
 2412SOL    HW1 8135   2.777   2.865   0.153
 2412SOL    HW2 8136   2.833   3.017   0.174
 2413SOL     OW 8137   6.536   3.258   6.154
 2413SOL    HW1 8138   6.535   3.167   6.113
 2413SOL    HW2 8139   6.517   3.251   6.252
 2414SOL     OW 8140   5.601   2.163   3.657
 2414SOL    HW1 8141   5.690   2.120   3.643
 2414SOL    HW2 8142   5.590   2.186   3.753
 2415SOL     OW 8143   2.207   7.024   6.831
 2415SOL    HW1 8144   2.192   6.940   6.779
 2415SOL    HW2 8145   2.192   7.005   6.928
 2416SOL     OW 8146   0.745   3.056   3.375
 2416SOL    HW1 8147   0.826   3.036   3.430
 2416SOL    HW2 8148   0.684   2.977   3.375
 2417SOL     OW 8149   4.774   2.500   6.989
 2417SOL    HW1 8150   4.865   2.513   6.950
 2417SOL    HW2 8151   4.779   2.511   0.060
 2418SOL     OW 8152   4.139   4.024   5.248
 2418SOL    HW1 8153   4.178   4.100   5.299
 2418SOL    HW2 8154   4.063   4.057   5.192
 2419SOL     OW 8155   2.142   6.753   4.334
 2419SOL    HW1 8156   2.089   6.670   4.354
 2419SOL    HW2 8157   2.166   6.799   4.419
 2420SOL     OW 8158   3.714   5.753   1.876
 2420SOL    HW1 8159   3.724   5.669   1.822
 2420SOL    HW2 8160   3.721   5.832   1.816
 2421SOL     OW 8161   4.154   6.753   3.503
 2421SOL    HW1 8162   4.210   6.831   3.530
 2421SOL    HW2 8163   4.072   6.785   3.456
 2422SOL     OW 8164   3.801   6.976   1.348
 2422SOL    HW1 8165   3.885   6.923   1.340
 2422SOL    HW2 8166   3.815   0.025   1.410
 2423SOL     OW 8167   2.099   5.749   1.928
 2423SOL    HW1 8168   2.132   5.834   1.887
 2423SOL    HW2 8169   2.143   5.736   2.017
 2424SOL     OW 8170   5.442   6.260   6.717
 2424SOL    HW1 8171   5.369   6.264   6.650
 2424SOL    HW2 8172   5.466   6.352   6.747
 2425SOL     OW 8173   4.889   5.556   5.717
 2425SOL    HW1 8174   4.828   5.589   5.790
 2425SOL    HW2 8175   4.856   5.590   5.629
 2426SOL     OW 8176   1.400   5.905   4.563
 2426SOL    HW1 8177   1.317   5.959   4.574
 2426SOL    HW2 8178   1.386   5.814   4.601
 2427SOL     OW 8179   4.911   6.337   6.581
 2427SOL    HW1 8180   4.892   6.241   6.561
 2427SOL    HW2 8181   4.841   6.395   6.539
 2428SOL     OW 8182   0.184   1.292   3.328
 2428SOL    HW1 8183   0.245   1.371   3.334
 2428SOL    HW2 8184   0.125   1.290   3.409
 2429SOL     OW 8185   5.198   4.855   2.288
 2429SOL    HW1 8186   5.170   4.764   2.319
 2429SOL    HW2 8187   5.118   4.907   2.259
 2430SOL     OW 8188   5.760   2.102   0.514
 2430SOL    HW1 8189   5.711   2.057   0.439
 2430SOL    HW2 8190   5.843   2.144   0.478
 2431SOL     OW 8191   5.864   1.637   1.804
 2431SOL    HW1 8192   5.871   1.730   1.839
 2431SOL    HW2 8193   5.950   1.611   1.760
 2432SOL     OW 8194   3.269   5.343   1.677
 2432SOL    HW1 8195   3.219   5.259   1.657
 2432SOL    HW2 8196   3.215   5.399   1.741
 2433SOL     OW 8197   0.367   5.652   0.253
 2433SOL    HW1 8198   0.328   5.625   0.341
 2433SOL    HW2 8199   0.439   5.720   0.268
 2434SOL     OW 8200   4.167   1.958   2.205
 2434SOL    HW1 8201   4.211   1.949   2.294
 2434SOL    HW2 8202   4.068   1.963   2.217
 2435SOL     OW 8203   5.679   5.654   0.361
 2435SOL    HW1 8204   5.696   5.572   0.306
 2435SOL    HW2 8205   5.599   5.702   0.324
 2436SOL     OW 8206   1.966   1.416   1.436
 2436SOL    HW1 8207   1.941   1.513   1.431
 2436SOL    HW2 8208   1.883   1.361   1.437
 2437SOL     OW 8209   6.059   5.811   2.103
 2437SOL    HW1 8210   5.980   5.863   2.136
 2437SOL    HW2 8211   6.068   5.727   2.156
 2438SOL     OW 8212   3.787   2.132   4.811
 2438SOL    HW1 8213   3.804   2.062   4.741
 2438SOL    HW2 8214   3.719   2.097   4.876
 2439SOL     OW 8215   0.270   5.351   6.846
 2439SOL    HW1 8216   0.356   5.388   6.881
 2439SOL    HW2 8217   0.238   5.408   6.770
 2440SOL     OW 8218   3.982   0.416   4.933
 2440SOL    HW1 8219   3.955   0.505   4.895
 2440SOL    HW2 8220   4.035   0.365   4.865
 2441SOL     OW 8221   5.517   0.672   0.334
 2441SOL    HW1 8222   5.501   0.574   0.330
 2441SOL    HW2 8223   5.505   0.705   0.428
 2442SOL     OW 8224   5.960   3.744   3.043
 2442SOL    HW1 8225   6.044   3.723   3.092
 2442SOL    HW2 8226   5.965   3.836   3.004
 2443SOL     OW 8227   2.453   0.984   6.086
 2443SOL    HW1 8228   2.370   0.982   6.030
 2443SOL    HW2 8229   2.524   1.034   6.038
 2444SOL     OW 8230   3.975   4.744   0.235
 2444SOL    HW1 8231   3.922   4.826   0.258
 2444SOL    HW2 8232   4.032   4.762   0.155
 2445SOL     OW 8233   6.389   1.560   1.830
 2445SOL    HW1 8234   6.311   1.498   1.836
 2445SOL    HW2 8235   6.464   1.515   1.780
 2446SOL     OW 8236   0.737   2.620   2.881
 2446SOL    HW1 8237   0.692   2.671   2.955
 2446SOL    HW2 8238   0.762   2.683   2.808
 2447SOL     OW 8239   2.038   0.852   0.676
 2447SOL    HW1 8240   2.121   0.897   0.708
 2447SOL    HW2 8241   2.042   0.843   0.576
 2448SOL     OW 8242   6.044   1.788   4.097
 2448SOL    HW1 8243   5.969   1.790   4.031
 2448SOL    HW2 8244   6.008   1.788   4.190
 2449SOL     OW 8245   1.323   3.670   2.011
 2449SOL    HW1 8246   1.304   3.624   2.097
 2449SOL    HW2 8247   1.245   3.728   1.986
 2450SOL     OW 8248   2.924   5.140   6.788
 2450SOL    HW1 8249   2.921   5.045   6.759
 2450SOL    HW2 8250   3.020   5.170   6.794
 2451SOL     OW 8251   0.757   0.064   4.133
 2451SOL    HW1 8252   0.838   0.062   4.074
 2451SOL    HW2 8253   0.722   0.158   4.137
 2452SOL     OW 8254   2.347   2.081   3.694
 2452SOL    HW1 8255   2.282   2.006   3.685
 2452SOL    HW2 8256   2.315   2.146   3.762
 2453SOL     OW 8257   0.017   2.851   1.061
 2453SOL    HW1 8258   6.992   2.862   0.977
 2453SOL    HW2 8259   6.983   2.851   1.139
 2454SOL     OW 8260   2.489   5.850   6.561
 2454SOL    HW1 8261   2.406   5.891   6.599
 2454SOL    HW2 8262   2.500   5.758   6.599
 2455SOL     OW 8263   3.945   1.283   0.775
 2455SOL    HW1 8264   4.019   1.341   0.741
 2455SOL    HW2 8265   3.874   1.274   0.705
 2456SOL     OW 8266   0.983   3.553   6.477
 2456SOL    HW1 8267   0.907   3.524   6.420
 2456SOL    HW2 8268   0.948   3.602   6.557
 2457SOL     OW 8269   5.967   0.808   5.326
 2457SOL    HW1 8270   5.979   0.897   5.371
 2457SOL    HW2 8271   5.976   0.735   5.393
 2458SOL     OW 8272   1.071   0.388   3.742
 2458SOL    HW1 8273   1.067   0.369   3.644
 2458SOL    HW2 8274   1.164   0.371   3.775
 2459SOL     OW 8275   3.082   6.167   6.019
 2459SOL    HW1 8276   3.038   6.184   6.108
 2459SOL    HW2 8277   3.072   6.248   5.961
 2460SOL     OW 8278   1.374   1.085   0.574
 2460SOL    HW1 8279   1.282   1.053   0.551
 2460SOL    HW2 8280   1.426   1.100   0.489
 2461SOL     OW 8281   5.019   0.126   4.079
 2461SOL    HW1 8282   5.107   0.173   4.089
 2461SOL    HW2 8283   4.945   0.193   4.084
 2462SOL     OW 8284   2.106   5.009   0.415
 2462SOL    HW1 8285   2.098   5.071   0.336
 2462SOL    HW2 8286   2.028   5.022   0.476
 2463SOL     OW 8287   6.786   2.178   0.291
 2463SOL    HW1 8288   6.830   2.089   0.276
 2463SOL    HW2 8289   6.806   2.209   0.384
 2464SOL     OW 8290   1.314   3.015   3.459
 2464SOL    HW1 8291   1.300   3.082   3.385
 2464SOL    HW2 8292   1.390   3.045   3.516
 2465SOL     OW 8293   6.806   6.241   6.189
 2465SOL    HW1 8294   6.713   6.217   6.216
 2465SOL    HW2 8295   6.853   6.160   6.154
 2466SOL     OW 8296   1.644   1.612   2.571
 2466SOL    HW1 8297   1.714   1.622   2.501
 2466SOL    HW2 8298   1.648   1.689   2.634
 2467SOL     OW 8299   4.848   1.877   5.760
 2467SOL    HW1 8300   4.880   1.965   5.726
 2467SOL    HW2 8301   4.802   1.890   5.848
 2468SOL     OW 8302   4.425   6.966   0.519
 2468SOL    HW1 8303   4.350   6.961   0.585
 2468SOL    HW2 8304   4.400   7.027   0.444
 2469SOL     OW 8305   3.844   3.271   5.512
 2469SOL    HW1 8306   3.838   3.221   5.599
 2469SOL    HW2 8307   3.895   3.356   5.526
 2470SOL     OW 8308   3.893   4.879   6.090
 2470SOL    HW1 8309   3.911   4.839   6.000
 2470SOL    HW2 8310   3.906   4.808   6.160
 2471SOL     OW 8311   3.362   6.946   0.064
 2471SOL    HW1 8312   3.405   7.025   0.107
 2471SOL    HW2 8313   3.267   6.967   0.042
 2472SOL     OW 8314   4.254   2.353   3.556
 2472SOL    HW1 8315   4.190   2.430   3.558
 2472SOL    HW2 8316   4.222   2.281   3.616
 2473SOL     OW 8317   1.008   4.303   5.514
 2473SOL    HW1 8318   1.100   4.297   5.552
 2473SOL    HW2 8319   1.003   4.249   5.430
 2474SOL     OW 8320   1.162   5.769   1.009
 2474SOL    HW1 8321   1.231   5.707   1.047
 2474SOL    HW2 8322   1.128   5.733   0.922
 2475SOL     OW 8323   4.159   0.660   2.163
 2475SOL    HW1 8324   4.171   0.733   2.230
 2475SOL    HW2 8325   4.227   0.670   2.090
 2476SOL     OW 8326   5.625   0.126   2.374
 2476SOL    HW1 8327   5.638   0.219   2.407
 2476SOL    HW2 8328   5.687   0.064   2.421
 2477SOL     OW 8329   4.237   1.134   3.782
 2477SOL    HW1 8330   4.276   1.123   3.691
 2477SOL    HW2 8331   4.167   1.206   3.779
 2478SOL     OW 8332   6.115   0.869   2.029
 2478SOL    HW1 8333   6.090   0.885   2.125
 2478SOL    HW2 8334   6.033   0.848   1.976
 2479SOL     OW 8335   1.139   3.187   2.057
 2479SOL    HW1 8336   1.149   3.188   2.156
 2479SOL    HW2 8337   1.169   3.275   2.019
 2480SOL     OW 8338   4.272   3.404   0.815
 2480SOL    HW1 8339   4.278   3.355   0.902
 2480SOL    HW2 8340   4.292   3.341   0.740
 2481SOL     OW 8341   3.420   6.795   1.131
 2481SOL    HW1 8342   3.394   6.784   1.036
 2481SOL    HW2 8343   3.433   6.892   1.151
 2482SOL     OW 8344   5.270   3.188   6.418
 2482SOL    HW1 8345   5.357   3.212   6.461
 2482SOL    HW2 8346   5.196   3.243   6.459
 2483SOL     OW 8347   2.073   1.942   6.749
 2483SOL    HW1 8348   2.064   2.010   6.821
 2483SOL    HW2 8349   2.104   1.987   6.665
 2484SOL     OW 8350   3.390   0.968   0.168
 2484SOL    HW1 8351   3.431   0.894   0.221
 2484SOL    HW2 8352   3.412   1.056   0.210
 2485SOL     OW 8353   5.668   2.912   1.327
 2485SOL    HW1 8354   5.719   2.960   1.257
 2485SOL    HW2 8355   5.719   2.915   1.414
 2486SOL     OW 8356   1.304   5.009   5.238
 2486SOL    HW1 8357   1.288   5.083   5.173
 2486SOL    HW2 8358   1.356   5.044   5.316
 2487SOL     OW 8359   4.603   6.467   0.531
 2487SOL    HW1 8360   4.542   6.431   0.602
 2487SOL    HW2 8361   4.570   6.556   0.501
 2488SOL     OW 8362   0.953   4.287   2.166
 2488SOL    HW1 8363   0.975   4.344   2.245
 2488SOL    HW2 8364   0.855   4.291   2.147
 2489SOL     OW 8365   0.743   5.905   4.138
 2489SOL    HW1 8366   0.744   5.833   4.069
 2489SOL    HW2 8367   0.686   5.981   4.105
 2490SOL     OW 8368   0.160   5.183   1.117
 2490SOL    HW1 8369   0.183   5.163   1.022
 2490SOL    HW2 8370   0.104   5.266   1.122
 2491SOL     OW 8371   2.986   4.158   0.124
 2491SOL    HW1 8372   2.959   4.152   0.220
 2491SOL    HW2 8373   2.906   4.138   0.067
 2492SOL     OW 8374   4.997   3.900   0.917
 2492SOL    HW1 8375   5.054   3.934   0.992
 2492SOL    HW2 8376   5.024   3.807   0.894
 2493SOL     OW 8377   6.584   6.876   1.901
 2493SOL    HW1 8378   6.640   6.955   1.922
 2493SOL    HW2 8379   6.634   6.792   1.924
 2494SOL     OW 8380   5.339   4.267   3.019
 2494SOL    HW1 8381   5.303   4.180   3.052
 2494SOL    HW2 8382   5.263   4.325   2.990
 2495SOL     OW 8383   5.194   6.092   3.488
 2495SOL    HW1 8384   5.218   6.004   3.447
 2495SOL    HW2 8385   5.095   6.099   3.498
 2496SOL     OW 8386   0.658   2.617   6.401
 2496SOL    HW1 8387   0.627   2.650   6.491
 2496SOL    HW2 8388   0.728   2.547   6.414
 2497SOL     OW 8389   0.414   0.166   0.405
 2497SOL    HW1 8390   0.429   0.087   0.346
 2497SOL    HW2 8391   0.398   0.134   0.499
 2498SOL     OW 8392   2.605   1.712   5.533
 2498SOL    HW1 8393   2.578   1.796   5.580
 2498SOL    HW2 8394   2.534   1.686   5.467
 2499SOL     OW 8395   6.032   2.823   2.215
 2499SOL    HW1 8396   5.965   2.784   2.153
 2499SOL    HW2 8397   6.070   2.907   2.176
 2500SOL     OW 8398   3.872   4.021   0.045
 2500SOL    HW1 8399   3.858   4.030   0.143
 2500SOL    HW2 8400   3.967   4.043   0.023
 2501SOL     OW 8401   5.269   5.444   0.955
 2501SOL    HW1 8402   5.171   5.424   0.957
 2501SOL    HW2 8403   5.293   5.504   1.032
 2502SOL     OW 8404   1.076   0.378   4.120
 2502SOL    HW1 8405   1.084   0.473   4.091
 2502SOL    HW2 8406   1.004   0.371   4.190
 2503SOL     OW 8407   2.313   6.451   4.553
 2503SOL    HW1 8408   2.252   6.490   4.484
 2503SOL    HW2 8409   2.301   6.501   4.639
 2504SOL     OW 8410   4.184   5.009   3.777
 2504SOL    HW1 8411   4.151   5.102   3.794
 2504SOL    HW2 8412   4.111   4.943   3.796
 2505SOL     OW 8413   6.920   6.999   2.997
 2505SOL    HW1 8414   6.850   0.031   2.958
 2505SOL    HW2 8415   6.972   0.022   3.066
 2506SOL     OW 8416   6.306   3.929   6.063
 2506SOL    HW1 8417   6.381   3.995   6.060
 2506SOL    HW2 8418   6.344   3.836   6.055
 2507SOL     OW 8419   6.532   3.234   0.125
 2507SOL    HW1 8420   6.460   3.178   0.167
 2507SOL    HW2 8421   6.500   3.328   0.117
 2508SOL     OW 8422   3.169   1.448   3.342
 2508SOL    HW1 8423   3.157   1.502   3.259
 2508SOL    HW2 8424   3.080   1.418   3.376
 2509SOL     OW 8425   0.315   4.057   0.936
 2509SOL    HW1 8426   0.316   3.959   0.952
 2509SOL    HW2 8427   0.263   4.076   0.852
 2510SOL     OW 8428   2.960   5.289   1.323
 2510SOL    HW1 8429   2.876   5.341   1.312
 2510SOL    HW2 8430   2.984   5.285   1.420
 2511SOL     OW 8431   3.622   1.754   3.859
 2511SOL    HW1 8432   3.682   1.677   3.882
 2511SOL    HW2 8433   3.631   1.776   3.762
 2512SOL     OW 8434   4.600   3.623   5.616
 2512SOL    HW1 8435   4.614   3.682   5.695
 2512SOL    HW2 8436   4.681   3.624   5.558
 2513SOL     OW 8437   1.755   4.216   5.173
 2513SOL    HW1 8438   1.840   4.186   5.217
 2513SOL    HW2 8439   1.761   4.315   5.155
 2514SOL     OW 8440   0.308   3.949   5.041
 2514SOL    HW1 8441   0.230   3.887   5.036
 2514SOL    HW2 8442   0.369   3.920   5.115
 2515SOL     OW 8443   1.214   6.630   0.623
 2515SOL    HW1 8444   1.235   6.563   0.695
 2515SOL    HW2 8445   1.226   6.722   0.659
 2516SOL     OW 8446   5.605   1.772   2.383
 2516SOL    HW1 8447   5.630   1.730   2.295
 2516SOL    HW2 8448   5.673   1.748   2.452
 2517SOL     OW 8449   0.604   6.701   6.127
 2517SOL    HW1 8450   0.613   6.611   6.083
 2517SOL    HW2 8451   0.622   6.773   6.061
 2518SOL     OW 8452   1.845   4.864   0.255
 2518SOL    HW1 8453   1.822   4.787   0.196
 2518SOL    HW2 8454   1.891   4.935   0.202
 2519SOL     OW 8455   3.759   6.233   2.034
 2519SOL    HW1 8456   3.843   6.286   2.039
 2519SOL    HW2 8457   3.738   6.213   1.938
 2520SOL     OW 8458   3.242   1.727   0.690
 2520SOL    HW1 8459   3.194   1.795   0.635
 2520SOL    HW2 8460   3.249   1.641   0.639
 2521SOL     OW 8461   2.763   0.626   5.202
 2521SOL    HW1 8462   2.820   0.615   5.121
 2521SOL    HW2 8463   2.788   0.711   5.249
 2522SOL     OW 8464   1.068   2.420   5.382
 2522SOL    HW1 8465   1.040   2.347   5.445
 2522SOL    HW2 8466   0.989   2.478   5.361
 2523SOL     OW 8467   0.311   3.146   1.362
 2523SOL    HW1 8468   0.229   3.099   1.329
 2523SOL    HW2 8469   0.387   3.125   1.301
 2524SOL     OW 8470   0.688   6.627   4.664
 2524SOL    HW1 8471   0.627   6.701   4.635
 2524SOL    HW2 8472   0.643   6.539   4.648
 2525SOL     OW 8473   1.474   2.496   5.463
 2525SOL    HW1 8474   1.446   2.418   5.520
 2525SOL    HW2 8475   1.432   2.486   5.372
 2526SOL     OW 8476   1.299   4.931   6.255
 2526SOL    HW1 8477   1.387   4.936   6.303
 2526SOL    HW2 8478   1.261   5.023   6.246
 2527SOL     OW 8479   5.349   6.095   5.499
 2527SOL    HW1 8480   5.332   6.116   5.595
 2527SOL    HW2 8481   5.383   6.001   5.492
 2528SOL     OW 8482   6.190   4.682   0.022
 2528SOL    HW1 8483   6.121   4.752   0.003
 2528SOL    HW2 8484   6.275   4.706   7.002
 2529SOL     OW 8485   6.496   6.099   6.577
 2529SOL    HW1 8486   6.458   6.071   6.488
 2529SOL    HW2 8487   6.502   6.198   6.580
 2530SOL     OW 8488   2.951   6.226   5.082
 2530SOL    HW1 8489   2.886   6.296   5.113
 2530SOL    HW2 8490   3.036   6.234   5.135
 2531SOL     OW 8491   5.317   5.926   4.878
 2531SOL    HW1 8492   5.382   5.883   4.942
 2531SOL    HW2 8493   5.361   5.936   4.788
 2532SOL     OW 8494   0.543   5.813   0.848
 2532SOL    HW1 8495   0.453   5.779   0.822
 2532SOL    HW2 8496   0.539   5.912   0.862
 2533SOL     OW 8497   3.570   6.534   4.247
 2533SOL    HW1 8498   3.609   6.507   4.160
 2533SOL    HW2 8499   3.536   6.452   4.295
 2534SOL     OW 8500   3.798   0.884   2.337
 2534SOL    HW1 8501   3.758   0.970   2.304
 2534SOL    HW2 8502   3.799   0.817   2.263
 2535SOL     OW 8503   3.470   2.599   5.550
 2535SOL    HW1 8504   3.425   2.610   5.461
 2535SOL    HW2 8505   3.432   2.665   5.615
 2536SOL     OW 8506   1.092   1.528   4.916
 2536SOL    HW1 8507   1.178   1.482   4.936
 2536SOL    HW2 8508   1.034   1.468   4.860
 2537SOL     OW 8509   3.721   0.312   6.683
 2537SOL    HW1 8510   3.668   0.278   6.604
 2537SOL    HW2 8511   3.790   0.377   6.651
 2538SOL     OW 8512   0.868   4.503   2.902
 2538SOL    HW1 8513   0.859   4.603   2.895
 2538SOL    HW2 8514   0.953   4.481   2.951
 2539SOL     OW 8515   6.076   1.009   5.036
 2539SOL    HW1 8516   6.148   0.970   5.093
 2539SOL    HW2 8517   6.007   1.051   5.095
 2540SOL     OW 8518   3.842   1.782   2.858
 2540SOL    HW1 8519   3.897   1.863   2.836
 2540SOL    HW2 8520   3.842   1.720   2.780
 2541SOL     OW 8521   2.596   0.384   5.258
 2541SOL    HW1 8522   2.507   0.391   5.214
 2541SOL    HW2 8523   2.641   0.473   5.258
 2542SOL     OW 8524   2.973   2.115   5.587
 2542SOL    HW1 8525   3.040   2.118   5.660
 2542SOL    HW2 8526   2.908   2.041   5.604
 2543SOL     OW 8527   1.406   0.659   2.944
 2543SOL    HW1 8528   1.316   0.685   2.908
 2543SOL    HW2 8529   1.426   0.565   2.918
 2544SOL     OW 8530   0.305   6.479   1.153
 2544SOL    HW1 8531   0.360   6.396   1.141
 2544SOL    HW2 8532   0.267   6.481   1.246
 2545SOL     OW 8533   1.104   0.080   2.348
 2545SOL    HW1 8534   1.037   0.018   2.308
 2545SOL    HW2 8535   1.063   0.171   2.357
 2546SOL     OW 8536   0.268   0.607   1.710
 2546SOL    HW1 8537   0.274   0.509   1.729
 2546SOL    HW2 8538   0.314   0.658   1.783
 2547SOL     OW 8539   6.536   4.804   0.403
 2547SOL    HW1 8540   6.553   4.733   0.471
 2547SOL    HW2 8541   6.623   4.847   0.377
 2548SOL     OW 8542   1.102   6.697   5.635
 2548SOL    HW1 8543   1.027   6.632   5.632
 2548SOL    HW2 8544   1.104   6.743   5.724
 2549SOL     OW 8545   1.872   0.240   0.991
 2549SOL    HW1 8546   1.899   0.144   0.984
 2549SOL    HW2 8547   1.858   0.277   0.899
 2550SOL     OW 8548   6.953   0.455   6.672
 2550SOL    HW1 8549   6.898   0.478   6.752
 2550SOL    HW2 8550   7.020   0.385   6.697
 2551SOL     OW 8551   2.814   5.026   0.725
 2551SOL    HW1 8552   2.769   4.972   0.654
 2551SOL    HW2 8553   2.871   5.096   0.683
 2552SOL     OW 8554   1.788   6.533   4.554
 2552SOL    HW1 8555   1.853   6.487   4.614
 2552SOL    HW2 8556   1.716   6.470   4.528
 2553SOL     OW 8557   4.912   3.233   5.728
 2553SOL    HW1 8558   4.889   3.310   5.788
 2553SOL    HW2 8559   4.950   3.268   5.642
 2554SOL     OW 8560   2.153   6.919   0.043
 2554SOL    HW1 8561   2.134   6.825   0.014
 2554SOL    HW2 8562   2.236   6.920   0.099
 2555SOL     OW 8563   5.594   6.956   4.908
 2555SOL    HW1 8564   5.547   0.015   4.895
 2555SOL    HW2 8565   5.693   6.969   4.894
 2556SOL     OW 8566   3.933   5.788   0.245
 2556SOL    HW1 8567   3.946   5.886   0.236
 2556SOL    HW2 8568   3.977   5.756   0.329
 2557SOL     OW 8569   2.211   4.712   6.805
 2557SOL    HW1 8570   2.171   4.679   6.719
 2557SOL    HW2 8571   2.310   4.714   6.797
 2558SOL     OW 8572   5.371   1.474   4.852
 2558SOL    HW1 8573   5.329   1.452   4.940
 2558SOL    HW2 8574   5.433   1.400   4.826
 2559SOL     OW 8575   0.409   4.141   4.900
 2559SOL    HW1 8576   0.488   4.108   4.849
 2559SOL    HW2 8577   0.375   4.068   4.960
 2560SOL     OW 8578   5.490   2.945   4.310
 2560SOL    HW1 8579   5.464   3.042   4.311
 2560SOL    HW2 8580   5.589   2.937   4.306
 2561SOL     OW 8581   3.170   6.206   5.217
 2561SOL    HW1 8582   3.160   6.172   5.311
 2561SOL    HW2 8583   3.261   6.183   5.183
 2562SOL     OW 8584   2.371   5.512   1.482
 2562SOL    HW1 8585   2.332   5.568   1.555
 2562SOL    HW2 8586   2.328   5.421   1.483
 2563SOL     OW 8587   3.696   2.050   0.362
 2563SOL    HW1 8588   3.682   2.092   0.272
 2563SOL    HW2 8589   3.733   2.119   0.425
 2564SOL     OW 8590   1.980   5.236   6.423
 2564SOL    HW1 8591   2.057   5.198   6.373
 2564SOL    HW2 8592   1.918   5.282   6.360
 2565SOL     OW 8593   1.260   0.333   0.289
 2565SOL    HW1 8594   1.197   0.317   0.213
 2565SOL    HW2 8595   1.270   0.431   0.304
 2566SOL     OW 8596   2.579   6.768   1.081
 2566SOL    HW1 8597   2.483   6.767   1.051
 2566SOL    HW2 8598   2.583   6.744   1.178
 2567SOL     OW 8599   0.930   0.788   0.875
 2567SOL    HW1 8600   0.838   0.750   0.884
 2567SOL    HW2 8601   0.926   0.888   0.878
 2568SOL     OW 8602   4.324   0.835   6.713
 2568SOL    HW1 8603   4.227   0.839   6.691
 2568SOL    HW2 8604   4.351   0.740   6.731
 2569SOL     OW 8605   2.898   1.424   2.033
 2569SOL    HW1 8606   2.928   1.426   2.128
 2569SOL    HW2 8607   2.949   1.491   1.980
 2570SOL     OW 8608   5.605   0.156   6.595
 2570SOL    HW1 8609   5.690   0.125   6.636
 2570SOL    HW2 8610   5.564   0.228   6.651
 2571SOL     OW 8611   2.343   4.517   5.023
 2571SOL    HW1 8612   2.283   4.439   5.042
 2571SOL    HW2 8613   2.304   4.599   5.065
 2572SOL     OW 8614   2.538   5.899   0.789
 2572SOL    HW1 8615   2.547   5.835   0.865
 2572SOL    HW2 8616   2.609   5.970   0.796
 2573SOL     OW 8617   6.935   1.975   1.654
 2573SOL    HW1 8618   7.007   2.001   1.719
 2573SOL    HW2 8619   6.962   2.002   1.562
 2574SOL     OW 8620   5.935   4.240   0.675
 2574SOL    HW1 8621   5.882   4.241   0.760
 2574SOL    HW2 8622   6.027   4.207   0.693
 2575SOL     OW 8623   5.185   5.559   0.636
 2575SOL    HW1 8624   5.204   5.461   0.633
 2575SOL    HW2 8625   5.099   5.576   0.684
 2576SOL     OW 8626   4.472   6.802   4.794
 2576SOL    HW1 8627   4.440   6.740   4.722
 2576SOL    HW2 8628   4.551   6.853   4.762
 2577SOL     OW 8629   4.545   6.599   2.014
 2577SOL    HW1 8630   4.463   6.653   1.994
 2577SOL    HW2 8631   4.619   6.660   2.043
 2578SOL     OW 8632   4.781   1.662   5.019
 2578SOL    HW1 8633   4.707   1.645   4.953
 2578SOL    HW2 8634   4.823   1.575   5.045
 2579SOL     OW 8635   1.810   6.604   2.960
 2579SOL    HW1 8636   1.837   6.542   3.034
 2579SOL    HW2 8637   1.868   6.588   2.880
 2580SOL     OW 8638   3.265   3.965   6.597
 2580SOL    HW1 8639   3.214   4.007   6.672
 2580SOL    HW2 8640   3.318   4.035   6.550
 2581SOL     OW 8641   1.676   5.325   1.770
 2581SOL    HW1 8642   1.686   5.387   1.847
 2581SOL    HW2 8643   1.730   5.242   1.786
 2582SOL     OW 8644   0.486   4.153   1.399
 2582SOL    HW1 8645   0.510   4.158   1.302
 2582SOL    HW2 8646   0.569   4.146   1.454
 2583SOL     OW 8647   1.310   1.531   6.446
 2583SOL    HW1 8648   1.285   1.628   6.445
 2583SOL    HW2 8649   1.311   1.495   6.353
 2584SOL     OW 8650   4.701   5.137   6.013
 2584SOL    HW1 8651   4.661   5.211   5.959
 2584SOL    HW2 8652   4.772   5.092   5.958
 2585SOL     OW 8653   4.235   3.537   0.444
 2585SOL    HW1 8654   4.224   3.590   0.528
 2585SOL    HW2 8655   4.204   3.591   0.366
 2586SOL     OW 8656   3.645   0.991   4.188
 2586SOL    HW1 8657   3.690   0.988   4.277
 2586SOL    HW2 8658   3.640   1.085   4.155
 2587SOL     OW 8659   6.510   0.713   3.301
 2587SOL    HW1 8660   6.466   0.802   3.311
 2587SOL    HW2 8661   6.609   0.724   3.307
 2588SOL     OW 8662   4.999   1.799   6.682
 2588SOL    HW1 8663   4.973   1.895   6.675
 2588SOL    HW2 8664   5.032   1.766   6.594
 2589SOL     OW 8665   1.325   6.407   5.009
 2589SOL    HW1 8666   1.422   6.417   4.987
 2589SOL    HW2 8667   1.314   6.396   5.108
 2590SOL     OW 8668   3.319   4.481   0.134
 2590SOL    HW1 8669   3.400   4.424   0.124
 2590SOL    HW2 8670   3.327   4.561   0.074
 2591SOL     OW 8671   0.149   4.897   3.060
 2591SOL    HW1 8672   0.232   4.887   3.116
 2591SOL    HW2 8673   0.126   4.809   3.019
 2592SOL     OW 8674   3.085   5.791   0.140
 2592SOL    HW1 8675   3.160   5.846   0.105
 2592SOL    HW2 8676   3.038   5.746   0.064
 2593SOL     OW 8677   4.121   5.795   6.839
 2593SOL    HW1 8678   4.041   5.741   6.811
 2593SOL    HW2 8679   4.100   5.844   6.923
 2594SOL     OW 8680   1.759   4.366   6.126
 2594SOL    HW1 8681   1.815   4.306   6.069
 2594SOL    HW2 8682   1.669   4.325   6.139
 2595SOL     OW 8683   0.347   0.461   4.304
 2595SOL    HW1 8684   0.328   0.364   4.315
 2595SOL    HW2 8685   0.411   0.474   4.228
 2596SOL     OW 8686   3.062   2.278   1.702
 2596SOL    HW1 8687   3.149   2.321   1.725
 2596SOL    HW2 8688   2.987   2.331   1.742
 2597SOL     OW 8689   0.509   5.023   6.127
 2597SOL    HW1 8690   0.604   5.002   6.149
 2597SOL    HW2 8691   0.502   5.046   6.030
 2598SOL     OW 8692   6.678   1.539   2.853
 2598SOL    HW1 8693   6.763   1.490   2.874
 2598SOL    HW2 8694   6.670   1.553   2.754
 2599SOL     OW 8695   1.492   5.736   1.016
 2599SOL    HW1 8696   1.447   5.789   0.944
 2599SOL    HW2 8697   1.506   5.795   1.096
 2600SOL     OW 8698   5.645   2.640   4.715
 2600SOL    HW1 8699   5.587   2.589   4.651
 2600SOL    HW2 8700   5.618   2.737   4.714
 2601SOL     OW 8701   1.799   1.430   1.927
 2601SOL    HW1 8702   1.751   1.509   1.965
 2601SOL    HW2 8703   1.749   1.398   1.845
 2602SOL     OW 8704   1.049   4.877   4.920
 2602SOL    HW1 8705   1.065   4.829   5.006
 2602SOL    HW2 8706   0.958   4.855   4.886
 2603SOL     OW 8707   3.096   0.841   3.124
 2603SOL    HW1 8708   3.004   0.839   3.085
 2603SOL    HW2 8709   3.157   0.889   3.061
 2604SOL     OW 8710   4.806   2.346   2.625
 2604SOL    HW1 8711   4.706   2.348   2.616
 2604SOL    HW2 8712   4.846   2.413   2.561
 2605SOL     OW 8713   1.596   2.793   2.977
 2605SOL    HW1 8714   1.530   2.842   3.035
 2605SOL    HW2 8715   1.624   2.709   3.023
 2606SOL     OW 8716   5.553   4.614   1.439
 2606SOL    HW1 8717   5.584   4.554   1.365
 2606SOL    HW2 8718   5.623   4.615   1.511
 2607SOL     OW 8719   0.922   1.343   2.025
 2607SOL    HW1 8720   0.836   1.308   1.988
 2607SOL    HW2 8721   0.903   1.405   2.101
 2608SOL     OW 8722   3.905   5.665   0.852
 2608SOL    HW1 8723   3.990   5.717   0.844
 2608SOL    HW2 8724   3.841   5.715   0.910
 2609SOL     OW 8725   6.144   1.159   2.379
 2609SOL    HW1 8726   6.150   1.169   2.279
 2609SOL    HW2 8727   6.051   1.180   2.409
 2610SOL     OW 8728   0.622   4.055   4.742
 2610SOL    HW1 8729   0.660   4.143   4.715
 2610SOL    HW2 8730   0.675   3.981   4.701
 2611SOL     OW 8731   4.409   6.131   0.596
 2611SOL    HW1 8732   4.441   6.226   0.587
 2611SOL    HW2 8733   4.488   6.071   0.608
 2612SOL     OW 8734   6.147   6.475   4.605
 2612SOL    HW1 8735   6.153   6.474   4.505
 2612SOL    HW2 8736   6.239   6.473   4.644
 2613SOL     OW 8737   2.072   5.323   5.919
 2613SOL    HW1 8738   2.113   5.337   6.009
 2613SOL    HW2 8739   2.037   5.410   5.884
 2614SOL     OW 8740   6.847   2.389   0.095
 2614SOL    HW1 8741   6.812   2.299   0.123
 2614SOL    HW2 8742   6.947   2.387   0.093
 2615SOL     OW 8743   0.771   3.314   2.365
 2615SOL    HW1 8744   0.757   3.349   2.458
 2615SOL    HW2 8745   0.688   3.329   2.311
 2616SOL     OW 8746   2.562   2.682   6.007
 2616SOL    HW1 8747   2.630   2.743   6.049
 2616SOL    HW2 8748   2.529   2.617   6.076
 2617SOL     OW 8749   4.306   0.766   0.342
 2617SOL    HW1 8750   4.393   0.797   0.304
 2617SOL    HW2 8751   4.284   0.820   0.423
 2618SOL     OW 8752   6.840   0.275   3.877
 2618SOL    HW1 8753   6.831   0.178   3.900
 2618SOL    HW2 8754   6.895   0.321   3.947
 2619SOL     OW 8755   5.071   1.962   1.705
 2619SOL    HW1 8756   5.106   1.999   1.791
 2619SOL    HW2 8757   4.995   2.019   1.673
 2620SOL     OW 8758   6.836   6.836   3.362
 2620SOL    HW1 8759   6.832   6.785   3.276
 2620SOL    HW2 8760   6.931   6.842   3.392
 2621SOL     OW 8761   1.069   5.319   2.314
 2621SOL    HW1 8762   1.044   5.378   2.390
 2621SOL    HW2 8763   1.038   5.360   2.228
 2622SOL     OW 8764   2.380   3.819   6.035
 2622SOL    HW1 8765   2.419   3.910   6.019
 2622SOL    HW2 8766   2.290   3.814   5.993
 2623SOL     OW 8767   0.829   1.186   5.472
 2623SOL    HW1 8768   0.813   1.128   5.551
 2623SOL    HW2 8769   0.747   1.239   5.451
 2624SOL     OW 8770   0.443   1.985   5.142
 2624SOL    HW1 8771   0.519   2.004   5.204
 2624SOL    HW2 8772   0.387   2.068   5.131
 2625SOL     OW 8773   2.520   3.670   5.756
 2625SOL    HW1 8774   2.552   3.764   5.768
 2625SOL    HW2 8775   2.598   3.609   5.746
 2626SOL     OW 8776   6.637   0.413   6.129
 2626SOL    HW1 8777   6.620   0.442   6.035
 2626SOL    HW2 8778   6.564   0.446   6.188
 2627SOL     OW 8779   1.736   0.962   6.274
 2627SOL    HW1 8780   1.831   0.978   6.248
 2627SOL    HW2 8781   1.675   0.999   6.204
 2628SOL     OW 8782   2.102   3.987   5.561
 2628SOL    HW1 8783   2.128   3.925   5.635
 2628SOL    HW2 8784   2.179   4.046   5.538
 2629SOL     OW 8785   3.644   3.382   2.377
 2629SOL    HW1 8786   3.666   3.328   2.296
 2629SOL    HW2 8787   3.609   3.471   2.350
 2630SOL     OW 8788   3.732   1.149   2.637
 2630SOL    HW1 8789   3.806   1.089   2.606
 2630SOL    HW2 8790   3.698   1.202   2.559
 2631SOL     OW 8791   5.498   0.943   6.675
 2631SOL    HW1 8792   5.434   1.019   6.671
 2631SOL    HW2 8793   5.475   0.883   6.752
 2632SOL     OW 8794   5.859   3.329   0.477
 2632SOL    HW1 8795   5.896   3.265   0.545
 2632SOL    HW2 8796   5.782   3.287   0.430
 2633SOL     OW 8797   6.831   2.019   4.976
 2633SOL    HW1 8798   6.786   2.009   4.887
 2633SOL    HW2 8799   6.795   2.100   5.022
 2634SOL     OW 8800   0.589   5.869   3.685
 2634SOL    HW1 8801   0.510   5.814   3.713
 2634SOL    HW2 8802   0.652   5.813   3.631
 2635SOL     OW 8803   6.846   6.284   4.581
 2635SOL    HW1 8804   6.858   6.199   4.529
 2635SOL    HW2 8805   6.913   6.287   4.655
 2636SOL     OW 8806   3.791   0.665   6.775
 2636SOL    HW1 8807   3.775   0.763   6.763
 2636SOL    HW2 8808   3.731   0.613   6.715
 2637SOL     OW 8809   6.320   1.741   4.071
 2637SOL    HW1 8810   6.227   1.777   4.078
 2637SOL    HW2 8811   6.323   1.669   4.001
 2638SOL     OW 8812   0.062   6.831   4.615
 2638SOL    HW1 8813   0.162   6.835   4.618
 2638SOL    HW2 8814   0.032   6.736   4.626
 2639SOL     OW 8815   6.736   6.165   6.860
 2639SOL    HW1 8816   6.698   6.155   6.952
 2639SOL    HW2 8817   6.723   6.080   6.809
 2640SOL     OW 8818   6.878   6.705   5.349
 2640SOL    HW1 8819   6.872   6.804   5.361
 2640SOL    HW2 8820   6.795   6.672   5.303
 2641SOL     OW 8821   5.281   2.259   1.627
 2641SOL    HW1 8822   5.296   2.358   1.625
 2641SOL    HW2 8823   5.287   2.227   1.721
 2642SOL     OW 8824   6.208   0.321   4.055
 2642SOL    HW1 8825   6.186   0.363   3.968
 2642SOL    HW2 8826   6.307   0.328   4.071
 2643SOL     OW 8827   1.277   3.821   3.504
 2643SOL    HW1 8828   1.187   3.823   3.546
 2643SOL    HW2 8829   1.295   3.728   3.469
 2644SOL     OW 8830   4.912   5.077   5.193
 2644SOL    HW1 8831   4.917   5.159   5.136
 2644SOL    HW2 8832   5.000   5.063   5.238
 2645SOL     OW 8833   4.620   5.343   3.552
 2645SOL    HW1 8834   4.539   5.361   3.608
 2645SOL    HW2 8835   4.591   5.319   3.459
 2646SOL     OW 8836   0.054   2.275   0.016
 2646SOL    HW1 8837   0.115   2.197   0.028
 2646SOL    HW2 8838   0.109   2.357   7.024
 2647SOL     OW 8839   6.078   6.909   1.607
 2647SOL    HW1 8840   6.148   6.931   1.540
 2647SOL    HW2 8841   6.094   6.962   1.691
 2648SOL     OW 8842   6.992   6.574   4.666
 2648SOL    HW1 8843   0.019   6.540   4.742
 2648SOL    HW2 8844   6.901   6.601   4.701
 2649SOL     OW 8845   6.076   2.973   1.466
 2649SOL    HW1 8846   6.077   2.874   1.476
 2649SOL    HW2 8847   6.169   3.009   1.475
 2650SOL     OW 8848   2.087   5.319   4.371
 2650SOL    HW1 8849   2.003   5.372   4.358
 2650SOL    HW2 8850   2.166   5.380   4.362
 2651SOL     OW 8851   2.959   1.258   0.896
 2651SOL    HW1 8852   2.959   1.225   0.990
 2651SOL    HW2 8853   3.044   1.308   0.878
 2652SOL     OW 8854   4.777   3.394   5.910
 2652SOL    HW1 8855   4.837   3.473   5.907
 2652SOL    HW2 8856   4.798   3.338   5.990
 2653SOL     OW 8857   4.485   6.004   5.607
 2653SOL    HW1 8858   4.489   6.102   5.586
 2653SOL    HW2 8859   4.574   5.972   5.637
 2654SOL     OW 8860   4.792   6.469   1.316
 2654SOL    HW1 8861   4.709   6.507   1.277
 2654SOL    HW2 8862   4.865   6.537   1.314
 2655SOL     OW 8863   4.877   5.544   3.593
 2655SOL    HW1 8864   4.817   5.492   3.532
 2655SOL    HW2 8865   4.829   5.563   3.679
 2656SOL     OW 8866   3.555   5.648   4.283
 2656SOL    HW1 8867   3.545   5.676   4.188
 2656SOL    HW2 8868   3.468   5.610   4.316
 2657SOL     OW 8869   1.851   3.400   0.503
 2657SOL    HW1 8870   1.834   3.498   0.497
 2657SOL    HW2 8871   1.865   3.363   0.412
 2658SOL     OW 8872   4.719   4.732   0.394
 2658SOL    HW1 8873   4.814   4.700   0.395
 2658SOL    HW2 8874   4.717   4.832   0.401
 2659SOL     OW 8875   4.696   3.078   5.629
 2659SOL    HW1 8876   4.726   2.985   5.607
 2659SOL    HW2 8877   4.776   3.138   5.633
 2660SOL     OW 8878   0.652   0.750   1.608
 2660SOL    HW1 8879   0.717   0.675   1.599
 2660SOL    HW2 8880   0.587   0.748   1.532
 2661SOL     OW 8881   2.080   6.763   1.710
 2661SOL    HW1 8882   1.994   6.722   1.679
 2661SOL    HW2 8883   2.100   6.844   1.654
 2662SOL     OW 8884   2.973   0.053   3.735
 2662SOL    HW1 8885   2.875   0.035   3.742
 2662SOL    HW2 8886   2.991   0.150   3.752
 2663SOL     OW 8887   4.449   5.083   6.537
 2663SOL    HW1 8888   4.477   5.104   6.443
 2663SOL    HW2 8889   4.456   5.165   6.593
 2664SOL     OW 8890   4.185   3.192   5.447
 2664SOL    HW1 8891   4.095   3.228   5.471
 2664SOL    HW2 8892   4.210   3.119   5.510
 2665SOL     OW 8893   2.596   3.387   5.427
 2665SOL    HW1 8894   2.508   3.429   5.451
 2665SOL    HW2 8895   2.648   3.450   5.369
 2666SOL     OW 8896   1.553   4.701   1.841
 2666SOL    HW1 8897   1.478   4.641   1.868
 2666SOL    HW2 8898   1.634   4.646   1.820
 2667SOL     OW 8899   1.105   5.382   3.806
 2667SOL    HW1 8900   1.047   5.357   3.884
 2667SOL    HW2 8901   1.194   5.337   3.816
 2668SOL     OW 8902   6.014   2.808   4.826
 2668SOL    HW1 8903   5.986   2.713   4.812
 2668SOL    HW2 8904   6.012   2.829   4.923
 2669SOL     OW 8905   3.138   5.526   6.811
 2669SOL    HW1 8906   3.235   5.546   6.825
 2669SOL    HW2 8907   3.086   5.555   6.892
 2670SOL     OW 8908   5.934   2.557   4.781
 2670SOL    HW1 8909   5.931   2.458   4.797
 2670SOL    HW2 8910   5.842   2.590   4.757
 2671SOL     OW 8911   4.840   5.528   6.259
 2671SOL    HW1 8912   4.840   5.531   6.359
 2671SOL    HW2 8913   4.795   5.610   6.224
 2672SOL     OW 8914   3.364   6.552   1.607
 2672SOL    HW1 8915   3.276   6.599   1.618
 2672SOL    HW2 8916   3.386   6.543   1.510
 2673SOL     OW 8917   5.919   1.876   1.914
 2673SOL    HW1 8918   5.917   1.976   1.907
 2673SOL    HW2 8919   6.012   1.846   1.933
 2674SOL     OW 8920   1.450   4.930   3.975
 2674SOL    HW1 8921   1.519   4.943   4.046
 2674SOL    HW2 8922   1.455   5.005   3.908
 2675SOL     OW 8923   6.840   6.691   4.232
 2675SOL    HW1 8924   6.925   6.684   4.180
 2675SOL    HW2 8925   6.845   6.631   4.312
 2676SOL     OW 8926   3.458   3.583   2.250
 2676SOL    HW1 8927   3.403   3.642   2.309
 2676SOL    HW2 8928   3.398   3.529   2.191
 2677SOL     OW 8929   2.630   4.922   1.339
 2677SOL    HW1 8930   2.648   4.909   1.437
 2677SOL    HW2 8931   2.716   4.930   1.290
 2678SOL     OW 8932   7.012   2.292   1.971
 2678SOL    HW1 8933   6.944   2.354   2.011
 2678SOL    HW2 8934   0.024   2.236   2.044
 2679SOL     OW 8935   1.770   4.833   2.385
 2679SOL    HW1 8936   1.709   4.758   2.411
 2679SOL    HW2 8937   1.861   4.797   2.364
 2680SOL     OW 8938   1.335   2.302   6.745
 2680SOL    HW1 8939   1.387   2.245   6.681
 2680SOL    HW2 8940   1.314   2.390   6.702
 2681SOL     OW 8941   1.224   2.701   4.860
 2681SOL    HW1 8942   1.301   2.762   4.875
 2681SOL    HW2 8943   1.190   2.668   4.948
 2682SOL     OW 8944   4.802   4.042   3.101
 2682SOL    HW1 8945   4.873   4.042   3.031
 2682SOL    HW2 8946   4.763   3.950   3.109
 2683SOL     OW 8947   2.216   4.954   2.293
 2683SOL    HW1 8948   2.280   4.893   2.244
 2683SOL    HW2 8949   2.267   5.008   2.359
 2684SOL     OW 8950   4.820   0.085   1.736
 2684SOL    HW1 8951   4.795   0.173   1.697
 2684SOL    HW2 8952   4.867   0.030   1.668
 2685SOL     OW 8953   6.063   4.961   5.573
 2685SOL    HW1 8954   6.005   5.004   5.505
 2685SOL    HW2 8955   6.006   4.916   5.642
 2686SOL     OW 8956   0.975   1.717   5.614
 2686SOL    HW1 8957   1.021   1.708   5.525
 2686SOL    HW2 8958   0.924   1.634   5.634
 2687SOL     OW 8959   3.594   5.899   0.340
 2687SOL    HW1 8960   3.661   5.899   0.414
 2687SOL    HW2 8961   3.506   5.930   0.375
 2688SOL     OW 8962   2.528   2.049   0.540
 2688SOL    HW1 8963   2.584   1.967   0.548
 2688SOL    HW2 8964   2.575   2.116   0.482
 2689SOL     OW 8965   7.019   4.066   2.419
 2689SOL    HW1 8966   0.076   4.114   2.396
 2689SOL    HW2 8967   6.941   4.116   2.380
 2690SOL     OW 8968   3.027   3.362   6.961
 2690SOL    HW1 8969   3.017   3.310   6.876
 2690SOL    HW2 8970   3.108   3.420   6.955
 2691SOL     OW 8971   0.144   4.596   3.883
 2691SOL    HW1 8972   0.204   4.613   3.805
 2691SOL    HW2 8973   0.049   4.615   3.856
 2692SOL     OW 8974   2.377   0.039   2.824
 2692SOL    HW1 8975   2.387   0.008   2.729
 2692SOL    HW2 8976   2.416   6.999   2.886
 2693SOL     OW 8977   2.506   4.752   4.057
 2693SOL    HW1 8978   2.477   4.668   4.013
 2693SOL    HW2 8979   2.542   4.732   4.148
 2694SOL     OW 8980   4.149   6.642   3.256
 2694SOL    HW1 8981   4.129   6.560   3.310
 2694SOL    HW2 8982   4.222   6.694   3.299
 2695SOL     OW 8983   5.485   0.345   2.756
 2695SOL    HW1 8984   5.392   0.309   2.758
 2695SOL    HW2 8985   5.546   0.285   2.808
 2696SOL     OW 8986   4.785   3.876   5.565
 2696SOL    HW1 8987   4.689   3.892   5.588
 2696SOL    HW2 8988   4.791   3.804   5.496
 2697SOL     OW 8989   4.310   1.834   2.790
 2697SOL    HW1 8990   4.235   1.809   2.729
 2697SOL    HW2 8991   4.373   1.895   2.742
 2698SOL     OW 8992   1.776   4.896   6.803
 2698SOL    HW1 8993   1.755   4.849   6.718
 2698SOL    HW2 8994   1.757   4.994   6.793
 2699SOL     OW 8995   3.147   6.217   0.996
 2699SOL    HW1 8996   3.088   6.236   1.075
 2699SOL    HW2 8997   3.180   6.123   1.001
 2700SOL     OW 8998   2.709   1.487   1.172
 2700SOL    HW1 8999   2.656   1.504   1.255
 2700SOL    HW2 9000   2.760   1.570   1.147
 2701SOL     OW 9001   5.253   2.205   5.476
 2701SOL    HW1 9002   5.312   2.125   5.483
 2701SOL    HW2 9003   5.281   2.260   5.397
 2702SOL     OW 9004   1.117   2.160   2.857
 2702SOL    HW1 9005   1.103   2.180   2.954
 2702SOL    HW2 9006   1.037   2.112   2.821
 2703SOL     OW 9007   1.512   6.025   1.780
 2703SOL    HW1 9008   1.587   5.975   1.823
 2703SOL    HW2 9009   1.486   6.103   1.838
 2704SOL     OW 9010   6.730   5.630   1.923
 2704SOL    HW1 9011   6.681   5.611   2.008
 2704SOL    HW2 9012   6.826   5.648   1.943
 2705SOL     OW 9013   6.730   0.388   5.097
 2705SOL    HW1 9014   6.707   0.415   5.003
 2705SOL    HW2 9015   6.820   0.424   5.120
 2706SOL     OW 9016   6.554   4.469   3.722
 2706SOL    HW1 9017   6.588   4.560   3.698
 2706SOL    HW2 9018   6.471   4.450   3.670
 2707SOL     OW 9019   4.162   0.407   4.102
 2707SOL    HW1 9020   4.124   0.338   4.040
 2707SOL    HW2 9021   4.213   0.475   4.049
 2708SOL     OW 9022   6.586   2.898   1.247
 2708SOL    HW1 9023   6.502   2.936   1.286
 2708SOL    HW2 9024   6.563   2.842   1.167
 2709SOL     OW 9025   5.060   0.183   6.496
 2709SOL    HW1 9026   5.022   0.239   6.422
 2709SOL    HW2 9027   4.988   0.129   6.539
 2710SOL     OW 9028   1.779   2.597   3.805
 2710SOL    HW1 9029   1.831   2.607   3.720
 2710SOL    HW2 9030   1.706   2.530   3.792
 2711SOL     OW 9031   3.463   0.840   3.416
 2711SOL    HW1 9032   3.535   0.809   3.354
 2711SOL    HW2 9033   3.383   0.779   3.408
 2712SOL     OW 9034   2.407   5.535   2.437
 2712SOL    HW1 9035   2.492   5.564   2.395
 2712SOL    HW2 9036   2.427   5.474   2.514
 2713SOL     OW 9037   4.147   3.915   6.659
 2713SOL    HW1 9038   4.120   3.826   6.696
 2713SOL    HW2 9039   4.140   3.914   6.559
 2714SOL     OW 9040   3.689   3.392   7.025
 2714SOL    HW1 9041   3.667   3.297   7.006
 2714SOL    HW2 9042   3.631   3.425   0.072
 2715SOL     OW 9043   5.783   2.050   0.903
 2715SOL    HW1 9044   5.697   2.087   0.867
 2715SOL    HW2 9045   5.837   2.014   0.827
 2716SOL     OW 9046   5.236   3.017   3.856
 2716SOL    HW1 9047   5.205   2.977   3.770
 2716SOL    HW2 9048   5.255   2.944   3.922
 2717SOL     OW 9049   1.048   6.848   1.841
 2717SOL    HW1 9050   1.062   6.903   1.923
 2717SOL    HW2 9051   1.024   6.755   1.867
 2718SOL     OW 9052   0.354   1.323   5.347
 2718SOL    HW1 9053   0.360   1.407   5.294
 2718SOL    HW2 9054   0.377   1.245   5.288
 2719SOL     OW 9055   1.454   4.169   1.589
 2719SOL    HW1 9056   1.441   4.268   1.583
 2719SOL    HW2 9057   1.399   4.124   1.518
 2720SOL     OW 9058   1.167   0.339   3.088
 2720SOL    HW1 9059   1.141   0.379   3.001
 2720SOL    HW2 9060   1.195   0.411   3.151
 2721SOL     OW 9061   3.254   6.461   3.137
 2721SOL    HW1 9062   3.276   6.483   3.042
 2721SOL    HW2 9063   3.242   6.363   3.147
 2722SOL     OW 9064   4.907   5.435   6.499
 2722SOL    HW1 9065   4.838   5.478   6.557
 2722SOL    HW2 9066   4.903   5.335   6.510
 2723SOL     OW 9067   2.093   6.204   6.761
 2723SOL    HW1 9068   2.161   6.141   6.723
 2723SOL    HW2 9069   2.043   6.247   6.686
 2724SOL     OW 9070   1.722   6.017   6.827
 2724SOL    HW1 9071   1.770   6.100   6.797
 2724SOL    HW2 9072   1.789   5.951   6.860
 2725SOL     OW 9073   5.501   3.999   4.726
 2725SOL    HW1 9074   5.553   3.915   4.736
 2725SOL    HW2 9075   5.541   4.056   4.654
 2726SOL     OW 9076   0.765   2.270   1.812
 2726SOL    HW1 9077   0.806   2.272   1.903
 2726SOL    HW2 9078   0.833   2.298   1.744
 2727SOL     OW 9079   1.319   3.708   4.225
 2727SOL    HW1 9080   1.403   3.677   4.269
 2727SOL    HW2 9081   1.330   3.702   4.125
 2728SOL     OW 9082   5.383   6.237   6.130
 2728SOL    HW1 9083   5.408   6.150   6.172
 2728SOL    HW2 9084   5.415   6.313   6.188
 2729SOL     OW 9085   6.725   6.400   0.265
 2729SOL    HW1 9086   6.709   6.362   0.356
 2729SOL    HW2 9087   6.653   6.466   0.244
 2730SOL     OW 9088   1.050   6.120   2.176
 2730SOL    HW1 9089   0.977   6.087   2.116
 2730SOL    HW2 9090   1.136   6.126   2.126
 2731SOL     OW 9091   3.306   3.831   3.434
 2731SOL    HW1 9092   3.395   3.836   3.478
 2731SOL    HW2 9093   3.256   3.752   3.470
 2732SOL     OW 9094   5.996   2.074   0.734
 2732SOL    HW1 9095   5.987   2.150   0.799
 2732SOL    HW2 9096   6.042   2.107   0.652
 2733SOL     OW 9097   0.082   1.383   5.080
 2733SOL    HW1 9098   0.006   1.321   5.096
 2733SOL    HW2 9099   0.070   1.466   5.134
 2734SOL     OW 9100   3.652   5.765   1.411
 2734SOL    HW1 9101   3.687   5.678   1.377
 2734SOL    HW2 9102   3.553   5.770   1.396
 2735SOL     OW 9103   0.934   2.078   1.514
 2735SOL    HW1 9104   0.924   2.161   1.459
 2735SOL    HW2 9105   1.032   2.061   1.531
 2736SOL     OW 9106   5.967   6.321   4.791
 2736SOL    HW1 9107   5.939   6.253   4.724
 2736SOL    HW2 9108   6.007   6.400   4.744
 2737SOL     OW 9109   2.905   3.415   6.167
 2737SOL    HW1 9110   2.969   3.476   6.214
 2737SOL    HW2 9111   2.825   3.399   6.224
 2738SOL     OW 9112   5.897   6.037   2.172
 2738SOL    HW1 9113   5.978   6.080   2.133
 2738SOL    HW2 9114   5.879   6.076   2.263
 2739SOL     OW 9115   0.607   4.783   0.994
 2739SOL    HW1 9116   0.635   4.872   0.956
 2739SOL    HW2 9117   0.635   4.710   0.932
 2740SOL     OW 9118   6.661   5.055   1.569
 2740SOL    HW1 9119   6.713   5.094   1.645
 2740SOL    HW2 9120   6.698   4.965   1.547
 2741SOL     OW 9121   0.072   1.681   5.126
 2741SOL    HW1 9122   0.158   1.713   5.085
 2741SOL    HW2 9123   0.000   1.683   5.057
 2742SOL     OW 9124   1.918   5.123   0.852
 2742SOL    HW1 9125   1.880   5.205   0.809
 2742SOL    HW2 9126   2.008   5.144   0.891
 2743SOL     OW 9127   6.957   5.014   2.067
 2743SOL    HW1 9128   6.999   4.950   2.132
 2743SOL    HW2 9129   6.938   5.100   2.113
 2744SOL     OW 9130   4.271   3.066   1.732
 2744SOL    HW1 9131   4.222   3.087   1.647
 2744SOL    HW2 9132   4.352   3.012   1.711
 2745SOL     OW 9133   6.713   1.437   5.286
 2745SOL    HW1 9134   6.705   1.429   5.386
 2745SOL    HW2 9135   6.711   1.346   5.245
 2746SOL     OW 9136   0.924   2.554   4.087
 2746SOL    HW1 9137   0.909   2.584   4.181
 2746SOL    HW2 9138   0.919   2.454   4.083
 2747SOL     OW 9139   4.808   5.803   6.815
 2747SOL    HW1 9140   4.875   5.756   6.873
 2747SOL    HW2 9141   4.845   5.891   6.786
 2748SOL     OW 9142   4.420   0.863   1.670
 2748SOL    HW1 9143   4.497   0.869   1.606
 2748SOL    HW2 9144   4.430   0.932   1.741
 2749SOL     OW 9145   0.272   4.597   1.430
 2749SOL    HW1 9146   0.230   4.541   1.503
 2749SOL    HW2 9147   0.353   4.642   1.466
 2750SOL     OW 9148   2.366   4.339   2.284
 2750SOL    HW1 9149   2.404   4.351   2.192
 2750SOL    HW2 9150   2.419   4.393   2.349
 2751SOL     OW 9151   1.080   2.495   1.334
 2751SOL    HW1 9152   1.163   2.439   1.332
 2751SOL    HW2 9153   0.999   2.436   1.325
 2752SOL     OW 9154   3.349   4.426   6.157
 2752SOL    HW1 9155   3.287   4.410   6.234
 2752SOL    HW2 9156   3.311   4.386   6.074
 2753SOL     OW 9157   0.142   6.056   5.145
 2753SOL    HW1 9158   0.098   5.970   5.121
 2753SOL    HW2 9159   0.196   6.043   5.228
 2754SOL     OW 9160   0.059   7.024   6.917
 2754SOL    HW1 9161   0.038   6.957   6.846
 2754SOL    HW2 9162   7.008   0.006   6.978
 2755SOL     OW 9163   3.880   7.008   2.989
 2755SOL    HW1 9164   3.948   7.015   3.062
 2755SOL    HW2 9165   3.835   0.069   2.977
 2756SOL     OW 9166   4.162   5.961   0.086
 2756SOL    HW1 9167   4.187   6.016   0.006
 2756SOL    HW2 9168   4.208   5.998   0.167
 2757SOL     OW 9169   2.332   6.770   0.985
 2757SOL    HW1 9170   2.323   6.818   0.898
 2757SOL    HW2 9171   2.255   6.707   0.996
 2758SOL     OW 9172   4.470   0.272   4.200
 2758SOL    HW1 9173   4.377   0.244   4.175
 2758SOL    HW2 9174   4.532   0.194   4.189
 2759SOL     OW 9175   5.512   7.019   5.370
 2759SOL    HW1 9176   5.554   6.974   5.291
 2759SOL    HW2 9177   5.446   0.059   5.338
 2760SOL     OW 9178   0.894   5.579   1.437
 2760SOL    HW1 9179   0.917   5.507   1.503
 2760SOL    HW2 9180   0.922   5.668   1.473
 2761SOL     OW 9181   2.270   4.783   4.429
 2761SOL    HW1 9182   2.266   4.883   4.428
 2761SOL    HW2 9183   2.352   4.753   4.478
 2762SOL     OW 9184   1.094   0.870   5.135
 2762SOL    HW1 9185   1.121   0.965   5.117
 2762SOL    HW2 9186   1.163   0.826   5.193
 2763SOL     OW 9187   5.480   1.266   3.620
 2763SOL    HW1 9188   5.526   1.178   3.631
 2763SOL    HW2 9189   5.422   1.263   3.538
 2764SOL     OW 9190   6.449   0.186   1.260
 2764SOL    HW1 9191   6.465   0.162   1.355
 2764SOL    HW2 9192   6.534   0.175   1.207
 2765SOL     OW 9193   5.349   0.137   0.714
 2765SOL    HW1 9194   5.443   0.170   0.721
 2765SOL    HW2 9195   5.341   0.048   0.757
 2766SOL     OW 9196   5.097   2.749   0.640
 2766SOL    HW1 9197   5.131   2.803   0.716
 2766SOL    HW2 9198   5.164   2.749   0.566
 2767SOL     OW 9199   6.453   4.736   7.000
 2767SOL    HW1 9200   6.502   4.770   6.920
 2767SOL    HW2 9201   6.518   4.718   0.045
 2768SOL     OW 9202   5.257   0.730   0.193
 2768SOL    HW1 9203   5.356   0.719   0.183
 2768SOL    HW2 9204   5.222   0.784   0.117
 2769SOL     OW 9205   0.270   4.059   3.804
 2769SOL    HW1 9206   0.259   3.960   3.793
 2769SOL    HW2 9207   0.344   4.090   3.745
 2770SOL     OW 9208   2.461   5.548   6.344
 2770SOL    HW1 9209   2.530   5.485   6.381
 2770SOL    HW2 9210   2.382   5.550   6.406
 2771SOL     OW 9211   6.310   0.906   2.303
 2771SOL    HW1 9212   6.356   0.845   2.368
 2771SOL    HW2 9213   6.246   0.965   2.352
 2772SOL     OW 9214   4.633   1.196   0.664
 2772SOL    HW1 9215   4.691   1.233   0.591
 2772SOL    HW2 9216   4.592   1.272   0.716
 2773SOL     OW 9217   5.727   2.627   5.322
 2773SOL    HW1 9218   5.635   2.653   5.292
 2773SOL    HW2 9219   5.794   2.689   5.283
 2774SOL     OW 9220   6.365   3.699   3.366
 2774SOL    HW1 9221   6.381   3.602   3.347
 2774SOL    HW2 9222   6.452   3.748   3.364
 2775SOL     OW 9223   7.021   5.168   6.736
 2775SOL    HW1 9224   6.989   5.074   6.723
 2775SOL    HW2 9225   0.006   5.211   6.647
 2776SOL     OW 9226   5.733   4.825   5.585
 2776SOL    HW1 9227   5.674   4.906   5.584
 2776SOL    HW2 9228   5.801   4.835   5.658
 2777SOL     OW 9229   2.687   0.918   1.794
 2777SOL    HW1 9230   2.760   0.867   1.749
 2777SOL    HW2 9231   2.706   0.925   1.892
 2778SOL     OW 9232   1.366   0.517   5.029
 2778SOL    HW1 9233   1.354   0.450   4.956
 2778SOL    HW2 9234   1.345   0.474   5.117
 2779SOL     OW 9235   4.881   6.607   0.950
 2779SOL    HW1 9236   4.944   6.594   0.874
 2779SOL    HW2 9237   4.929   6.651   1.026
 2780SOL     OW 9238   6.929   5.935   6.674
 2780SOL    HW1 9239   6.957   5.910   6.581
 2780SOL    HW2 9240   6.830   5.936   6.679
 2781SOL     OW 9241   6.000   5.541   1.374
 2781SOL    HW1 9242   5.925   5.606   1.364
 2781SOL    HW2 9243   6.086   5.592   1.385
 2782SOL     OW 9244   3.479   2.150   5.716
 2782SOL    HW1 9245   3.428   2.128   5.799
 2782SOL    HW2 9246   3.430   2.219   5.664
 2783SOL     OW 9247   5.721   3.259   4.784
 2783SOL    HW1 9248   5.771   3.226   4.704
 2783SOL    HW2 9249   5.724   3.190   4.856
 2784SOL     OW 9250   3.081   2.012   1.004
 2784SOL    HW1 9251   3.165   1.973   0.967
 2784SOL    HW2 9252   3.007   2.002   0.938
 2785SOL     OW 9253   5.742   1.667   0.868
 2785SOL    HW1 9254   5.831   1.669   0.912
 2785SOL    HW2 9255   5.743   1.729   0.789
 2786SOL     OW 9256   4.063   5.413   1.957
 2786SOL    HW1 9257   4.093   5.339   1.897
 2786SOL    HW2 9258   4.100   5.500   1.923
 2787SOL     OW 9259   3.147   2.607   7.024
 2787SOL    HW1 9260   3.071   2.608   0.061
 2787SOL    HW2 9261   3.183   2.514   7.017
 2788SOL     OW 9262   2.659   4.535   6.372
 2788SOL    HW1 9263   2.657   4.440   6.339
 2788SOL    HW2 9264   2.688   4.537   6.467
 2789SOL     OW 9265   2.135   2.631   3.162
 2789SOL    HW1 9266   2.123   2.645   3.260
 2789SOL    HW2 9267   2.174   2.540   3.146
 2790SOL     OW 9268   2.506   5.394   2.669
 2790SOL    HW1 9269   2.572   5.368   2.598
 2790SOL    HW2 9270   2.543   5.471   2.721
 2791SOL     OW 9271   1.307   4.060   3.893
 2791SOL    HW1 9272   1.390   4.025   3.937
 2791SOL    HW2 9273   1.333   4.121   3.818
 2792SOL     OW 9274   0.824   0.137   4.703
 2792SOL    HW1 9275   0.857   0.142   4.609
 2792SOL    HW2 9276   0.884   0.076   4.756
 2793SOL     OW 9277   4.891   3.372   3.032
 2793SOL    HW1 9278   4.913   3.470   3.033
 2793SOL    HW2 9279   4.838   3.349   3.114
 2794SOL     OW 9280   0.111   2.581   1.000
 2794SOL    HW1 9281   0.179   2.576   1.073
 2794SOL    HW2 9282   0.066   2.670   1.002
 2795SOL     OW 9283   2.103   2.759   0.675
 2795SOL    HW1 9284   2.013   2.801   0.663
 2795SOL    HW2 9285   2.093   2.667   0.713
 2796SOL     OW 9286   5.916   4.708   2.628
 2796SOL    HW1 9287   5.930   4.735   2.723
 2796SOL    HW2 9288   6.004   4.691   2.584
 2797SOL     OW 9289   4.461   5.189   4.457
 2797SOL    HW1 9290   4.537   5.163   4.516
 2797SOL    HW2 9291   4.379   5.203   4.512
 2798SOL     OW 9292   1.085   4.747   1.536
 2798SOL    HW1 9293   1.048   4.793   1.455
 2798SOL    HW2 9294   1.111   4.654   1.512
 2799SOL     OW 9295   0.050   6.714   0.245
 2799SOL    HW1 9296   0.129   6.653   0.234
 2799SOL    HW2 9297   0.079   6.809   0.230
 2800SOL     OW 9298   4.529   5.035   0.224
 2800SOL    HW1 9299   4.623   5.007   0.245
 2800SOL    HW2 9300   4.466   4.989   0.286
 2801SOL     OW 9301   5.097   5.436   4.960
 2801SOL    HW1 9302   5.071   5.522   5.003
 2801SOL    HW2 9303   5.173   5.396   5.011
 2802SOL     OW 9304   4.807   2.714   6.402
 2802SOL    HW1 9305   4.764   2.793   6.446
 2802SOL    HW2 9306   4.837   2.739   6.310
 2803SOL     OW 9307   3.378   5.920   6.181
 2803SOL    HW1 9308   3.459   5.928   6.238
 2803SOL    HW2 9309   3.379   5.832   6.134
 2804SOL     OW 9310   6.531   4.723   4.995
 2804SOL    HW1 9311   6.579   4.797   5.040
 2804SOL    HW2 9312   6.587   4.640   4.997
 2805SOL     OW 9313   5.037   2.907   2.241
 2805SOL    HW1 9314   4.937   2.903   2.244
 2805SOL    HW2 9315   5.070   2.976   2.305
 2806SOL     OW 9316   6.991   5.249   4.388
 2806SOL    HW1 9317   7.015   5.182   4.318
 2806SOL    HW2 9318   6.891   5.260   4.390
 2807SOL     OW 9319   5.721   5.187   3.523
 2807SOL    HW1 9320   5.631   5.211   3.486
 2807SOL    HW2 9321   5.774   5.139   3.454
 2808SOL     OW 9322   5.294   2.782   2.882
 2808SOL    HW1 9323   5.265   2.687   2.898
 2808SOL    HW2 9324   5.214   2.842   2.885
 2809SOL     OW 9325   5.820   2.803   2.007
 2809SOL    HW1 9326   5.726   2.769   1.995
 2809SOL    HW2 9327   5.821   2.902   1.995
 2810SOL     OW 9328   3.200   6.059   3.681
 2810SOL    HW1 9329   3.180   5.997   3.757
 2810SOL    HW2 9330   3.197   6.008   3.595
 2811SOL     OW 9331   0.697   1.017   3.380
 2811SOL    HW1 9332   0.754   0.935   3.385
 2811SOL    HW2 9333   0.680   1.052   3.473
 2812SOL     OW 9334   5.319   3.219   0.211
 2812SOL    HW1 9335   5.387   3.275   0.163
 2812SOL    HW2 9336   5.357   3.128   0.228
 2813SOL     OW 9337   6.555   0.211   5.703
 2813SOL    HW1 9338   6.654   0.194   5.698
 2813SOL    HW2 9339   6.509   0.130   5.737
 2814SOL     OW 9340   4.861   3.311   7.000
 2814SOL    HW1 9341   4.941   3.275   0.020
 2814SOL    HW2 9342   4.805   3.235   6.967
 2815SOL     OW 9343   6.505   1.221   5.443
 2815SOL    HW1 9344   6.479   1.311   5.478
 2815SOL    HW2 9345   6.515   1.157   5.519
 2816SOL     OW 9346   6.570   6.007   3.428
 2816SOL    HW1 9347   6.659   5.969   3.451
 2816SOL    HW2 9348   6.536   5.964   3.345
 2817SOL     OW 9349   2.805   6.968   1.129
 2817SOL    HW1 9350   2.718   6.919   1.127
 2817SOL    HW2 9351   2.861   6.934   1.205
 2818SOL     OW 9352   0.446   0.173   6.914
 2818SOL    HW1 9353   0.416   0.080   6.934
 2818SOL    HW2 9354   0.541   0.170   6.881
 2819SOL     OW 9355   0.486   0.892   1.384
 2819SOL    HW1 9356   0.566   0.909   1.327
 2819SOL    HW2 9357   0.430   0.975   1.388
 2820SOL     OW 9358   1.678   1.863   3.093
 2820SOL    HW1 9359   1.664   1.907   3.005
 2820SOL    HW2 9360   1.637   1.772   3.093
 2821SOL     OW 9361   4.150   3.258   0.331
 2821SOL    HW1 9362   4.168   3.334   0.394
 2821SOL    HW2 9363   4.159   3.290   0.237
 2822SOL     OW 9364   4.735   2.254   6.774
 2822SOL    HW1 9365   4.755   2.351   6.791
 2822SOL    HW2 9366   4.707   2.211   6.860
 2823SOL     OW 9367   3.674   6.028   0.821
 2823SOL    HW1 9368   3.736   6.107   0.823
 2823SOL    HW2 9369   3.701   5.966   0.747
 2824SOL     OW 9370   2.924   1.151   3.876
 2824SOL    HW1 9371   2.913   1.224   3.943
 2824SOL    HW2 9372   2.911   1.062   3.920
 2825SOL     OW 9373   6.598   0.444   6.692
 2825SOL    HW1 9374   6.499   0.448   6.685
 2825SOL    HW2 9375   6.631   0.358   6.652
 2826SOL     OW 9376   4.829   1.922   0.122
 2826SOL    HW1 9377   4.787   1.941   0.211
 2826SOL    HW2 9378   4.876   1.834   0.125
 2827SOL     OW 9379   6.359   0.559   5.415
 2827SOL    HW1 9380   6.307   0.635   5.453
 2827SOL    HW2 9381   6.362   0.484   5.481
 2828SOL     OW 9382   2.890   1.221   0.512
 2828SOL    HW1 9383   2.834   1.270   0.445
 2828SOL    HW2 9384   2.897   1.276   0.595
 2829SOL     OW 9385   3.689   3.950   6.124
 2829SOL    HW1 9386   3.744   3.881   6.077
 2829SOL    HW2 9387   3.610   3.973   6.067
 2830SOL     OW 9388   1.114   3.415   6.273
 2830SOL    HW1 9389   1.068   3.327   6.285
 2830SOL    HW2 9390   1.065   3.485   6.325
 2831SOL     OW 9391   0.375   6.044   3.619
 2831SOL    HW1 9392   0.460   6.009   3.656
 2831SOL    HW2 9393   0.298   6.001   3.666
 2832SOL     OW 9394   0.995   0.543   2.547
 2832SOL    HW1 9395   1.093   0.532   2.531
 2832SOL    HW2 9396   0.971   0.640   2.536
 2833SOL     OW 9397   4.622   2.561   2.406
 2833SOL    HW1 9398   4.583   2.510   2.483
 2833SOL    HW2 9399   4.646   2.654   2.437
 2834SOL     OW 9400   2.513   6.089   5.470
 2834SOL    HW1 9401   2.524   6.059   5.375
 2834SOL    HW2 9402   2.464   6.019   5.522
 2835SOL     OW 9403   6.679   0.573   2.202
 2835SOL    HW1 9404   6.758   0.595   2.261
 2835SOL    HW2 9405   6.654   0.654   2.149
 2836SOL     OW 9406   5.831   7.026   2.525
 2836SOL    HW1 9407   5.857   0.059   2.600
 2836SOL    HW2 9408   5.912   7.005   2.470
 2837SOL     OW 9409   5.311   4.169   3.582
 2837SOL    HW1 9410   5.399   4.139   3.544
 2837SOL    HW2 9411   5.298   4.266   3.563
 2838SOL     OW 9412   1.881   4.696   1.042
 2838SOL    HW1 9413   1.847   4.741   1.125
 2838SOL    HW2 9414   1.980   4.703   1.039
 2839SOL     OW 9415   6.108   1.715   1.636
 2839SOL    HW1 9416   6.072   1.775   1.565
 2839SOL    HW2 9417   6.125   1.624   1.597
 2840SOL     OW 9418   1.616   0.812   3.626
 2840SOL    HW1 9419   1.570   0.743   3.570
 2840SOL    HW2 9420   1.579   0.903   3.605
 2841SOL     OW 9421   0.727   0.851   6.426
 2841SOL    HW1 9422   0.782   0.881   6.504
 2841SOL    HW2 9423   0.787   0.826   6.350
 2842SOL     OW 9424   6.948   3.852   4.449
 2842SOL    HW1 9425   7.018   3.850   4.520
 2842SOL    HW2 9426   6.862   3.885   4.487
 2843SOL     OW 9427   2.801   1.489   2.676
 2843SOL    HW1 9428   2.859   1.442   2.609
 2843SOL    HW2 9429   2.709   1.501   2.638
 2844SOL     OW 9430   0.471   5.489   0.640
 2844SOL    HW1 9431   0.421   5.550   0.702
 2844SOL    HW2 9432   0.569   5.510   0.645
 2845SOL     OW 9433   0.334   2.655   1.140
 2845SOL    HW1 9434   0.361   2.702   1.055
 2845SOL    HW2 9435   0.350   2.716   1.218
 2846SOL     OW 9436   4.703   0.909   6.790
 2846SOL    HW1 9437   4.617   0.920   6.840
 2846SOL    HW2 9438   4.757   0.993   6.798
 2847SOL     OW 9439   5.303   3.677   3.466
 2847SOL    HW1 9440   5.403   3.682   3.464
 2847SOL    HW2 9441   5.272   3.594   3.421
 2848SOL     OW 9442   1.209   3.334   5.894
 2848SOL    HW1 9443   1.286   3.397   5.904
 2848SOL    HW2 9444   1.239   3.241   5.916
 2849SOL     OW 9445   3.357   6.896   0.434
 2849SOL    HW1 9446   3.417   6.842   0.375
 2849SOL    HW2 9447   3.396   6.987   0.448
 2850SOL     OW 9448   3.184   6.940   2.386
 2850SOL    HW1 9449   3.105   6.987   2.346
 2850SOL    HW2 9450   3.264   6.999   2.379
 2851SOL     OW 9451   0.243   2.516   5.563
 2851SOL    HW1 9452   0.280   2.604   5.533
 2851SOL    HW2 9453   0.168   2.532   5.627
 2852SOL     OW 9454   5.979   4.281   0.173
 2852SOL    HW1 9455   5.943   4.267   0.266
 2852SOL    HW2 9456   6.034   4.365   0.171
 2853SOL     OW 9457   1.893   2.794   6.980
 2853SOL    HW1 9458   1.801   2.827   6.999
 2853SOL    HW2 9459   1.940   2.860   6.920
 2854SOL     OW 9460   3.881   0.997   5.158
 2854SOL    HW1 9461   3.930   1.020   5.074
 2854SOL    HW2 9462   3.890   1.072   5.223
 2855SOL     OW 9463   3.019   0.635   6.435
 2855SOL    HW1 9464   3.040   0.666   6.527
 2855SOL    HW2 9465   3.037   0.708   6.369
 2856SOL     OW 9466   1.991   2.784   6.287
 2856SOL    HW1 9467   1.945   2.823   6.207
 2856SOL    HW2 9468   2.086   2.764   6.264
 2857SOL     OW 9469   3.411   1.650   2.184
 2857SOL    HW1 9470   3.450   1.707   2.112
 2857SOL    HW2 9471   3.315   1.676   2.199
 2858SOL     OW 9472   5.166   4.266   2.526
 2858SOL    HW1 9473   5.161   4.336   2.455
 2858SOL    HW2 9474   5.230   4.295   2.597
 2859SOL     OW 9475   5.154   1.938   0.157
 2859SOL    HW1 9476   5.082   1.991   0.201
 2859SOL    HW2 9477   5.149   1.951   0.058
 2860SOL     OW 9478   3.782   2.097   1.366
 2860SOL    HW1 9479   3.691   2.100   1.324
 2860SOL    HW2 9480   3.773   2.075   1.463
 2861SOL     OW 9481   4.235   4.279   6.020
 2861SOL    HW1 9482   4.319   4.272   6.074
 2861SOL    HW2 9483   4.252   4.247   5.927
 2862SOL     OW 9484   5.254   1.919   3.419
 2862SOL    HW1 9485   5.338   1.932   3.368
 2862SOL    HW2 9486   5.261   1.962   3.509
 2863SOL     OW 9487   4.612   1.789   0.024
 2863SOL    HW1 9488   4.656   1.861   0.076
 2863SOL    HW2 9489   4.663   1.703   0.036
 2864SOL     OW 9490   4.049   1.504   1.040
 2864SOL    HW1 9491   4.041   1.581   1.103
 2864SOL    HW2 9492   4.129   1.517   0.981
 2865SOL     OW 9493   5.356   4.293   5.624
 2865SOL    HW1 9494   5.303   4.378   5.621
 2865SOL    HW2 9495   5.388   4.271   5.532
 2866SOL     OW 9496   6.270   6.034   6.966
 2866SOL    HW1 9497   6.354   5.988   6.937
 2866SOL    HW2 9498   6.292   6.125   7.001
 2867SOL     OW 9499   5.733   3.728   2.502
 2867SOL    HW1 9500   5.680   3.670   2.564
 2867SOL    HW2 9501   5.830   3.721   2.524
 2868SOL     OW 9502   0.417   2.737   5.442
 2868SOL    HW1 9503   0.477   2.817   5.447
 2868SOL    HW2 9504   0.322   2.768   5.434
 2869SOL     OW 9505   6.486   0.888   3.669
 2869SOL    HW1 9506   6.529   0.963   3.619
 2869SOL    HW2 9507   6.522   0.884   3.762
 2870SOL     OW 9508   0.677   1.637   4.519
 2870SOL    HW1 9509   0.733   1.720   4.524
 2870SOL    HW2 9510   0.594   1.655   4.465
 2871SOL     OW 9511   0.552   2.171   0.226
 2871SOL    HW1 9512   0.632   2.219   0.262
 2871SOL    HW2 9513   0.564   2.072   0.236
 2872SOL     OW 9514   2.955   1.566   2.871
 2872SOL    HW1 9515   2.890   1.543   2.798
 2872SOL    HW2 9516   3.036   1.608   2.830
 2873SOL     OW 9517   6.815   5.036   2.885
 2873SOL    HW1 9518   6.815   4.939   2.860
 2873SOL    HW2 9519   6.720   5.067   2.893
 2874SOL     OW 9520   3.812   6.289   3.662
 2874SOL    HW1 9521   3.818   6.381   3.624
 2874SOL    HW2 9522   3.811   6.294   3.762
 2875SOL     OW 9523   5.074   6.569   0.750
 2875SOL    HW1 9524   5.117   6.600   0.665
 2875SOL    HW2 9525   5.046   6.474   0.740
 2876SOL     OW 9526   0.724   0.253   1.931
 2876SOL    HW1 9527   0.823   0.262   1.916
 2876SOL    HW2 9528   0.696   0.159   1.915
 2877SOL     OW 9529   3.570   2.910   5.445
 2877SOL    HW1 9530   3.664   2.895   5.413
 2877SOL    HW2 9531   3.571   2.920   5.545
 2878SOL     OW 9532   4.028   5.232   4.769
 2878SOL    HW1 9533   4.066   5.308   4.822
 2878SOL    HW2 9534   4.096   5.198   4.705
 2879SOL     OW 9535   5.166   4.403   1.004
 2879SOL    HW1 9536   5.068   4.391   1.018
 2879SOL    HW2 9537   5.213   4.392   1.091
 2880SOL     OW 9538   6.238   6.946   1.359
 2880SOL    HW1 9539   6.202   7.019   1.301
 2880SOL    HW2 9540   6.305   6.893   1.308
 2881SOL     OW 9541   5.200   6.488   0.327
 2881SOL    HW1 9542   5.222   6.500   0.230
 2881SOL    HW2 9543   5.186   6.391   0.346
 2882SOL     OW 9544   0.615   4.353   2.479
 2882SOL    HW1 9545   0.631   4.258   2.451
 2882SOL    HW2 9546   0.660   4.415   2.414
 2883SOL     OW 9547   5.747   6.739   3.453
 2883SOL    HW1 9548   5.737   6.821   3.396
 2883SOL    HW2 9549   5.769   6.661   3.395
 2884SOL     OW 9550   0.751   5.598   3.194
 2884SOL    HW1 9551   0.781   5.634   3.106
 2884SOL    HW2 9552   0.817   5.624   3.265
 2885SOL     OW 9553   0.950   3.319   2.773
 2885SOL    HW1 9554   1.005   3.236   2.768
 2885SOL    HW2 9555   0.961   3.362   2.862
 2886SOL     OW 9556   2.622   4.031   6.190
 2886SOL    HW1 9557   2.580   4.069   6.107
 2886SOL    HW2 9558   2.571   3.950   6.218
 2887SOL     OW 9559   1.541   0.006   4.338
 2887SOL    HW1 9560   1.543   0.083   4.274
 2887SOL    HW2 9561   1.500   0.035   4.424
 2888SOL     OW 9562   0.791   4.372   0.414
 2888SOL    HW1 9563   0.888   4.382   0.438
 2888SOL    HW2 9564   0.773   4.417   0.326
 2889SOL     OW 9565   2.124   6.444   2.578
 2889SOL    HW1 9566   2.179   6.361   2.586
 2889SOL    HW2 9567   2.086   6.450   2.486
 2890SOL     OW 9568   2.461   0.026   0.762
 2890SOL    HW1 9569   2.362   0.015   0.767
 2890SOL    HW2 9570   2.495   0.060   0.850
 2891SOL     OW 9571   2.150   3.838   3.253
 2891SOL    HW1 9572   2.095   3.919   3.271
 2891SOL    HW2 9573   2.214   3.856   3.179
 2892SOL     OW 9574   5.854   3.562   7.028
 2892SOL    HW1 9575   5.844   3.479   0.055
 2892SOL    HW2 9576   5.948   3.595   0.005
 2893SOL     OW 9577   0.349   6.765   4.908
 2893SOL    HW1 9578   0.251   6.786   4.908
 2893SOL    HW2 9579   0.388   6.788   4.997
 2894SOL     OW 9580   2.932   2.983   0.517
 2894SOL    HW1 9581   2.903   3.072   0.483
 2894SOL    HW2 9582   2.852   2.926   0.533
 2895SOL     OW 9583   4.211   3.174   6.529
 2895SOL    HW1 9584   4.286   3.161   6.594
 2895SOL    HW2 9585   4.129   3.130   6.565
 2896SOL     OW 9586   3.961   5.386   6.750
 2896SOL    HW1 9587   3.877   5.331   6.750
 2896SOL    HW2 9588   4.036   5.330   6.784
 2897SOL     OW 9589   3.576   5.262   3.407
 2897SOL    HW1 9590   3.482   5.250   3.373
 2897SOL    HW2 9591   3.576   5.330   3.480
 2898SOL     OW 9592   3.931   5.598   4.501
 2898SOL    HW1 9593   3.831   5.593   4.511
 2898SOL    HW2 9594   3.959   5.552   4.417
 2899SOL     OW 9595   0.943   1.847   0.238
 2899SOL    HW1 9596   0.873   1.796   0.289
 2899SOL    HW2 9597   1.008   1.887   0.302
 2900SOL     OW 9598   2.175   4.882   5.613
 2900SOL    HW1 9599   2.096   4.837   5.572
 2900SOL    HW2 9600   2.144   4.950   5.680
 2901SOL     OW 9601   2.135   7.022   3.530
 2901SOL    HW1 9602   2.070   6.950   3.505
 2901SOL    HW2 9603   2.218   6.980   3.567
 2902SOL     OW 9604   5.165   6.589   1.600
 2902SOL    HW1 9605   5.206   6.680   1.607
 2902SOL    HW2 9606   5.173   6.541   1.687
 2903SOL     OW 9607   2.895   0.699   0.597
 2903SOL    HW1 9608   2.816   0.684   0.657
 2903SOL    HW2 9609   2.907   0.797   0.582
 2904SOL     OW 9610   2.352   3.520   5.406
 2904SOL    HW1 9611   2.257   3.527   5.375
 2904SOL    HW2 9612   2.393   3.611   5.408
 2905SOL     OW 9613   1.523   2.495   3.456
 2905SOL    HW1 9614   1.486   2.560   3.390
 2905SOL    HW2 9615   1.608   2.457   3.421
 2906SOL     OW 9616   5.186   5.666   2.386
 2906SOL    HW1 9617   5.114   5.597   2.382
 2906SOL    HW2 9618   5.193   5.702   2.479
 2907SOL     OW 9619   0.753   1.414   4.357
 2907SOL    HW1 9620   0.728   1.491   4.416
 2907SOL    HW2 9621   0.842   1.379   4.385
 2908SOL     OW 9622   4.472   6.728   4.349
 2908SOL    HW1 9623   4.397   6.703   4.288
 2908SOL    HW2 9624   4.551   6.756   4.295
 2909SOL     OW 9625   0.291   6.405   3.798
 2909SOL    HW1 9626   0.252   6.383   3.709
 2909SOL    HW2 9627   0.328   6.498   3.796
 2910SOL     OW 9628   4.865   6.247   4.704
 2910SOL    HW1 9629   4.883   6.221   4.609
 2910SOL    HW2 9630   4.882   6.169   4.764
 2911SOL     OW 9631   1.670   5.463   3.426
 2911SOL    HW1 9632   1.611   5.413   3.489
 2911SOL    HW2 9633   1.695   5.551   3.466
 2912SOL     OW 9634   4.205   0.080   6.596
 2912SOL    HW1 9635   4.187   0.044   6.505
 2912SOL    HW2 9636   4.262   0.161   6.589
 2913SOL     OW 9637   1.922   4.654   2.584
 2913SOL    HW1 9638   1.907   4.626   2.489
 2913SOL    HW2 9639   1.889   4.583   2.645
 2914SOL     OW 9640   5.827   6.666   5.832
 2914SOL    HW1 9641   5.846   6.568   5.837
 2914SOL    HW2 9642   5.729   6.681   5.827
 2915SOL     OW 9643   5.298   1.414   5.109
 2915SOL    HW1 9644   5.346   1.330   5.134
 2915SOL    HW2 9645   5.278   1.467   5.191
 2916SOL     OW 9646   6.549   6.160   6.240
 2916SOL    HW1 9647   6.486   6.224   6.283
 2916SOL    HW2 9648   6.517   6.138   6.147
 2917SOL     OW 9649   4.253   6.634   2.363
 2917SOL    HW1 9650   4.260   6.637   2.463
 2917SOL    HW2 9651   4.324   6.691   2.323
 2918SOL     OW 9652   6.547   4.129   3.753
 2918SOL    HW1 9653   6.606   4.160   3.678
 2918SOL    HW2 9654   6.526   4.207   3.812
 2919SOL     OW 9655   6.828   0.873   1.098
 2919SOL    HW1 9656   6.877   0.841   1.179
 2919SOL    HW2 9657   6.884   0.854   1.016
 2920SOL     OW 9658   2.978   1.800   2.167
 2920SOL    HW1 9659   2.882   1.813   2.141
 2920SOL    HW2 9660   3.029   1.884   2.147
 2921SOL     OW 9661   0.866   0.454   2.967
 2921SOL    HW1 9662   0.780   0.499   2.939
 2921SOL    HW2 9663   0.901   0.399   2.891
 2922SOL     OW 9664   5.405   0.340   0.018
 2922SOL    HW1 9665   5.406   0.268   6.977
 2922SOL    HW2 9666   5.458   0.418   7.014
 2923SOL     OW 9667   0.157   4.857   1.663
 2923SOL    HW1 9668   0.175   4.783   1.728
 2923SOL    HW2 9669   0.125   4.817   1.577
 2924SOL     OW 9670   0.568   1.657   6.835
 2924SOL    HW1 9671   0.640   1.590   6.853
 2924SOL    HW2 9672   0.528   1.687   6.921
 2925SOL     OW 9673   4.795   1.060   3.613
 2925SOL    HW1 9674   4.714   1.027   3.564
 2925SOL    HW2 9675   4.827   1.145   3.570
 2926SOL     OW 9676   0.195   1.262   4.641
 2926SOL    HW1 9677   0.142   1.232   4.562
 2926SOL    HW2 9678   0.284   1.296   4.610
 2927SOL     OW 9679   1.414   1.550   2.450
 2927SOL    HW1 9680   1.496   1.566   2.506
 2927SOL    HW2 9681   1.366   1.469   2.483
 2928SOL     OW 9682   0.025   2.604   6.200
 2928SOL    HW1 9683   0.088   2.530   6.176
 2928SOL    HW2 9684   0.075   2.690   6.208
 2929SOL     OW 9685   0.307   0.560   6.627
 2929SOL    HW1 9686   0.319   0.643   6.682
 2929SOL    HW2 9687   0.235   0.576   6.560
 2930SOL     OW 9688   4.096   6.405   5.207
 2930SOL    HW1 9689   4.079   6.378   5.112
 2930SOL    HW2 9690   4.179   6.460   5.212
 2931SOL     OW 9691   5.713   5.405   0.255
 2931SOL    HW1 9692   5.735   5.353   0.337
 2931SOL    HW2 9693   5.797   5.422   0.203
 2932SOL     OW 9694   1.618   5.248   1.482
 2932SOL    HW1 9695   1.656   5.296   1.562
 2932SOL    HW2 9696   1.692   5.225   1.419
 2933SOL     OW 9697   6.000   4.106   3.410
 2933SOL    HW1 9698   6.078   4.070   3.358
 2933SOL    HW2 9699   6.017   4.201   3.435
 2934SOL     OW 9700   4.315   1.664   0.197
 2934SOL    HW1 9701   4.334   1.735   0.129
 2934SOL    HW2 9702   4.278   1.583   0.152
 2935SOL     OW 9703   6.505   3.539   1.611
 2935SOL    HW1 9704   6.495   3.540   1.710
 2935SOL    HW2 9705   6.477   3.627   1.574
 2936SOL     OW 9706   4.220   4.976   2.114
 2936SOL    HW1 9707   4.167   4.898   2.148
 2936SOL    HW2 9708   4.163   5.058   2.114
 2937SOL     OW 9709   4.074   4.981   0.391
 2937SOL    HW1 9710   3.981   4.946   0.407
 2937SOL    HW2 9711   4.072   5.049   0.318
 2938SOL     OW 9712   5.498   4.801   5.876
 2938SOL    HW1 9713   5.519   4.796   5.973
 2938SOL    HW2 9714   5.564   4.861   5.830
 2939SOL     OW 9715   0.312   0.196   4.378
 2939SOL    HW1 9716   0.288   0.130   4.449
 2939SOL    HW2 9717   0.266   0.171   4.292
 2940SOL     OW 9718   6.000   6.503   6.507
 2940SOL    HW1 9719   5.912   6.496   6.554
 2940SOL    HW2 9720   6.051   6.581   6.544
 2941SOL     OW 9721   2.517   2.625   4.001
 2941SOL    HW1 9722   2.498   2.604   3.905
 2941SOL    HW2 9723   2.511   2.542   4.056
 2942SOL     OW 9724   2.814   2.189   1.367
 2942SOL    HW1 9725   2.892   2.250   1.356
 2942SOL    HW2 9726   2.842   2.096   1.343
 2943SOL     OW 9727   5.697   4.084   2.737
 2943SOL    HW1 9728   5.797   4.081   2.743
 2943SOL    HW2 9729   5.658   4.015   2.798
 2944SOL     OW 9730   2.609   5.881   5.100
 2944SOL    HW1 9731   2.597   5.794   5.052
 2944SOL    HW2 9732   2.705   5.909   5.094
 2945SOL     OW 9733   3.686   3.948   3.857
 2945SOL    HW1 9734   3.644   3.998   3.934
 2945SOL    HW2 9735   3.615   3.900   3.806
 2946SOL     OW 9736   1.203   5.551   0.040
 2946SOL    HW1 9737   1.181   5.620   0.109
 2946SOL    HW2 9738   1.303   5.540   0.034
 2947SOL     OW 9739   0.669   3.905   6.470
 2947SOL    HW1 9740   0.623   3.994   6.462
 2947SOL    HW2 9741   0.768   3.918   6.465
 2948SOL     OW 9742   6.897   5.178   5.473
 2948SOL    HW1 9743   6.891   5.258   5.533
 2948SOL    HW2 9744   6.949   5.106   5.519
 2949SOL     OW 9745   2.842   6.023   1.374
 2949SOL    HW1 9746   2.848   6.025   1.474
 2949SOL    HW2 9747   2.746   6.031   1.346
 2950SOL     OW 9748   4.870   3.751   4.718
 2950SOL    HW1 9749   4.822   3.754   4.806
 2950SOL    HW2 9750   4.805   3.732   4.645
 2951SOL     OW 9751   6.522   2.352   1.338
 2951SOL    HW1 9752   6.494   2.271   1.390
 2951SOL    HW2 9753   6.603   2.330   1.285
 2952SOL     OW 9754   0.862   6.133   5.403
 2952SOL    HW1 9755   0.780   6.093   5.362
 2952SOL    HW2 9756   0.893   6.209   5.345
 2953SOL     OW 9757   4.859   3.245   3.273
 2953SOL    HW1 9758   4.957   3.229   3.268
 2953SOL    HW2 9759   4.819   3.185   3.343
 2954SOL     OW 9760   0.759   5.491   1.834
 2954SOL    HW1 9761   0.847   5.496   1.786
 2954SOL    HW2 9762   0.728   5.396   1.834
 2955SOL     OW 9763   1.081   3.929   1.699
 2955SOL    HW1 9764   1.139   3.860   1.656
 2955SOL    HW2 9765   1.138   4.003   1.735
 2956SOL     OW 9766   5.970   6.258   3.036
 2956SOL    HW1 9767   6.031   6.325   2.993
 2956SOL    HW2 9768   5.990   6.253   3.134
 2957SOL     OW 9769   6.497   3.396   2.125
 2957SOL    HW1 9770   6.596   3.402   2.116
 2957SOL    HW2 9771   6.465   3.463   2.193
 2958SOL     OW 9772   2.465   4.437   4.440
 2958SOL    HW1 9773   2.498   4.353   4.483
 2958SOL    HW2 9774   2.495   4.516   4.494
 2959SOL     OW 9775   4.371   4.666   0.802
 2959SOL    HW1 9776   4.365   4.696   0.707
 2959SOL    HW2 9777   4.426   4.583   0.808
 2960SOL     OW 9778   3.920   6.794   6.382
 2960SOL    HW1 9779   3.910   6.697   6.360
 2960SOL    HW2 9780   3.838   6.826   6.430
 2961SOL     OW 9781   4.898   2.613   4.443
 2961SOL    HW1 9782   4.973   2.547   4.436
 2961SOL    HW2 9783   4.929   2.702   4.412
 2962SOL     OW 9784   4.474   0.469   3.718
 2962SOL    HW1 9785   4.498   0.404   3.790
 2962SOL    HW2 9786   4.453   0.420   3.634
 2963SOL     OW 9787   1.941   1.237   6.268
 2963SOL    HW1 9788   1.984   1.161   6.219
 2963SOL    HW2 9789   2.007   1.278   6.331
 2964SOL     OW 9790   0.058   0.196   2.190
 2964SOL    HW1 9791   0.087   0.262   2.260
 2964SOL    HW2 9792   6.986   0.191   2.189
 2965SOL     OW 9793   0.144   0.970   4.673
 2965SOL    HW1 9794   0.236   0.990   4.640
 2965SOL    HW2 9795   0.079   1.033   4.630
 2966SOL     OW 9796   5.610   5.250   4.497
 2966SOL    HW1 9797   5.560   5.205   4.423
 2966SOL    HW2 9798   5.659   5.329   4.461
 2967SOL     OW 9799   6.128   2.128   4.685
 2967SOL    HW1 9800   6.180   2.101   4.604
 2967SOL    HW2 9801   6.190   2.137   4.763
 2968SOL     OW 9802   1.191   3.745   6.315
 2968SOL    HW1 9803   1.166   3.754   6.219
 2968SOL    HW2 9804   1.110   3.720   6.368
 2969SOL     OW 9805   5.964   1.434   4.820
 2969SOL    HW1 9806   6.037   1.394   4.764
 2969SOL    HW2 9807   5.916   1.362   4.870
 2970SOL     OW 9808   1.179   3.970   6.572
 2970SOL    HW1 9809   1.128   3.938   6.652
 2970SOL    HW2 9810   1.194   3.894   6.509
 2971SOL     OW 9811   6.116   3.350   6.092
 2971SOL    HW1 9812   6.185   3.312   6.030
 2971SOL    HW2 9813   6.162   3.405   6.162
 2972SOL     OW 9814   6.745   4.822   6.358
 2972SOL    HW1 9815   6.728   4.832   6.259
 2972SOL    HW2 9816   6.692   4.744   6.392
 2973SOL     OW 9817   5.683   0.971   4.069
 2973SOL    HW1 9818   5.623   0.892   4.082
 2973SOL    HW2 9819   5.634   1.055   4.091
 2974SOL     OW 9820   0.884   4.081   2.609
 2974SOL    HW1 9821   0.827   4.101   2.529
 2974SOL    HW2 9822   0.980   4.098   2.587
 2975SOL     OW 9823   0.465   2.525   4.741
 2975SOL    HW1 9824   0.439   2.501   4.647
 2975SOL    HW2 9825   0.511   2.614   4.741
 2976SOL     OW 9826   4.286   1.726   3.386
 2976SOL    HW1 9827   4.294   1.627   3.393
 2976SOL    HW2 9828   4.238   1.750   3.302
 2977SOL     OW 9829   1.729   6.341   4.074
 2977SOL    HW1 9830   1.731   6.319   3.976
 2977SOL    HW2 9831   1.756   6.436   4.087
 2978SOL     OW 9832   4.238   4.903   6.568
 2978SOL    HW1 9833   4.319   4.961   6.580
 2978SOL    HW2 9834   4.262   4.823   6.513
 2979SOL     OW 9835   4.828   6.738   4.442
 2979SOL    HW1 9836   4.870   6.648   4.428
 2979SOL    HW2 9837   4.900   6.806   4.451
 2980SOL     OW 9838   0.814   6.034   3.691
 2980SOL    HW1 9839   0.742   5.967   3.707
 2980SOL    HW2 9840   0.809   6.105   3.761
 2981SOL     OW 9841   1.472   1.270   5.916
 2981SOL    HW1 9842   1.446   1.361   5.947
 2981SOL    HW2 9843   1.521   1.278   5.828
 2982SOL     OW 9844   4.720   5.726   3.056
 2982SOL    HW1 9845   4.623   5.739   3.037
 2982SOL    HW2 9846   4.767   5.814   3.057
 2983SOL     OW 9847   0.876   1.542   3.930
 2983SOL    HW1 9848   0.851   1.571   4.022
 2983SOL    HW2 9849   0.972   1.564   3.913
 2984SOL     OW 9850   5.225   5.500   1.692
 2984SOL    HW1 9851   5.275   5.513   1.607
 2984SOL    HW2 9852   5.168   5.419   1.686
 2985SOL     OW 9853   1.401   2.597   5.178
 2985SOL    HW1 9854   1.443   2.679   5.217
 2985SOL    HW2 9855   1.303   2.613   5.165
 2986SOL     OW 9856   2.310   4.078   6.333
 2986SOL    HW1 9857   2.390   4.056   6.389
 2986SOL    HW2 9858   2.337   4.138   6.258
 2987SOL     OW 9859   5.594   1.024   3.645
 2987SOL    HW1 9860   5.654   1.002   3.568
 2987SOL    HW2 9861   5.647   1.021   3.730
 2988SOL     OW 9862   0.649   6.422   2.819
 2988SOL    HW1 9863   0.667   6.419   2.917
 2988SOL    HW2 9864   0.710   6.489   2.776
 2989SOL     OW 9865   6.685   6.322   0.515
 2989SOL    HW1 9866   6.774   6.321   0.559
 2989SOL    HW2 9867   6.654   6.228   0.499
 2990SOL     OW 9868   4.506   1.310   3.777
 2990SOL    HW1 9869   4.480   1.215   3.792
 2990SOL    HW2 9870   4.533   1.322   3.681
 2991SOL     OW 9871   6.979   3.912   6.572
 2991SOL    HW1 9872   6.990   4.009   6.553
 2991SOL    HW2 9873   6.967   3.862   6.486
 2992SOL     OW 9874   1.909   4.926   5.799
 2992SOL    HW1 9875   1.822   4.971   5.780
 2992SOL    HW2 9876   1.968   4.987   5.851
 2993SOL     OW 9877   0.956   5.181   1.525
 2993SOL    HW1 9878   0.879   5.145   1.473
 2993SOL    HW2 9879   1.026   5.214   1.461
 2994SOL     OW 9880   3.862   0.340   0.355
 2994SOL    HW1 9881   3.787   0.336   0.421
 2994SOL    HW2 9882   3.949   0.331   0.403
 2995SOL     OW 9883   1.696   3.781   6.807
 2995SOL    HW1 9884   1.689   3.880   6.798
 2995SOL    HW2 9885   1.762   3.746   6.741
 2996SOL     OW 9886   2.344   6.877   3.674
 2996SOL    HW1 9887   2.435   6.888   3.714
 2996SOL    HW2 9888   2.332   6.783   3.643
 2997SOL     OW 9889   5.221   0.187   2.353
 2997SOL    HW1 9890   5.260   0.268   2.309
 2997SOL    HW2 9891   5.156   0.215   2.423
 2998SOL     OW 9892   5.365   6.477   4.531
 2998SOL    HW1 9893   5.396   6.572   4.527
 2998SOL    HW2 9894   5.303   6.466   4.609
 2999SOL     OW 9895   3.364   4.917   4.162
 2999SOL    HW1 9896   3.329   5.011   4.164
 2999SOL    HW2 9897   3.426   4.902   4.239
 3000SOL     OW 9898   1.956   4.108   6.653
 3000SOL    HW1 9899   1.981   4.190   6.705
 3000SOL    HW2 9900   1.894   4.133   6.579
 3001SOL     OW 9901   5.683   5.676   6.749
 3001SOL    HW1 9902   5.658   5.769   6.778
 3001SOL    HW2 9903   5.768   5.680   6.697
 3002SOL     OW 9904   3.813   0.180   6.410
 3002SOL    HW1 9905   3.879   0.249   6.438
 3002SOL    HW2 9906   3.807   0.178   6.310
 3003SOL     OW 9907   2.030   0.150   6.682
 3003SOL    HW1 9908   2.055   0.102   6.766
 3003SOL    HW2 9909   2.113   0.174   6.631
 3004SOL     OW 9910   1.477   5.398   3.816
 3004SOL    HW1 9911   1.480   5.345   3.731
 3004SOL    HW2 9912   1.501   5.493   3.796
 3005SOL     OW 9913   2.958   2.384   0.514
 3005SOL    HW1 9914   3.054   2.364   0.531
 3005SOL    HW2 9915   2.902   2.306   0.544
 3006SOL     OW 9916   5.707   2.389   6.698
 3006SOL    HW1 9917   5.796   2.344   6.706
 3006SOL    HW2 9918   5.644   2.329   6.649
 3007SOL     OW 9919   5.954   5.059   1.807
 3007SOL    HW1 9920   5.923   5.035   1.899
 3007SOL    HW2 9921   5.930   4.985   1.744
 3008SOL     OW 9922   3.346   0.819   6.377
 3008SOL    HW1 9923   3.315   0.734   6.334
 3008SOL    HW2 9924   3.379   0.882   6.307
 3009SOL     OW 9925   0.229   6.926   3.320
 3009SOL    HW1 9926   0.267   6.838   3.348
 3009SOL    HW2 9927   0.237   6.991   3.395
 3010SOL     OW 9928   3.537   6.521   3.546
 3010SOL    HW1 9929   3.481   6.593   3.587
 3010SOL    HW2 9930   3.612   6.562   3.495
 3011SOL     OW 9931   5.735   1.383   0.801
 3011SOL    HW1 9932   5.658   1.321   0.818
 3011SOL    HW2 9933   5.707   1.477   0.817
 3012SOL     OW 9934   0.983   3.371   5.049
 3012SOL    HW1 9935   1.050   3.436   5.085
 3012SOL    HW2 9936   0.912   3.422   4.999
 3013SOL     OW 9937   4.996   5.519   4.719
 3013SOL    HW1 9938   4.900   5.531   4.747
 3013SOL    HW2 9939   5.049   5.488   4.798
 3014SOL     OW 9940   4.838   3.223   4.324
 3014SOL    HW1 9941   4.911   3.204   4.390
 3014SOL    HW2 9942   4.810   3.318   4.332
 3015SOL     OW 9943   2.601   2.463   0.429
 3015SOL    HW1 9944   2.599   2.472   0.528
 3015SOL    HW2 9945   2.660   2.386   0.404
 3016SOL     OW 9946   2.923   5.833   3.773
 3016SOL    HW1 9947   2.906   5.901   3.845
 3016SOL    HW2 9948   2.907   5.742   3.809
 3017SOL     OW 9949   1.104   5.235   1.959
 3017SOL    HW1 9950   1.088   5.155   1.902
 3017SOL    HW2 9951   1.173   5.213   2.029
 3018SOL     OW 9952   1.757   6.658   5.104
 3018SOL    HW1 9953   1.744   6.574   5.156
 3018SOL    HW2 9954   1.686   6.724   5.129
 3019SOL     OW 9955   1.934   6.704   0.114
 3019SOL    HW1 9956   1.928   6.742   0.022
 3019SOL    HW2 9957   1.843   6.697   0.154
 3020SOL     OW 9958   3.974   3.781   1.961
 3020SOL    HW1 9959   3.995   3.775   1.863
 3020SOL    HW2 9960   3.950   3.691   1.996
 3021SOL     OW 9961   3.526   0.617   0.042
 3021SOL    HW1 9962   3.454   0.612   0.111
 3021SOL    HW2 9963   3.513   0.544   7.003
 3022SOL     OW 9964   4.080   5.289   3.963
 3022SOL    HW1 9965   4.128   5.223   4.021
 3022SOL    HW2 9966   4.029   5.353   4.020
 3023SOL     OW 9967   4.747   0.088   2.165
 3023SOL    HW1 9968   4.802   0.005   2.166
 3023SOL    HW2 9969   4.801   0.165   2.198
 3024SOL     OW 9970   3.685   6.753   5.857
 3024SOL    HW1 9971   3.615   6.714   5.918
 3024SOL    HW2 9972   3.643   6.823   5.800
 3025SOL     OW 9973   3.896   1.549   0.437
 3025SOL    HW1 9974   3.909   1.455   0.405
 3025SOL    HW2 9975   3.820   1.552   0.502
 3026SOL     OW 9976   1.944   1.786   0.643
 3026SOL    HW1 9977   1.965   1.867   0.588
 3026SOL    HW2 9978   2.013   1.715   0.626
 3027SOL     OW 9979   4.105   0.232   1.798
 3027SOL    HW1 9980   4.196   0.271   1.813
 3027SOL    HW2 9981   4.093   0.151   1.855
 3028SOL     OW 9982   2.026   3.829   6.154
 3028SOL    HW1 9983   1.952   3.831   6.222
 3028SOL    HW2 9984   2.047   3.733   6.132
 3029SOL     OW 9985   0.353   4.788   4.553
 3029SOL    HW1 9986   0.333   4.859   4.486
 3029SOL    HW2 9987   0.267   4.752   4.590
 3030SOL     OW 9988   0.965   2.475   6.074
 3030SOL    HW1 9989   1.061   2.452   6.062
 3030SOL    HW2 9990   0.919   2.476   5.985
 3031SOL     OW 9991   0.130   2.910   0.766
 3031SOL    HW1 9992   0.151   2.922   0.669
 3031SOL    HW2 9993   0.040   2.948   0.785
 3032SOL     OW 9994   4.509   6.739   1.691
 3032SOL    HW1 9995   4.464   6.815   1.643
 3032SOL    HW2 9996   4.576   6.776   1.756
 3033SOL     OW 9997   0.026   2.596   1.719
 3033SOL    HW1 9998   0.005   2.542   1.800
 3033SOL    HW2 9999   7.017   2.688   1.729
 3034SOL     OW10000   1.946   5.704   3.453
 3034SOL    HW110001   2.026   5.687   3.511
 3034SOL    HW210002   1.974   5.758   3.374
 3035SOL     OW10003   6.941   3.087   0.183
 3035SOL    HW110004   6.899   2.996   0.188
 3035SOL    HW210005   6.906   3.136   0.104
 3036SOL     OW10006   1.758   3.131   6.103
 3036SOL    HW110007   1.694   3.055   6.097
 3036SOL    HW210008   1.739   3.184   6.186
 3037SOL     OW10009   0.394   6.031   4.302
 3037SOL    HW110010   0.398   5.933   4.319
 3037SOL    HW210011   0.322   6.072   4.359
 3038SOL     OW10012   5.649   5.934   6.424
 3038SOL    HW110013   5.709   5.860   6.456
 3038SOL    HW210014   5.683   6.021   6.459
 3039SOL     OW10015   0.270   3.790   1.932
 3039SOL    HW110016   0.250   3.742   1.846
 3039SOL    HW210017   0.244   3.886   1.924
 3040SOL     OW10018   4.869   3.384   6.689
 3040SOL    HW110019   4.849   3.480   6.667
 3040SOL    HW210020   4.827   3.361   6.776
 3041SOL     OW10021   2.281   2.934   4.807
 3041SOL    HW110022   2.333   2.869   4.751
 3041SOL    HW210023   2.326   2.945   4.896
 3042SOL     OW10024   5.304   6.930   1.428
 3042SOL    HW110025   5.272   7.008   1.374
 3042SOL    HW210026   5.313   6.850   1.369
 3043SOL     OW10027   0.861   5.779   1.236
 3043SOL    HW110028   0.784   5.761   1.175
 3043SOL    HW210029   0.898   5.693   1.270
 3044SOL     OW10030   3.393   4.712   6.138
 3044SOL    HW110031   3.347   4.623   6.138
 3044SOL    HW210032   3.333   4.780   6.096
 3045SOL     OW10033   4.874   1.330   3.047
 3045SOL    HW110034   4.786   1.297   3.082
 3045SOL    HW210035   4.937   1.346   3.122
 3046SOL     OW10036   2.566   2.050   6.742
 3046SOL    HW110037   2.508   2.052   6.661
 3046SOL    HW210038   2.658   2.020   6.717
 3047SOL     OW10039   5.335   6.806   2.089
 3047SOL    HW110040   5.242   6.771   2.106
 3047SOL    HW210041   5.348   6.891   2.139
 3048SOL     OW10042   3.882   2.634   1.496
 3048SOL    HW110043   3.949   2.695   1.454
 3048SOL    HW210044   3.796   2.639   1.446
 3049SOL     OW10045   0.958   6.607   1.930
 3049SOL    HW110046   0.977   6.575   2.023
 3049SOL    HW210047   0.882   6.555   1.891
 3050SOL     OW10048   3.467   0.712   2.362
 3050SOL    HW110049   3.532   0.720   2.437
 3050SOL    HW210050   3.417   0.625   2.370
 3051SOL     OW10051   2.253   3.820   6.555
 3051SOL    HW110052   2.262   3.898   6.617
 3051SOL    HW210053   2.282   3.847   6.463
 3052SOL     OW10054   4.829   0.502   2.190
 3052SOL    HW110055   4.889   0.423   2.201
 3052SOL    HW210056   4.735   0.471   2.177
 3053SOL     OW10057   0.086   1.473   6.557
 3053SOL    HW110058   0.167   1.416   6.543
 3053SOL    HW210059   0.004   1.416   6.550
 3054SOL     OW10060   6.778   2.564   1.420
 3054SOL    HW110061   6.858   2.533   1.370
 3054SOL    HW210062   6.697   2.517   1.386
 3055SOL     OW10063   4.812   6.763   3.960
 3055SOL    HW110064   4.850   6.718   3.879
 3055SOL    HW210065   4.886   6.806   4.012
 3056SOL     OW10066   6.649   1.879   5.558
 3056SOL    HW110067   6.671   1.945   5.629
 3056SOL    HW210068   6.713   1.889   5.482
 3057SOL     OW10069   4.112   5.922   3.674
 3057SOL    HW110070   4.030   5.959   3.631
 3057SOL    HW210071   4.177   5.996   3.692
 3058SOL     OW10072   6.945   5.957   0.983
 3058SOL    HW110073   6.901   6.020   0.919
 3058SOL    HW210074   6.905   5.967   1.074
 3059SOL     OW10075   2.260   2.306   4.132
 3059SOL    HW110076   2.198   2.382   4.153
 3059SOL    HW210077   2.298   2.269   4.217
 3060SOL     OW10078   0.804   5.652   0.424
 3060SOL    HW110079   0.783   5.555   0.438
 3060SOL    HW210080   0.893   5.662   0.380
 3061SOL     OW10081   5.680   0.711   5.273
 3061SOL    HW110082   5.778   0.732   5.282
 3061SOL    HW210083   5.669   0.618   5.238
 3062SOL     OW10084   1.610   6.625   6.983
 3062SOL    HW110085   1.653   6.597   6.897
 3062SOL    HW210086   1.514   6.596   6.983
 3063SOL     OW10087   2.723   5.406   1.887
 3063SOL    HW110088   2.650   5.474   1.895
 3063SOL    HW210089   2.684   5.314   1.891
 3064SOL     OW10090   5.233   3.827   4.080
 3064SOL    HW110091   5.200   3.746   4.128
 3064SOL    HW210092   5.163   3.860   4.017
 3065SOL     OW10093   2.070   0.565   6.779
 3065SOL    HW110094   2.163   0.540   6.807
 3065SOL    HW210095   2.034   0.633   6.842
 3066SOL     OW10096   4.949   5.082   0.532
 3066SOL    HW110097   4.946   4.990   0.569
 3066SOL    HW210098   4.992   5.144   0.598
 3067SOL     OW10099   4.045   2.210   4.654
 3067SOL    HW110100   4.097   2.246   4.731
 3067SOL    HW210101   3.947   2.219   4.673
 3068SOL     OW10102   5.361   5.997   1.021
 3068SOL    HW110103   5.310   6.009   1.105
 3068SOL    HW210104   5.411   6.081   1.000
 3069SOL     OW10105   6.645   6.284   2.107
 3069SOL    HW110106   6.603   6.375   2.109
 3069SOL    HW210107   6.573   6.214   2.116
 3070SOL     OW10108   0.969   0.909   2.110
 3070SOL    HW110109   1.066   0.895   2.130
 3070SOL    HW210110   0.959   0.986   2.046
 3071SOL     OW10111   5.605   5.897   3.539
 3071SOL    HW110112   5.638   5.988   3.561
 3071SOL    HW210113   5.682   5.833   3.535
 3072SOL     OW10114   1.519   6.529   0.626
 3072SOL    HW110115   1.571   6.474   0.561
 3072SOL    HW210116   1.483   6.610   0.579
 3073SOL     OW10117   6.994   3.453   5.357
 3073SOL    HW110118   7.020   3.417   5.447
 3073SOL    HW210119   6.938   3.535   5.370
 3074SOL     OW10120   4.895   3.241   0.880
 3074SOL    HW110121   4.936   3.313   0.935
 3074SOL    HW210122   4.846   3.281   0.803
 3075SOL     OW10123   2.262   5.936   1.776
 3075SOL    HW110124   2.347   5.974   1.814
 3075SOL    HW210125   2.267   5.936   1.676
 3076SOL     OW10126   0.048   1.103   4.450
 3076SOL    HW110127   0.125   1.118   4.389
 3076SOL    HW210128   7.000   1.064   4.399
 3077SOL     OW10129   4.738   5.606   2.824
 3077SOL    HW110130   4.714   5.652   2.738
 3077SOL    HW210131   4.697   5.656   2.901
 3078SOL     OW10132   1.212   3.146   0.952
 3078SOL    HW110133   1.281   3.084   0.988
 3078SOL    HW210134   1.162   3.188   1.027
 3079SOL     OW10135   2.336   2.074   4.690
 3079SOL    HW110136   2.279   2.051   4.769
 3079SOL    HW210137   2.311   2.015   4.613
 3080SOL     OW10138   4.703   4.232   3.617
 3080SOL    HW110139   4.800   4.210   3.602
 3080SOL    HW210140   4.693   4.279   3.704
 3081SOL     OW10141   0.248   2.459   6.102
 3081SOL    HW110142   0.342   2.438   6.127
 3081SOL    HW210143   0.240   2.555   6.078
 3082SOL     OW10144   3.559   6.903   3.696
 3082SOL    HW110145   3.584   6.999   3.696
 3082SOL    HW210146   3.519   6.879   3.607
 3083SOL     OW10147   4.357   5.967   3.516
 3083SOL    HW110148   4.340   5.880   3.563
 3083SOL    HW210149   4.318   6.042   3.570
 3084SOL     OW10150   5.087   4.226   4.687
 3084SOL    HW110151   4.993   4.194   4.693
 3084SOL    HW210152   5.087   4.323   4.662
 3085SOL     OW10153   0.653   4.873   1.706
 3085SOL    HW110154   0.637   4.969   1.684
 3085SOL    HW210155   0.750   4.859   1.726
 3086SOL     OW10156   4.112   1.810   1.932
 3086SOL    HW110157   4.059   1.832   1.851
 3086SOL    HW210158   4.119   1.891   1.991
 3087SOL     OW10159   1.160   5.091   3.725
 3087SOL    HW110160   1.125   5.119   3.815
 3087SOL    HW210161   1.260   5.082   3.730
 3088SOL     OW10162   2.139   5.073   5.836
 3088SOL    HW110163   2.139   5.170   5.861
 3088SOL    HW210164   2.204   5.023   5.894
 3089SOL     OW10165   1.225   3.092   0.313
 3089SOL    HW110166   1.237   3.191   0.311
 3089SOL    HW210167   1.150   3.066   0.252
 3090SOL     OW10168   1.974   2.291   2.079
 3090SOL    HW110169   1.891   2.342   2.053
 3090SOL    HW210170   2.043   2.301   2.008
 3091SOL     OW10171   1.513   0.039   0.173
 3091SOL    HW110172   1.452   0.023   0.251
 3091SOL    HW210173   1.606   0.012   0.199
 3092SOL     OW10174   4.821   6.636   0.380
 3092SOL    HW110175   4.855   6.721   0.340
 3092SOL    HW210176   4.868   6.618   0.466
 3093SOL     OW10177   5.602   5.930   5.861
 3093SOL    HW110178   5.543   6.007   5.887
 3093SOL    HW210179   5.600   5.861   5.934
 3094SOL     OW10180   2.904   6.802   4.401
 3094SOL    HW110181   2.878   6.853   4.319
 3094SOL    HW210182   2.829   6.804   4.467
 3095SOL     OW10183   2.425   5.857   4.198
 3095SOL    HW110184   2.332   5.837   4.167
 3095SOL    HW210185   2.424   5.935   4.261
 3096SOL     OW10186   1.029   0.327   4.790
 3096SOL    HW110187   0.961   0.269   4.835
 3096SOL    HW210188   0.982   0.404   4.746
 3097SOL     OW10189   0.507   2.190   1.021
 3097SOL    HW110190   0.480   2.105   1.065
 3097SOL    HW210191   0.572   2.171   0.948
 3098SOL     OW10192   2.399   3.230   0.739
 3098SOL    HW110193   2.334   3.279   0.797
 3098SOL    HW210194   2.463   3.295   0.698
 3099SOL     OW10195   0.225   6.122   4.477
 3099SOL    HW110196   0.208   6.061   4.555
 3099SOL    HW210197   0.180   6.210   4.494
 3100SOL     OW10198   6.565   6.921   4.553
 3100SOL    HW110199   6.596   6.900   4.645
 3100SOL    HW210200   6.568   6.838   4.497
 3101SOL     OW10201   5.491   6.200   5.870
 3101SOL    HW110202   5.476   6.279   5.810
 3101SOL    HW210203   5.468   6.225   5.964
 3102SOL     OW10204   0.424   5.102   2.941
 3102SOL    HW110205   0.365   5.088   2.861
 3102SOL    HW210206   0.476   5.187   2.930
 3103SOL     OW10207   3.350   0.928   1.817
 3103SOL    HW110208   3.403   0.843   1.826
 3103SOL    HW210209   3.257   0.912   1.848
 3104SOL     OW10210   5.198   6.757   5.408
 3104SOL    HW110211   5.249   6.737   5.491
 3104SOL    HW210212   5.201   6.678   5.347
 3105SOL     OW10213   6.216   4.799   2.231
 3105SOL    HW110214   6.158   4.772   2.307
 3105SOL    HW210215   6.179   4.760   2.146
 3106SOL     OW10216   5.893   1.145   2.848
 3106SOL    HW110217   5.856   1.065   2.801
 3106SOL    HW210218   5.982   1.121   2.888
 3107SOL     OW10219   4.232   1.025   4.156
 3107SOL    HW110220   4.264   0.951   4.097
 3107SOL    HW210221   4.138   1.048   4.133
 3108SOL     OW10222   1.349   0.258   4.403
 3108SOL    HW110223   1.268   0.257   4.345
 3108SOL    HW210224   1.345   0.182   4.467
 3109SOL     OW10225   5.726   5.912   2.553
 3109SOL    HW110226   5.811   5.859   2.548
 3109SOL    HW210227   5.745   6.007   2.528
 3110SOL     OW10228   1.676   1.893   3.388
 3110SOL    HW110229   1.656   1.985   3.421
 3110SOL    HW210230   1.695   1.896   3.290
 3111SOL     OW10231   6.392   5.893   4.221
 3111SOL    HW110232   6.472   5.839   4.247
 3111SOL    HW210233   6.421   5.986   4.197
 3112SOL     OW10234   5.002   2.444   6.037
 3112SOL    HW110235   5.097   2.450   6.005
 3112SOL    HW210236   5.002   2.423   6.135
 3113SOL     OW10237   1.707   6.252   3.821
 3113SOL    HW110238   1.703   6.322   3.750
 3113SOL    HW210239   1.748   6.169   3.785
 3114SOL     OW10240   3.892   2.333   6.717
 3114SOL    HW110241   3.822   2.344   6.646
 3114SOL    HW210242   3.979   2.308   6.674
 3115SOL     OW10243   4.591   3.505   6.861
 3115SOL    HW110244   4.559   3.536   6.772
 3115SOL    HW210245   4.683   3.541   6.878
 3116SOL     OW10246   6.957   3.512   0.054
 3116SOL    HW110247   6.877   3.566   0.081
 3116SOL    HW210248   6.992   3.547   6.995
 3117SOL     OW10249   4.788   3.656   5.430
 3117SOL    HW110250   4.710   3.612   5.385
 3117SOL    HW210251   4.870   3.645   5.373
 3118SOL     OW10252   0.215   4.688   0.334
 3118SOL    HW110253   0.279   4.689   0.257
 3118SOL    HW210254   0.246   4.755   0.402
 3119SOL     OW10255   2.381   3.359   5.648
 3119SOL    HW110256   2.310   3.289   5.661
 3119SOL    HW210257   2.355   3.419   5.573
 3120SOL     OW10258   3.149   6.986   4.121
 3120SOL    HW110259   3.172   6.914   4.187
 3120SOL    HW210260   3.201   6.971   4.037
 3121SOL     OW10261   0.391   1.502   2.652
 3121SOL    HW110262   0.312   1.563   2.652
 3121SOL    HW210263   0.433   1.502   2.742
 3122SOL     OW10264   2.808   6.326   5.950
 3122SOL    HW110265   2.806   6.260   5.875
 3122SOL    HW210266   2.806   6.418   5.913
 3123SOL     OW10267   3.053   0.790   4.256
 3123SOL    HW110268   3.123   0.761   4.191
 3123SOL    HW210269   2.990   0.714   4.273
 3124SOL     OW10270   4.108   6.760   4.653
 3124SOL    HW110271   4.186   6.698   4.646
 3124SOL    HW210272   4.118   6.835   4.588
 3125SOL     OW10273   6.589   1.905   5.153
 3125SOL    HW110274   6.515   1.855   5.198
 3125SOL    HW210275   6.672   1.901   5.210
 3126SOL     OW10276   4.938   5.146   6.487
 3126SOL    HW110277   4.953   5.177   6.393
 3126SOL    HW210278   5.013   5.086   6.515
 3127SOL     OW10279   0.785   2.290   3.449
 3127SOL    HW110280   0.833   2.360   3.395
 3127SOL    HW210281   0.851   2.238   3.502
 3128SOL     OW10282   1.901   6.918   6.766
 3128SOL    HW110283   1.887   6.999   6.709
 3128SOL    HW210284   1.846   6.926   6.849
 3129SOL     OW10285   0.942   3.974   6.374
 3129SOL    HW110286   1.017   3.992   6.438
 3129SOL    HW210287   0.911   4.060   6.334
 3130SOL     OW10288   2.044   4.575   2.027
 3130SOL    HW110289   1.953   4.601   2.057
 3130SOL    HW210290   2.066   4.624   1.942
 3131SOL     OW10291   0.537   2.466   1.762
 3131SOL    HW110292   0.626   2.430   1.791
 3131SOL    HW210293   0.464   2.410   1.802
 3132SOL     OW10294   4.974   4.916   6.061
 3132SOL    HW110295   5.034   4.979   6.013
 3132SOL    HW210296   4.994   4.822   6.032
 3133SOL     OW10297   3.088   2.119   3.159
 3133SOL    HW110298   3.108   2.177   3.080
 3133SOL    HW210299   2.994   2.133   3.188
 3134SOL     OW10300   4.747   5.118   1.514
 3134SOL    HW110301   4.680   5.112   1.589
 3134SOL    HW210302   4.759   5.027   1.474
 3135SOL     OW10303   5.106   0.923   5.335
 3135SOL    HW110304   5.039   0.865   5.288
 3135SOL    HW210305   5.124   1.004   5.279
 3136SOL     OW10306   5.620   0.508   6.659
 3136SOL    HW110307   5.684   0.467   6.724
 3136SOL    HW210308   5.529   0.514   6.700
 3137SOL     OW10309   6.045   0.529   3.391
 3137SOL    HW110310   6.037   0.469   3.311
 3137SOL    HW210311   6.055   0.624   3.360
 3138SOL     OW10312   6.816   2.340   3.971
 3138SOL    HW110313   6.750   2.409   4.000
 3138SOL    HW210314   6.879   2.379   3.904
 3139SOL     OW10315   4.702   6.925   0.572
 3139SOL    HW110316   4.605   6.941   0.555
 3139SOL    HW210317   4.756   6.990   0.519
 3140SOL     OW10318   5.849   0.060   6.678
 3140SOL    HW110319   5.866   0.047   6.775
 3140SOL    HW210320   5.898   0.142   6.646
 3141SOL     OW10321   0.484   5.991   6.348
 3141SOL    HW110322   0.500   5.937   6.265
 3141SOL    HW210323   0.500   6.088   6.329
 3142SOL     OW10324   4.765   6.365   1.781
 3142SOL    HW110325   4.670   6.398   1.775
 3142SOL    HW210326   4.789   6.319   1.695
 3143SOL     OW10327   0.424   2.518   6.765
 3143SOL    HW110328   0.381   2.428   6.753
 3143SOL    HW210329   0.478   2.517   6.849
 3144SOL     OW10330   2.847   3.794   0.789
 3144SOL    HW110331   2.914   3.724   0.814
 3144SOL    HW210332   2.877   3.883   0.826
 3145SOL     OW10333   1.941   5.062   2.492
 3145SOL    HW110334   1.928   5.160   2.503
 3145SOL    HW210335   1.914   5.034   2.400
 3146SOL     OW10336   1.513   0.074   3.333
 3146SOL    HW110337   1.575   0.002   3.364
 3146SOL    HW210338   1.423   0.062   3.375
 3147SOL     OW10339   3.925   5.137   0.107
 3147SOL    HW110340   3.869   5.131   0.189
 3147SOL    HW210341   3.881   5.086   0.033
 3148SOL     OW10342   4.999   5.803   4.646
 3148SOL    HW110343   4.979   5.706   4.659
 3148SOL    HW210344   5.090   5.814   4.608
 3149SOL     OW10345   3.102   0.362   5.242
 3149SOL    HW110346   3.110   0.347   5.144
 3149SOL    HW210347   3.175   0.424   5.272
 3150SOL     OW10348   6.398   5.636   3.989
 3150SOL    HW110349   6.368   5.560   4.046
 3150SOL    HW210350   6.324   5.662   3.927
 3151SOL     OW10351   3.540   0.794   6.565
 3151SOL    HW110352   3.461   0.794   6.504
 3151SOL    HW210353   3.545   0.707   6.614
 3152SOL     OW10354   1.549   5.248   1.083
 3152SOL    HW110355   1.488   5.198   1.022
 3152SOL    HW210356   1.615   5.186   1.124
 3153SOL     OW10357   6.572   4.468   1.639
 3153SOL    HW110358   6.613   4.387   1.598
 3153SOL    HW210359   6.643   4.537   1.656
 3154SOL     OW10360   6.039   1.472   0.557
 3154SOL    HW110361   5.963   1.538   0.563
 3154SOL    HW210362   6.120   1.519   0.522
 3155SOL     OW10363   6.739   5.298   1.177
 3155SOL    HW110364   6.734   5.199   1.187
 3155SOL    HW210365   6.648   5.335   1.159
 3156SOL     OW10366   3.313   2.916   3.801
 3156SOL    HW110367   3.273   2.832   3.840
 3156SOL    HW210368   3.323   2.984   3.873
 3157SOL     OW10369   1.872   3.070   4.617
 3157SOL    HW110370   1.872   2.981   4.570
 3157SOL    HW210371   1.966   3.101   4.630
 3158SOL     OW10372   4.392   0.326   1.815
 3158SOL    HW110373   4.479   0.279   1.798
 3158SOL    HW210374   4.410   0.423   1.832
 3159SOL     OW10375   5.669   1.097   0.244
 3159SOL    HW110376   5.714   1.094   0.334
 3159SOL    HW210377   5.738   1.096   0.172
 3160SOL     OW10378   6.608   5.968   5.476
 3160SOL    HW110379   6.629   6.053   5.524
 3160SOL    HW210380   6.515   5.939   5.500
 3161SOL     OW10381   1.216   1.042   3.008
 3161SOL    HW110382   1.309   1.070   2.986
 3161SOL    HW210383   1.159   1.124   3.022
 3162SOL     OW10384   1.180   5.948   0.707
 3162SOL    HW110385   1.173   5.957   0.807
 3162SOL    HW210386   1.152   6.033   0.664
 3163SOL     OW10387   3.603   2.557   0.081
 3163SOL    HW110388   3.595   2.579   7.011
 3163SOL    HW210389   3.512   2.535   0.117
 3164SOL     OW10390   4.465   4.387   1.413
 3164SOL    HW110391   4.452   4.486   1.417
 3164SOL    HW210392   4.403   4.343   1.477
 3165SOL     OW10393   1.237   6.045   1.989
 3165SOL    HW110394   1.217   6.127   1.935
 3165SOL    HW210395   1.201   5.965   1.941
 3166SOL     OW10396   5.012   1.779   6.408
 3166SOL    HW110397   4.916   1.806   6.411
 3166SOL    HW210398   5.066   1.853   6.367
 3167SOL     OW10399   0.150   4.450   1.634
 3167SOL    HW110400   0.185   4.442   1.727
 3167SOL    HW210401   0.177   4.369   1.581
 3168SOL     OW10402   5.584   3.283   0.393
 3168SOL    HW110403   5.593   3.379   0.418
 3168SOL    HW210404   5.499   3.247   0.431
 3169SOL     OW10405   1.345   3.056   5.569
 3169SOL    HW110406   1.343   3.101   5.479
 3169SOL    HW210407   1.386   2.966   5.560
 3170SOL     OW10408   4.213   0.853   0.694
 3170SOL    HW110409   4.155   0.903   0.758
 3170SOL    HW210410   4.166   0.771   0.661
 3171SOL     OW10411   0.036   6.792   0.947
 3171SOL    HW110412   0.114   6.735   0.919
 3171SOL    HW210413   7.010   6.817   0.867
 3172SOL     OW10414   0.548   5.869   5.582
 3172SOL    HW110415   0.487   5.909   5.651
 3172SOL    HW210416   0.641   5.866   5.617
 3173SOL     OW10417   2.904   1.929   1.260
 3173SOL    HW110418   2.963   1.948   1.339
 3173SOL    HW210419   2.942   1.973   1.179
 3174SOL     OW10420   2.546   2.867   6.968
 3174SOL    HW110421   2.453   2.881   7.002
 3174SOL    HW210422   2.607   2.849   0.017
 3175SOL     OW10423   0.010   6.521   0.764
 3175SOL    HW110424   0.052   6.519   0.674
 3175SOL    HW210425   0.080   6.540   0.833
 3176SOL     OW10426   2.005   5.272   4.691
 3176SOL    HW110427   2.043   5.304   4.604
 3176SOL    HW210428   1.908   5.251   4.679
 3177SOL     OW10429   4.812   5.384   5.366
 3177SOL    HW110430   4.740   5.325   5.403
 3177SOL    HW210431   4.809   5.473   5.411
 3178SOL     OW10432   6.817   3.052   1.596
 3178SOL    HW110433   6.915   3.063   1.580
 3178SOL    HW210434   6.791   2.957   1.578
 3179SOL     OW10435   1.862   2.965   1.568
 3179SOL    HW110436   1.829   3.017   1.647
 3179SOL    HW210437   1.858   2.867   1.590
 3180SOL     OW10438   4.682   0.364   6.838
 3180SOL    HW110439   4.671   0.357   6.739
 3180SOL    HW210440   4.615   0.306   6.883
 3181SOL     OW10441   0.651   0.238   2.936
 3181SOL    HW110442   0.674   0.216   2.841
 3181SOL    HW210443   0.717   0.305   2.971
 3182SOL     OW10444   1.636   1.031   5.758
 3182SOL    HW110445   1.563   1.094   5.786
 3182SOL    HW210446   1.647   0.960   5.827
 3183SOL     OW10447   5.164   3.482   1.331
 3183SOL    HW110448   5.240   3.446   1.386
 3183SOL    HW210449   5.114   3.550   1.385
 3184SOL     OW10450   2.534   2.148   2.834
 3184SOL    HW110451   2.552   2.065   2.781
 3184SOL    HW210452   2.442   2.182   2.812
 3185SOL     OW10453   5.977   0.697   6.227
 3185SOL    HW110454   5.890   0.697   6.179
 3185SOL    HW210455   5.977   0.768   6.297
 3186SOL     OW10456   3.400   0.758   2.769
 3186SOL    HW110457   3.495   0.788   2.760
 3186SOL    HW210458   3.392   0.697   2.847
 3187SOL     OW10459   4.894   4.365   0.175
 3187SOL    HW110460   4.846   4.281   0.148
 3187SOL    HW210461   4.853   4.443   0.128
 3188SOL     OW10462   3.427   5.876   3.407
 3188SOL    HW110463   3.471   5.805   3.354
 3188SOL    HW210464   3.492   5.949   3.427
 3189SOL     OW10465   2.397   0.928   2.817
 3189SOL    HW110466   2.488   0.915   2.778
 3189SOL    HW210467   2.396   0.895   2.911
 3190SOL     OW10468   1.039   6.609   1.491
 3190SOL    HW110469   1.117   6.584   1.548
 3190SOL    HW210470   0.957   6.561   1.523
 3191SOL     OW10471   3.463   6.828   0.857
 3191SOL    HW110472   3.413   6.886   0.793
 3191SOL    HW210473   3.559   6.859   0.861
 3192SOL     OW10474   0.339   2.389   1.177
 3192SOL    HW110475   0.319   2.487   1.168
 3192SOL    HW210476   0.403   2.362   1.105
 3193SOL     OW10477   4.104   1.699   6.292
 3193SOL    HW110478   4.126   1.783   6.342
 3193SOL    HW210479   4.172   1.629   6.313
 3194SOL     OW10480   0.936   2.771   6.485
 3194SOL    HW110481   0.907   2.678   6.506
 3194SOL    HW210482   0.903   2.796   6.394
 3195SOL     OW10483   1.565   2.425   2.493
 3195SOL    HW110484   1.551   2.521   2.469
 3195SOL    HW210485   1.615   2.419   2.580
 3196SOL     OW10486   6.544   0.214   4.989
 3196SOL    HW110487   6.634   0.241   5.023
 3196SOL    HW210488   6.516   0.128   5.033
 3197SOL     OW10489   1.563   5.670   3.790
 3197SOL    HW110490   1.506   5.726   3.851
 3197SOL    HW210491   1.652   5.654   3.833
 3198SOL     OW10492   6.466   2.036   6.733
 3198SOL    HW110493   6.382   2.090   6.736
 3198SOL    HW210494   6.475   1.994   6.643
 3199SOL     OW10495   4.548   2.524   1.938
 3199SOL    HW110496   4.463   2.474   1.955
 3199SOL    HW210497   4.622   2.481   1.990
 3200SOL     OW10498   6.891   1.606   1.494
 3200SOL    HW110499   6.961   1.534   1.490
 3200SOL    HW210500   6.850   1.616   1.403
 3201SOL     OW10501   5.321   4.343   4.411
 3201SOL    HW110502   5.232   4.310   4.379
 3201SOL    HW210503   5.330   4.440   4.390
 3202SOL     OW10504   1.609   4.930   1.704
 3202SOL    HW110505   1.518   4.970   1.718
 3202SOL    HW210506   1.609   4.835   1.736
 3203SOL     OW10507   5.764   1.019   1.234
 3203SOL    HW110508   5.713   0.947   1.188
 3203SOL    HW210509   5.839   1.049   1.174
 3204SOL     OW10510   5.133   6.248   1.557
 3204SOL    HW110511   5.195   6.287   1.625
 3204SOL    HW210512   5.174   6.166   1.517
 3205SOL     OW10513   0.067   4.155   6.585
 3205SOL    HW110514   0.021   4.182   6.670
 3205SOL    HW210515   0.166   4.164   6.597
 3206SOL     OW10516   6.513   0.124   6.107
 3206SOL    HW110517   6.550   0.068   6.181
 3206SOL    HW210518   6.516   0.221   6.134
 3207SOL     OW10519   0.535   1.226   6.606
 3207SOL    HW110520   0.519   1.162   6.531
 3207SOL    HW210521   0.623   1.206   6.648
 3208SOL     OW10522   4.736   6.097   5.363
 3208SOL    HW110523   4.755   6.148   5.447
 3208SOL    HW210524   4.743   6.158   5.285
 3209SOL     OW10525   2.816   6.085   3.354
 3209SOL    HW110526   2.867   6.098   3.439
 3209SOL    HW210527   2.833   6.162   3.293
 3210SOL     OW10528   0.954   3.226   1.756
 3210SOL    HW110529   0.869   3.219   1.807
 3210SOL    HW210530   0.937   3.210   1.658
 3211SOL     OW10531   2.175   4.259   0.458
 3211SOL    HW110532   2.235   4.337   0.472
 3211SOL    HW210533   2.230   4.179   0.433
 3212SOL     OW10534   3.875   1.187   6.727
 3212SOL    HW110535   3.971   1.163   6.716
 3212SOL    HW210536   3.868   1.274   6.776
 3213SOL     OW10537   5.514   4.507   2.772
 3213SOL    HW110538   5.431   4.557   2.800
 3213SOL    HW210539   5.489   4.419   2.732
 3214SOL     OW10540   4.587   6.341   0.279
 3214SOL    HW110541   4.589   6.393   0.364
 3214SOL    HW210542   4.505   6.365   0.227
 3215SOL     OW10543   6.714   3.615   1.134
 3215SOL    HW110544   6.614   3.617   1.141
 3215SOL    HW210545   6.744   3.679   1.064
 3216SOL     OW10546   5.652   5.303   2.384
 3216SOL    HW110547   5.589   5.225   2.386
 3216SOL    HW210548   5.633   5.362   2.462
 3217SOL     OW10549   1.318   4.606   3.007
 3217SOL    HW110550   1.374   4.539   2.958
 3217SOL    HW210551   1.252   4.646   2.944
 3218SOL     OW10552   4.407   6.021   3.259
 3218SOL    HW110553   4.505   6.028   3.278
 3218SOL    HW210554   4.360   5.987   3.340
 3219SOL     OW10555   0.212   0.363   3.600
 3219SOL    HW110556   0.197   0.269   3.568
 3219SOL    HW210557   0.308   0.374   3.625
 3220SOL     OW10558   6.491   5.339   5.865
 3220SOL    HW110559   6.446   5.291   5.940
 3220SOL    HW210560   6.422   5.386   5.809
 3221SOL     OW10561   3.301   6.068   2.363
 3221SOL    HW110562   3.268   6.003   2.295
 3221SOL    HW210563   3.373   6.124   2.324
 3222SOL     OW10564   4.681   1.996   3.348
 3222SOL    HW110565   4.582   1.989   3.353
 3222SOL    HW210566   4.706   2.075   3.291
 3223SOL     OW10567   1.780   5.323   6.791
 3223SOL    HW110568   1.788   5.238   6.740
 3223SOL    HW210569   1.817   5.310   6.883
 3224SOL     OW10570   4.553   5.095   6.275
 3224SOL    HW110571   4.504   5.018   6.235
 3224SOL    HW210572   4.600   5.146   6.202
 3225SOL     OW10573   4.263   2.215   6.008
 3225SOL    HW110574   4.219   2.304   6.023
 3225SOL    HW210575   4.341   2.227   5.947
 3226SOL     OW10576   2.441   1.714   4.566
 3226SOL    HW110577   2.460   1.634   4.624
 3226SOL    HW210578   2.343   1.732   4.565
 3227SOL     OW10579   3.210   2.007   6.543
 3227SOL    HW110580   3.288   2.068   6.531
 3227SOL    HW210581   3.181   2.009   6.639
 3228SOL     OW10582   5.268   3.397   4.100
 3228SOL    HW110583   5.306   3.359   4.017
 3228SOL    HW210584   5.257   3.325   4.168
 3229SOL     OW10585   3.149   1.575   5.703
 3229SOL    HW110586   3.051   1.563   5.718
 3229SOL    HW210587   3.165   1.664   5.661
 3230SOL     OW10588   0.392   2.461   3.847
 3230SOL    HW110589   0.448   2.507   3.778
 3230SOL    HW210590   0.423   2.486   3.938
 3231SOL     OW10591   4.193   5.623   1.847
 3231SOL    HW110592   4.230   5.645   1.756
 3231SOL    HW210593   4.264   5.638   1.916
 3232SOL     OW10594   4.687   5.124   4.633
 3232SOL    HW110595   4.721   5.217   4.622
 3232SOL    HW210596   4.694   5.097   4.729
 3233SOL     OW10597   1.256   3.838   1.054
 3233SOL    HW110598   1.207   3.754   1.031
 3233SOL    HW210599   1.338   3.814   1.107
 3234SOL     OW10600   6.801   2.239   0.558
 3234SOL    HW110601   6.703   2.239   0.577
 3234SOL    HW210602   6.847   2.299   0.624
 3235SOL     OW10603   5.682   6.082   1.998
 3235SOL    HW110604   5.658   6.178   2.012
 3235SOL    HW210605   5.764   6.061   2.051
 3236SOL     OW10606   1.574   3.449   1.342
 3236SOL    HW110607   1.508   3.381   1.308
 3236SOL    HW210608   1.667   3.413   1.333
 3237SOL     OW10609   4.907   0.470   3.735
 3237SOL    HW110610   4.961   0.407   3.790
 3237SOL    HW210611   4.889   0.553   3.787
 3238SOL     OW10612   6.987   5.503   6.457
 3238SOL    HW110613   6.939   5.540   6.536
 3238SOL    HW210614   6.995   5.403   6.466
 3239SOL     OW10615   5.974   1.287   0.753
 3239SOL    HW110616   5.991   1.350   0.677
 3239SOL    HW210617   5.895   1.318   0.805
 3240SOL     OW10618   0.730   6.728   5.011
 3240SOL    HW110619   0.828   6.710   5.008
 3240SOL    HW210620   0.685   6.655   5.063
 3241SOL     OW10621   5.060   1.445   4.350
 3241SOL    HW110622   5.053   1.360   4.297
 3241SOL    HW210623   5.071   1.522   4.289
 3242SOL     OW10624   3.496   4.854   0.894
 3242SOL    HW110625   3.402   4.829   0.918
 3242SOL    HW210626   3.524   4.932   0.950
 3243SOL     OW10627   5.846   5.117   0.039
 3243SOL    HW110628   5.897   5.034   0.059
 3243SOL    HW210629   5.778   5.099   6.996
 3244SOL     OW10630   5.219   5.384   6.435
 3244SOL    HW110631   5.131   5.404   6.393
 3244SOL    HW210632   5.222   5.288   6.464
 3245SOL     OW10633   4.480   2.415   6.149
 3245SOL    HW110634   4.510   2.355   6.223
 3245SOL    HW210635   4.473   2.362   6.064
 3246SOL     OW10636   5.917   0.629   3.099
 3246SOL    HW110637   5.917   0.719   3.143
 3246SOL    HW210638   5.822   0.600   3.082
 3247SOL     OW10639   0.108   4.966   2.551
 3247SOL    HW110640   0.107   4.875   2.591
 3247SOL    HW210641   0.021   5.012   2.568
 3248SOL     OW10642   5.701   3.576   2.260
 3248SOL    HW110643   5.698   3.628   2.345
 3248SOL    HW210644   5.609   3.571   2.220
 3249SOL     OW10645   3.926   4.746   5.859
 3249SOL    HW110646   3.899   4.776   5.767
 3249SOL    HW210647   3.993   4.672   5.853
 3250SOL     OW10648   5.663   7.014   3.383
 3250SOL    HW110649   5.597   0.003   3.456
 3250SOL    HW210650   5.742   0.047   3.394
 3251SOL     OW10651   3.856   1.402   2.681
 3251SOL    HW110652   3.865   1.304   2.662
 3251SOL    HW210653   3.850   1.417   2.779
 3252SOL     OW10654   3.665   1.076   2.175
 3252SOL    HW110655   3.759   1.084   2.141
 3252SOL    HW210656   3.603   1.056   2.098
 3253SOL     OW10657   4.965   2.826   2.548
 3253SOL    HW110658   4.945   2.786   2.459
 3253SOL    HW210659   4.922   2.916   2.555
 3254SOL     OW10660   3.763   5.053   4.458
 3254SOL    HW110661   3.722   5.046   4.368
 3254SOL    HW210662   3.704   5.108   4.518
 3255SOL     OW10663   4.462   5.482   0.934
 3255SOL    HW110664   4.490   5.440   0.848
 3255SOL    HW210665   4.536   5.472   1.001
 3256SOL     OW10666   5.461   0.069   6.373
 3256SOL    HW110667   5.389   0.132   6.346
 3256SOL    HW210668   5.520   0.112   6.442
 3257SOL     OW10669   1.017   2.108   0.741
 3257SOL    HW110670   1.073   2.058   0.807
 3257SOL    HW210671   0.957   2.172   0.789
 3258SOL     OW10672   4.595   6.335   2.085
 3258SOL    HW110673   4.583   6.422   2.037
 3258SOL    HW210674   4.615   6.263   2.020
 3259SOL     OW10675   4.060   5.874   4.286
 3259SOL    HW110676   4.021   5.960   4.253
 3259SOL    HW210677   4.104   5.889   4.374
 3260SOL     OW10678   1.949   2.447   1.241
 3260SOL    HW110679   1.870   2.424   1.185
 3260SOL    HW210680   2.031   2.405   1.203
 3261SOL     OW10681   3.985   6.179   0.501
 3261SOL    HW110682   4.004   6.275   0.518
 3261SOL    HW210683   3.897   6.170   0.455
 3262SOL     OW10684   3.711   1.697   3.074
 3262SOL    HW110685   3.629   1.747   3.102
 3262SOL    HW210686   3.741   1.730   2.984
 3263SOL     OW10687   4.878   0.218   3.380
 3263SOL    HW110688   4.935   0.297   3.404
 3263SOL    HW210689   4.801   0.249   3.325
 3264SOL     OW10690   0.560   5.222   6.643
 3264SOL    HW110691   0.551   5.151   6.712
 3264SOL    HW210692   0.569   5.311   6.687
 3265SOL     OW10693   4.000   2.116   6.470
 3265SOL    HW110694   3.910   2.160   6.463
 3265SOL    HW210695   4.049   2.126   6.384
 3266SOL     OW10696   0.079   2.391   0.280
 3266SOL    HW110697   0.069   2.336   0.197
 3266SOL    HW210698   0.115   2.334   0.354
 3267SOL     OW10699   3.564   2.344   1.122
 3267SOL    HW110700   3.523   2.434   1.138
 3267SOL    HW210701   3.608   2.342   1.032
 3268SOL     OW10702   1.448   3.981   6.672
 3268SOL    HW110703   1.502   3.976   6.588
 3268SOL    HW210704   1.354   4.009   6.650
 3269SOL     OW10705   4.372   4.681   1.785
 3269SOL    HW110706   4.321   4.764   1.766
 3269SOL    HW210707   4.394   4.676   1.882
 3270SOL     OW10708   0.528   5.730   4.524
 3270SOL    HW110709   0.555   5.781   4.605
 3270SOL    HW210710   0.438   5.688   4.539
 3271SOL     OW10711   5.996   2.111   2.889
 3271SOL    HW110712   6.041   2.125   2.800
 3271SOL    HW210713   6.034   2.176   2.955
 3272SOL     OW10714   3.678   5.612   0.703
 3272SOL    HW110715   3.762   5.640   0.749
 3272SOL    HW210716   3.654   5.519   0.731
 3273SOL     OW10717   0.774   6.579   1.575
 3273SOL    HW110718   0.695   6.565   1.516
 3273SOL    HW210719   0.751   6.555   1.669
 3274SOL     OW10720   4.302   2.333   0.107
 3274SOL    HW110721   4.346   2.416   0.071
 3274SOL    HW210722   4.312   2.259   0.041
 3275SOL     OW10723   1.569   0.053   6.805
 3275SOL    HW110724   1.516   0.114   6.864
 3275SOL    HW210725   1.621   7.017   6.862
 3276SOL     OW10726   3.151   4.764   6.718
 3276SOL    HW110727   3.160   4.667   6.740
 3276SOL    HW210728   3.216   4.816   6.773
 3277SOL     OW10729   5.939   0.457   6.431
 3277SOL    HW110730   5.942   0.516   6.350
 3277SOL    HW210731   5.875   0.383   6.417
 3278SOL     OW10732   6.972   1.147   5.307
 3278SOL    HW110733   6.956   1.066   5.363
 3278SOL    HW210734   0.012   1.205   5.351
 3279SOL     OW10735   0.206   0.468   0.626
 3279SOL    HW110736   0.157   0.529   0.563
 3279SOL    HW210737   0.294   0.444   0.586
 3280SOL     OW10738   2.428   5.173   6.447
 3280SOL    HW110739   2.494   5.243   6.419
 3280SOL    HW210740   2.441   5.153   6.544
 3281SOL     OW10741   2.094   5.980   1.155
 3281SOL    HW110742   2.141   6.047   1.098
 3281SOL    HW210743   2.032   6.027   1.218
 3282SOL     OW10744   2.697   6.119   4.384
 3282SOL    HW110745   2.760   6.042   4.372
 3282SOL    HW210746   2.740   6.203   4.353
 3283SOL     OW10747   3.064   1.846   2.554
 3283SOL    HW110748   3.099   1.865   2.645
 3283SOL    HW210749   3.085   1.752   2.529
 3284SOL     OW10750   6.495   6.519   0.195
 3284SOL    HW110751   6.490   6.515   0.095
 3284SOL    HW210752   6.489   6.615   0.224
 3285SOL     OW10753   6.673   2.624   3.040
 3285SOL    HW110754   6.632   2.538   3.072
 3285SOL    HW210755   6.771   2.612   3.031
 3286SOL     OW10756   4.040   3.329   3.587
 3286SOL    HW110757   4.065   3.288   3.675
 3286SOL    HW210758   4.060   3.427   3.590
 3287SOL     OW10759   0.822   5.605   0.114
 3287SOL    HW110760   0.767   5.684   0.087
 3287SOL    HW210761   0.840   5.608   0.212
 3288SOL     OW10762   0.325   6.000   7.001
 3288SOL    HW110763   0.412   6.048   6.993
 3288SOL    HW210764   0.293   5.974   6.909
 3289SOL     OW10765   1.230   6.861   5.463
 3289SOL    HW110766   1.197   6.788   5.524
 3289SOL    HW210767   1.258   6.940   5.518
 3290SOL     OW10768   0.655   6.831   1.651
 3290SOL    HW110769   0.705   6.749   1.621
 3290SOL    HW210770   0.719   6.907   1.660
 3291SOL     OW10771   1.331   6.511   6.582
 3291SOL    HW110772   1.249   6.537   6.531
 3291SOL    HW210773   1.399   6.584   6.578
 3292SOL     OW10774   0.468   1.264   6.922
 3292SOL    HW110775   0.490   1.264   6.825
 3292SOL    HW210776   0.382   1.313   6.938
 3293SOL     OW10777   6.939   2.040   2.990
 3293SOL    HW110778   6.923   1.970   2.921
 3293SOL    HW210779   7.017   2.014   3.047
 3294SOL     OW10780   7.007   0.364   6.405
 3294SOL    HW110781   6.931   0.326   6.353
 3294SOL    HW210782   6.975   0.395   6.494
 3295SOL     OW10783   2.612   1.936   1.158
 3295SOL    HW110784   2.706   1.903   1.162
 3295SOL    HW210785   2.562   1.907   1.239
 3296SOL     OW10786   2.639   6.681   1.342
 3296SOL    HW110787   2.733   6.710   1.355
 3296SOL    HW210788   2.589   6.687   1.429
 3297SOL     OW10789   2.864   1.792   4.985
 3297SOL    HW110790   2.796   1.862   5.006
 3297SOL    HW210791   2.847   1.711   5.040
 3298SOL     OW10792   6.283   3.104   2.716
 3298SOL    HW110793   6.228   3.060   2.645
 3298SOL    HW210794   6.294   3.201   2.693
 3299SOL     OW10795   2.146   0.279   3.537
 3299SOL    HW110796   2.204   0.313   3.611
 3299SOL    HW210797   2.132   0.180   3.548
 3300SOL     OW10798   6.834   0.740   6.166
 3300SOL    HW110799   6.788   0.743   6.076
 3300SOL    HW210800   6.873   0.649   6.180
 3301SOL     OW10801   1.637   3.728   3.745
 3301SOL    HW110802   1.700   3.650   3.746
 3301SOL    HW210803   1.679   3.806   3.789
 3302SOL     OW10804   1.091   4.897   4.439
 3302SOL    HW110805   0.996   4.876   4.464
 3302SOL    HW210806   1.144   4.913   4.522
 3303SOL     OW10807   3.387   3.289   2.437
 3303SOL    HW110808   3.484   3.314   2.448
 3303SOL    HW210809   3.343   3.353   2.373
 3304SOL     OW10810   0.808   5.280   3.353
 3304SOL    HW110811   0.821   5.377   3.332
 3304SOL    HW210812   0.855   5.257   3.439
 3305SOL     OW10813   2.241   1.524   2.629
 3305SOL    HW110814   2.176   1.448   2.628
 3305SOL    HW210815   2.268   1.547   2.536
 3306SOL     OW10816   2.215   4.021   2.776
 3306SOL    HW110817   2.202   3.964   2.695
 3306SOL    HW210818   2.154   3.989   2.849
 3307SOL     OW10819   0.044   5.711   6.781
 3307SOL    HW110820   0.085   5.790   6.736
 3307SOL    HW210821   6.993   5.679   6.728
 3308SOL     OW10822   4.436   5.710   0.171
 3308SOL    HW110823   4.346   5.675   0.146
 3308SOL    HW210824   4.504   5.677   0.106
 3309SOL     OW10825   0.743   5.014   2.524
 3309SOL    HW110826   0.754   5.065   2.439
 3309SOL    HW210827   0.666   4.951   2.515
 3310SOL     OW10828   0.232   3.697   2.941
 3310SOL    HW110829   0.144   3.734   2.911
 3310SOL    HW210830   0.304   3.726   2.877
 3311SOL     OW10831   2.366   5.467   0.749
 3311SOL    HW110832   2.314   5.551   0.737
 3311SOL    HW210833   2.386   5.426   0.660
 3312SOL     OW10834   2.873   4.085   6.225
 3312SOL    HW110835   2.778   4.055   6.217
 3312SOL    HW210836   2.933   4.017   6.182
 3313SOL     OW10837   1.171   5.508   3.481
 3313SOL    HW110838   1.085   5.486   3.526
 3313SOL    HW210839   1.152   5.552   3.393
 3314SOL     OW10840   2.008   2.643   4.665
 3314SOL    HW110841   2.035   2.569   4.725
 3314SOL    HW210842   1.952   2.607   4.590
 3315SOL     OW10843   0.134   2.917   4.214
 3315SOL    HW110844   0.148   3.011   4.183
 3315SOL    HW210845   0.210   2.890   4.273
 3316SOL     OW10846   3.926   1.387   5.807
 3316SOL    HW110847   4.018   1.363   5.838
 3316SOL    HW210848   3.926   1.479   5.768
 3317SOL     OW10849   4.464   2.866   1.647
 3317SOL    HW110850   4.557   2.880   1.679
 3317SOL    HW210851   4.462   2.872   1.547
 3318SOL     OW10852   2.585   6.863   6.709
 3318SOL    HW110853   2.498   6.896   6.672
 3318SOL    HW210854   2.661   6.901   6.656
 3319SOL     OW10855   6.590   6.748   3.472
 3319SOL    HW110856   6.560   6.813   3.542
 3319SOL    HW210857   6.669   6.786   3.424
 3320SOL     OW10858   5.799   1.129   5.192
 3320SOL    HW110859   5.886   1.109   5.237
 3320SOL    HW210860   5.725   1.125   5.259
 3321SOL     OW10861   3.276   2.965   2.392
 3321SOL    HW110862   3.190   3.002   2.426
 3321SOL    HW210863   3.338   3.040   2.367
 3322SOL     OW10864   4.803   2.171   1.143
 3322SOL    HW110865   4.783   2.148   1.238
 3322SOL    HW210866   4.837   2.265   1.137
 3323SOL     OW10867   2.311   4.073   0.277
 3323SOL    HW110868   2.379   4.023   0.331
 3323SOL    HW210869   2.266   4.010   0.214
 3324SOL     OW10870   1.100   4.106   0.387
 3324SOL    HW110871   1.186   4.093   0.337
 3324SOL    HW210872   1.092   4.036   0.458
 3325SOL     OW10873   2.494   3.063   0.283
 3325SOL    HW110874   2.445   2.984   0.246
 3325SOL    HW210875   2.586   3.067   0.244
 3326SOL     OW10876   5.483   1.662   1.586
 3326SOL    HW110877   5.469   1.688   1.491
 3326SOL    HW210878   5.424   1.719   1.645
 3327SOL     OW10879   2.427   6.418   1.231
 3327SOL    HW110880   2.462   6.494   1.287
 3327SOL    HW210881   2.418   6.447   1.136
 3328SOL     OW10882   4.345   1.678   2.010
 3328SOL    HW110883   4.268   1.737   1.986
 3328SOL    HW210884   4.408   1.674   1.933
 3329SOL     OW10885   4.257   0.265   4.813
 3329SOL    HW110886   4.232   0.200   4.884
 3329SOL    HW210887   4.329   0.326   4.847
 3330SOL     OW10888   6.136   6.728   2.355
 3330SOL    HW110889   6.221   6.694   2.315
 3330SOL    HW210890   6.066   6.657   2.350
 3331SOL     OW10891   1.420   3.374   3.151
 3331SOL    HW110892   1.442   3.413   3.240
 3331SOL    HW210893   1.486   3.303   3.128
 3332SOL     OW10894   5.626   4.392   0.611
 3332SOL    HW110895   5.724   4.414   0.610
 3332SOL    HW210896   5.611   4.306   0.562
 3333SOL     OW10897   3.770   3.659   0.259
 3333SOL    HW110898   3.695   3.726   0.261
 3333SOL    HW210899   3.786   3.624   0.351
 3334SOL     OW10900   1.508   2.780   1.936
 3334SOL    HW110901   1.592   2.760   1.988
 3334SOL    HW210902   1.429   2.754   1.991
 3335SOL     OW10903   3.627   4.910   5.668
 3335SOL    HW110904   3.718   4.949   5.663
 3335SOL    HW210905   3.606   4.886   5.762
 3336SOL     OW10906   2.270   6.987   4.197
 3336SOL    HW110907   2.265   6.907   4.256
 3336SOL    HW210908   2.358   0.004   4.209
 3337SOL     OW10909   3.773   2.990   2.592
 3337SOL    HW110910   3.754   2.891   2.596
 3337SOL    HW210911   3.872   3.005   2.593
 3338SOL     OW10912   0.918   2.389   1.616
 3338SOL    HW110913   0.995   2.334   1.648
 3338SOL    HW210914   0.949   2.483   1.601
 3339SOL     OW10915   1.699   0.141   5.567
 3339SOL    HW110916   1.796   0.153   5.547
 3339SOL    HW210917   1.685   0.052   5.609
 3340SOL     OW10918   4.855   0.695   4.246
 3340SOL    HW110919   4.937   0.751   4.253
 3340SOL    HW210920   4.782   0.735   4.303
 3341SOL     OW10921   2.440   4.437   3.042
 3341SOL    HW110922   2.413   4.346   3.009
 3341SOL    HW210923   2.425   4.504   2.970
 3342SOL     OW10924   6.542   0.441   2.847
 3342SOL    HW110925   6.449   0.421   2.878
 3342SOL    HW210926   6.548   0.536   2.817
 3343SOL     OW10927   5.018   5.643   6.091
 3343SOL    HW110928   4.948   5.574   6.113
 3343SOL    HW210929   5.063   5.672   6.175
 3344SOL     OW10930   6.113   2.976   2.931
 3344SOL    HW110931   6.177   3.004   2.860
 3344SOL    HW210932   6.080   2.883   2.913
 3345SOL     OW10933   0.896   3.979   0.016
 3345SOL    HW110934   0.808   3.938   0.040
 3345SOL    HW210935   0.910   4.061   0.072
 3346SOL     OW10936   2.136   1.029   0.128
 3346SOL    HW110937   2.201   1.035   0.052
 3346SOL    HW210938   2.105   1.121   0.153
 3347SOL     OW10939   1.452   2.591   6.061
 3347SOL    HW110940   1.400   2.619   6.142
 3347SOL    HW210941   1.505   2.669   6.027
 3348SOL     OW10942   4.025   4.332   6.419
 3348SOL    HW110943   4.033   4.232   6.416
 3348SOL    HW210944   3.966   4.362   6.345
 3349SOL     OW10945   2.301   4.393   3.797
 3349SOL    HW110946   2.302   4.355   3.890
 3349SOL    HW210947   2.209   4.386   3.759
 3350SOL     OW10948   0.841   4.093   5.608
 3350SOL    HW110949   0.917   4.156   5.595
 3350SOL    HW210950   0.868   4.001   5.580
 3351SOL     OW10951   5.472   0.971   1.426
 3351SOL    HW110952   5.506   1.027   1.501
 3351SOL    HW210953   5.375   0.993   1.410
 3352SOL     OW10954   5.500   2.946   0.492
 3352SOL    HW110955   5.526   3.009   0.566
 3352SOL    HW210956   5.580   2.894   0.464
 3353SOL     OW10957   1.799   6.993   0.971
 3353SOL    HW110958   1.840   6.926   0.909
 3353SOL    HW210959   1.821   6.968   1.066
 3354SOL     OW10960   4.441   3.333   5.470
 3354SOL    HW110961   4.354   3.292   5.444
 3354SOL    HW210962   4.464   3.306   5.563
 3355SOL     OW10963   2.268   1.758   5.852
 3355SOL    HW110964   2.328   1.684   5.882
 3355SOL    HW210965   2.192   1.768   5.916
 3356SOL     OW10966   0.932   6.895   6.320
 3356SOL    HW110967   0.941   6.963   6.392
 3356SOL    HW210968   0.981   6.925   6.239
 3357SOL     OW10969   3.367   4.026   1.488
 3357SOL    HW110970   3.349   4.095   1.558
 3357SOL    HW210971   3.408   3.946   1.531
 3358SOL     OW10972   6.101   1.234   3.215
 3358SOL    HW110973   6.004   1.233   3.239
 3358SOL    HW210974   6.113   1.206   3.120
 3359SOL     OW10975   0.625   5.014   3.931
 3359SOL    HW110976   0.540   5.048   3.970
 3359SOL    HW210977   0.692   5.088   3.927
 3360SOL     OW10978   0.872   2.244   6.790
 3360SOL    HW110979   0.930   2.232   6.870
 3360SOL    HW210980   0.877   2.162   6.733
 3361SOL     OW10981   0.910   0.365   4.348
 3361SOL    HW110982   0.915   0.270   4.378
 3361SOL    HW210983   0.909   0.425   4.428
 3362SOL     OW10984   3.940   1.787   3.700
 3362SOL    HW110985   3.993   1.714   3.656
 3362SOL    HW210986   3.846   1.784   3.668
 3363SOL     OW10987   6.891   3.075   1.962
 3363SOL    HW110988   6.798   3.089   1.928
 3363SOL    HW210989   6.916   2.978   1.953
 3364SOL     OW10990   1.208   4.498   2.133
 3364SOL    HW110991   1.201   4.437   2.213
 3364SOL    HW210992   1.272   4.572   2.154
 3365SOL     OW10993   1.940   2.910   4.252
 3365SOL    HW110994   1.965   2.814   4.246
 3365SOL    HW210995   2.023   2.965   4.265
 3366SOL     OW10996   6.484   3.933   4.110
 3366SOL    HW110997   6.483   4.032   4.125
 3366SOL    HW210998   6.534   3.913   4.026
 3367SOL     OW10999   3.222   3.482   4.125
 3367SOL    HW111000   3.151   3.529   4.177
 3367SOL    HW211001   3.250   3.399   4.173
 3368SOL     OW11002   1.243   6.301   6.736
 3368SOL    HW111003   1.268   6.376   6.674
 3368SOL    HW211004   1.146   6.309   6.760
 3369SOL     OW11005   4.513   1.753   1.815
 3369SOL    HW111006   4.504   1.792   1.723
 3369SOL    HW211007   4.609   1.731   1.831
 3370SOL     OW11008   5.969   6.589   1.813
 3370SOL    HW111009   6.055   6.599   1.764
 3370SOL    HW211010   5.914   6.517   1.770
 3371SOL     OW11011   2.140   3.747   1.998
 3371SOL    HW111012   2.226   3.798   2.005
 3371SOL    HW211013   2.160   3.651   1.979
 3372SOL     OW11014   6.718   2.546   0.907
 3372SOL    HW111015   6.784   2.620   0.922
 3372SOL    HW211016   6.726   2.513   0.813
 3373SOL     OW11017   1.087   1.563   2.250
 3373SOL    HW111018   1.096   1.611   2.337
 3373SOL    HW211019   1.100   1.627   2.175
 3374SOL     OW11020   0.800   0.286   3.779
 3374SOL    HW111021   0.856   0.227   3.837
 3374SOL    HW211022   0.858   0.331   3.711
 3375SOL     OW11023   6.903   4.562   0.360
 3375SOL    HW111024   6.979   4.526   0.306
 3375SOL    HW211025   6.891   4.504   0.441
 3376SOL     OW11026   2.943   3.499   5.306
 3376SOL    HW111027   2.920   3.403   5.319
 3376SOL    HW211028   3.028   3.520   5.354
 3377SOL     OW11029   6.626   5.450   4.265
 3377SOL    HW111030   6.650   5.526   4.205
 3377SOL    HW211031   6.559   5.481   4.332
 3378SOL     OW11032   0.618   6.818   6.598
 3378SOL    HW111033   0.525   6.839   6.631
 3378SOL    HW211034   0.629   6.851   6.505
 3379SOL     OW11035   0.823   2.975   4.888
 3379SOL    HW111036   0.798   2.962   4.792
 3379SOL    HW211037   0.896   2.912   4.912
 3380SOL     OW11038   3.879   5.042   5.609
 3380SOL    HW111039   3.863   5.140   5.592
 3380SOL    HW211040   3.953   5.031   5.675
 3381SOL     OW11041   0.337   2.663   1.800
 3381SOL    HW111042   0.267   2.636   1.734
 3381SOL    HW211043   0.420   2.610   1.786
 3382SOL     OW11044   6.919   3.149   1.053
 3382SOL    HW111045   6.859   3.201   0.992
 3382SOL    HW211046   6.865   3.109   1.127
 3383SOL     OW11047   3.360   4.901   0.311
 3383SOL    HW111048   3.449   4.896   0.265
 3383SOL    HW211049   3.369   4.952   0.396
 3384SOL     OW11050   2.779   4.697   1.021
 3384SOL    HW111051   2.697   4.641   1.035
 3384SOL    HW211052   2.752   4.791   1.000
 3385SOL     OW11053   6.968   3.007   3.592
 3385SOL    HW111054   0.003   2.948   3.643
 3385SOL    HW211055   7.019   3.058   3.523
 3386SOL     OW11056   6.592   4.604   0.196
 3386SOL    HW111057   6.632   4.515   0.173
 3386SOL    HW211058   6.595   4.618   0.295
 3387SOL     OW11059   5.177   0.923   3.122
 3387SOL    HW111060   5.134   1.001   3.078
 3387SOL    HW211061   5.122   0.895   3.201
 3388SOL     OW11062   5.186   4.499   1.381
 3388SOL    HW111063   5.222   4.568   1.443
 3388SOL    HW211064   5.121   4.441   1.430
 3389SOL     OW11065   6.158   5.762   0.007
 3389SOL    HW111066   6.179   5.840   6.975
 3389SOL    HW211067   6.204   5.775   0.095
 3390SOL     OW11068   4.010   6.635   6.049
 3390SOL    HW111069   3.918   6.657   6.083
 3390SOL    HW211070   4.004   6.608   5.953
 3391SOL     OW11071   5.490   2.214   3.267
 3391SOL    HW111072   5.479   2.115   3.261
 3391SOL    HW211073   5.400   2.257   3.272
 3392SOL     OW11074   3.450   6.879   4.368
 3392SOL    HW111075   3.540   6.839   4.386
 3392SOL    HW211076   3.452   6.927   4.281
 3393SOL     OW11077   5.576   6.829   0.367
 3393SOL    HW111078   5.665   6.837   0.321
 3393SOL    HW211079   5.566   6.737   0.404
 3394SOL     OW11080   3.741   5.197   1.143
 3394SOL    HW111081   3.789   5.214   1.229
 3394SOL    HW211082   3.645   5.177   1.162
 3395SOL     OW11083   4.295   1.457   3.444
 3395SOL    HW111084   4.375   1.402   3.467
 3395SOL    HW211085   4.268   1.439   3.350
 3396SOL     OW11086   5.297   0.812   3.959
 3396SOL    HW111087   5.368   0.815   4.029
 3396SOL    HW211088   5.250   0.724   3.962
 3397SOL     OW11089   2.237   6.144   5.996
 3397SOL    HW111090   2.274   6.201   6.070
 3397SOL    HW211091   2.164   6.195   5.949
 3398SOL     OW11092   0.591   1.327   5.519
 3398SOL    HW111093   0.517   1.310   5.584
 3398SOL    HW211094   0.559   1.390   5.448
 3399SOL     OW11095   0.001   5.129   3.065
 3399SOL    HW111096   6.943   5.105   3.020
 3399SOL    HW211097   0.063   5.050   3.063
 3400SOL     OW11098   5.802   3.412   6.324
 3400SOL    HW111099   5.715   3.419   6.372
 3400SOL    HW211100   5.877   3.416   6.391
 3401SOL     OW11101   6.607   3.747   6.281
 3401SOL    HW111102   6.614   3.706   6.190
 3401SOL    HW211103   6.550   3.829   6.276
 3402SOL     OW11104   6.699   5.601   0.810
 3402SOL    HW111105   6.637   5.633   0.881
 3402SOL    HW211106   6.787   5.579   0.850
 3403SOL     OW11107   4.726   5.746   6.134
 3403SOL    HW111108   4.775   5.788   6.058
 3403SOL    HW211109   4.703   5.815   6.203
 3404SOL     OW11110   5.403   2.907   6.411
 3404SOL    HW111111   5.443   2.980   6.355
 3404SOL    HW211112   5.407   2.933   6.508
 3405SOL     OW11113   5.800   5.567   6.053
 3405SOL    HW111114   5.881   5.518   6.021
 3405SOL    HW211115   5.733   5.573   5.978
 3406SOL     OW11116   2.108   3.466   2.260
 3406SOL    HW111117   2.163   3.452   2.178
 3406SOL    HW211118   2.142   3.408   2.334
 3407SOL     OW11119   2.254   4.584   0.839
 3407SOL    HW111120   2.276   4.536   0.754
 3407SOL    HW211121   2.322   4.657   0.854
 3408SOL     OW11122   4.346   2.467   3.896
 3408SOL    HW111123   4.287   2.412   3.955
 3408SOL    HW211124   4.362   2.556   3.938
 3409SOL     OW11125   3.711   6.501   0.421
 3409SOL    HW111126   3.719   6.600   0.412
 3409SOL    HW211127   3.689   6.477   0.516
 3410SOL     OW11128   5.641   6.748   2.850
 3410SOL    HW111129   5.649   6.787   2.758
 3410SOL    HW211130   5.712   6.680   2.863
 3411SOL     OW11131   0.252   2.901   0.515
 3411SOL    HW111132   0.183   2.835   0.483
 3411SOL    HW211133   0.338   2.885   0.467
 3412SOL     OW11134   5.369   3.438   1.588
 3412SOL    HW111135   5.424   3.428   1.671
 3412SOL    HW211136   5.320   3.353   1.570
 3413SOL     OW11137   6.239   1.815   6.563
 3413SOL    HW111138   6.170   1.764   6.512
 3413SOL    HW211139   6.221   1.913   6.556
 3414SOL     OW11140   3.690   2.205   5.987
 3414SOL    HW111141   3.703   2.150   5.905
 3414SOL    HW211142   3.633   2.284   5.966
 3415SOL     OW11143   1.595   2.229   4.069
 3415SOL    HW111144   1.525   2.260   4.134
 3415SOL    HW211145   1.630   2.140   4.097
 3416SOL     OW11146   6.348   0.205   0.289
 3416SOL    HW111147   6.251   0.210   0.262
 3416SOL    HW211148   6.375   0.292   0.329
 3417SOL     OW11149   0.248   6.991   2.513
 3417SOL    HW111150   0.226   6.905   2.560
 3417SOL    HW211151   0.209   6.989   2.421
 3418SOL     OW11152   3.913   5.732   3.188
 3418SOL    HW111153   3.833   5.689   3.231
 3418SOL    HW211154   3.962   5.785   3.257
 3419SOL     OW11155   3.943   5.730   5.820
 3419SOL    HW111156   3.927   5.759   5.915
 3419SOL    HW211157   3.863   5.750   5.765
 3420SOL     OW11158   4.929   2.777   3.707
 3420SOL    HW111159   4.869   2.746   3.633
 3420SOL    HW211160   4.885   2.852   3.756
 3421SOL     OW11161   5.492   1.585   3.317
 3421SOL    HW111162   5.414   1.588   3.380
 3421SOL    HW211163   5.461   1.598   3.223
 3422SOL     OW11164   2.302   0.488   6.838
 3422SOL    HW111165   2.350   0.444   6.762
 3422SOL    HW211166   2.329   0.445   6.924
 3423SOL     OW11167   0.757   4.337   5.778
 3423SOL    HW111168   0.773   4.251   5.729
 3423SOL    HW211169   0.733   4.409   5.712
 3424SOL     OW11170   3.880   0.127   1.520
 3424SOL    HW111171   3.962   0.183   1.508
 3424SOL    HW211172   3.898   0.056   1.588
 3425SOL     OW11173   4.598   4.678   1.656
 3425SOL    HW111174   4.645   4.591   1.657
 3425SOL    HW211175   4.508   4.668   1.698
 3426SOL     OW11176   5.278   3.577   0.841
 3426SOL    HW111177   5.240   3.532   0.761
 3426SOL    HW211178   5.377   3.584   0.833
 3427SOL     OW11179   1.164   2.290   2.011
 3427SOL    HW111180   1.245   2.347   1.993
 3427SOL    HW211181   1.191   2.211   2.066
 3428SOL     OW11182   5.257   4.732   5.752
 3428SOL    HW111183   5.193   4.808   5.759
 3428SOL    HW211184   5.344   4.757   5.794
 3429SOL     OW11185   0.653   0.932   1.186
 3429SOL    HW111186   0.722   1.001   1.208
 3429SOL    HW211187   0.645   0.922   1.087
 3430SOL     OW11188   2.047   4.725   5.850
 3430SOL    HW111189   1.986   4.801   5.824
 3430SOL    HW211190   2.142   4.754   5.838
 3431SOL     OW11191   1.991   6.893   2.127
 3431SOL    HW111192   1.995   6.879   2.226
 3431SOL    HW211193   1.961   6.809   2.083
 3432SOL     OW11194   2.395   4.525   6.520
 3432SOL    HW111195   2.422   4.575   6.438
 3432SOL    HW211196   2.476   4.489   6.566
 3433SOL     OW11197   2.100   0.903   6.335
 3433SOL    HW111198   2.165   0.965   6.380
 3433SOL    HW211199   2.052   0.850   6.404
 3434SOL     OW11200   2.816   2.120   1.850
 3434SOL    HW111201   2.768   2.149   1.768
 3434SOL    HW211202   2.854   2.200   1.897
 3435SOL     OW11203   2.494   0.757   0.471
 3435SOL    HW111204   2.567   0.741   0.405
 3435SOL    HW211205   2.492   0.855   0.494
 3436SOL     OW11206   4.139   5.194   6.948
 3436SOL    HW111207   4.196   5.262   6.996
 3436SOL    HW211208   4.053   5.183   6.998
 3437SOL     OW11209   1.533   6.721   5.696
 3437SOL    HW111210   1.596   6.645   5.708
 3437SOL    HW211211   1.451   6.705   5.750
 3438SOL     OW11212   0.633   3.593   1.664
 3438SOL    HW111213   0.591   3.512   1.623
 3438SOL    HW211214   0.659   3.573   1.759
 3439SOL     OW11215   2.539   6.109   3.289
 3439SOL    HW111216   2.611   6.086   3.354
 3439SOL    HW211217   2.568   6.187   3.233
 3440SOL     OW11218   4.014   3.340   4.595
 3440SOL    HW111219   4.059   3.298   4.674
 3440SOL    HW211220   4.031   3.438   4.595
 3441SOL     OW11221   0.006   6.378   6.403
 3441SOL    HW111222   6.967   6.306   6.421
 3441SOL    HW211223   0.094   6.335   6.380
 3442SOL     OW11224   3.444   3.904   1.245
 3442SOL    HW111225   3.384   3.930   1.320
 3442SOL    HW211226   3.463   3.984   1.188
 3443SOL     OW11227   3.508   5.756   2.716
 3443SOL    HW111228   3.490   5.850   2.686
 3443SOL    HW211229   3.437   5.727   2.781
 3444SOL     OW11230   5.395   4.438   1.591
 3444SOL    HW111231   5.440   4.505   1.532
 3444SOL    HW211232   5.304   4.470   1.615
 3445SOL     OW11233   6.783   4.982   4.105
 3445SOL    HW111234   6.752   5.077   4.114
 3445SOL    HW211235   6.877   4.974   4.136
 3446SOL     OW11236   5.690   0.479   1.590
 3446SOL    HW111237   5.783   0.454   1.617
 3446SOL    HW211238   5.631   0.399   1.594
 3447SOL     OW11239   5.492   0.374   0.275
 3447SOL    HW111240   5.423   0.379   0.346
 3447SOL    HW211241   5.449   0.350   0.188
 3448SOL     OW11242   1.908   6.617   5.560
 3448SOL    HW111243   2.005   6.611   5.539
 3448SOL    HW211244   1.866   6.689   5.504
 3449SOL     OW11245   5.551   5.226   5.337
 3449SOL    HW111246   5.567   5.159   5.409
 3449SOL    HW211247   5.593   5.313   5.363
 3450SOL     OW11248   1.571   0.700   6.305
 3450SOL    HW111249   1.559   0.625   6.370
 3450SOL    HW211250   1.587   0.785   6.356
 3451SOL     OW11251   1.490   5.671   0.584
 3451SOL    HW111252   1.498   5.573   0.600
 3451SOL    HW211253   1.485   5.719   0.672
 3452SOL     OW11254   5.676   0.663   6.163
 3452SOL    HW111255   5.594   0.702   6.121
 3452SOL    HW211256   5.666   0.664   6.263
 3453SOL     OW11257   4.975   6.607   6.052
 3453SOL    HW111258   5.007   6.677   5.989
 3453SOL    HW211259   5.021   6.521   6.033
 3454SOL     OW11260   1.584   2.958   3.300
 3454SOL    HW111261   1.652   2.889   3.279
 3454SOL    HW211262   1.581   2.973   3.399
 3455SOL     OW11263   2.017   2.345   4.559
 3455SOL    HW111264   2.052   2.331   4.652
 3455SOL    HW211265   2.084   2.397   4.506
 3456SOL     OW11266   4.457   4.621   2.032
 3456SOL    HW111267   4.464   4.678   2.114
 3456SOL    HW211268   4.516   4.541   2.041
 3457SOL     OW11269   3.586   5.230   5.063
 3457SOL    HW111270   3.616   5.227   5.159
 3457SOL    HW211271   3.656   5.186   5.006
 3458SOL     OW11272   4.172   2.264   2.325
 3458SOL    HW111273   4.244   2.333   2.316
 3458SOL    HW211274   4.156   2.220   2.237
 3459SOL     OW11275   4.763   1.735   3.425
 3459SOL    HW111276   4.704   1.679   3.366
 3459SOL    HW211277   4.736   1.831   3.417
 3460SOL     OW11278   3.439   1.735   5.568
 3460SOL    HW111279   3.459   1.771   5.477
 3460SOL    HW211280   3.520   1.689   5.605
 3461SOL     OW11281   5.399   4.982   6.960
 3461SOL    HW111282   5.385   5.070   6.914
 3461SOL    HW211283   5.416   4.998   0.029
 3462SOL     OW11284   1.552   3.828   6.072
 3462SOL    HW111285   1.566   3.894   5.998
 3462SOL    HW211286   1.593   3.740   6.047
 3463SOL     OW11287   0.410   3.769   1.017
 3463SOL    HW111288   0.377   3.751   1.110
 3463SOL    HW211289   0.468   3.694   0.987
 3464SOL     OW11290   0.110   4.733   6.365
 3464SOL    HW111291   0.097   4.673   6.285
 3464SOL    HW211292   0.075   4.824   6.344
 3465SOL     OW11293   2.030   2.024   1.719
 3465SOL    HW111294   2.082   1.974   1.788
 3465SOL    HW211295   1.978   1.959   1.663
 3466SOL     OW11296   6.775   5.649   5.974
 3466SOL    HW111297   6.763   5.553   5.998
 3466SOL    HW211298   6.856   5.685   6.022
 3467SOL     OW11299   2.459   2.116   6.507
 3467SOL    HW111300   2.401   2.061   6.448
 3467SOL    HW211301   2.424   2.209   6.512
 3468SOL     OW11302   2.709   5.688   3.161
 3468SOL    HW111303   2.672   5.601   3.194
 3468SOL    HW211304   2.637   5.739   3.114
 3469SOL     OW11305   6.549   2.516   4.408
 3469SOL    HW111306   6.508   2.523   4.318
 3469SOL    HW211307   6.479   2.492   4.475
 3470SOL     OW11308   0.677   5.490   1.310
 3470SOL    HW111309   0.691   5.497   1.211
 3470SOL    HW211310   0.760   5.518   1.358
 3471SOL     OW11311   4.064   5.455   5.422
 3471SOL    HW111312   4.013   5.493   5.345
 3471SOL    HW211313   4.032   5.498   5.507
 3472SOL     OW11314   2.071   1.299   4.227
 3472SOL    HW111315   2.153   1.260   4.268
 3472SOL    HW211316   2.089   1.394   4.201
 3473SOL     OW11317   5.513   1.871   5.711
 3473SOL    HW111318   5.607   1.836   5.711
 3473SOL    HW211319   5.497   1.921   5.796
 3474SOL     OW11320   3.003   5.085   1.955
 3474SOL    HW111321   3.093   5.073   1.997
 3474SOL    HW211322   2.950   5.001   1.967
 3475SOL     OW11323   0.665   6.556   3.794
 3475SOL    HW111324   0.607   6.588   3.869
 3475SOL    HW211325   0.751   6.522   3.830
 3476SOL     OW11326   3.762   0.698   5.003
 3476SOL    HW111327   3.856   0.729   5.014
 3476SOL    HW211328   3.723   0.740   4.921
 3477SOL     OW11329   3.008   5.511   1.003
 3477SOL    HW111330   2.978   5.605   1.017
 3477SOL    HW211331   2.941   5.463   0.947
 3478SOL     OW11332   2.459   6.085   5.814
 3478SOL    HW111333   2.520   6.152   5.770
 3478SOL    HW211334   2.401   6.132   5.881
 3479SOL     OW11335   0.666   0.206   2.661
 3479SOL    HW111336   0.567   0.203   2.648
 3479SOL    HW211337   0.701   0.112   2.671
 3480SOL     OW11338   6.939   1.514   4.221
 3480SOL    HW111339   6.875   1.460   4.276
 3480SOL    HW211340   0.005   1.489   4.245
 3481SOL     OW11341   4.113   6.984   6.386
 3481SOL    HW111342   4.145   6.998   6.292
 3481SOL    HW211343   4.032   6.925   6.385
 3482SOL     OW11344   5.811   1.421   1.328
 3482SOL    HW111345   5.900   1.376   1.336
 3482SOL    HW211346   5.802   1.489   1.401
 3483SOL     OW11347   2.641   0.282   0.958
 3483SOL    HW111348   2.634   0.187   0.988
 3483SOL    HW211349   2.570   0.301   0.890
 3484SOL     OW11350   3.019   3.207   3.175
 3484SOL    HW111351   3.083   3.168   3.240
 3484SOL    HW211352   3.060   3.208   3.084
 3485SOL     OW11353   1.819   1.348   4.861
 3485SOL    HW111354   1.738   1.305   4.901
 3485SOL    HW211355   1.888   1.361   4.932
 3486SOL     OW11356   3.937   1.415   2.027
 3486SOL    HW111357   3.868   1.371   1.971
 3486SOL    HW211358   3.906   1.420   2.121
 3487SOL     OW11359   5.854   2.148   6.450
 3487SOL    HW111360   5.834   2.217   6.381
 3487SOL    HW211361   5.769   2.114   6.489
 3488SOL     OW11362   6.635   3.324   3.633
 3488SOL    HW111363   6.655   3.227   3.618
 3488SOL    HW211364   6.542   3.344   3.602
 3489SOL     OW11365   3.183   6.647   0.464
 3489SOL    HW111366   3.220   6.734   0.434
 3489SOL    HW211367   3.242   6.608   0.535
 3490SOL     OW11368   4.797   4.095   0.507
 3490SOL    HW111369   4.821   4.003   0.538
 3490SOL    HW211370   4.760   4.091   0.415
 3491SOL     OW11371   6.988   3.137   5.459
 3491SOL    HW111372   6.956   3.062   5.517
 3491SOL    HW211373   6.930   3.144   5.378
 3492SOL     OW11374   1.007   5.568   6.837
 3492SOL    HW111375   0.938   5.512   6.884
 3492SOL    HW211376   1.091   5.571   6.892
 3493SOL     OW11377   6.076   4.878   0.794
 3493SOL    HW111378   6.154   4.939   0.810
 3493SOL    HW211379   6.092   4.823   0.712
 3494SOL     OW11380   3.763   6.927   0.916
 3494SOL    HW111381   3.763   6.830   0.888
 3494SOL    HW211382   3.849   6.969   0.888
 3495SOL     OW11383   4.021   4.778   1.956
 3495SOL    HW111384   3.946   4.827   2.000
 3495SOL    HW211385   3.984   4.714   1.889
 3496SOL     OW11386   1.239   2.639   1.496
 3496SOL    HW111387   1.156   2.600   1.456
 3496SOL    HW211388   1.214   2.709   1.563
 3497SOL     OW11389   4.382   0.698   3.373
 3497SOL    HW111390   4.445   0.664   3.302
 3497SOL    HW211391   4.430   0.766   3.429
 3498SOL     OW11392   2.913   1.664   1.114
 3498SOL    HW111393   2.961   1.651   1.027
 3498SOL    HW211394   2.936   1.754   1.152
 3499SOL     OW11395   6.854   3.479   4.208
 3499SOL    HW111396   6.767   3.453   4.250
 3499SOL    HW211397   6.848   3.571   4.170
 3500SOL     OW11398   6.428   4.413   6.037
 3500SOL    HW111399   6.466   4.395   6.128
 3500SOL    HW211400   6.332   4.385   6.034
 3501SOL     OW11401   0.751   4.675   5.271
 3501SOL    HW111402   0.770   4.743   5.200
 3501SOL    HW211403   0.833   4.664   5.328
 3502SOL     OW11404   0.393   2.087   1.667
 3502SOL    HW111405   0.385   2.003   1.721
 3502SOL    HW211406   0.414   2.064   1.572
 3503SOL     OW11407   4.957   5.924   5.319
 3503SOL    HW111408   4.873   5.979   5.326
 3503SOL    HW211409   5.026   5.975   5.268
 3504SOL     OW11410   2.707   3.722   1.413
 3504SOL    HW111411   2.696   3.795   1.345
 3504SOL    HW211412   2.804   3.705   1.428
 3505SOL     OW11413   5.055   5.916   4.953
 3505SOL    HW111414   4.984   5.947   4.890
 3505SOL    HW211415   5.142   5.909   4.904
 3506SOL     OW11416   4.111   5.670   4.714
 3506SOL    HW111417   4.073   5.613   4.642
 3506SOL    HW211418   4.069   5.761   4.711
 3507SOL     OW11419   1.196   0.749   6.369
 3507SOL    HW111420   1.251   0.790   6.442
 3507SOL    HW211421   1.180   0.817   6.298
 3508SOL     OW11422   5.085   2.362   0.162
 3508SOL    HW111423   5.160   2.297   0.175
 3508SOL    HW211424   5.006   2.314   0.124
 3509SOL     OW11425   6.030   6.195   6.931
 3509SOL    HW111426   6.060   6.282   6.971
 3509SOL    HW211427   6.102   6.159   6.871
 3510SOL     OW11428   1.545   2.335   1.522
 3510SOL    HW111429   1.493   2.416   1.548
 3510SOL    HW211430   1.639   2.344   1.557
 3511SOL     OW11431   1.657   3.348   7.019
 3511SOL    HW111432   1.564   3.311   7.018
 3511SOL    HW211433   1.720   3.279   0.030
 3512SOL     OW11434   1.181   3.538   0.322
 3512SOL    HW111435   1.201   3.628   0.285
 3512SOL    HW211436   1.258   3.476   0.304
 3513SOL     OW11437   6.828   4.108   1.059
 3513SOL    HW111438   6.779   4.028   1.025
 3513SOL    HW211439   6.916   4.117   1.011
 3514SOL     OW11440   0.526   6.545   1.409
 3514SOL    HW111441   0.428   6.558   1.427
 3514SOL    HW211442   0.563   6.629   1.368
 3515SOL     OW11443   3.354   5.981   2.639
 3515SOL    HW111444   3.283   5.929   2.687
 3515SOL    HW211445   3.311   6.035   2.566
 3516SOL     OW11446   3.399   0.408   0.552
 3516SOL    HW111447   3.356   0.369   0.633
 3516SOL    HW211448   3.370   0.504   0.543
 3517SOL     OW11449   0.561   1.525   0.436
 3517SOL    HW111450   0.536   1.496   0.344
 3517SOL    HW211451   0.589   1.446   0.490
 3518SOL     OW11452   4.854   3.945   6.405
 3518SOL    HW111453   4.942   3.899   6.394
 3518SOL    HW211454   4.780   3.885   6.372
 3519SOL     OW11455   0.844   6.373   6.634
 3519SOL    HW111456   0.905   6.372   6.713
 3519SOL    HW211457   0.752   6.348   6.663
 3520SOL     OW11458   4.091   4.667   1.117
 3520SOL    HW111459   4.152   4.734   1.073
 3520SOL    HW211460   4.047   4.612   1.047
 3521SOL     OW11461   5.521   2.892   1.699
 3521SOL    HW111462   5.423   2.877   1.706
 3521SOL    HW211463   5.568   2.804   1.689
 3522SOL     OW11464   2.631   5.140   2.003
 3522SOL    HW111465   2.673   5.209   2.063
 3522SOL    HW211466   2.652   5.049   2.038
 3523SOL     OW11467   3.106   4.750   5.218
 3523SOL    HW111468   3.048   4.669   5.210
 3523SOL    HW211469   3.112   4.795   5.129
 3524SOL     OW11470   2.801   0.518   0.968
 3524SOL    HW111471   2.733   0.451   0.939
 3524SOL    HW211472   2.874   0.472   1.019
 3525SOL     OW11473   0.315   2.950   1.820
 3525SOL    HW111474   0.335   2.853   1.829
 3525SOL    HW211475   0.270   2.983   1.903
 3526SOL     OW11476   0.959   0.644   3.177
 3526SOL    HW111477   0.898   0.588   3.122
 3526SOL    HW211478   0.905   0.706   3.234
 3527SOL     OW11479   5.130   2.585   6.373
 3527SOL    HW111480   5.076   2.642   6.312
 3527SOL    HW211481   5.145   2.634   6.459
 3528SOL     OW11482   0.788   5.839   2.703
 3528SOL    HW111483   0.797   5.878   2.795
 3528SOL    HW211484   0.731   5.756   2.707
 3529SOL     OW11485   4.461   6.829   5.580
 3529SOL    HW111486   4.438   6.841   5.484
 3529SOL    HW211487   4.525   6.900   5.608
 3530SOL     OW11488   2.806   5.913   2.452
 3530SOL    HW111489   2.859   5.974   2.510
 3530SOL    HW211490   2.859   5.829   2.435
 3531SOL     OW11491   5.312   4.087   0.294
 3531SOL    HW111492   5.301   3.988   0.288
 3531SOL    HW211493   5.252   4.132   0.227
 3532SOL     OW11494   2.538   0.878   7.015
 3532SOL    HW111495   2.503   0.787   0.013
 3532SOL    HW211496   2.565   0.877   6.919
 3533SOL     OW11497   0.901   1.969   3.052
 3533SOL    HW111498   0.869   1.982   2.958
 3533SOL    HW211499   0.872   2.047   3.108
 3534SOL     OW11500   6.070   1.492   5.453
 3534SOL    HW111501   5.976   1.462   5.439
 3534SOL    HW211502   6.096   1.556   5.380
 3535SOL     OW11503   6.587   5.295   6.640
 3535SOL    HW111504   6.496   5.284   6.680
 3535SOL    HW211505   6.650   5.331   6.709
 3536SOL     OW11506   1.591   3.141   3.112
 3536SOL    HW111507   1.673   3.194   3.134
 3536SOL    HW211508   1.574   3.075   3.186
 3537SOL     OW11509   2.573   5.781   1.019
 3537SOL    HW111510   2.576   5.757   1.116
 3537SOL    HW211511   2.638   5.724   0.968
 3538SOL     OW11512   3.015   6.732   3.278
 3538SOL    HW111513   3.114   6.717   3.278
 3538SOL    HW211514   2.992   6.803   3.345
 3539SOL     OW11515   5.498   4.154   5.815
 3539SOL    HW111516   5.461   4.061   5.811
 3539SOL    HW211517   5.452   4.212   5.749
 3540SOL     OW11518   2.032   3.322   6.931
 3540SOL    HW111519   2.086   3.338   6.848
 3540SOL    HW211520   2.092   3.315   7.010
 3541SOL     OW11521   2.643   3.121   0.920
 3541SOL    HW111522   2.552   3.156   0.942
 3541SOL    HW211523   2.646   3.096   0.823
 3542SOL     OW11524   5.986   2.977   6.928
 3542SOL    HW111525   6.064   2.965   6.990
 3542SOL    HW211526   5.972   2.893   6.876
 3543SOL     OW11527   1.832   3.440   3.099
 3543SOL    HW111528   1.921   3.485   3.115
 3543SOL    HW211529   1.761   3.510   3.088
 3544SOL     OW11530   3.099   4.080   6.758
 3544SOL    HW111531   3.043   4.117   6.683
 3544SOL    HW211532   3.039   4.050   6.832
 3545SOL     OW11533   3.384   5.236   0.346
 3545SOL    HW111534   3.412   5.305   0.413
 3545SOL    HW211535   3.404   5.145   0.381
 3546SOL     OW11536   6.609   3.879   3.317
 3546SOL    HW111537   6.580   3.956   3.260
 3546SOL    HW211538   6.694   3.841   3.281
 3547SOL     OW11539   6.861   3.472   5.112
 3547SOL    HW111540   6.916   3.524   5.046
 3547SOL    HW211541   6.915   3.456   5.194
 3548SOL     OW11542   4.630   1.720   6.174
 3548SOL    HW111543   4.532   1.710   6.152
 3548SOL    HW211544   4.671   1.786   6.111
 3549SOL     OW11545   1.975   6.013   6.452
 3549SOL    HW111546   1.991   5.966   6.365
 3549SOL    HW211547   1.913   5.958   6.508
 3550SOL     OW11548   4.676   2.001   5.003
 3550SOL    HW111549   4.755   2.057   5.027
 3550SOL    HW211550   4.702   1.905   5.003
 3551SOL     OW11551   3.880   1.962   5.518
 3551SOL    HW111552   3.974   1.993   5.534
 3551SOL    HW211553   3.846   2.003   5.434
 3552SOL     OW11554   6.468   5.805   1.168
 3552SOL    HW111555   6.464   5.865   1.248
 3552SOL    HW211556   6.519   5.722   1.190
 3553SOL     OW11557   3.689   6.414   5.948
 3553SOL    HW111558   3.771   6.443   5.898
 3553SOL    HW211559   3.671   6.479   6.022
 3554SOL     OW11560   4.072   3.767   1.012
 3554SOL    HW111561   4.088   3.851   1.064
 3554SOL    HW211562   3.973   3.755   0.998
 3555SOL     OW11563   1.388   2.339   4.207
 3555SOL    HW111564   1.325   2.297   4.272
 3555SOL    HW211565   1.337   2.374   4.129
 3556SOL     OW11566   3.761   1.261   4.819
 3556SOL    HW111567   3.747   1.200   4.741
 3556SOL    HW211568   3.677   1.268   4.872
 3557SOL     OW11569   0.288   0.650   2.867
 3557SOL    HW111570   0.227   0.584   2.911
 3557SOL    HW211571   0.348   0.601   2.803
 3558SOL     OW11572   2.405   6.264   0.506
 3558SOL    HW111573   2.436   6.197   0.440
 3558SOL    HW211574   2.475   6.335   0.519
 3559SOL     OW11575   3.402   6.297   4.360
 3559SOL    HW111576   3.303   6.312   4.369
 3559SOL    HW211577   3.440   6.272   4.449
 3560SOL     OW11578   1.794   4.857   4.789
 3560SOL    HW111579   1.805   4.777   4.849
 3560SOL    HW211580   1.882   4.902   4.778
 3561SOL     OW11581   5.745   4.374   4.967
 3561SOL    HW111582   5.710   4.426   4.889
 3561SOL    HW211583   5.715   4.417   5.052
 3562SOL     OW11584   2.596   1.542   4.712
 3562SOL    HW111585   2.694   1.522   4.708
 3562SOL    HW211586   2.545   1.457   4.721
 3563SOL     OW11587   6.244   2.291   5.856
 3563SOL    HW111588   6.271   2.195   5.846
 3563SOL    HW211589   6.203   2.323   5.770
 3564SOL     OW11590   0.462   4.712   2.982
 3564SOL    HW111591   0.487   4.776   3.054
 3564SOL    HW211592   0.374   4.671   3.003
 3565SOL     OW11593   3.192   4.976   3.155
 3565SOL    HW111594   3.133   4.920   3.213
 3565SOL    HW211595   3.136   5.041   3.104
 3566SOL     OW11596   7.024   1.081   5.036
 3566SOL    HW111597   7.019   1.099   5.134
 3566SOL    HW211598   0.041   0.993   5.021
 3567SOL     OW11599   0.455   3.722   6.346
 3567SOL    HW111600   0.448   3.646   6.411
 3567SOL    HW211601   0.519   3.790   6.381
 3568SOL     OW11602   6.824   4.343   5.622
 3568SOL    HW111603   6.726   4.328   5.612
 3568SOL    HW211604   6.871   4.255   5.626
 3569SOL     OW11605   2.594   2.017   5.929
 3569SOL    HW111606   2.531   2.025   6.006
 3569SOL    HW211607   2.670   1.957   5.954
 3570SOL     OW11608   5.468   0.382   5.182
 3570SOL    HW111609   5.399   0.449   5.210
 3570SOL    HW211610   5.553   0.398   5.234
 3571SOL     OW11611   0.056   6.044   0.037
 3571SOL    HW111612   0.027   6.108   6.994
 3571SOL    HW211613   0.152   6.019   0.022
 3572SOL     OW11614   5.446   3.958   3.925
 3572SOL    HW111615   5.410   3.938   3.834
 3572SOL    HW211616   5.388   3.915   3.994
 3573SOL     OW11617   0.747   4.088   4.435
 3573SOL    HW111618   0.695   4.174   4.442
 3573SOL    HW211619   0.701   4.027   4.370
 3574SOL     OW11620   0.640   4.704   0.321
 3574SOL    HW111621   0.697   4.771   0.273
 3574SOL    HW211622   0.555   4.690   0.270
 3575SOL     OW11623   6.328   4.928   3.158
 3575SOL    HW111624   6.412   4.981   3.157
 3575SOL    HW211625   6.289   4.923   3.066
 3576SOL     OW11626   1.379   1.562   5.600
 3576SOL    HW111627   1.431   1.628   5.546
 3576SOL    HW211628   1.374   1.593   5.695
 3577SOL     OW11629   1.391   2.418   6.441
 3577SOL    HW111630   1.337   2.500   6.423
 3577SOL    HW211631   1.461   2.439   6.509
 3578SOL     OW11632   4.213   3.285   6.917
 3578SOL    HW111633   4.126   3.237   6.910
 3578SOL    HW211634   4.205   3.360   6.983
 3579SOL     OW11635   6.523   3.997   5.064
 3579SOL    HW111636   6.461   3.946   5.124
 3579SOL    HW211637   6.549   3.939   4.986
 3580SOL     OW11638   5.982   1.993   1.300
 3580SOL    HW111639   6.080   1.980   1.292
 3580SOL    HW211640   5.934   1.914   1.260
 3581SOL     OW11641   6.951   0.391   3.400
 3581SOL    HW111642   6.871   0.361   3.348
 3581SOL    HW211643   6.922   0.456   3.470
 3582SOL     OW11644   0.374   2.107   6.012
 3582SOL    HW111645   0.428   2.134   6.093
 3582SOL    HW211646   0.324   2.023   6.032
 3583SOL     OW11647   0.760   4.389   0.139
 3583SOL    HW111648   0.850   4.352   0.159
 3583SOL    HW211649   0.706   4.321   0.088
 3584SOL     OW11650   6.091   6.310   6.337
 3584SOL    HW111651   6.040   6.224   6.343
 3584SOL    HW211652   6.050   6.378   6.398
 3585SOL     OW11653   3.063   5.080   5.114
 3585SOL    HW111654   2.989   5.027   5.072
 3585SOL    HW211655   3.151   5.037   5.094
 3586SOL     OW11656   6.363   3.133   5.675
 3586SOL    HW111657   6.265   3.146   5.662
 3586SOL    HW211658   6.402   3.215   5.717
 3587SOL     OW11659   3.125   6.084   0.684
 3587SOL    HW111660   3.149   6.147   0.610
 3587SOL    HW211661   3.208   6.059   0.735
 3588SOL     OW11662   1.370   2.273   5.745
 3588SOL    HW111663   1.311   2.314   5.815
 3588SOL    HW211664   1.315   2.222   5.680
 3589SOL     OW11665   3.190   0.798   4.669
 3589SOL    HW111666   3.126   0.847   4.609
 3589SOL    HW211667   3.246   0.863   4.719
 3590SOL     OW11668   0.403   4.424   6.362
 3590SOL    HW111669   0.445   4.486   6.296
 3590SOL    HW211670   0.327   4.375   6.319
 3591SOL     OW11671   5.736   3.081   7.022
 3591SOL    HW111672   5.684   3.004   6.985
 3591SOL    HW211673   5.827   3.083   6.981
 3592SOL     OW11674   5.416   3.415   3.320
 3592SOL    HW111675   5.343   3.346   3.320
 3592SOL    HW211676   5.455   3.423   3.411
 3593SOL     OW11677   2.676   6.421   4.262
 3593SOL    HW111678   2.589   6.471   4.260
 3593SOL    HW211679   2.680   6.359   4.184
 3594SOL     OW11680   3.865   1.024   3.135
 3594SOL    HW111681   3.922   1.005   3.054
 3594SOL    HW211682   3.830   1.117   3.130
 3595SOL     OW11683   2.365   5.796   5.243
 3595SOL    HW111684   2.283   5.848   5.219
 3595SOL    HW211685   2.444   5.834   5.194
 3596SOL     OW11686   6.402   1.329   2.412
 3596SOL    HW111687   6.332   1.372   2.469
 3596SOL    HW211688   6.358   1.267   2.346
 3597SOL     OW11689   3.072   5.991   4.643
 3597SOL    HW111690   2.976   5.975   4.669
 3597SOL    HW211691   3.120   6.035   4.719
 3598SOL     OW11692   1.074   0.672   5.576
 3598SOL    HW111693   1.109   0.766   5.565
 3598SOL    HW211694   0.977   0.675   5.599
 3599SOL     OW11695   0.907   2.195   5.493
 3599SOL    HW111696   0.931   2.134   5.417
 3599SOL    HW211697   0.881   2.141   5.573
 3600SOL     OW11698   6.845   3.095   0.446
 3600SOL    HW111699   6.916   3.085   0.376
 3600SOL    HW211700   6.802   3.185   0.437
 3601SOL     OW11701   0.013   3.953   0.604
 3601SOL    HW111702   0.052   4.025   0.546
 3601SOL    HW211703   0.084   3.885   0.623
 3602SOL     OW11704   2.097   1.194   0.832
 3602SOL    HW111705   2.192   1.164   0.840
 3602SOL    HW211706   2.042   1.151   0.903
 3603SOL     OW11707   3.815   5.829   4.026
 3603SOL    HW111708   3.868   5.833   4.111
 3603SOL    HW211709   3.868   5.782   3.955
 3604SOL     OW11710   6.661   3.722   3.675
 3604SOL    HW111711   6.674   3.749   3.580
 3604SOL    HW211712   6.729   3.652   3.699
 3605SOL     OW11713   6.117   4.580   6.144
 3605SOL    HW111714   6.046   4.576   6.215
 3605SOL    HW211715   6.152   4.487   6.127
 3606SOL     OW11716   6.666   4.824   6.116
 3606SOL    HW111717   6.724   4.743   6.105
 3606SOL    HW211718   6.626   4.848   6.027
 3607SOL     OW11719   4.983   0.068   0.405
 3607SOL    HW111720   5.036   0.139   0.360
 3607SOL    HW211721   4.965   0.093   0.500
 3608SOL     OW11722   6.599   1.813   2.100
 3608SOL    HW111723   6.688   1.857   2.113
 3608SOL    HW211724   6.535   1.879   2.061
 3609SOL     OW11725   6.816   1.106   4.332
 3609SOL    HW111726   6.737   1.085   4.274
 3609SOL    HW211727   6.789   1.105   4.428
 3610SOL     OW11728   0.977   0.628   5.269
 3610SOL    HW111729   0.976   0.722   5.234
 3610SOL    HW211730   0.961   0.629   5.367
 3611SOL     OW11731   3.781   4.961   5.193
 3611SOL    HW111732   3.788   5.051   5.236
 3611SOL    HW211733   3.685   4.933   5.189
 3612SOL     OW11734   0.213   6.953   6.079
 3612SOL    HW111735   0.284   6.917   6.139
 3612SOL    HW211736   0.170   0.004   6.121
 3613SOL     OW11737   5.493   4.829   1.046
 3613SOL    HW111738   5.567   4.764   1.027
 3613SOL    HW211739   5.407   4.780   1.057
 3614SOL     OW11740   3.798   3.240   3.879
 3614SOL    HW111741   3.711   3.277   3.911
 3614SOL    HW211742   3.790   3.212   3.784
 3615SOL     OW11743   5.752   6.368   6.185
 3615SOL    HW111744   5.827   6.434   6.191
 3615SOL    HW211745   5.755   6.307   6.265
 3616SOL     OW11746   6.671   1.999   6.256
 3616SOL    HW111747   6.726   2.058   6.315
 3616SOL    HW211748   6.617   1.936   6.312
 3617SOL     OW11749   5.707   1.829   6.161
 3617SOL    HW111750   5.638   1.829   6.234
 3617SOL    HW211751   5.764   1.911   6.170
 3618SOL     OW11752   1.681   1.875   5.158
 3618SOL    HW111753   1.735   1.852   5.240
 3618SOL    HW211754   1.704   1.812   5.084
 3619SOL     OW11755   6.621   2.061   3.766
 3619SOL    HW111756   6.528   2.054   3.731
 3619SOL    HW211757   6.670   2.133   3.718
 3620SOL     OW11758   6.097   6.222   6.035
 3620SOL    HW111759   6.007   6.219   5.990
 3620SOL    HW211760   6.104   6.307   6.088
 3621SOL     OW11761   2.780   2.563   6.352
 3621SOL    HW111762   2.874   2.553   6.318
 3621SOL    HW211763   2.720   2.499   6.305
 3622SOL     OW11764   2.223   2.143   3.216
 3622SOL    HW111765   2.290   2.071   3.231
 3622SOL    HW211766   2.171   2.123   3.133
 3623SOL     OW11767   5.926   5.660   3.944
 3623SOL    HW111768   6.003   5.720   3.926
 3623SOL    HW211769   5.956   5.564   3.938
 3624SOL     OW11770   2.515   6.219   2.357
 3624SOL    HW111771   2.518   6.319   2.353
 3624SOL    HW211772   2.500   6.182   2.265
 3625SOL     OW11773   6.172   3.283   6.775
 3625SOL    HW111774   6.082   3.240   6.774
 3625SOL    HW211775   6.161   3.382   6.763
 3626SOL     OW11776   1.489   4.110   5.621
 3626SOL    HW111777   1.535   4.090   5.534
 3626SOL    HW211778   1.556   4.105   5.695
 3627SOL     OW11779   4.056   3.229   3.323
 3627SOL    HW111780   3.958   3.232   3.304
 3627SOL    HW211781   4.073   3.258   3.417
 3628SOL     OW11782   2.241   6.572   1.830
 3628SOL    HW111783   2.187   6.632   1.771
 3628SOL    HW211784   2.326   6.619   1.856
 3629SOL     OW11785   6.287   2.240   4.907
 3629SOL    HW111786   6.351   2.164   4.894
 3629SOL    HW211787   6.200   2.205   4.944
 3630SOL     OW11788   5.624   2.959   3.898
 3630SOL    HW111789   5.614   3.034   3.963
 3630SOL    HW211790   5.716   2.920   3.907
 3631SOL     OW11791   1.913   0.200   3.967
 3631SOL    HW111792   1.907   0.299   3.977
 3631SOL    HW211793   1.857   0.171   3.890
 3632SOL     OW11794   5.313   0.603   0.948
 3632SOL    HW111795   5.242   0.542   0.982
 3632SOL    HW211796   5.272   0.689   0.918
 3633SOL     OW11797   2.947   2.197   5.967
 3633SOL    HW111798   2.934   2.152   6.055
 3633SOL    HW211799   2.871   2.261   5.951
 3634SOL     OW11800   0.811   5.840   5.142
 3634SOL    HW111801   0.905   5.839   5.109
 3634SOL    HW211802   0.757   5.775   5.089
 3635SOL     OW11803   2.896   0.449   5.411
 3635SOL    HW111804   2.958   0.406   5.345
 3635SOL    HW211805   2.871   0.540   5.377
 3636SOL     OW11806   1.246   6.178   5.881
 3636SOL    HW111807   1.188   6.148   5.957
 3636SOL    HW211808   1.235   6.115   5.804
 3637SOL     OW11809   6.481   1.661   1.171
 3637SOL    HW111810   6.424   1.616   1.240
 3637SOL    HW211811   6.424   1.691   1.094
 3638SOL     OW11812   6.848   4.934   4.525
 3638SOL    HW111813   6.808   4.896   4.608
 3638SOL    HW211814   6.899   4.862   4.477
 3639SOL     OW11815   4.073   4.010   1.172
 3639SOL    HW111816   4.030   4.094   1.207
 3639SOL    HW211817   4.164   4.000   1.211
 3640SOL     OW11818   3.440   6.805   6.890
 3640SOL    HW111819   3.533   6.773   6.906
 3640SOL    HW211820   3.416   6.873   6.960
 3641SOL     OW11821   4.734   2.502   4.777
 3641SOL    HW111822   4.699   2.589   4.813
 3641SOL    HW211823   4.832   2.510   4.758
 3642SOL     OW11824   4.983   1.465   6.087
 3642SOL    HW111825   4.903   1.467   6.148
 3642SOL    HW211826   4.952   1.455   5.993
 3643SOL     OW11827   2.530   5.668   4.932
 3643SOL    HW111828   2.481   5.753   4.911
 3643SOL    HW211829   2.464   5.597   4.958
 3644SOL     OW11830   6.974   1.238   1.470
 3644SOL    HW111831   0.032   1.196   1.498
 3644SOL    HW211832   6.937   1.293   1.545
 3645SOL     OW11833   5.872   1.034   3.825
 3645SOL    HW111834   5.918   1.120   3.805
 3645SOL    HW211835   5.841   1.034   3.920
 3646SOL     OW11836   6.707   5.155   6.444
 3646SOL    HW111837   6.676   5.194   6.530
 3646SOL    HW211838   6.640   5.090   6.410
 3647SOL     OW11839   2.068   4.006   0.815
 3647SOL    HW111840   2.050   3.928   0.755
 3647SOL    HW211841   2.161   3.999   0.852
 3648SOL     OW11842   3.350   5.703   2.943
 3648SOL    HW111843   3.415   5.644   2.990
 3648SOL    HW211844   3.376   5.799   2.957
 3649SOL     OW11845   4.787   3.040   1.601
 3649SOL    HW111846   4.715   3.058   1.668
 3649SOL    HW211847   4.800   3.122   1.545
 3650SOL     OW11848   0.123   5.585   0.124
 3650SOL    HW111849   0.187   5.636   0.181
 3650SOL    HW211850   0.112   5.630   0.036
 3651SOL     OW11851   0.501   5.336   2.822
 3651SOL    HW111852   0.432   5.335   2.750
 3651SOL    HW211853   0.588   5.301   2.786
 3652SOL     OW11854   5.593   6.198   3.109
 3652SOL    HW111855   5.575   6.193   3.207
 3652SOL    HW211856   5.669   6.139   3.086
 3653SOL     OW11857   6.447   0.644   3.557
 3653SOL    HW111858   6.475   0.658   3.462
 3653SOL    HW211859   6.474   0.723   3.612
 3654SOL     OW11860   2.021   0.083   0.203
 3654SOL    HW111861   2.068   0.017   0.143
 3654SOL    HW211862   2.080   0.103   0.281
 3655SOL     OW11863   1.088   6.868   3.748
 3655SOL    HW111864   1.080   6.903   3.841
 3655SOL    HW211865   1.018   6.799   3.732
 3656SOL     OW11866   1.457   3.284   2.069
 3656SOL    HW111867   1.436   3.346   1.993
 3656SOL    HW211868   1.515   3.209   2.037
 3657SOL     OW11869   4.889   5.859   5.949
 3657SOL    HW111870   4.929   5.944   5.985
 3657SOL    HW211871   4.943   5.781   5.980
 3658SOL     OW11872   0.982   6.067   3.483
 3658SOL    HW111873   1.004   5.975   3.450
 3658SOL    HW211874   0.915   6.060   3.557
 3659SOL     OW11875   3.319   3.297   6.031
 3659SOL    HW111876   3.276   3.329   5.948
 3659SOL    HW211877   3.359   3.206   6.015
 3660SOL     OW11878   5.090   6.661   2.141
 3660SOL    HW111879   5.077   6.593   2.213
 3660SOL    HW211880   5.023   6.647   2.068
 3661SOL     OW11881   4.761   1.855   6.433
 3661SOL    HW111882   4.709   1.874   6.517
 3661SOL    HW211883   4.710   1.790   6.377
 3662SOL     OW11884   4.054   0.878   3.756
 3662SOL    HW111885   3.956   0.869   3.741
 3662SOL    HW211886   4.080   0.974   3.749
 3663SOL     OW11887   1.861   1.403   0.439
 3663SOL    HW111888   1.838   1.500   0.433
 3663SOL    HW211889   1.844   1.370   0.532
 3664SOL     OW11890   4.953   2.402   1.108
 3664SOL    HW111891   4.915   2.477   1.054
 3664SOL    HW211892   5.052   2.406   1.105
 3665SOL     OW11893   0.408   5.613   5.510
 3665SOL    HW111894   0.357   5.657   5.437
 3665SOL    HW211895   0.457   5.683   5.563
 3666SOL     OW11896   1.810   4.289   2.656
 3666SOL    HW111897   1.895   4.307   2.704
 3666SOL    HW211898   1.830   4.240   2.571
 3667SOL     OW11899   6.333   0.500   0.695
 3667SOL    HW111900   6.371   0.441   0.766
 3667SOL    HW211901   6.367   0.594   0.708
 3668SOL     OW11902   1.730   0.401   1.763
 3668SOL    HW111903   1.821   0.423   1.800
 3668SOL    HW211904   1.731   0.414   1.664
 3669SOL     OW11905   6.437   0.953   4.697
 3669SOL    HW111906   6.410   1.011   4.773
 3669SOL    HW211907   6.376   0.875   4.691
 3670SOL     OW11908   1.949   4.289   0.585
 3670SOL    HW111909   2.033   4.272   0.534
 3670SOL    HW211910   1.934   4.214   0.649
 3671SOL     OW11911   6.466   0.297   4.138
 3671SOL    HW111912   6.554   0.344   4.125
 3671SOL    HW211913   6.475   0.231   4.211
 3672SOL     OW11914   5.600   1.525   1.189
 3672SOL    HW111915   5.527   1.457   1.182
 3672SOL    HW211916   5.678   1.485   1.237
 3673SOL     OW11917   3.473   0.253   5.858
 3673SOL    HW111918   3.414   0.292   5.788
 3673SOL    HW211919   3.535   0.324   5.893
 3674SOL     OW11920   0.570   0.581   5.655
 3674SOL    HW111921   0.502   0.602   5.726
 3674SOL    HW211922   0.522   0.555   5.571
 3675SOL     OW11923   2.153   3.085   5.334
 3675SOL    HW111924   2.251   3.103   5.345
 3675SOL    HW211925   2.140   3.006   5.274
 3676SOL     OW11926   4.409   4.925   4.648
 3676SOL    HW111927   4.470   4.854   4.615
 3676SOL    HW211928   4.326   4.883   4.684
 3677SOL     OW11929   1.028   6.401   2.942
 3677SOL    HW111930   0.990   6.357   3.023
 3677SOL    HW211931   1.045   6.331   2.872
 3678SOL     OW11932   1.005   3.589   3.865
 3678SOL    HW111933   1.098   3.625   3.855
 3678SOL    HW211934   0.972   3.610   3.957
 3679SOL     OW11935   1.436   0.639   3.517
 3679SOL    HW111936   1.392   0.549   3.512
 3679SOL    HW211937   1.383   0.705   3.463
 3680SOL     OW11938   5.556   2.463   3.506
 3680SOL    HW111939   5.560   2.383   3.446
 3680SOL    HW211940   5.498   2.443   3.585
 3681SOL     OW11941   0.672   0.540   5.057
 3681SOL    HW111942   0.600   0.601   5.022
 3681SOL    HW211943   0.631   0.455   5.088
 3682SOL     OW11944   6.139   2.478   6.611
 3682SOL    HW111945   6.153   2.531   6.527
 3682SOL    HW211946   6.215   2.494   6.673
 3683SOL     OW11947   0.271   6.901   4.246
 3683SOL    HW111948   0.342   6.845   4.288
 3683SOL    HW211949   0.183   6.880   4.287
 3684SOL     OW11950   1.618   3.640   0.002
 3684SOL    HW111951   1.655   3.675   6.944
 3684SOL    HW211952   1.637   3.542   0.009
 3685SOL     OW11953   6.375   6.346   6.363
 3685SOL    HW111954   6.418   6.348   6.453
 3685SOL    HW211955   6.278   6.324   6.373
 3686SOL     OW11956   6.283   5.431   3.579
 3686SOL    HW111957   6.316   5.363   3.513
 3686SOL    HW211958   6.265   5.517   3.531
 3687SOL     OW11959   3.389   6.223   5.484
 3687SOL    HW111960   3.411   6.230   5.582
 3687SOL    HW211961   3.442   6.290   5.433
 3688SOL     OW11962   1.246   3.813   6.804
 3688SOL    HW111963   1.336   3.852   6.788
 3688SOL    HW211964   1.249   3.714   6.788
 3689SOL     OW11965   1.397   0.387   6.482
 3689SOL    HW111966   1.464   0.440   6.535
 3689SOL    HW211967   1.309   0.434   6.485
 3690SOL     OW11968   4.306   0.340   6.614
 3690SOL    HW111969   4.262   0.414   6.562
 3690SOL    HW211970   4.270   0.339   6.707
 3691SOL     OW11971   2.445   2.404   0.170
 3691SOL    HW111972   2.501   2.403   0.253
 3691SOL    HW211973   2.366   2.464   0.184
 3692SOL     OW11974   1.197   6.050   5.016
 3692SOL    HW111975   1.190   6.112   4.938
 3692SOL    HW211976   1.134   6.079   5.088
 3693SOL     OW11977   2.022   2.760   2.514
 3693SOL    HW111978   2.072   2.844   2.537
 3693SOL    HW211979   2.084   2.682   2.520
 3694SOL     OW11980   0.871   5.636   2.946
 3694SOL    HW111981   0.861   5.735   2.950
 3694SOL    HW211982   0.860   5.605   2.852
 3695SOL     OW11983   6.922   2.801   2.529
 3695SOL    HW111984   6.828   2.814   2.497
 3695SOL    HW211985   6.954   2.711   2.501
 3696SOL     OW11986   3.438   5.879   5.110
 3696SOL    HW111987   3.432   5.904   5.207
 3696SOL    HW211988   3.400   5.787   5.098
 3697SOL     OW11989   0.160   5.923   3.683
 3697SOL    HW111990   0.171   5.854   3.611
 3697SOL    HW211991   0.156   5.878   3.772
 3698SOL     OW11992   2.964   6.258   4.791
 3698SOL    HW111993   2.928   6.275   4.883
 3698SOL    HW211994   2.910   6.186   4.747
 3699SOL     OW11995   6.614   3.596   3.037
 3699SOL    HW111996   6.703   3.551   3.047
 3699SOL    HW211997   6.542   3.527   3.037
 3700SOL     OW11998   7.011   0.291   4.532
 3700SOL    HW111999   6.924   0.339   4.522
 3700SOL    HW212000   7.002   0.199   4.495
 3701SOL     OW12001   0.641   0.695   3.692
 3701SOL    HW112002   0.599   0.785   3.680
 3701SOL    HW212003   0.716   0.702   3.758
 3702SOL     OW12004   4.385   0.340   2.308
 3702SOL    HW112005   4.292   0.332   2.272
 3702SOL    HW212006   4.413   0.253   2.349
 3703SOL     OW12007   4.592   2.824   6.617
 3703SOL    HW112008   4.564   2.807   6.522
 3703SOL    HW212009   4.541   2.903   6.652
 3704SOL     OW12010   2.964   0.351   1.431
 3704SOL    HW112011   2.960   0.313   1.339
 3704SOL    HW212012   2.902   0.299   1.491
 3705SOL     OW12013   5.360   6.274   3.667
 3705SOL    HW112014   5.449   6.252   3.626
 3705SOL    HW212015   5.288   6.221   3.623
 3706SOL     OW12016   0.837   3.419   4.612
 3706SOL    HW112017   0.812   3.478   4.534
 3706SOL    HW212018   0.928   3.382   4.597
 3707SOL     OW12019   5.981   3.667   5.208
 3707SOL    HW112020   6.007   3.639   5.300
 3707SOL    HW212021   5.891   3.630   5.186
 3708SOL     OW12022   6.364   0.787   6.390
 3708SOL    HW112023   6.280   0.762   6.437
 3708SOL    HW212024   6.367   0.887   6.379
 3709SOL     OW12025   4.109   1.000   0.384
 3709SOL    HW112026   4.066   0.940   0.317
 3709SOL    HW212027   4.058   0.998   0.470
 3710SOL     OW12028   6.612   6.071   0.427
 3710SOL    HW112029   6.701   6.053   0.386
 3710SOL    HW212030   6.542   6.071   0.356
 3711SOL     OW12031   6.993   6.534   1.982
 3711SOL    HW112032   6.998   6.436   1.966
 3711SOL    HW212033   0.057   6.572   1.984
 3712SOL     OW12034   6.655   6.199   0.094
 3712SOL    HW112035   6.567   6.236   0.066
 3712SOL    HW212036   6.695   6.257   0.165
 3713SOL     OW12037   1.528   5.871   4.280
 3713SOL    HW112038   1.544   5.960   4.238
 3713SOL    HW212039   1.500   5.884   4.375
 3714SOL     OW12040   4.781   5.664   5.490
 3714SOL    HW112041   4.702   5.710   5.531
 3714SOL    HW212042   4.843   5.733   5.453
 3715SOL     OW12043   6.117   4.236   3.751
 3715SOL    HW112044   6.087   4.144   3.779
 3715SOL    HW212045   6.038   4.291   3.725
 3716SOL     OW12046   6.256   0.071   5.314
 3716SOL    HW112047   6.323   0.145   5.305
 3716SOL    HW212048   6.296   7.014   5.280
 3717SOL     OW12049   5.736   5.301   6.461
 3717SOL    HW112050   5.757   5.399   6.468
 3717SOL    HW212051   5.654   5.289   6.405
 3718SOL     OW12052   2.260   0.124   5.589
 3718SOL    HW112053   2.341   0.165   5.547
 3718SOL    HW212054   2.251   0.158   5.683
 3719SOL     OW12055   5.531   4.415   0.872
 3719SOL    HW112056   5.567   4.403   0.780
 3719SOL    HW212057   5.504   4.325   0.908
 3720SOL     OW12058   5.949   2.419   5.686
 3720SOL    HW112059   5.953   2.516   5.713
 3720SOL    HW212060   5.854   2.387   5.693
 3721SOL     OW12061   5.410   4.204   0.957
 3721SOL    HW112062   5.380   4.111   0.938
 3721SOL    HW212063   5.365   4.238   1.040
 3722SOL     OW12064   6.736   0.074   2.835
 3722SOL    HW112065   6.640   0.046   2.841
 3722SOL    HW212066   6.776   0.041   2.750
 3723SOL     OW12067   6.117   6.277   1.592
 3723SOL    HW112068   6.189   6.222   1.549
 3723SOL    HW212069   6.112   6.367   1.547
 3724SOL     OW12070   2.073   5.273   6.893
 3724SOL    HW112071   2.140   5.202   6.872
 3724SOL    HW212072   2.032   5.254   6.983
 3725SOL     OW12073   5.308   6.175   0.125
 3725SOL    HW112074   5.333   6.087   0.086
 3725SOL    HW212075   5.360   6.191   0.209
 3726SOL     OW12076   6.525   5.074   0.661
 3726SOL    HW112077   6.459   5.041   0.729
 3726SOL    HW212078   6.586   5.140   0.705
 3727SOL     OW12079   6.798   2.830   6.063
 3727SOL    HW112080   6.742   2.749   6.045
 3727SOL    HW212081   6.755   2.885   6.134
 3728SOL     OW12082   1.544   3.891   0.106
 3728SOL    HW112083   1.582   3.802   0.084
 3728SOL    HW212084   1.593   3.962   0.056
 3729SOL     OW12085   1.602   2.169   3.461
 3729SOL    HW112086   1.574   2.263   3.476
 3729SOL    HW212087   1.593   2.117   3.546
 3730SOL     OW12088   2.662   5.399   6.433
 3730SOL    HW112089   2.723   5.397   6.354
 3730SOL    HW212090   2.713   5.373   6.515
 3731SOL     OW12091   4.365   0.098   0.785
 3731SOL    HW112092   4.443   0.123   0.728
 3731SOL    HW212093   4.392   0.026   0.849
 3732SOL     OW12094   1.542   2.600   6.803
 3732SOL    HW112095   1.554   2.552   6.716
 3732SOL    HW212096   1.524   2.534   6.875
 3733SOL     OW12097   1.228   3.154   1.570
 3733SOL    HW112098   1.195   3.094   1.496
 3733SOL    HW212099   1.208   3.112   1.658
 3734SOL     OW12100   4.260   1.607   1.712
 3734SOL    HW112101   4.338   1.653   1.668
 3734SOL    HW212102   4.209   1.674   1.767
 3735SOL     OW12103   1.865   1.591   3.752
 3735SOL    HW112104   1.935   1.529   3.716
 3735SOL    HW212105   1.823   1.641   3.676
 3736SOL     OW12106   0.132   3.370   1.412
 3736SOL    HW112107   0.037   3.377   1.382
 3736SOL    HW212108   0.169   3.281   1.386
 3737SOL     OW12109   5.113   0.199   3.043
 3737SOL    HW112110   5.038   0.246   3.090
 3737SOL    HW212111   5.186   0.179   3.109
 3738SOL     OW12112   6.888   6.311   2.596
 3738SOL    HW112113   6.818   6.354   2.539
 3738SOL    HW212114   6.946   6.253   2.539
 3739SOL     OW12115   2.332   4.841   1.633
 3739SOL    HW112116   2.239   4.863   1.663
 3739SOL    HW212117   2.391   4.921   1.645
 3740SOL     OW12118   4.525   0.220   0.203
 3740SOL    HW112119   4.609   0.174   0.174
 3740SOL    HW212120   4.548   0.303   0.255
 3741SOL     OW12121   4.712   3.295   1.490
 3741SOL    HW112122   4.714   3.374   1.428
 3741SOL    HW212123   4.626   3.294   1.541
 3742SOL     OW12124   2.356   2.196   5.972
 3742SOL    HW112125   2.339   2.253   5.892
 3742SOL    HW212126   2.277   2.137   5.989
 3743SOL     OW12127   5.661   4.466   1.218
 3743SOL    HW112128   5.651   4.367   1.213
 3743SOL    HW212129   5.678   4.503   1.126
 3744SOL     OW12130   0.578   5.657   2.742
 3744SOL    HW112131   0.528   5.575   2.773
 3744SOL    HW212132   0.533   5.738   2.779
 3745SOL     OW12133   3.585   5.478   1.998
 3745SOL    HW112134   3.606   5.574   2.017
 3745SOL    HW212135   3.618   5.454   1.907
 3746SOL     OW12136   4.446   1.649   2.528
 3746SOL    HW112137   4.450   1.727   2.591
 3746SOL    HW212138   4.453   1.681   2.434
 3747SOL     OW12139   3.604   0.089   6.080
 3747SOL    HW112140   3.704   0.084   6.078
 3747SOL    HW212141   3.571   0.131   5.995
 3748SOL     OW12142   4.961   0.794   1.872
 3748SOL    HW112143   4.914   0.711   1.844
 3748SOL    HW212144   5.038   0.811   1.810
 3749SOL     OW12145   1.425   6.549   3.906
 3749SOL    HW112146   1.450   6.472   3.847
 3749SOL    HW212147   1.409   6.630   3.849
 3750SOL     OW12148   2.048   4.291   0.208
 3750SOL    HW112149   2.101   4.277   0.292
 3750SOL    HW212150   2.084   4.372   0.160
 3751SOL     OW12151   6.389   3.605   2.277
 3751SOL    HW112152   6.389   3.691   2.225
 3751SOL    HW212153   6.295   3.577   2.294
 3752SOL     OW12154   4.745   0.725   5.874
 3752SOL    HW112155   4.743   0.715   5.973
 3752SOL    HW212156   4.838   0.750   5.845
 3753SOL     OW12157   6.543   7.022   5.145
 3753SOL    HW112158   6.479   6.954   5.181
 3753SOL    HW212159   6.597   0.032   5.220
 3754SOL     OW12160   2.609   0.695   2.149
 3754SOL    HW112161   2.511   0.690   2.129
 3754SOL    HW212162   2.637   0.614   2.199
 3755SOL     OW12163   3.380   5.634   4.935
 3755SOL    HW112164   3.370   5.700   4.861
 3755SOL    HW212165   3.477   5.618   4.953
 3756SOL     OW12166   3.359   5.480   6.457
 3756SOL    HW112167   3.290   5.407   6.455
 3756SOL    HW212168   3.449   5.440   6.474
 3757SOL     OW12169   6.389   5.386   1.788
 3757SOL    HW112170   6.437   5.454   1.733
 3757SOL    HW212171   6.445   5.361   1.867
 3758SOL     OW12172   1.602   1.179   4.874
 3758SOL    HW112173   1.613   1.087   4.913
 3758SOL    HW212174   1.558   1.172   4.785
 3759SOL     OW12175   4.548   0.798   5.187
 3759SOL    HW112176   4.602   0.729   5.236
 3759SOL    HW212177   4.503   0.857   5.254
 3760SOL     OW12178   0.584   0.835   3.213
 3760SOL    HW112179   0.545   0.884   3.135
 3760SOL    HW212180   0.629   0.900   3.274
 3761SOL     OW12181   6.716   1.150   4.717
 3761SOL    HW112182   6.754   1.212   4.785
 3761SOL    HW212183   6.702   1.060   4.758
 3762SOL     OW12184   1.558   4.316   2.078
 3762SOL    HW112185   1.585   4.278   1.989
 3762SOL    HW212186   1.473   4.272   2.108
 3763SOL     OW12187   6.557   3.996   0.553
 3763SOL    HW112188   6.641   4.006   0.607
 3763SOL    HW212189   6.546   3.900   0.525
 3764SOL     OW12190   1.965   6.931   2.850
 3764SOL    HW112191   1.985   6.971   2.761
 3764SOL    HW212192   1.866   6.937   2.868
 3765SOL     OW12193   6.165   1.678   1.297
 3765SOL    HW112194   6.174   1.607   1.227
 3765SOL    HW212195   6.068   1.697   1.313
 3766SOL     OW12196   2.033   2.074   4.642
 3766SOL    HW112197   2.109   2.027   4.595
 3766SOL    HW212198   2.018   2.162   4.599
 3767SOL     OW12199   3.370   4.203   6.453
 3767SOL    HW112200   3.359   4.143   6.374
 3767SOL    HW212201   3.287   4.256   6.466
 3768SOL     OW12202   1.047   0.913   4.777
 3768SOL    HW112203   1.053   0.826   4.826
 3768SOL    HW212204   1.134   0.962   4.785
 3769SOL     OW12205   5.838   5.905   5.304
 3769SOL    HW112206   5.757   5.959   5.283
 3769SOL    HW212207   5.840   5.823   5.246
 3770SOL     OW12208   1.141   1.130   6.893
 3770SOL    HW112209   1.116   1.226   6.876
 3770SOL    HW212210   1.223   1.107   6.840
 3771SOL     OW12211   5.831   4.203   6.583
 3771SOL    HW112212   5.748   4.164   6.544
 3771SOL    HW212213   5.816   4.225   6.679
 3772SOL     OW12214   0.868   6.992   0.711
 3772SOL    HW112215   0.833   0.057   0.699
 3772SOL    HW212216   0.914   6.962   0.628
 3773SOL     OW12217   5.721   3.510   5.814
 3773SOL    HW112218   5.761   3.434   5.764
 3773SOL    HW212219   5.771   3.524   5.900
 3774SOL     OW12220   5.718   5.330   1.915
 3774SOL    HW112221   5.664   5.360   1.994
 3774SOL    HW212222   5.658   5.315   1.837
 3775SOL     OW12223   4.003   4.794   3.750
 3775SOL    HW112224   4.060   4.813   3.670
 3775SOL    HW212225   3.907   4.795   3.723
 3776SOL     OW12226   3.869   2.824   6.271
 3776SOL    HW112227   3.873   2.764   6.192
 3776SOL    HW212228   3.774   2.852   6.286
 3777SOL     OW12229   2.644   5.947   3.702
 3777SOL    HW112230   2.646   5.860   3.653
 3777SOL    HW212231   2.716   5.947   3.772
 3778SOL     OW12232   2.167   6.348   3.588
 3778SOL    HW112233   2.086   6.304   3.627
 3778SOL    HW212234   2.180   6.318   3.494
 3779SOL     OW12235   0.289   4.875   0.839
 3779SOL    HW112236   0.327   4.795   0.886
 3779SOL    HW212237   0.240   4.847   0.757
 3780SOL     OW12238   0.086   3.263   3.651
 3780SOL    HW112239   0.013   3.200   3.675
 3780SOL    HW212240   0.087   3.339   3.716
 3781SOL     OW12241   0.577   6.892   4.108
 3781SOL    HW112242   0.637   6.969   4.131
 3781SOL    HW212243   0.537   6.855   4.192
 3782SOL     OW12244   3.624   6.566   2.556
 3782SOL    HW112245   3.675   6.639   2.510
 3782SOL    HW212246   3.620   6.585   2.654
 3783SOL     OW12247   6.314   5.145   4.361
 3783SOL    HW112248   6.402   5.115   4.324
 3783SOL    HW212249   6.329   5.192   4.448
 3784SOL     OW12250   5.445   2.508   2.425
 3784SOL    HW112251   5.349   2.500   2.452
 3784SOL    HW212252   5.479   2.599   2.449
 3785SOL     OW12253   0.957   2.998   5.242
 3785SOL    HW112254   0.982   3.050   5.160
 3785SOL    HW212255   0.903   3.056   5.303
 3786SOL     OW12256   2.124   3.401   2.534
 3786SOL    HW112257   2.105   3.491   2.574
 3786SOL    HW212258   2.214   3.370   2.565
 3787SOL     OW12259   5.241   0.227   2.790
 3787SOL    HW112260   5.188   0.257   2.710
 3787SOL    HW212261   5.181   0.220   2.869
 3788SOL     OW12262   6.002   4.872   5.082
 3788SOL    HW112263   5.984   4.896   5.177
 3788SOL    HW212264   5.971   4.946   5.022
 3789SOL     OW12265   6.994   3.728   2.687
 3789SOL    HW112266   7.006   3.822   2.721
 3789SOL    HW212267   6.899   3.714   2.661
 3790SOL     OW12268   1.384   5.257   6.515
 3790SOL    HW112269   1.408   5.209   6.430
 3790SOL    HW212270   1.322   5.332   6.494
 3791SOL     OW12271   5.188   1.980   6.921
 3791SOL    HW112272   5.130   2.033   6.860
 3791SOL    HW212273   5.214   1.894   6.878
 3792SOL     OW12274   1.331   1.564   4.373
 3792SOL    HW112275   1.307   1.624   4.297
 3792SOL    HW212276   1.324   1.615   4.459
 3793SOL     OW12277   5.550   6.697   1.422
 3793SOL    HW112278   5.628   6.725   1.366
 3793SOL    HW212279   5.549   6.751   1.507
 3794SOL     OW12280   1.778   3.148   1.744
 3794SOL    HW112281   1.846   3.220   1.734
 3794SOL    HW212282   1.703   3.165   1.681
 3795SOL     OW12283   3.105   5.169   1.146
 3795SOL    HW112284   3.135   5.230   1.072
 3795SOL    HW212285   3.050   5.222   1.211
 3796SOL     OW12286   4.129   2.028   0.961
 3796SOL    HW112287   4.171   1.965   1.026
 3796SOL    HW212288   4.151   1.999   0.868
 3797SOL     OW12289   0.895   3.980   3.382
 3797SOL    HW112290   0.964   4.052   3.390
 3797SOL    HW212291   0.809   4.019   3.349
 3798SOL     OW12292   3.244   6.626   2.234
 3798SOL    HW112293   3.149   6.604   2.259
 3798SOL    HW212294   3.294   6.652   2.317
 3799SOL     OW12295   6.953   2.486   3.774
 3799SOL    HW112296   7.010   2.441   3.706
 3799SOL    HW212297   6.876   2.532   3.728
 3800SOL     OW12298   5.522   2.231   3.916
 3800SOL    HW112299   5.425   2.210   3.928
 3800SOL    HW212300   5.536   2.330   3.922
 3801SOL     OW12301   5.448   0.054   1.623
 3801SOL    HW112302   5.394   0.010   1.552
 3801SOL    HW212303   5.432   0.008   1.711
 3802SOL     OW12304   6.946   1.416   2.527
 3802SOL    HW112305   0.004   1.442   2.484
 3802SOL    HW212306   6.923   1.481   2.599
 3803SOL     OW12307   4.100   3.635   3.871
 3803SOL    HW112308   4.083   3.572   3.795
 3803SOL    HW212309   4.043   3.609   3.948
 3804SOL     OW12310   3.567   1.729   4.384
 3804SOL    HW112311   3.638   1.664   4.410
 3804SOL    HW212312   3.605   1.797   4.322
 3805SOL     OW12313   1.927   2.701   1.625
 3805SOL    HW112314   2.023   2.689   1.601
 3805SOL    HW212315   1.876   2.618   1.600
 3806SOL     OW12316   3.610   3.697   6.542
 3806SOL    HW112317   3.704   3.712   6.572
 3806SOL    HW212318   3.590   3.757   6.464
 3807SOL     OW12319   1.957   4.295   3.738
 3807SOL    HW112320   1.866   4.255   3.749
 3807SOL    HW212321   2.020   4.225   3.702
 3808SOL     OW12322   4.567   0.614   6.328
 3808SOL    HW112323   4.647   0.655   6.284
 3808SOL    HW212324   4.489   0.676   6.321
 3809SOL     OW12325   5.664   2.304   1.917
 3809SOL    HW112326   5.666   2.402   1.895
 3809SOL    HW212327   5.570   2.271   1.912
 3810SOL     OW12328   6.736   2.720   3.542
 3810SOL    HW112329   6.639   2.744   3.550
 3810SOL    HW212330   6.776   2.770   3.466
 3811SOL     OW12331   6.946   6.122   4.376
 3811SOL    HW112332   6.974   6.200   4.320
 3811SOL    HW212333   6.857   6.088   4.344
 3812SOL     OW12334   3.240   4.836   5.957
 3812SOL    HW112335   3.276   4.924   5.924
 3812SOL    HW212336   3.147   4.824   5.922
 3813SOL     OW12337   5.920   4.087   1.150
 3813SOL    HW112338   5.945   3.995   1.180
 3813SOL    HW212339   5.827   4.108   1.179
 3814SOL     OW12340   0.349   0.201   3.912
 3814SOL    HW112341   0.425   0.250   3.868
 3814SOL    HW212342   0.288   0.164   3.841
 3815SOL     OW12343   4.387   2.372   0.982
 3815SOL    HW112344   4.342   2.461   0.973
 3815SOL    HW212345   4.476   2.383   1.025
 3816SOL     OW12346   0.826   5.607   5.392
 3816SOL    HW112347   0.903   5.554   5.355
 3816SOL    HW212348   0.740   5.560   5.370
 3817SOL     OW12349   5.091   3.452   1.851
 3817SOL    HW112350   5.160   3.392   1.811
 3817SOL    HW212351   5.007   3.446   1.798
 3818SOL     OW12352   6.930   0.838   0.867
 3818SOL    HW112353   6.981   0.752   0.876
 3818SOL    HW212354   6.946   0.877   0.776
 3819SOL     OW12355   6.209   4.207   2.456
 3819SOL    HW112356   6.157   4.264   2.518
 3819SOL    HW212357   6.265   4.265   2.396
 3820SOL     OW12358   6.238   6.379   3.378
 3820SOL    HW112359   6.326   6.425   3.365
 3820SOL    HW212360   6.253   6.281   3.387
 3821SOL     OW12361   1.206   1.414   1.795
 3821SOL    HW112362   1.171   1.343   1.855
 3821SOL    HW212363   1.130   1.454   1.743
 3822SOL     OW12364   2.273   0.028   6.363
 3822SOL    HW112365   2.290   0.003   6.268
 3822SOL    HW212366   2.273   6.974   6.420
 3823SOL     OW12367   4.421   4.028   6.647
 3823SOL    HW112368   4.468   3.960   6.591
 3823SOL    HW212369   4.338   3.987   6.686
 3824SOL     OW12370   0.583   2.370   0.582
 3824SOL    HW112371   0.506   2.419   0.539
 3824SOL    HW212372   0.578   2.273   0.556
 3825SOL     OW12373   0.898   4.073   0.790
 3825SOL    HW112374   0.961   3.996   0.774
 3825SOL    HW212375   0.934   4.132   0.862
 3826SOL     OW12376   0.202   3.670   1.692
 3826SOL    HW112377   0.164   3.579   1.706
 3826SOL    HW212378   0.279   3.665   1.629
 3827SOL     OW12379   0.814   0.516   1.568
 3827SOL    HW112380   0.873   0.526   1.488
 3827SOL    HW212381   0.786   0.421   1.577
 3828SOL     OW12382   3.766   3.632   4.595
 3828SOL    HW112383   3.758   3.721   4.640
 3828SOL    HW212384   3.858   3.595   4.609
 3829SOL     OW12385   0.706   5.246   1.692
 3829SOL    HW112386   0.797   5.250   1.651
 3829SOL    HW212387   0.637   5.245   1.619
 3830SOL     OW12388   0.581   1.280   5.802
 3830SOL    HW112389   0.627   1.215   5.742
 3830SOL    HW212390   0.611   1.265   5.896
 3831SOL     OW12391   4.505   2.439   2.614
 3831SOL    HW112392   4.469   2.475   2.700
 3831SOL    HW212393   4.454   2.358   2.587
 3832SOL     OW12394   6.973   0.595   2.517
 3832SOL    HW112395   6.947   0.588   2.613
 3832SOL    HW212396   6.972   0.691   2.489
 3833SOL     OW12397   1.031   6.190   6.417
 3833SOL    HW112398   0.974   6.246   6.478
 3833SOL    HW212399   1.121   6.233   6.408
 3834SOL     OW12400   3.858   4.379   1.077
 3834SOL    HW112401   3.779   4.437   1.058
 3834SOL    HW212402   3.933   4.403   1.015
 3835SOL     OW12403   3.865   6.270   5.492
 3835SOL    HW112404   3.951   6.219   5.501
 3835SOL    HW212405   3.877   6.362   5.528
 3836SOL     OW12406   6.955   5.009   5.953
 3836SOL    HW112407   6.864   5.005   5.913
 3836SOL    HW212408   6.974   4.924   6.002
 3837SOL     OW12409   4.596   5.182   5.515
 3837SOL    HW112410   4.536   5.103   5.502
 3837SOL    HW212411   4.540   5.265   5.522
 3838SOL     OW12412   1.046   2.575   3.547
 3838SOL    HW112413   1.129   2.630   3.554
 3838SOL    HW212414   1.064   2.483   3.580
 3839SOL     OW12415   5.005   1.655   2.705
 3839SOL    HW112416   5.100   1.663   2.675
 3839SOL    HW212417   4.944   1.690   2.634
 3840SOL     OW12418   3.335   1.916   6.832
 3840SOL    HW112419   3.347   1.841   6.767
 3840SOL    HW212420   3.424   1.943   6.868
 3841SOL     OW12421   0.904   3.836   4.233
 3841SOL    HW112422   0.872   3.874   4.320
 3841SOL    HW212423   0.828   3.831   4.168
 3842SOL     OW12424   2.394   2.804   3.415
 3842SOL    HW112425   2.317   2.796   3.478
 3842SOL    HW212426   2.422   2.900   3.409
 3843SOL     OW12427   5.242   3.328   2.305
 3843SOL    HW112428   5.305   3.294   2.236
 3843SOL    HW212429   5.175   3.389   2.263
 3844SOL     OW12430   1.488   3.471   6.203
 3844SOL    HW112431   1.449   3.505   6.117
 3844SOL    HW212432   1.484   3.543   6.272
 3845SOL     OW12433   2.462   5.398   6.100
 3845SOL    HW112434   2.548   5.348   6.112
 3845SOL    HW212435   2.455   5.470   6.170
 3846SOL     OW12436   0.826   4.167   3.683
 3846SOL    HW112437   0.846   4.071   3.701
 3846SOL    HW212438   0.742   4.193   3.732
 3847SOL     OW12439   5.226   3.115   4.330
 3847SOL    HW112440   5.186   3.077   4.247
 3847SOL    HW212441   5.153   3.139   4.394
 3848SOL     OW12442   4.862   3.960   2.577
 3848SOL    HW112443   4.874   3.921   2.668
 3848SOL    HW212444   4.935   3.929   2.516
 3849SOL     OW12445   1.341   0.963   6.038
 3849SOL    HW112446   1.312   0.891   5.974
 3849SOL    HW212447   1.295   1.048   6.014
 3850SOL     OW12448   2.936   2.951   1.722
 3850SOL    HW112449   2.837   2.938   1.724
 3850SOL    HW212450   2.982   2.867   1.749
 3851SOL     OW12451   0.046   4.902   3.685
 3851SOL    HW112452   0.132   4.952   3.681
 3851SOL    HW212453   6.998   4.964   3.668
 3852SOL     OW12454   3.595   5.919   3.720
 3852SOL    HW112455   3.689   5.934   3.689
 3852SOL    HW212456   3.570   5.991   3.785
 3853SOL     OW12457   1.069   3.299   3.384
 3853SOL    HW112458   1.005   3.374   3.403
 3853SOL    HW212459   1.036   3.215   3.427
 3854SOL     OW12460   1.096   2.440   2.760
 3854SOL    HW112461   1.077   2.454   2.663
 3854SOL    HW212462   1.133   2.348   2.774
 3855SOL     OW12463   4.478   6.321   6.413
 3855SOL    HW112464   4.455   6.223   6.418
 3855SOL    HW212465   4.413   6.368   6.353
 3856SOL     OW12466   0.356   0.676   6.201
 3856SOL    HW112467   0.309   0.634   6.278
 3856SOL    HW212468   0.406   0.606   6.150
 3857SOL     OW12469   0.788   5.780   6.728
 3857SOL    HW112470   0.868   5.833   6.757
 3857SOL    HW212471   0.757   5.812   6.639
 3858SOL     OW12472   3.526   1.163   6.164
 3858SOL    HW112473   3.448   1.113   6.128
 3858SOL    HW212474   3.569   1.110   6.237
 3859SOL     OW12475   6.632   1.126   1.588
 3859SOL    HW112476   6.699   1.111   1.661
 3859SOL    HW212477   6.676   1.110   1.499
 3860SOL     OW12478   1.695   1.688   4.313
 3860SOL    HW112479   1.621   1.704   4.378
 3860SOL    HW212480   1.694   1.592   4.284
 3861SOL     OW12481   4.480   5.225   3.902
 3861SOL    HW112482   4.463   5.131   3.934
 3861SOL    HW212483   4.579   5.243   3.906
 3862SOL     OW12484   0.410   1.026   4.574
 3862SOL    HW112485   0.472   0.958   4.537
 3862SOL    HW212486   0.460   1.088   4.634
 3863SOL     OW12487   6.048   1.987   6.912
 3863SOL    HW112488   6.022   2.026   7.000
 3863SOL    HW212489   5.967   1.974   6.855
 3864SOL     OW12490   1.893   0.450   5.705
 3864SOL    HW112491   1.946   0.470   5.622
 3864SOL    HW212492   1.929   0.368   5.749
 3865SOL     OW12493   3.946   0.964   1.090
 3865SOL    HW112494   3.957   1.061   1.114
 3865SOL    HW212495   3.937   0.910   1.173
 3866SOL     OW12496   4.008   0.672   0.610
 3866SOL    HW112497   3.944   0.709   0.677
 3866SOL    HW212498   4.029   0.577   0.632
 3867SOL     OW12499   0.561   5.400   3.111
 3867SOL    HW112500   0.625   5.468   3.148
 3867SOL    HW212501   0.581   5.384   3.015
 3868SOL     OW12502   3.123   0.556   0.496
 3868SOL    HW112503   3.040   0.602   0.464
 3868SOL    HW212504   3.098   0.467   0.536
 3869SOL     OW12505   6.105   3.078   4.934
 3869SOL    HW112506   6.174   3.150   4.926
 3869SOL    HW212507   6.149   2.991   4.955
 3870SOL     OW12508   6.631   6.601   0.498
 3870SOL    HW112509   6.697   6.634   0.430
 3870SOL    HW212510   6.652   6.505   0.520
 3871SOL     OW12511   3.938   0.941   3.371
 3871SOL    HW112512   3.920   0.943   3.272
 3871SOL    HW212513   3.984   0.856   3.395
 3872SOL     OW12514   3.086   3.198   4.399
 3872SOL    HW112515   3.136   3.112   4.395
 3872SOL    HW212516   3.059   3.216   4.494
 3873SOL     OW12517   6.130   4.269   1.082
 3873SOL    HW112518   6.214   4.255   1.135
 3873SOL    HW212519   6.057   4.211   1.118
 3874SOL     OW12520   4.283   6.057   0.329
 3874SOL    HW112521   4.318   6.074   0.421
 3874SOL    HW212522   4.229   6.135   0.299
 3875SOL     OW12523   1.954   3.151   2.425
 3875SOL    HW112524   2.005   3.221   2.474
 3875SOL    HW212525   1.893   3.103   2.489
 3876SOL     OW12526   3.232   5.362   0.947
 3876SOL    HW112527   3.145   5.406   0.967
 3876SOL    HW212528   3.285   5.422   0.886
 3877SOL     OW12529   5.996   2.374   1.338
 3877SOL    HW112530   6.071   2.402   1.278
 3877SOL    HW212531   5.941   2.303   1.293
 3878SOL     OW12532   3.951   6.596   4.841
 3878SOL    HW112533   3.968   6.499   4.821
 3878SOL    HW212534   4.013   6.652   4.786
 3879SOL     OW12535   5.818   5.144   0.944
 3879SOL    HW112536   5.873   5.116   0.865
 3879SOL    HW212537   5.726   5.105   0.936
 3880SOL     OW12538   5.246   4.621   4.436
 3880SOL    HW112539   5.300   4.706   4.432
 3880SOL    HW212540   5.188   4.614   4.355
 3881SOL     OW12541   1.146   3.045   1.830
 3881SOL    HW112542   1.065   3.102   1.817
 3881SOL    HW212543   1.189   3.067   1.918
 3882SOL     OW12544   1.031   1.784   6.054
 3882SOL    HW112545   1.091   1.780   5.974
 3882SOL    HW212546   0.940   1.748   6.029
 3883SOL     OW12547   4.545   1.047   2.480
 3883SOL    HW112548   4.627   1.103   2.473
 3883SOL    HW212549   4.464   1.103   2.464
 3884SOL     OW12550   1.219   5.739   2.371
 3884SOL    HW112551   1.183   5.764   2.461
 3884SOL    HW212552   1.153   5.765   2.300
 3885SOL     OW12553   5.953   5.752   2.555
 3885SOL    HW112554   6.023   5.815   2.522
 3885SOL    HW212555   5.974   5.660   2.522
 3886SOL     OW12556   5.530   5.433   5.088
 3886SOL    HW112557   5.551   5.335   5.096
 3886SOL    HW212558   5.555   5.479   5.173
 3887SOL     OW12559   0.825   0.495   0.082
 3887SOL    HW112560   0.814   0.481   7.011
 3887SOL    HW212561   0.910   0.543   0.099
 3888SOL     OW12562   6.867   0.676   4.673
 3888SOL    HW112563   6.966   0.671   4.661
 3888SOL    HW212564   6.823   0.606   4.616
 3889SOL     OW12565   0.312   4.195   0.298
 3889SOL    HW112566   0.280   4.106   0.330
 3889SOL    HW212567   0.282   4.266   0.362
 3890SOL     OW12568   6.454   4.879   3.393
 3890SOL    HW112569   6.547   4.915   3.387
 3890SOL    HW212570   6.402   4.906   3.312
 3891SOL     OW12571   5.487   4.142   4.301
 3891SOL    HW112572   5.433   4.207   4.355
 3891SOL    HW212573   5.547   4.193   4.239
 3892SOL     OW12574   0.208   1.978   1.434
 3892SOL    HW112575   0.179   1.889   1.471
 3892SOL    HW212576   0.307   1.974   1.415
 3893SOL     OW12577   4.410   4.036   0.430
 3893SOL    HW112578   4.436   4.121   0.382
 3893SOL    HW212579   4.419   3.959   0.367
 3894SOL     OW12580   4.472   0.858   0.770
 3894SOL    HW112581   4.375   0.872   0.750
 3894SOL    HW212582   4.514   0.806   0.696
 3895SOL     OW12583   1.674   0.937   4.993
 3895SOL    HW112584   1.605   0.913   5.061
 3895SOL    HW212585   1.765   0.926   5.033
 3896SOL     OW12586   0.297   1.296   5.792
 3896SOL    HW112587   0.268   1.314   5.698
 3896SOL    HW212588   0.393   1.269   5.792
 3897SOL     OW12589   3.679   5.597   2.551
 3897SOL    HW112590   3.623   5.640   2.622
 3897SOL    HW212591   3.771   5.637   2.552
 3898SOL     OW12592   2.722   3.519   5.715
 3898SOL    HW112593   2.704   3.421   5.705
 3898SOL    HW212594   2.819   3.534   5.733
 3899SOL     OW12595   5.029   6.904   5.091
 3899SOL    HW112596   4.929   6.898   5.087
 3899SOL    HW212597   5.056   6.935   5.182
 3900SOL     OW12598   5.185   2.762   3.996
 3900SOL    HW112599   5.218   2.705   4.070
 3900SOL    HW212600   5.157   2.705   3.919
 3901SOL     OW12601   2.483   0.238   5.443
 3901SOL    HW112602   2.469   0.156   5.388
 3901SOL    HW212603   2.504   0.315   5.384
 3902SOL     OW12604   5.831   3.307   1.668
 3902SOL    HW112605   5.754   3.252   1.700
 3902SOL    HW212606   5.900   3.313   1.740
 3903SOL     OW12607   3.653   6.108   6.120
 3903SOL    HW112608   3.670   6.096   6.022
 3903SOL    HW212609   3.557   6.133   6.134
 3904SOL     OW12610   2.635   1.332   5.354
 3904SOL    HW112611   2.656   1.290   5.442
 3904SOL    HW212612   2.705   1.400   5.332
 3905SOL     OW12613   0.374   6.922   6.641
 3905SOL    HW112614   0.363   6.901   6.738
 3905SOL    HW212615   0.411   7.014   6.630
 3906SOL     OW12616   4.938   5.246   6.220
 3906SOL    HW112617   4.919   5.343   6.235
 3906SOL    HW212618   4.882   5.213   6.145
 3907SOL     OW12619   6.097   0.487   4.524
 3907SOL    HW112620   6.150   0.410   4.488
 3907SOL    HW212621   6.158   0.548   4.574
 3908SOL     OW12622   1.534   2.361   0.657
 3908SOL    HW112623   1.634   2.356   0.654
 3908SOL    HW212624   1.502   2.341   0.750
 3909SOL     OW12625   0.096   5.453   5.489
 3909SOL    HW112626   0.119   5.400   5.571
 3909SOL    HW212627   0.139   5.410   5.409
 3910SOL     OW12628   3.091   3.121   1.876
 3910SOL    HW112629   3.025   3.085   1.809
 3910SOL    HW212630   3.080   3.072   1.962
 3911SOL     OW12631   5.028   1.102   6.589
 3911SOL    HW112632   4.966   1.116   6.666
 3911SOL    HW212633   4.976   1.069   6.510
 3912SOL     OW12634   4.386   0.559   5.610
 3912SOL    HW112635   4.465   0.503   5.584
 3912SOL    HW212636   4.330   0.577   5.529
 3913SOL     OW12637   1.695   0.007   6.075
 3913SOL    HW112638   1.664   7.028   6.170
 3913SOL    HW212639   1.715   6.943   6.040
 3914SOL     OW12640   3.505   1.443   0.969
 3914SOL    HW112641   3.518   1.538   0.940
 3914SOL    HW212642   3.594   1.398   0.978
 3915SOL     OW12643   3.954   5.097   2.231
 3915SOL    HW112644   3.897   5.049   2.164
 3915SOL    HW212645   3.919   5.079   2.323
 3916SOL     OW12646   1.924   6.188   3.482
 3916SOL    HW112647   1.925   6.288   3.493
 3916SOL    HW212648   1.832   6.158   3.459
 3917SOL     OW12649   6.680   5.665   0.411
 3917SOL    HW112650   6.623   5.671   0.329
 3917SOL    HW212651   6.627   5.693   0.490
 3918SOL     OW12652   4.843   6.582   1.987
 3918SOL    HW112653   4.893   6.649   1.932
 3918SOL    HW212654   4.797   6.517   1.927
 3919SOL     OW12655   2.089   6.453   6.173
 3919SOL    HW112656   2.102   6.510   6.255
 3919SOL    HW212657   2.151   6.375   6.177
 3920SOL     OW12658   3.421   2.793   0.921
 3920SOL    HW112659   3.454   2.857   0.851
 3920SOL    HW212660   3.353   2.731   0.881
 3921SOL     OW12661   0.137   3.408   1.695
 3921SOL    HW112662   0.157   3.381   1.601
 3921SOL    HW212663   0.038   3.408   1.709
 3922SOL     OW12664   5.862   4.070   1.853
 3922SOL    HW112665   5.772   4.073   1.808
 3922SOL    HW212666   5.849   4.050   1.950
 3923SOL     OW12667   6.989   2.159   6.541
 3923SOL    HW112668   0.048   2.206   6.527
 3923SOL    HW212669   6.918   2.204   6.486
 3924SOL     OW12670   0.483   5.253   3.329
 3924SOL    HW112671   0.536   5.168   3.320
 3924SOL    HW212672   0.515   5.319   3.262
 3925SOL     OW12673   3.053   5.002   0.431
 3925SOL    HW112674   3.088   5.016   0.339
 3925SOL    HW212675   2.990   4.924   0.431
 3926SOL     OW12676   6.846   6.165   3.130
 3926SOL    HW112677   6.763   6.213   3.100
 3926SOL    HW212678   6.877   6.201   3.217
 3927SOL     OW12679   6.319   3.030   3.267
 3927SOL    HW112680   6.237   3.082   3.245
 3927SOL    HW212681   6.314   2.940   3.224
 3928SOL     OW12682   3.322   6.507   5.669
 3928SOL    HW112683   3.322   6.600   5.707
 3928SOL    HW212684   3.396   6.454   5.710
 3929SOL     OW12685   6.726   1.408   5.578
 3929SOL    HW112686   6.802   1.367   5.629
 3929SOL    HW212687   6.706   1.499   5.615
 3930SOL     OW12688   2.331   1.757   3.785
 3930SOL    HW112689   2.399   1.696   3.744
 3930SOL    HW212690   2.281   1.709   3.856
 3931SOL     OW12691   1.613   1.842   2.244
 3931SOL    HW112692   1.538   1.777   2.238
 3931SOL    HW212693   1.630   1.865   2.340
 3932SOL     OW12694   1.468   4.380   2.484
 3932SOL    HW112695   1.511   4.296   2.515
 3932SOL    HW212696   1.386   4.398   2.539
 3933SOL     OW12697   1.686   6.652   0.235
 3933SOL    HW112698   1.625   6.591   0.285
 3933SOL    HW212699   1.663   6.650   0.138
 3934SOL     OW12700   0.173   1.033   0.792
 3934SOL    HW112701   0.184   0.961   0.861
 3934SOL    HW212702   0.217   1.117   0.823
 3935SOL     OW12703   2.437   0.124   6.675
 3935SOL    HW112704   2.435   0.222   6.657
 3935SOL    HW212705   2.344   0.091   6.695
 3936SOL     OW12706   6.740   4.946   5.410
 3936SOL    HW112707   6.673   4.954   5.484
 3936SOL    HW212708   6.792   5.031   5.402
 3937SOL     OW12709   6.665   0.891   2.559
 3937SOL    HW112710   6.651   0.982   2.598
 3937SOL    HW212711   6.764   0.876   2.547
 3938SOL     OW12712   0.441   1.579   4.126
 3938SOL    HW112713   0.485   1.491   4.104
 3938SOL    HW212714   0.349   1.580   4.088
 3939SOL     OW12715   2.648   1.789   2.100
 3939SOL    HW112716   2.684   1.772   2.009
 3939SOL    HW212717   2.674   1.881   2.130
 3940SOL     OW12718   4.416   5.057   1.935
 3940SOL    HW112719   4.349   5.005   1.989
 3940SOL    HW212720   4.470   5.115   1.996
 3941SOL     OW12721   4.827   2.274   6.523
 3941SOL    HW112722   4.838   2.196   6.461
 3941SOL    HW212723   4.773   2.246   6.602
 3942SOL     OW12724   0.148   0.182   6.572
 3942SOL    HW112725   0.244   0.173   6.544
 3942SOL    HW212726   0.103   0.250   6.515
 3943SOL     OW12727   0.684   3.863   2.944
 3943SOL    HW112728   0.664   3.961   2.942
 3943SOL    HW212729   0.604   3.812   2.915
 3944SOL     OW12730   5.098   3.299   4.745
 3944SOL    HW112731   5.105   3.392   4.709
 3944SOL    HW212732   5.168   3.286   4.816
 3945SOL     OW12733   0.683   2.038   1.655
 3945SOL    HW112734   0.768   2.070   1.612
 3945SOL    HW212735   0.654   2.104   1.724
 3946SOL     OW12736   5.432   6.021   6.307
 3946SOL    HW112737   5.502   5.958   6.340
 3946SOL    HW212738   5.411   6.089   6.377
 3947SOL     OW12739   5.965   5.480   0.560
 3947SOL    HW112740   5.880   5.515   0.520
 3947SOL    HW212741   6.021   5.557   0.591
 3948SOL     OW12742   0.690   5.739   1.737
 3948SOL    HW112743   0.698   5.642   1.759
 3948SOL    HW212744   0.653   5.789   1.815
 3949SOL     OW12745   5.672   0.535   3.029
 3949SOL    HW112746   5.660   0.438   3.050
 3949SOL    HW212747   5.603   0.563   2.963
 3950SOL     OW12748   2.151   3.810   1.719
 3950SOL    HW112749   2.114   3.793   1.811
 3950SOL    HW212750   2.224   3.745   1.700
 3951SOL     OW12751   6.232   6.840   0.271
 3951SOL    HW112752   6.239   6.744   0.300
 3951SOL    HW212753   6.250   6.900   0.349
 3952SOL     OW12754   6.233   3.779   2.688
 3952SOL    HW112755   6.212   3.796   2.784
 3952SOL    HW212756   6.299   3.705   2.680
 3953SOL     OW12757   3.976   4.274   1.296
 3953SOL    HW112758   4.070   4.304   1.279
 3953SOL    HW212759   3.913   4.324   1.237
 3954SOL     OW12760   5.280   5.334   5.144
 3954SOL    HW112761   5.247   5.364   5.234
 3954SOL    HW212762   5.364   5.383   5.122
 3955SOL     OW12763   2.902   5.322   6.258
 3955SOL    HW112764   2.866   5.331   6.165
 3955SOL    HW212765   2.983   5.380   6.267
 3956SOL     OW12766   0.199   0.787   3.152
 3956SOL    HW112767   0.190   0.801   3.250
 3956SOL    HW212768   0.210   0.689   3.133
 3957SOL     OW12769   4.568   6.128   3.621
 3957SOL    HW112770   4.522   6.097   3.538
 3957SOL    HW212771   4.526   6.085   3.700
 3958SOL     OW12772   5.695   0.316   5.603
 3958SOL    HW112773   5.786   0.279   5.623
 3958SOL    HW212774   5.691   0.411   5.632
 3959SOL     OW12775   4.301   6.459   0.981
 3959SOL    HW112776   4.334   6.374   1.020
 3959SOL    HW212777   4.282   6.446   0.883
 3960SOL     OW12778   4.662   1.516   6.957
 3960SOL    HW112779   4.584   1.544   6.900
 3960SOL    HW212780   4.712   1.443   6.912
 3961SOL     OW12781   5.363   2.150   2.685
 3961SOL    HW112782   5.429   2.094   2.635
 3961SOL    HW212783   5.412   2.216   2.742
 3962SOL     OW12784   2.481   4.750   6.910
 3962SOL    HW112785   2.566   4.722   6.866
 3962SOL    HW212786   2.462   4.691   6.988
 3963SOL     OW12787   4.617   4.720   4.119
 3963SOL    HW112788   4.658   4.742   4.031
 3963SOL    HW212789   4.616   4.802   4.177
 3964SOL     OW12790   3.834   5.183   3.542
 3964SOL    HW112791   3.921   5.140   3.518
 3964SOL    HW212792   3.767   5.164   3.471
 3965SOL     OW12793   4.842   3.276   6.145
 3965SOL    HW112794   4.883   3.188   6.170
 3965SOL    HW212795   4.772   3.301   6.212
 3966SOL     OW12796   4.985   5.880   0.662
 3966SOL    HW112797   5.006   5.872   0.564
 3966SOL    HW212798   5.067   5.910   0.711
 3967SOL     OW12799   1.523   3.805   2.138
 3967SOL    HW112800   1.468   3.785   2.057
 3967SOL    HW212801   1.619   3.784   2.119
 3968SOL     OW12802   4.956   0.489   1.195
 3968SOL    HW112803   4.924   0.536   1.277
 3968SOL    HW212804   4.904   0.520   1.116
 3969SOL     OW12805   1.411   3.717   2.506
 3969SOL    HW112806   1.442   3.667   2.425
 3969SOL    HW212807   1.487   3.730   2.569
 3970SOL     OW12808   5.912   5.937   3.746
 3970SOL    HW112809   5.893   5.859   3.686
 3970SOL    HW212810   5.995   5.918   3.800
 3971SOL     OW12811   2.468   5.111   1.724
 3971SOL    HW112812   2.521   5.194   1.740
 3971SOL    HW212813   2.404   5.098   1.800
 3972SOL     OW12814   1.040   5.041   0.526
 3972SOL    HW112815   1.029   5.091   0.440
 3972SOL    HW212816   1.126   5.068   0.569
 3973SOL     OW12817   1.015   5.049   5.887
 3973SOL    HW112818   0.976   5.017   5.800
 3973SOL    HW212819   1.102   5.095   5.869
 3974SOL     OW12820   1.392   0.868   4.426
 3974SOL    HW112821   1.337   0.916   4.357
 3974SOL    HW212822   1.487   0.901   4.422
 3975SOL     OW12823   6.137   0.813   4.857
 3975SOL    HW112824   6.148   0.907   4.890
 3975SOL    HW212825   6.086   0.760   4.925
 3976SOL     OW12826   1.320   6.559   1.625
 3976SOL    HW112827   1.293   6.531   1.717
 3976SOL    HW212828   1.326   6.659   1.621
 3977SOL     OW12829   2.815   4.394   5.547
 3977SOL    HW112830   2.797   4.484   5.586
 3977SOL    HW212831   2.884   4.401   5.475
 3978SOL     OW12832   5.664   5.878   4.932
 3978SOL    HW112833   5.615   5.821   4.999
 3978SOL    HW212834   5.745   5.829   4.899
 3979SOL     OW12835   3.096   5.917   0.387
 3979SOL    HW112836   3.081   5.866   0.303
 3979SOL    HW212837   3.013   5.967   0.411
 3980SOL     OW12838   0.274   5.576   0.493
 3980SOL    HW112839   0.189   5.540   0.532
 3980SOL    HW212840   0.352   5.530   0.537
 3981SOL     OW12841   2.197   0.815   0.363
 3981SOL    HW112842   2.286   0.839   0.402
 3981SOL    HW212843   2.152   0.898   0.330
 3982SOL     OW12844   1.999   6.961   4.209
 3982SOL    HW112845   2.054   6.882   4.235
 3982SOL    HW212846   1.927   6.975   4.278
 3983SOL     OW12847   5.167   5.176   4.465
 3983SOL    HW112848   5.224   5.158   4.545
 3983SOL    HW212849   5.138   5.272   4.465
 3984SOL     OW12850   6.646   1.120   2.713
 3984SOL    HW112851   6.743   1.141   2.730
 3984SOL    HW212852   6.613   1.175   2.636
 3985SOL     OW12853   3.574   4.300   6.862
 3985SOL    HW112854   3.633   4.235   6.814
 3985SOL    HW212855   3.478   4.281   6.840
 3986SOL     OW12856   6.497   1.894   3.090
 3986SOL    HW112857   6.447   1.980   3.097
 3986SOL    HW212858   6.464   1.831   3.161
 3987SOL     OW12859   3.158   5.434   3.622
 3987SOL    HW112860   3.073   5.460   3.669
 3987SOL    HW212861   3.177   5.337   3.639
 3988SOL     OW12862   4.466   4.268   0.065
 3988SOL    HW112863   4.483   4.314   7.006
 3988SOL    HW212864   4.551   4.226   0.098
 3989SOL     OW12865   6.627   2.839   6.933
 3989SOL    HW112866   6.531   2.864   6.950
 3989SOL    HW212867   6.652   2.762   6.992
 3990SOL     OW12868   5.270   2.355   3.434
 3990SOL    HW112869   5.184   2.352   3.383
 3990SOL    HW212870   5.271   2.436   3.493
 3991SOL     OW12871   5.779   0.916   2.186
 3991SOL    HW112872   5.761   0.991   2.122
 3991SOL    HW212873   5.693   0.883   2.224
 3992SOL     OW12874   4.011   2.519   6.898
 3992SOL    HW112875   4.102   2.522   6.855
 3992SOL    HW212876   3.953   2.455   6.846
 3993SOL     OW12877   1.093   1.363   2.773
 3993SOL    HW112878   1.162   1.290   2.779
 3993SOL    HW212879   1.064   1.389   2.865
 3994SOL     OW12880   0.864   0.784   5.938
 3994SOL    HW112881   0.893   0.872   5.899
 3994SOL    HW212882   0.929   0.756   6.009
 3995SOL     OW12883   2.084   3.580   5.380
 3995SOL    HW112884   2.021   3.561   5.305
 3995SOL    HW212885   2.035   3.573   5.467
 3996SOL     OW12886   1.132   0.800   3.773
 3996SOL    HW112887   1.222   0.843   3.779
 3996SOL    HW212888   1.101   0.774   3.864
 3997SOL     OW12889   4.922   1.093   3.852
 3997SOL    HW112890   4.978   1.168   3.816
 3997SOL    HW212891   4.870   1.051   3.777
 3998SOL     OW12892   3.944   1.188   3.998
 3998SOL    HW112893   3.977   1.220   3.909
 3998SOL    HW212894   3.950   1.088   4.002
 3999SOL     OW12895   5.852   3.332   3.960
 3999SOL    HW112896   5.921   3.349   4.030
 3999SOL    HW212897   5.876   3.383   3.877
 4000SOL     OW12898   3.445   5.951   2.976
 4000SOL    HW112899   3.429   6.044   2.943
 4000SOL    HW212900   3.526   5.949   3.034
 4001SOL     OW12901   2.629   2.157   4.021
 4001SOL    HW112902   2.586   2.213   3.950
 4001SOL    HW212903   2.685   2.086   3.978
 4002SOL     OW12904   2.857   3.370   0.942
 4002SOL    HW112905   2.764   3.405   0.933
 4002SOL    HW212906   2.855   3.271   0.956
 4003SOL     OW12907   3.060   6.167   4.099
 4003SOL    HW112908   3.071   6.267   4.097
 4003SOL    HW212909   3.107   6.131   4.180
 4004SOL     OW12910   4.955   1.671   4.477
 4004SOL    HW112911   4.994   1.584   4.447
 4004SOL    HW212912   5.001   1.701   4.560
 4005SOL     OW12913   4.440   5.584   0.426
 4005SOL    HW112914   4.373   5.510   0.423
 4005SOL    HW212915   4.431   5.640   0.344
 4006SOL     OW12916   3.761   5.247   3.190
 4006SOL    HW112917   3.855   5.241   3.223
 4006SOL    HW212918   3.699   5.262   3.267
 4007SOL     OW12919   0.417   2.723   0.858
 4007SOL    HW112920   0.442   2.797   0.795
 4007SOL    HW212921   0.387   2.644   0.806
 4008SOL     OW12922   3.295   1.987   4.106
 4008SOL    HW112923   3.384   1.952   4.078
 4008SOL    HW212924   3.279   1.966   4.202
 4009SOL     OW12925   5.672   3.372   1.179
 4009SOL    HW112926   5.664   3.289   1.125
 4009SOL    HW212927   5.670   3.350   1.276
 4010SOL     OW12928   2.704   3.252   1.664
 4010SOL    HW112929   2.667   3.312   1.593
 4010SOL    HW212930   2.648   3.169   1.670
 4011SOL     OW12931   0.388   0.774   2.551
 4011SOL    HW112932   0.350   0.749   2.462
 4011SOL    HW212933   0.385   0.695   2.613
 4012SOL     OW12934   4.480   5.636   1.428
 4012SOL    HW112935   4.525   5.548   1.442
 4012SOL    HW212936   4.465   5.651   1.330
 4013SOL     OW12937   2.704   0.325   5.570
 4013SOL    HW112938   2.776   0.369   5.516
 4013SOL    HW212939   2.635   0.288   5.508
 4014SOL     OW12940   4.754   6.265   2.957
 4014SOL    HW112941   4.838   6.246   3.008
 4014SOL    HW212942   4.685   6.304   3.018
 4015SOL     OW12943   5.117   5.153   6.045
 4015SOL    HW112944   5.217   5.145   6.043
 4015SOL    HW212945   5.089   5.201   6.128
 4016SOL     OW12946   2.324   6.151   6.562
 4016SOL    HW112947   2.281   6.061   6.551
 4016SOL    HW212948   2.342   6.168   6.659
 4017SOL     OW12949   0.317   5.941   0.608
 4017SOL    HW112950   0.406   5.905   0.581
 4017SOL    HW212951   0.245   5.886   0.566
 4018SOL     OW12952   5.032   6.194   3.088
 4018SOL    HW112953   5.004   6.105   3.124
 4018SOL    HW212954   5.125   6.187   3.052
 4019SOL     OW12955   5.966   3.480   2.780
 4019SOL    HW112956   5.980   3.395   2.831
 4019SOL    HW212957   5.900   3.537   2.827
 4020SOL     OW12958   4.922   2.125   5.664
 4020SOL    HW112959   4.986   2.198   5.691
 4020SOL    HW212960   4.929   2.109   5.566
 4021SOL     OW12961   3.646   4.303   6.505
 4021SOL    HW112962   3.689   4.245   6.574
 4021SOL    HW212963   3.553   4.271   6.486
 4022SOL     OW12964   4.187   0.742   7.022
 4022SOL    HW112965   4.271   0.690   0.008
 4022SOL    HW212966   4.124   0.691   6.964
 4023SOL     OW12967   6.209   1.816   4.826
 4023SOL    HW112968   6.246   1.907   4.808
 4023SOL    HW212969   6.275   1.764   4.880
 4024SOL     OW12970   3.701   5.939   3.120
 4024SOL    HW112971   3.722   5.853   3.072
 4024SOL    HW212972   3.784   5.994   3.128
 4025SOL     OW12973   1.083   6.030   3.805
 4025SOL    HW112974   1.175   6.015   3.770
 4025SOL    HW212975   1.017   6.017   3.732
 4026SOL     OW12976   6.173   5.602   4.317
 4026SOL    HW112977   6.153   5.695   4.287
 4026SOL    HW212978   6.128   5.585   4.405
 4027SOL     OW12979   3.560   4.170   1.858
 4027SOL    HW112980   3.659   4.160   1.870
 4027SOL    HW212981   3.540   4.261   1.822
 4028SOL     OW12982   1.051   2.013   3.830
 4028SOL    HW112983   0.953   2.028   3.825
 4028SOL    HW212984   1.078   1.941   3.767
 4029SOL     OW12985   2.008   4.342   6.806
 4029SOL    HW112986   2.083   4.402   6.836
 4029SOL    HW212987   1.930   4.354   6.866
 4030SOL     OW12988   1.210   2.185   6.027
 4030SOL    HW112989   1.148   2.152   6.099
 4030SOL    HW212990   1.256   2.268   6.058
 4031SOL     OW12991   5.033   5.826   3.264
 4031SOL    HW112992   5.121   5.793   3.231
 4031SOL    HW212993   5.031   5.822   3.364
 4032SOL     OW12994   6.283   6.903   3.225
 4032SOL    HW112995   6.254   6.812   3.253
 4032SOL    HW212996   6.381   6.913   3.241
 4033SOL     OW12997   3.384   3.291   3.665
 4033SOL    HW112998   3.438   3.290   3.581
 4033SOL    HW212999   3.287   3.278   3.642
 4034SOL     OW13000   5.451   1.176   5.103
 4034SOL    HW113001   5.434   1.100   5.166
 4034SOL    HW213002   5.546   1.206   5.113
 4035SOL     OW13003   0.006   3.711   1.295
 4035SOL    HW113004   0.103   3.725   1.278
 4035SOL    HW213005   7.020   3.689   1.392
 4036SOL     OW13006   5.723   6.639   1.956
 4036SOL    HW113007   5.797   6.619   1.892
 4036SOL    HW213008   5.728   6.735   1.984
 4037SOL     OW13009   2.171   2.410   0.246
 4037SOL    HW113010   2.222   2.353   0.311
 4037SOL    HW213011   2.075   2.382   0.245
 4038SOL     OW13012   4.763   4.849   2.046
 4038SOL    HW113013   4.748   4.852   1.947
 4038SOL    HW213014   4.855   4.815   2.065
 4039SOL     OW13015   4.839   5.129   0.934
 4039SOL    HW113016   4.768   5.127   1.005
 4039SOL    HW213017   4.865   5.224   0.915
 4040SOL     OW13018   2.681   6.684   0.070
 4040SOL    HW113019   2.642   6.736   7.022
 4040SOL    HW213020   2.745   6.742   0.121
 4041SOL     OW13021   1.688   6.330   2.621
 4041SOL    HW113022   1.688   6.240   2.665
 4041SOL    HW213023   1.619   6.388   2.663
 4042SOL     OW13024   6.181   4.664   2.564
 4042SOL    HW113025   6.199   4.605   2.642
 4042SOL    HW213026   6.244   4.741   2.565
 4043SOL     OW13027   5.841   2.008   3.622
 4043SOL    HW113028   5.906   2.063   3.674
 4043SOL    HW213029   5.891   1.952   3.556
 4044SOL     OW13030   6.370   0.331   4.814
 4044SOL    HW113031   6.355   0.266   4.740
 4044SOL    HW213032   6.442   0.297   4.874
 4045SOL     OW13033   2.700   4.401   5.895
 4045SOL    HW113034   2.620   4.359   5.852
 4045SOL    HW213035   2.711   4.494   5.860
 4046SOL     OW13036   0.800   1.652   2.991
 4046SOL    HW113037   0.798   1.637   2.892
 4046SOL    HW213038   0.836   1.744   3.009
 4047SOL     OW13039   2.569   3.801   0.777
 4047SOL    HW113040   2.668   3.788   0.771
 4047SOL    HW213041   2.523   3.714   0.758
 4048SOL     OW13042   5.667   0.893   1.636
 4048SOL    HW113043   5.723   0.924   1.560
 4048SOL    HW213044   5.725   0.871   1.715
 4049SOL     OW13045   6.725   6.432   6.831
 4049SOL    HW113046   6.739   6.337   6.857
 4049SOL    HW213047   6.807   6.485   6.850
 4050SOL     OW13048   1.705   6.582   6.730
 4050SOL    HW113049   1.802   6.605   6.726
 4050SOL    HW213050   1.683   6.516   6.657
 4051SOL     OW13051   2.766   3.914   0.327
 4051SOL    HW113052   2.831   3.990   0.330
 4051SOL    HW213053   2.799   3.839   0.383
 4052SOL     OW13054   1.213   0.016   1.152
 4052SOL    HW113055   1.278   0.013   1.076
 4052SOL    HW213056   1.246   6.987   1.227
 4053SOL     OW13057   3.007   5.014   4.045
 4053SOL    HW113058   3.040   4.977   4.133
 4053SOL    HW213059   2.938   4.952   4.007
 4054SOL     OW13060   2.992   3.032   0.810
 4054SOL    HW113061   2.975   3.031   0.712
 4054SOL    HW213062   3.016   2.940   0.841
 4055SOL     OW13063   2.638   3.290   6.015
 4055SOL    HW113064   2.566   3.319   6.078
 4055SOL    HW213065   2.713   3.355   6.018
 4056SOL     OW13066   4.435   3.134   6.814
 4056SOL    HW113067   4.487   3.100   6.893
 4056SOL    HW213068   4.372   3.205   6.845
 4057SOL     OW13069   5.701   3.447   0.837
 4057SOL    HW113070   5.685   3.540   0.870
 4057SOL    HW213071   5.752   3.450   0.751
 4058SOL     OW13072   2.235   1.300   4.553
 4058SOL    HW113073   2.202   1.389   4.523
 4058SOL    HW213074   2.299   1.313   4.629
 4059SOL     OW13075   2.013   2.106   3.382
 4059SOL    HW113076   2.091   2.119   3.320
 4059SOL    HW213077   2.018   2.015   3.423
 4060SOL     OW13078   3.627   5.152   4.684
 4060SOL    HW113079   3.548   5.213   4.691
 4060SOL    HW213080   3.633   5.096   4.767
 4061SOL     OW13081   3.350   4.618   1.657
 4061SOL    HW113082   3.331   4.520   1.662
 4061SOL    HW213083   3.421   4.641   1.723
 4062SOL     OW13084   4.529   1.428   3.262
 4062SOL    HW113085   4.481   1.476   3.188
 4062SOL    HW213086   4.562   1.340   3.230
 4063SOL     OW13087   4.362   6.453   6.177
 4063SOL    HW113088   4.350   6.477   6.081
 4063SOL    HW213089   4.392   6.533   6.228
 4064SOL     OW13090   2.385   6.934   2.587
 4064SOL    HW113091   2.375   6.985   2.501
 4064SOL    HW213092   2.319   6.859   2.589
 4065SOL     OW13093   0.436   0.056   0.680
 4065SOL    HW113094   0.425   7.019   0.755
 4065SOL    HW213095   0.509   0.120   0.702
 4066SOL     OW13096   5.674   4.960   1.879
 4066SOL    HW113097   5.715   4.869   1.882
 4066SOL    HW213098   5.637   4.977   1.787
 4067SOL     OW13099   5.153   1.693   3.282
 4067SOL    HW113100   5.179   1.779   3.326
 4067SOL    HW213101   5.206   1.682   3.199
 4068SOL     OW13102   4.579   0.443   5.208
 4068SOL    HW113103   4.635   0.501   5.268
 4068SOL    HW213104   4.613   0.349   5.211
 4069SOL     OW13105   4.634   4.291   0.687
 4069SOL    HW113106   4.688   4.210   0.666
 4069SOL    HW213107   4.642   4.357   0.612
 4070SOL     OW13108   1.657   3.282   2.599
 4070SOL    HW113109   1.719   3.212   2.634
 4070SOL    HW213110   1.658   3.281   2.499
 4071SOL     OW13111   1.267   0.701   5.270
 4071SOL    HW113112   1.249   0.615   5.222
 4071SOL    HW213113   1.255   0.687   5.368
 4072SOL     OW13114   1.837   6.707   4.375
 4072SOL    HW113115   1.798   6.665   4.457
 4072SOL    HW213116   1.842   6.806   4.388
 4073SOL     OW13117   1.861   5.543   5.733
 4073SOL    HW113118   1.956   5.561   5.708
 4073SOL    HW213119   1.811   5.510   5.653
 4074SOL     OW13120   0.163   2.689   2.021
 4074SOL    HW113121   0.203   2.720   2.107
 4074SOL    HW213122   0.234   2.690   1.950
 4075SOL     OW13123   4.668   2.036   2.409
 4075SOL    HW113124   4.627   2.109   2.354
 4075SOL    HW213125   4.745   1.997   2.360
 4076SOL     OW13126   2.354   4.206   5.313
 4076SOL    HW113127   2.448   4.236   5.326
 4076SOL    HW213128   2.349   4.145   5.234
 4077SOL     OW13129   2.953   0.009   0.573
 4077SOL    HW113130   2.861   6.998   0.569
 4077SOL    HW213131   3.005   6.994   0.646
 4078SOL     OW13132   6.435   4.789   2.077
 4078SOL    HW113133   6.364   4.787   2.148
 4078SOL    HW213134   6.478   4.879   2.075
 4079SOL     OW13135   1.205   0.544   3.242
 4079SOL    HW113136   1.248   0.634   3.252
 4079SOL    HW213137   1.107   0.555   3.229
 4080SOL     OW13138   2.961   4.120   0.379
 4080SOL    HW113139   2.900   4.160   0.446
 4080SOL    HW213140   3.037   4.075   0.426
 4081SOL     OW13141   2.353   0.689   5.313
 4081SOL    HW113142   2.384   0.649   5.399
 4081SOL    HW213143   2.344   0.616   5.244
 4082SOL     OW13144   0.951   2.028   6.155
 4082SOL    HW113145   0.981   1.936   6.132
 4082SOL    HW213146   0.912   2.072   6.074
 4083SOL     OW13147   5.970   4.621   3.214
 4083SOL    HW113148   5.878   4.599   3.246
 4083SOL    HW213149   6.000   4.706   3.257
 4084SOL     OW13150   4.892   2.949   3.191
 4084SOL    HW113151   4.936   2.865   3.224
 4084SOL    HW213152   4.820   2.976   3.255
 4085SOL     OW13153   2.371   5.645   1.243
 4085SOL    HW113154   2.357   5.606   1.334
 4085SOL    HW213155   2.352   5.576   1.173
 4086SOL     OW13156   0.210   5.306   0.089
 4086SOL    HW113157   0.230   5.320   7.020
 4086SOL    HW213158   0.153   5.381   0.122
 4087SOL     OW13159   3.319   0.341   2.932
 4087SOL    HW113160   3.284   0.413   2.992
 4087SOL    HW213161   3.359   0.382   2.850
 4088SOL     OW13162   6.226   1.022   5.664
 4088SOL    HW113163   6.185   1.096   5.610
 4088SOL    HW213164   6.325   1.031   5.663
 4089SOL     OW13165   6.822   5.675   4.469
 4089SOL    HW113166   6.906   5.728   4.461
 4089SOL    HW213167   6.834   5.605   4.539
 4090SOL     OW13168   2.219   6.890   5.048
 4090SOL    HW113169   2.243   6.983   5.074
 4090SOL    HW213170   2.120   6.877   5.057
 4091SOL     OW13171   1.019   4.886   0.807
 4091SOL    HW113172   1.101   4.909   0.754
 4091SOL    HW213173   0.960   4.825   0.754
 4092SOL     OW13174   4.863   3.130   4.828
 4092SOL    HW113175   4.935   3.196   4.808
 4092SOL    HW213176   4.861   3.060   4.756
 4093SOL     OW13177   6.366   5.715   1.788
 4093SOL    HW113178   6.291   5.772   1.753
 4093SOL    HW213179   6.328   5.630   1.826
 4094SOL     OW13180   0.379   4.738   6.710
 4094SOL    HW113181   0.409   4.790   6.630
 4094SOL    HW213182   0.443   4.753   6.785
 4095SOL     OW13183   0.400   3.595   0.122
 4095SOL    HW113184   0.378   3.637   0.034
 4095SOL    HW213185   0.499   3.583   0.130
 4096SOL     OW13186   2.345   1.339   6.442
 4096SOL    HW113187   2.246   1.331   6.455
 4096SOL    HW213188   2.385   1.388   6.518
 4097SOL     OW13189   6.270   4.284   5.353
 4097SOL    HW113190   6.254   4.226   5.433
 4097SOL    HW213191   6.183   4.321   5.321
 4098SOL     OW13192   1.995   3.334   1.637
 4098SOL    HW113193   2.085   3.291   1.640
 4098SOL    HW213194   1.958   3.331   1.544
 4099SOL     OW13195   4.304   4.958   0.001
 4099SOL    HW113196   4.222   5.007   7.000
 4099SOL    HW213197   4.377   5.023   0.020
 4100SOL     OW13198   0.940   0.955   3.686
 4100SOL    HW113199   1.026   0.909   3.708
 4100SOL    HW213200   0.871   0.932   3.755
 4101SOL     OW13201   6.502   0.549   6.369
 4101SOL    HW113202   6.473   0.644   6.358
 4101SOL    HW213203   6.589   0.546   6.419
 4102SOL     OW13204   1.929   0.503   0.368
 4102SOL    HW113205   1.983   0.512   0.284
 4102SOL    HW213206   1.933   0.589   0.419
 4103SOL     OW13207   6.972   6.778   2.157
 4103SOL    HW113208   6.993   6.715   2.232
 4103SOL    HW213209   6.912   6.732   2.091
 4104SOL     OW13210   0.092   5.653   2.804
 4104SOL    HW113211   0.188   5.663   2.831
 4104SOL    HW213212   0.043   5.603   2.875
 4105SOL     OW13213   4.811   1.280   1.382
 4105SOL    HW113214   4.903   1.308   1.408
 4105SOL    HW213215   4.810   1.181   1.364
 4106SOL     OW13216   6.999   2.273   4.271
 4106SOL    HW113217   6.932   2.330   4.320
 4106SOL    HW213218   6.957   2.186   4.246
 4107SOL     OW13219   0.334   6.338   6.546
 4107SOL    HW113220   0.276   6.413   6.512
 4107SOL    HW213221   0.293   6.300   6.629
 4108SOL     OW13222   0.450   5.662   3.821
 4108SOL    HW113223   0.380   5.592   3.836
 4108SOL    HW213224   0.443   5.732   3.892
 4109SOL     OW13225   6.110   5.234   3.699
 4109SOL    HW113226   6.053   5.259   3.777
 4109SOL    HW213227   6.169   5.311   3.675
 4110SOL     OW13228   4.743   2.787   6.819
 4110SOL    HW113229   4.713   2.821   6.730
 4110SOL    HW213230   4.670   2.731   6.859
 4111SOL     OW13231   6.290   5.440   6.530
 4111SOL    HW113232   6.365   5.385   6.494
 4111SOL    HW213233   6.204   5.390   6.520
 4112SOL     OW13234   4.668   6.492   5.008
 4112SOL    HW113235   4.735   6.535   5.068
 4112SOL    HW213236   4.701   6.494   4.914
 4113SOL     OW13237   3.832   5.164   4.944
 4113SOL    HW113238   3.889   5.177   4.863
 4113SOL    HW213239   3.876   5.096   5.004
 4114SOL     OW13240   6.471   1.817   3.519
 4114SOL    HW113241   6.565   1.793   3.543
 4114SOL    HW213242   6.437   1.887   3.582
 4115SOL     OW13243   2.741   4.681   3.218
 4115SOL    HW113244   2.806   4.682   3.295
 4115SOL    HW213245   2.666   4.619   3.240
 4116SOL     OW13246   5.478   1.936   3.231
 4116SOL    HW113247   5.573   1.908   3.229
 4116SOL    HW213248   5.437   1.922   3.140
 4117SOL     OW13249   1.577   2.151   2.428
 4117SOL    HW113250   1.593   2.247   2.452
 4117SOL    HW213251   1.655   2.096   2.458
 4118SOL     OW13252   6.236   6.393   6.785
 4118SOL    HW113253   6.320   6.410   6.837
 4118SOL    HW213254   6.231   6.296   6.761
 4119SOL     OW13255   2.773   0.653   3.616
 4119SOL    HW113256   2.833   0.701   3.552
 4119SOL    HW213257   2.819   0.645   3.705
 4120SOL     OW13258   3.544   1.475   6.459
 4120SOL    HW113259   3.616   1.411   6.485
 4120SOL    HW213260   3.522   1.461   6.362
 4121SOL     OW13261   6.908   6.223   2.241
 4121SOL    HW113262   6.929   6.126   2.229
 4121SOL    HW213263   6.819   6.244   2.200
 4122SOL     OW13264   0.297   5.770   4.792
 4122SOL    HW113265   0.288   5.711   4.712
 4122SOL    HW213266   0.388   5.759   4.832
 4123SOL     OW13267   3.742   5.374   4.590
 4123SOL    HW113268   3.836   5.342   4.576
 4123SOL    HW213269   3.695   5.312   4.652
 4124SOL     OW13270   6.407   6.404   1.209
 4124SOL    HW113271   6.483   6.456   1.170
 4124SOL    HW213272   6.337   6.390   1.139
 4125SOL     OW13273   4.963   2.682   2.785
 4125SOL    HW113274   4.900   2.696   2.861
 4125SOL    HW213275   4.923   2.720   2.701
 4126SOL     OW13276   1.605   3.007   2.277
 4126SOL    HW113277   1.565   3.091   2.316
 4126SOL    HW213278   1.531   2.948   2.244
 4127SOL     OW13279   4.073   1.836   4.271
 4127SOL    HW113280   4.123   1.751   4.290
 4127SOL    HW213281   4.052   1.881   4.357
 4128SOL     OW13282   0.731   3.142   1.881
 4128SOL    HW113283   0.714   3.085   1.961
 4128SOL    HW213284   0.707   3.091   1.798
 4129SOL     OW13285   3.262   2.626   0.749
 4129SOL    HW113286   3.171   2.584   0.753
 4129SOL    HW213287   3.278   2.665   0.659
 4130SOL     OW13288   6.134   2.774   0.834
 4130SOL    HW113289   6.064   2.810   0.772
 4130SOL    HW213290   6.195   2.714   0.783
 4131SOL     OW13291   6.038   0.722   2.497
 4131SOL    HW113292   5.987   0.806   2.513
 4131SOL    HW213293   6.110   0.712   2.566
 4132SOL     OW13294   5.986   4.529   3.995
 4132SOL    HW113295   5.964   4.545   4.091
 4132SOL    HW213296   5.961   4.435   3.971
 4133SOL     OW13297   5.474   6.393   1.151
 4133SOL    HW113298   5.504   6.307   1.110
 4133SOL    HW213299   5.491   6.391   1.249
 4134SOL     OW13300   2.123   3.692   1.264
 4134SOL    HW113301   2.035   3.731   1.239
 4134SOL    HW213302   2.114   3.638   1.347
 4135SOL     OW13303   0.836   1.851   2.459
 4135SOL    HW113304   0.760   1.787   2.471
 4135SOL    HW213305   0.920   1.801   2.442
 4136SOL     OW13306   0.849   3.670   1.517
 4136SOL    HW113307   0.835   3.764   1.486
 4136SOL    HW213308   0.761   3.629   1.541
 4137SOL     OW13309   1.610   2.781   0.019
 4137SOL    HW113310   1.599   2.700   6.991
 4137SOL    HW213311   1.520   2.820   0.040
 4138SOL     OW13312   3.976   5.354   1.275
 4138SOL    HW113313   4.025   5.272   1.303
 4138SOL    HW213314   4.041   5.424   1.246
 4139SOL     OW13315   1.348   2.388   3.673
 4139SOL    HW113316   1.408   2.430   3.605
 4139SOL    HW213317   1.304   2.460   3.727
 4140SOL     OW13318   3.273   2.125   3.852
 4140SOL    HW113319   3.180   2.126   3.814
 4140SOL    HW213320   3.273   2.072   3.937
 4141SOL     OW13321   4.887   6.756   6.512
 4141SOL    HW113322   4.963   6.730   6.453
 4141SOL    HW213323   4.900   6.850   6.543
 4142SOL     OW13324   6.875   3.669   1.939
 4142SOL    HW113325   6.897   3.762   1.969
 4142SOL    HW213326   6.953   3.609   1.957
 4143SOL     OW13327   5.893   3.155   0.688
 4143SOL    HW113328   5.908   3.059   0.710
 4143SOL    HW213329   5.955   3.212   0.742
 4144SOL     OW13330   5.464   1.655   0.862
 4144SOL    HW113331   5.442   1.562   0.833
 4144SOL    HW213332   5.558   1.658   0.897
 4145SOL     OW13333   1.144   6.185   0.567
 4145SOL    HW113334   1.197   6.204   0.484
 4145SOL    HW213335   1.051   6.218   0.555
 4146SOL     OW13336   6.058   6.837   4.039
 4146SOL    HW113337   5.978   6.896   4.024
 4146SOL    HW213338   6.135   6.893   4.070
 4147SOL     OW13339   5.680   4.451   6.215
 4147SOL    HW113340   5.740   4.530   6.227
 4147SOL    HW213341   5.612   4.450   6.289
 4148SOL     OW13342   3.158   0.042   5.512
 4148SOL    HW113343   3.113   0.031   5.424
 4148SOL    HW213344   3.201   6.984   5.539
 4149SOL     OW13345   1.088   2.897   0.908
 4149SOL    HW113346   1.134   2.857   0.828
 4149SOL    HW213347   1.105   2.996   0.909
 4150SOL     OW13348   6.622   2.904   5.661
 4150SOL    HW113349   6.566   2.885   5.742
 4150SOL    HW213350   6.637   2.818   5.611
 4151SOL     OW13351   2.078   0.202   5.006
 4151SOL    HW113352   2.144   0.214   4.932
 4151SOL    HW213353   1.992   0.167   4.969
 4152SOL     OW13354   3.710   5.494   1.731
 4152SOL    HW113355   3.798   5.509   1.687
 4152SOL    HW213356   3.649   5.446   1.668
 4153SOL     OW13357   6.558   5.073   1.284
 4153SOL    HW113358   6.565   5.058   1.383
 4153SOL    HW213359   6.467   5.045   1.253
 4154SOL     OW13360   6.878   5.766   3.318
 4154SOL    HW113361   6.873   5.788   3.415
 4154SOL    HW213362   6.808   5.697   3.296
 4155SOL     OW13363   6.664   1.990   1.439
 4155SOL    HW113364   6.762   1.971   1.450
 4155SOL    HW213365   6.622   1.996   1.529
 4156SOL     OW13366   6.216   5.070   4.848
 4156SOL    HW113367   6.148   5.142   4.852
 4156SOL    HW213368   6.221   5.022   4.936
 4157SOL     OW13369   6.335   5.932   2.314
 4157SOL    HW113370   6.244   5.894   2.332
 4157SOL    HW213371   6.368   5.979   2.396
 4158SOL     OW13372   1.653   2.659   1.459
 4158SOL    HW113373   1.710   2.584   1.493
 4158SOL    HW213374   1.653   2.734   1.526
 4159SOL     OW13375   2.973   1.965   2.982
 4159SOL    HW113376   2.875   1.947   2.984
 4159SOL    HW213377   3.001   2.005   3.069
 4160SOL     OW13378   6.134   6.992   6.691
 4160SOL    HW113379   6.083   7.011   6.607
 4160SOL    HW213380   6.078   7.014   6.771
 4161SOL     OW13381   2.004   2.301   1.716
 4161SOL    HW113382   2.002   2.203   1.694
 4161SOL    HW213383   2.082   2.320   1.775
 4162SOL     OW13384   6.061   5.698   1.082
 4162SOL    HW113385   6.100   5.709   1.173
 4162SOL    HW213386   6.061   5.601   1.056
 4163SOL     OW13387   5.529   1.022   2.658
 4163SOL    HW113388   5.449   0.967   2.682
 4163SOL    HW213389   5.513   1.117   2.685
 4164SOL     OW13390   0.345   6.672   5.706
 4164SOL    HW113391   0.432   6.633   5.735
 4164SOL    HW213392   0.286   6.685   5.786
 4165SOL     OW13393   4.555   0.323   5.610
 4165SOL    HW113394   4.541   0.319   5.709
 4165SOL    HW213395   4.468   0.302   5.564
 4166SOL     OW13396   6.448   0.798   1.425
 4166SOL    HW113397   6.481   0.890   1.405
 4166SOL    HW213398   6.449   0.743   1.341
 4167SOL     OW13399   2.340   4.884   5.889
 4167SOL    HW113400   2.362   4.805   5.946
 4167SOL    HW213401   2.359   4.863   5.793
 4168SOL     OW13402   0.240   4.392   0.465
 4168SOL    HW113403   0.225   4.479   0.418
 4168SOL    HW213404   0.285   4.409   0.553
 4169SOL     OW13405   6.219   4.103   5.079
 4169SOL    HW113406   6.300   4.161   5.070
 4169SOL    HW213407   6.139   4.153   5.044
 4170SOL     OW13408   4.781   2.943   4.994
 4170SOL    HW113409   4.855   2.987   4.944
 4170SOL    HW213410   4.714   3.011   5.024
 4171SOL     OW13411   1.320   4.936   1.242
 4171SOL    HW113412   1.402   4.880   1.253
 4171SOL    HW213413   1.336   5.027   1.279
 4172SOL     OW13414   2.644   2.668   0.769
 4172SOL    HW113415   2.553   2.705   0.748
 4172SOL    HW213416   2.654   2.659   0.868
 4173SOL     OW13417   4.532   2.691   5.744
 4173SOL    HW113418   4.565   2.625   5.676
 4173SOL    HW213419   4.525   2.781   5.702
 4174SOL     OW13420   4.832   1.406   2.782
 4174SOL    HW113421   4.845   1.400   2.881
 4174SOL    HW213422   4.890   1.480   2.746
 4175SOL     OW13423   1.326   4.557   5.387
 4175SOL    HW113424   1.390   4.517   5.322
 4175SOL    HW213425   1.349   4.525   5.479
 4176SOL     OW13426   4.670   6.463   0.926
 4176SOL    HW113427   4.759   6.508   0.933
 4176SOL    HW213428   4.611   6.492   1.001
 4177SOL     OW13429   5.412   4.828   4.808
 4177SOL    HW113430   5.415   4.826   4.908
 4177SOL    HW213431   5.317   4.815   4.778
 4178SOL     OW13432   4.630   6.939   2.912
 4178SOL    HW113433   4.684   6.976   2.837
 4178SOL    HW213434   4.684   6.871   2.962
 4179SOL     OW13435   5.892   4.339   3.634
 4179SOL    HW113436   5.839   4.423   3.645
 4179SOL    HW213437   5.834   4.266   3.600
 4180SOL     OW13438   5.300   3.308   1.047
 4180SOL    HW113439   5.236   3.377   1.081
 4180SOL    HW213440   5.249   3.231   1.008
 4181SOL     OW13441   5.397   1.255   6.461
 4181SOL    HW113442   5.360   1.233   6.551
 4181SOL    HW213443   5.328   1.303   6.407
 4182SOL     OW13444   0.191   5.527   3.796
 4182SOL    HW113445   0.211   5.567   3.707
 4182SOL    HW213446   0.242   5.442   3.807
 4183SOL     OW13447   2.708   0.700   0.772
 4183SOL    HW113448   2.737   0.678   0.865
 4183SOL    HW213449   2.636   0.637   0.744
 4184SOL     OW13450   3.762   0.372   2.293
 4184SOL    HW113451   3.806   0.456   2.259
 4184SOL    HW213452   3.664   0.377   2.274
 4185SOL     OW13453   0.679   4.096   2.780
 4185SOL    HW113454   0.682   4.191   2.812
 4185SOL    HW213455   0.770   4.067   2.753
 4186SOL     OW13456   2.700   5.836   6.213
 4186SOL    HW113457   2.606   5.844   6.243
 4186SOL    HW213458   2.709   5.756   6.152
 4187SOL     OW13459   2.575   3.530   0.219
 4187SOL    HW113460   2.538   3.439   0.240
 4187SOL    HW213461   2.669   3.520   0.186
 4188SOL     OW13462   5.267   0.542   5.263
 4188SOL    HW113463   5.184   0.491   5.283
 4188SOL    HW213464   5.245   0.617   5.200
 4189SOL     OW13465   3.399   4.908   3.889
 4189SOL    HW113466   3.308   4.888   3.852
 4189SOL    HW213467   3.392   4.916   3.989
 4190SOL     OW13468   0.406   6.492   0.766
 4190SOL    HW113469   0.363   6.402   0.772
 4190SOL    HW213470   0.424   6.513   0.670
 4191SOL     OW13471   5.223   3.849   5.487
 4191SOL    HW113472   5.173   3.828   5.403
 4191SOL    HW213473   5.310   3.799   5.488
 4192SOL     OW13474   1.647   1.403   1.679
 4192SOL    HW113475   1.587   1.333   1.717
 4192SOL    HW213476   1.595   1.487   1.665
 4193SOL     OW13477   5.565   0.749   0.607
 4193SOL    HW113478   5.656   0.789   0.607
 4193SOL    HW213479   5.497   0.822   0.612
 4194SOL     OW13480   5.097   0.363   4.393
 4194SOL    HW113481   5.105   0.450   4.442
 4194SOL    HW213482   5.000   0.339   4.382
 4195SOL     OW13483   4.100   5.359   1.543
 4195SOL    HW113484   4.052   5.443   1.567
 4195SOL    HW213485   4.179   5.347   1.604
 4196SOL     OW13486   0.043   2.296   2.708
 4196SOL    HW113487   0.119   2.361   2.712
 4196SOL    HW213488   7.012   2.310   2.787
 4197SOL     OW13489   4.297   5.027   5.557
 4197SOL    HW113490   4.256   4.936   5.558
 4197SOL    HW213491   4.335   5.047   5.647
 4198SOL     OW13492   6.914   1.369   1.694
 4198SOL    HW113493   6.972   1.392   1.772
 4198SOL    HW213494   6.850   1.298   1.720
 4199SOL     OW13495   1.204   2.122   5.573
 4199SOL    HW113496   1.254   2.067   5.507
 4199SOL    HW213497   1.110   2.135   5.541
 4200SOL     OW13498   2.870   0.363   5.856
 4200SOL    HW113499   2.771   0.359   5.840
 4200SOL    HW213500   2.886   0.385   5.953
 4201SOL     OW13501   6.297   0.204   3.207
 4201SOL    HW113502   6.312   0.109   3.177
 4201SOL    HW213503   6.243   0.203   3.292
 4202SOL     OW13504   2.745   5.305   6.684
 4202SOL    HW113505   2.657   5.260   6.692
 4202SOL    HW213506   2.817   5.244   6.718
 4203SOL     OW13507   5.342   4.230   0.514
 4203SOL    HW113508   5.264   4.243   0.574
 4203SOL    HW213509   5.313   4.181   0.431
 4204SOL     OW13510   3.947   3.545   5.357
 4204SOL    HW113511   4.029   3.588   5.319
 4204SOL    HW213512   3.880   3.529   5.284
 4205SOL     OW13513   3.863   5.694   4.914
 4205SOL    HW113514   3.845   5.608   4.962
 4205SOL    HW213515   3.962   5.712   4.915
 4206SOL     OW13516   6.518   1.787   4.925
 4206SOL    HW113517   6.557   1.825   5.009
 4206SOL    HW213518   6.552   1.695   4.911
 4207SOL     OW13519   2.148   2.974   1.704
 4207SOL    HW113520   2.177   3.068   1.687
 4207SOL    HW213521   2.093   2.941   1.628
 4208SOL     OW13522   0.246   3.722   5.789
 4208SOL    HW113523   0.333   3.681   5.818
 4208SOL    HW213524   0.176   3.703   5.858
 4209SOL     OW13525   0.347   6.162   3.070
 4209SOL    HW113526   0.253   6.128   3.076
 4209SOL    HW213527   0.372   6.205   3.157
 4210SOL     OW13528   4.132   3.337   2.877
 4210SOL    HW113529   4.094   3.409   2.935
 4210SOL    HW213530   4.178   3.269   2.934
 4211SOL     OW13531   3.340   1.141   5.433
 4211SOL    HW113532   3.315   1.233   5.464
 4211SOL    HW213533   3.270   1.076   5.461
 4212SOL     OW13534   6.889   2.031   3.432
 4212SOL    HW113535   6.820   1.999   3.367
 4212SOL    HW213536   6.911   1.958   3.497
 4213SOL     OW13537   3.000   0.213   2.669
 4213SOL    HW113538   3.018   0.311   2.669
 4213SOL    HW213539   2.933   0.190   2.739
 4214SOL     OW13540   0.572   6.083   5.064
 4214SOL    HW113541   0.562   6.019   4.987
 4214SOL    HW213542   0.559   6.034   5.150
 4215SOL     OW13543   4.746   6.940   5.151
 4215SOL    HW113544   4.660   6.947   5.101
 4215SOL    HW213545   4.744   6.860   5.211
 4216SOL     OW13546   1.299   0.734   2.198
 4216SOL    HW113547   1.297   0.808   2.132
 4216SOL    HW213548   1.382   0.679   2.185
 4217SOL     OW13549   1.521   0.801   2.496
 4217SOL    HW113550   1.508   0.717   2.442
 4217SOL    HW213551   1.464   0.874   2.457
 4218SOL     OW13552   3.438   0.410   1.392
 4218SOL    HW113553   3.461   0.453   1.479
 4218SOL    HW213554   3.520   0.366   1.355
 4219SOL     OW13555   4.389   6.045   4.340
 4219SOL    HW113556   4.414   5.950   4.322
 4219SOL    HW213557   4.470   6.096   4.369
 4220SOL     OW13558   5.968   3.451   2.180
 4220SOL    HW113559   5.868   3.459   2.181
 4220SOL    HW213560   6.009   3.535   2.216
 4221SOL     OW13561   6.152   4.656   5.775
 4221SOL    HW113562   6.207   4.663   5.692
 4221SOL    HW213563   6.205   4.688   5.853
 4222SOL     OW13564   6.401   0.952   3.149
 4222SOL    HW113565   6.422   1.017   3.223
 4222SOL    HW213566   6.456   0.975   3.069
 4223SOL     OW13567   4.196   3.730   0.664
 4223SOL    HW113568   4.247   3.816   0.656
 4223SOL    HW213569   4.171   3.715   0.760
 4224SOL     OW13570   5.400   5.338   4.660
 4224SOL    HW113571   5.352   5.251   4.666
 4224SOL    HW213572   5.491   5.324   4.621
 4225SOL     OW13573   2.016   2.399   4.924
 4225SOL    HW113574   2.084   2.470   4.905
 4225SOL    HW213575   2.060   2.325   4.975
 4226SOL     OW13576   0.790   5.908   3.000
 4226SOL    HW113577   0.849   5.931   3.077
 4226SOL    HW213578   0.699   5.885   3.034
 4227SOL     OW13579   4.300   5.730   1.628
 4227SOL    HW113580   4.352   5.697   1.549
 4227SOL    HW213581   4.358   5.786   1.687
 4228SOL     OW13582   0.394   6.343   5.781
 4228SOL    HW113583   0.429   6.360   5.689
 4228SOL    HW213584   0.294   6.345   5.780
 4229SOL     OW13585   4.748   5.958   5.672
 4229SOL    HW113586   4.796   5.932   5.756
 4229SOL    HW213587   4.791   6.039   5.633
 4230SOL     OW13588   1.938   6.448   3.333
 4230SOL    HW113589   1.978   6.416   3.247
 4230SOL    HW213590   1.956   6.546   3.343
 4231SOL     OW13591   5.273   6.992   5.806
 4231SOL    HW113592   5.311   0.011   5.885
 4231SOL    HW213593   5.294   0.014   5.723
 4232SOL     OW13594   1.685   4.222   3.737
 4232SOL    HW113595   1.603   4.252   3.786
 4232SOL    HW213596   1.663   4.208   3.640
 4233SOL     OW13597   7.015   0.889   5.409
 4233SOL    HW113598   0.073   0.886   5.359
 4233SOL    HW213599   6.958   0.813   5.381
 4234SOL     OW13600   2.195   5.138   5.389
 4234SOL    HW113601   2.260   5.062   5.378
 4234SOL    HW213602   2.104   5.100   5.409
 4235SOL     OW13603   6.877   4.412   5.930
 4235SOL    HW113604   6.782   4.413   5.901
 4235SOL    HW213605   6.896   4.494   5.984
 4236SOL     OW13606   6.582   4.568   2.163
 4236SOL    HW113607   6.528   4.622   2.098
 4236SOL    HW213608   6.565   4.601   2.256
 4237SOL     OW13609   6.688   5.000   3.827
 4237SOL    HW113610   6.643   4.916   3.796
 4237SOL    HW213611   6.725   4.986   3.919
 4238SOL     OW13612   1.484   6.949   2.774
 4238SOL    HW113613   1.485   0.020   2.788
 4238SOL    HW213614   1.464   6.929   2.678
 4239SOL     OW13615   4.942   1.784   2.936
 4239SOL    HW113616   5.020   1.754   2.990
 4239SOL    HW213617   4.952   1.751   2.842
 4240SOL     OW13618   2.061   5.587   0.491
 4240SOL    HW113619   2.128   5.569   0.419
 4240SOL    HW213620   1.995   5.512   0.495
 4241SOL     OW13621   5.754   1.122   0.603
 4241SOL    HW113622   5.830   1.173   0.644
 4241SOL    HW213623   5.670   1.176   0.608
 4242SOL     OW13624   3.134   2.219   4.098
 4242SOL    HW113625   3.159   2.256   4.009
 4242SOL    HW213626   3.186   2.135   4.115
 4243SOL     OW13627   6.059   2.092   3.289
 4243SOL    HW113628   6.016   2.180   3.266
 4243SOL    HW213629   6.007   2.048   3.362
 4244SOL     OW13630   4.178   4.419   1.234
 4244SOL    HW113631   4.137   4.506   1.205
 4244SOL    HW213632   4.271   4.436   1.267
 4245SOL     OW13633   6.350   2.013   6.084
 4245SOL    HW113634   6.355   2.098   6.135
 4245SOL    HW213635   6.259   1.974   6.092
 4246SOL     OW13636   6.359   4.171   2.867
 4246SOL    HW113637   6.369   4.120   2.782
 4246SOL    HW213638   6.367   4.269   2.849
 4247SOL     OW13639   2.496   6.308   3.810
 4247SOL    HW113640   2.465   6.219   3.779
 4247SOL    HW213641   2.596   6.311   3.809
 4248SOL     OW13642   3.118   1.695   4.359
 4248SOL    HW113643   3.144   1.791   4.362
 4248SOL    HW213644   3.021   1.687   4.336
 4249SOL     OW13645   6.580   2.872   5.320
 4249SOL    HW113646   6.561   2.911   5.229
 4249SOL    HW213647   6.623   2.782   5.309
 4250SOL     OW13648   0.149   4.606   2.994
 4250SOL    HW113649   0.050   4.604   3.012
 4250SOL    HW213650   0.194   4.537   3.051
 4251SOL     OW13651   5.645   4.631   0.976
 4251SOL    HW113652   5.584   4.554   0.958
 4251SOL    HW213653   5.715   4.636   0.905
 4252SOL     OW13654   5.912   6.909   5.180
 4252SOL    HW113655   5.977   6.833   5.185
 4252SOL    HW213656   5.963   6.995   5.171
 4253SOL     OW13657   3.228   6.562   1.016
 4253SOL    HW113658   3.165   6.609   1.078
 4253SOL    HW213659   3.188   6.476   0.986
 4254SOL     OW13660   0.997   2.751   2.489
 4254SOL    HW113661   0.961   2.770   2.398
 4254SOL    HW213662   1.003   2.652   2.503
 4255SOL     OW13663   5.542   3.430   3.607
 4255SOL    HW113664   5.610   3.503   3.607
 4255SOL    HW213665   5.587   3.342   3.617
 4256SOL     OW13666   1.362   6.931   0.860
 4256SOL    HW113667   1.291   6.987   0.816
 4256SOL    HW213668   1.319   6.854   0.906
 4257SOL     OW13669   3.239   0.350   4.304
 4257SOL    HW113670   3.302   0.296   4.359
 4257SOL    HW213671   3.258   0.335   4.207
 4258SOL     OW13672   5.956   6.391   1.343
 4258SOL    HW113673   5.937   6.459   1.414
 4258SOL    HW213674   5.899   6.310   1.358
 4259SOL     OW13675   2.751   1.115   0.110
 4259SOL    HW113676   2.770   1.025   0.148
 4259SOL    HW213677   2.783   1.119   0.015
 4260SOL     OW13678   4.830   6.982   6.038
 4260SOL    HW113679   4.890   0.034   6.049
 4260SOL    HW213680   4.760   7.003   5.970
 4261SOL     OW13681   2.086   0.589   2.181
 4261SOL    HW113682   2.051   0.509   2.132
 4261SOL    HW213683   2.083   0.572   2.279
 4262SOL     OW13684   0.215   4.418   5.987
 4262SOL    HW113685   0.134   4.393   5.935
 4262SOL    HW213686   0.297   4.392   5.935
 4263SOL     OW13687   3.287   6.657   3.337
 4263SOL    HW113688   3.272   6.595   3.414
 4263SOL    HW213689   3.285   6.605   3.252
 4264SOL     OW13690   0.014   2.028   2.666
 4264SOL    HW113691   6.972   2.024   2.595
 4264SOL    HW213692   0.040   2.123   2.683
 4265SOL     OW13693   5.518   1.284   0.576
 4265SOL    HW113694   5.534   1.346   0.499
 4265SOL    HW213695   5.483   1.337   0.654
 4266SOL     OW13696   1.894   5.347   0.483
 4266SOL    HW113697   1.888   5.255   0.521
 4266SOL    HW213698   1.825   5.405   0.527
 4267SOL     OW13699   1.744   3.349   5.158
 4267SOL    HW113700   1.764   3.352   5.060
 4267SOL    HW213701   1.712   3.438   5.189
 4268SOL     OW13702   1.233   6.563   6.290
 4268SOL    HW113703   1.133   6.566   6.279
 4268SOL    HW213704   1.261   6.472   6.318
 4269SOL     OW13705   2.224   0.984   1.454
 4269SOL    HW113706   2.162   0.937   1.392
 4269SOL    HW213707   2.173   1.045   1.513
 4270SOL     OW13708   3.172   3.002   4.917
 4270SOL    HW113709   3.126   2.924   4.958
 4270SOL    HW213710   3.271   2.990   4.921
 4271SOL     OW13711   0.500   0.396   6.731
 4271SOL    HW113712   0.425   0.452   6.694
 4271SOL    HW213713   0.462   0.324   6.789
 4272SOL     OW13714   0.755   3.738   5.124
 4272SOL    HW113715   0.762   3.761   5.027
 4272SOL    HW213716   0.660   3.717   5.146
 4273SOL     OW13717   4.716   6.063   5.020
 4273SOL    HW113718   4.771   6.142   5.046
 4273SOL    HW213719   4.742   6.032   4.929
 4274SOL     OW13720   2.075   6.896   2.383
 4274SOL    HW113721   2.042   6.935   2.469
 4274SOL    HW213722   2.103   6.801   2.399
 4275SOL     OW13723   6.675   1.579   4.988
 4275SOL    HW113724   6.674   1.553   5.085
 4275SOL    HW213725   6.769   1.590   4.958
 4276SOL     OW13726   1.447   4.416   4.040
 4276SOL    HW113727   1.420   4.374   4.126
 4276SOL    HW213728   1.468   4.513   4.056
 4277SOL     OW13729   6.128   4.937   4.084
 4277SOL    HW113730   6.208   4.926   4.026
 4277SOL    HW213731   6.047   4.905   4.036
 4278SOL     OW13732   0.591   0.498   4.638
 4278SOL    HW113733   0.669   0.536   4.687
 4278SOL    HW213734   0.613   0.406   4.606
 4279SOL     OW13735   3.387   7.007   5.056
 4279SOL    HW113736   3.309   7.006   4.993
 4279SOL    HW213737   3.430   0.069   5.054
 4280SOL     OW13738   5.397   0.765   5.356
 4280SOL    HW113739   5.487   0.751   5.316
 4280SOL    HW213740   5.350   0.678   5.366
 4281SOL     OW13741   1.967   4.958   4.237
 4281SOL    HW113742   1.999   5.022   4.167
 4281SOL    HW213743   2.010   4.868   4.222
 4282SOL     OW13744   3.591   2.772   0.238
 4282SOL    HW113745   3.680   2.819   0.242
 4282SOL    HW213746   3.602   2.683   0.193
 4283SOL     OW13747   2.200   1.153   3.959
 4283SOL    HW113748   2.243   1.240   3.936
 4283SOL    HW213749   2.270   1.085   3.981
 4284SOL     OW13750   4.722   5.812   1.722
 4284SOL    HW113751   4.634   5.766   1.710
 4284SOL    HW213752   4.712   5.888   1.786
 4285SOL     OW13753   0.823   0.527   5.821
 4285SOL    HW113754   0.749   0.510   5.757
 4285SOL    HW213755   0.816   0.620   5.857
 4286SOL     OW13756   5.009   5.674   6.944
 4286SOL    HW113757   5.016   5.601   7.013
 4286SOL    HW213758   5.063   5.649   6.864
 4287SOL     OW13759   5.691   1.147   6.925
 4287SOL    HW113760   5.683   1.050   6.948
 4287SOL    HW213761   5.697   1.156   6.825
 4288SOL     OW13762   1.035   5.951   3.129
 4288SOL    HW113763   1.109   5.984   3.188
 4288SOL    HW213764   1.070   5.938   3.036
 4289SOL     OW13765   6.201   3.185   1.013
 4289SOL    HW113766   6.162   3.145   1.096
 4289SOL    HW213767   6.134   3.246   0.970
 4290SOL     OW13768   2.780   6.938   2.427
 4290SOL    HW113769   2.796   6.856   2.482
 4290SOL    HW213770   2.803   6.920   2.332
 4291SOL     OW13771   4.048   3.805   1.387
 4291SOL    HW113772   4.138   3.769   1.363
 4291SOL    HW213773   4.022   3.876   1.322
 4292SOL     OW13774   6.319   4.289   6.450
 4292SOL    HW113775   6.313   4.195   6.417
 4292SOL    HW213776   6.228   4.330   6.449
 4293SOL     OW13777   0.497   2.810   0.278
 4293SOL    HW113778   0.587   2.777   0.250
 4293SOL    HW213779   0.426   2.762   0.227
 4294SOL     OW13780   3.542   2.286   6.922
 4294SOL    HW113781   3.621   2.341   6.951
 4294SOL    HW213782   3.511   2.317   6.833
 4295SOL     OW13783   3.649   6.046   4.788
 4295SOL    HW113784   3.680   6.020   4.697
 4295SOL    HW213785   3.606   5.968   4.832
 4296SOL     OW13786   3.705   1.164   0.622
 4296SOL    HW113787   3.693   1.066   0.605
 4296SOL    HW213788   3.750   1.206   0.544
 4297SOL     OW13789   5.699   0.845   6.513
 4297SOL    HW113790   5.616   0.860   6.567
 4297SOL    HW213791   5.722   0.747   6.514
 4298SOL     OW13792   2.931   5.959   6.443
 4298SOL    HW113793   2.973   5.870   6.456
 4298SOL    HW213794   2.863   5.975   6.514
 4299SOL     OW13795   0.343   3.067   6.948
 4299SOL    HW113796   0.327   3.163   6.968
 4299SOL    HW213797   0.259   3.015   6.963
 4300SOL     OW13798   3.791   0.911   0.489
 4300SOL    HW113799   3.812   0.836   0.426
 4300SOL    HW213800   3.708   0.889   0.539
 4301SOL     OW13801   3.065   1.618   0.917
 4301SOL    HW113802   3.109   1.532   0.942
 4301SOL    HW213803   3.133   1.680   0.878
 4302SOL     OW13804   1.132   6.923   5.095
 4302SOL    HW113805   1.068   6.974   5.153
 4302SOL    HW213806   1.209   6.892   5.150
 4303SOL     OW13807   5.605   4.820   4.014
 4303SOL    HW113808   5.672   4.888   3.984
 4303SOL    HW213809   5.515   4.862   4.020
 4304SOL     OW13810   2.916   3.717   4.150
 4304SOL    HW113811   2.969   3.797   4.120
 4304SOL    HW213812   2.870   3.675   4.072
 4305SOL     OW13813   6.205   1.087   4.282
 4305SOL    HW113814   6.160   1.004   4.314
 4305SOL    HW213815   6.187   1.162   4.346
 4306SOL     OW13816   6.395   3.617   6.802
 4306SOL    HW113817   6.461   3.542   6.811
 4306SOL    HW213818   6.413   3.686   6.872
 4307SOL     OW13819   5.088   3.365   6.523
 4307SOL    HW113820   5.139   3.428   6.581
 4307SOL    HW213821   4.997   3.350   6.562
 4308SOL     OW13822   5.459   5.641   6.288
 4308SOL    HW113823   5.507   5.554   6.297
 4308SOL    HW213824   5.441   5.678   6.379
 4309SOL     OW13825   1.135   1.255   0.299
 4309SOL    HW113826   1.221   1.269   0.347
 4309SOL    HW213827   1.145   1.182   0.231
 4310SOL     OW13828   1.954   2.564   2.966
 4310SOL    HW113829   1.938   2.622   2.886
 4310SOL    HW213830   2.014   2.612   3.030
 4311SOL     OW13831   1.521   5.783   3.085
 4311SOL    HW113832   1.592   5.853   3.094
 4311SOL    HW213833   1.559   5.693   3.109
 4312SOL     OW13834   1.275   4.911   0.701
 4312SOL    HW113835   1.318   4.849   0.636
 4312SOL    HW213836   1.296   5.005   0.677
 4313SOL     OW13837   5.070   1.401   1.436
 4313SOL    HW113838   5.123   1.326   1.475
 4313SOL    HW213839   5.130   1.478   1.418
 4314SOL     OW13840   5.900   1.320   4.306
 4314SOL    HW113841   5.961   1.318   4.226
 4314SOL    HW213842   5.849   1.406   4.307
 4315SOL     OW13843   2.844   0.288   1.692
 4315SOL    HW113844   2.777   0.351   1.731
 4315SOL    HW213845   2.934   0.307   1.731
 4316SOL     OW13846   5.195   0.383   1.072
 4316SOL    HW113847   5.276   0.354   1.123
 4316SOL    HW213848   5.127   0.421   1.135
 4317SOL     OW13849   3.840   1.518   4.829
 4317SOL    HW113850   3.893   1.502   4.912
 4317SOL    HW213851   3.809   1.431   4.791
 4318SOL     OW13852   1.168   3.015   3.776
 4318SOL    HW113853   1.118   3.102   3.783
 4318SOL    HW213854   1.121   2.945   3.831
 4319SOL     OW13855   2.339   2.875   0.167
 4319SOL    HW113856   2.285   2.792   0.184
 4319SOL    HW213857   2.287   2.955   0.199
 4320SOL     OW13858   0.436   6.031   2.142
 4320SOL    HW113859   0.374   6.092   2.093
 4320SOL    HW213860   0.526   6.075   2.151
 4321SOL     OW13861   7.013   0.287   4.097
 4321SOL    HW113862   0.070   0.235   4.106
 4321SOL    HW213863   0.003   0.383   4.118
 4322SOL     OW13864   6.147   2.111   6.498
 4322SOL    HW113865   6.150   2.136   6.595
 4322SOL    HW213866   6.052   2.103   6.469
 4323SOL     OW13867   4.961   3.970   1.537
 4323SOL    HW113868   4.956   3.889   1.597
 4323SOL    HW213869   4.872   3.984   1.494
 4324SOL     OW13870   5.850   3.813   6.466
 4324SOL    HW113871   5.760   3.791   6.428
 4324SOL    HW213872   5.897   3.877   6.406
 4325SOL     OW13873   1.928   0.609   0.737
 4325SOL    HW113874   1.998   0.672   0.704
 4325SOL    HW213875   1.839   0.654   0.739
 4326SOL     OW13876   5.504   2.879   4.616
 4326SOL    HW113877   5.460   2.969   4.621
 4326SOL    HW213878   5.519   2.855   4.521
 4327SOL     OW13879   6.308   5.308   2.168
 4327SOL    HW113880   6.255   5.252   2.105
 4327SOL    HW213881   6.255   5.325   2.251
 4328SOL     OW13882   4.253   3.742   6.107
 4328SOL    HW113883   4.207   3.661   6.142
 4328SOL    HW213884   4.186   3.802   6.062
 4329SOL     OW13885   4.286   1.442   6.565
 4329SOL    HW113886   4.201   1.481   6.601
 4329SOL    HW213887   4.278   1.343   6.560
 4330SOL     OW13888   2.860   0.410   4.680
 4330SOL    HW113889   2.823   0.368   4.763
 4330SOL    HW213890   2.890   0.503   4.700
 4331SOL     OW13891   4.669   3.095   0.959
 4331SOL    HW113892   4.761   3.135   0.950
 4331SOL    HW213893   4.611   3.158   1.011
 4332SOL     OW13894   5.582   4.813   2.288
 4332SOL    HW113895   5.527   4.738   2.326
 4332SOL    HW213896   5.543   4.900   2.317
 4333SOL     OW13897   4.199   0.810   5.613
 4333SOL    HW113898   4.182   0.886   5.676
 4333SOL    HW213899   4.253   0.740   5.659
 4334SOL     OW13900   1.945   1.822   2.651
 4334SOL    HW113901   1.883   1.879   2.597
 4334SOL    HW213902   2.036   1.824   2.609
 4335SOL     OW13903   3.054   3.753   3.832
 4335SOL    HW113904   3.086   3.818   3.763
 4335SOL    HW213905   3.110   3.670   3.829
 4336SOL     OW13906   1.331   6.626   5.805
 4336SOL    HW113907   1.279   6.692   5.860
 4336SOL    HW213908   1.351   6.545   5.859
 4337SOL     OW13909   1.059   4.381   0.492
 4337SOL    HW113910   1.082   4.296   0.446
 4337SOL    HW213911   1.142   4.433   0.513
 4338SOL     OW13912   4.881   5.643   4.106
 4338SOL    HW113913   4.803   5.649   4.043
 4338SOL    HW213914   4.912   5.735   4.130
 4339SOL     OW13915   6.394   3.723   5.146
 4339SOL    HW113916   6.391   3.735   5.245
 4339SOL    HW213917   6.481   3.679   5.121
 4340SOL     OW13918   6.029   4.302   1.911
 4340SOL    HW113919   5.967   4.225   1.898
 4340SOL    HW213920   6.109   4.290   1.852
 4341SOL     OW13921   0.633   5.601   2.073
 4341SOL    HW113922   0.539   5.611   2.043
 4341SOL    HW213923   0.695   5.612   1.995
 4342SOL     OW13924   6.632   3.903   3.896
 4342SOL    HW113925   6.646   3.813   3.855
 4342SOL    HW213926   6.608   3.969   3.825
 4343SOL     OW13927   2.264   6.652   6.033
 4343SOL    HW113928   2.350   6.622   5.991
 4343SOL    HW213929   2.213   6.572   6.065
 4344SOL     OW13930   1.792   5.240   3.176
 4344SOL    HW113931   1.752   5.264   3.088
 4344SOL    HW213932   1.845   5.318   3.211
 4345SOL     OW13933   1.976   2.992   5.517
 4345SOL    HW113934   2.051   3.054   5.494
 4345SOL    HW213935   1.981   2.910   5.459
 4346SOL     OW13936   1.843   3.173   2.109
 4346SOL    HW113937   1.785   3.242   2.067
 4346SOL    HW213938   1.870   3.203   2.201
 4347SOL     OW13939   5.821   6.735   2.529
 4347SOL    HW113940   5.753   6.748   2.457
 4347SOL    HW213941   5.862   6.823   2.553
 4348SOL     OW13942   0.014   3.903   3.011
 4348SOL    HW113943   6.969   3.963   2.977
 4348SOL    HW213944   0.103   3.942   2.985
 4349SOL     OW13945   6.407   2.279   2.633
 4349SOL    HW113946   6.416   2.185   2.666
 4349SOL    HW213947   6.334   2.325   2.684
 4350SOL     OW13948   5.066   2.203   3.803
 4350SOL    HW113949   5.146   2.192   3.744
 4350SOL    HW213950   5.037   2.299   3.801
 4351SOL     OW13951   2.141   6.879   1.299
 4351SOL    HW113952   2.071   6.825   1.253
 4351SOL    HW213953   2.098   6.960   1.340
 4352SOL     OW13954   0.782   2.292   2.407
 4352SOL    HW113955   0.838   2.210   2.399
 4352SOL    HW213956   0.688   2.266   2.430
 4353SOL     OW13957   3.554   3.825   0.224
 4353SOL    HW113958   3.583   3.875   0.142
 4353SOL    HW213959   3.559   3.886   0.303
 4354SOL     OW13960   2.541   6.581   5.432
 4354SOL    HW113961   2.485   6.505   5.399
 4354SOL    HW213962   2.603   6.611   5.359
 4355SOL     OW13963   3.393   0.719   2.043
 4355SOL    HW113964   3.402   0.790   2.113
 4355SOL    HW213965   3.304   0.674   2.052
 4356SOL     OW13966   4.968   4.363   1.514
 4356SOL    HW113967   4.874   4.372   1.547
 4356SOL    HW213968   5.009   4.280   1.551
 4357SOL     OW13969   6.058   0.632   6.964
 4357SOL    HW113970   6.065   0.708   6.900
 4357SOL    HW213971   6.062   0.545   6.914
 4358SOL     OW13972   6.953   5.773   7.021
 4358SOL    HW113973   6.961   5.685   6.974
 4358SOL    HW213974   6.980   5.847   6.959
 4359SOL     OW13975   1.767   2.286   6.077
 4359SOL    HW113976   1.790   2.202   6.027
 4359SOL    HW213977   1.725   2.351   6.014
 4360SOL     OW13978   1.529   2.403   2.970
 4360SOL    HW113979   1.537   2.303   2.961
 4360SOL    HW213980   1.442   2.425   3.015
 4361SOL     OW13981   3.181   2.814   1.539
 4361SOL    HW113982   3.109   2.874   1.573
 4361SOL    HW213983   3.146   2.720   1.533
 4362SOL     OW13984   6.331   4.115   3.556
 4362SOL    HW113985   6.365   4.117   3.650
 4362SOL    HW213986   6.280   4.199   3.537
 4363SOL     OW13987   5.668   2.592   6.918
 4363SOL    HW113988   5.666   2.565   7.014
 4363SOL    HW213989   5.676   2.510   6.861
 4364SOL     OW13990   3.655   3.728   5.587
 4364SOL    HW113991   3.680   3.822   5.608
 4364SOL    HW213992   3.570   3.704   5.634
 4365SOL     OW13993   2.194   2.644   2.019
 4365SOL    HW113994   2.242   2.729   1.999
 4365SOL    HW213995   2.096   2.657   2.002
 4366SOL     OW13996   5.771   6.173   0.531
 4366SOL    HW113997   5.750   6.127   0.445
 4366SOL    HW213998   5.686   6.193   0.580
 4367SOL     OW13999   2.016   4.964   4.712
 4367SOL    HW114000   2.072   4.890   4.749
 4367SOL    HW214001   2.074   5.043   4.691
 4368SOL     OW14002   3.830   4.804   1.535
 4368SOL    HW114003   3.760   4.759   1.478
 4368SOL    HW214004   3.902   4.841   1.476
 4369SOL     OW14005   3.687   5.400   3.637
 4369SOL    HW114006   3.734   5.326   3.590
 4369SOL    HW214007   3.751   5.445   3.699
 4370SOL     OW14008   4.594   4.786   2.935
 4370SOL    HW114009   4.544   4.722   2.876
 4370SOL    HW214010   4.598   4.876   2.891
 4371SOL     OW14011   0.211   1.135   1.513
 4371SOL    HW114012   0.249   1.063   1.570
 4371SOL    HW214013   0.262   1.141   1.427
 4372SOL     OW14014   4.308   1.052   3.520
 4372SOL    HW114015   4.244   0.976   3.511
 4372SOL    HW214016   4.291   1.119   3.448
 4373SOL     OW14017   0.453   2.031   6.584
 4373SOL    HW114018   0.504   1.978   6.516
 4373SOL    HW214019   0.508   2.109   6.613
 4374SOL     OW14020   1.023   1.939   1.867
 4374SOL    HW114021   1.052   1.879   1.792
 4374SOL    HW214022   1.017   2.033   1.833
 4375SOL     OW14023   3.694   1.027   3.467
 4375SOL    HW114024   3.625   0.960   3.443
 4375SOL    HW214025   3.780   1.005   3.419
 4376SOL     OW14026   6.205   6.653   3.289
 4376SOL    HW114027   6.159   6.585   3.347
 4376SOL    HW214028   6.304   6.636   3.290
 4377SOL     OW14029   5.396   3.925   0.012
 4377SOL    HW114030   5.467   3.862   7.009
 4377SOL    HW214031   5.432   4.018   0.015
 4378SOL     OW14032   1.725   1.367   2.676
 4378SOL    HW114033   1.679   1.441   2.628
 4378SOL    HW214034   1.816   1.396   2.704
 4379SOL     OW14035   2.038   0.687   2.572
 4379SOL    HW114036   1.956   0.664   2.624
 4379SOL    HW214037   2.093   0.753   2.624
 4380SOL     OW14038   1.651   0.256   2.595
 4380SOL    HW114039   1.712   0.322   2.551
 4380SOL    HW214040   1.694   0.220   2.678
 4381SOL     OW14041   0.397   6.472   5.258
 4381SOL    HW114042   0.373   6.461   5.355
 4381SOL    HW214043   0.362   6.395   5.205
 4382SOL     OW14044   1.047   3.385   5.377
 4382SOL    HW114045   1.042   3.400   5.476
 4382SOL    HW214046   0.991   3.453   5.330
 4383SOL     OW14047   0.419   3.513   6.507
 4383SOL    HW114048   0.406   3.442   6.439
 4383SOL    HW214049   0.500   3.492   6.562
 4384SOL     OW14050   6.430   0.541   4.529
 4384SOL    HW114051   6.371   0.557   4.607
 4384SOL    HW214052   6.405   0.603   4.454
 4385SOL     OW14053   4.568   2.721   5.168
 4385SOL    HW114054   4.515   2.660   5.109
 4385SOL    HW214055   4.506   2.781   5.218
 4386SOL     OW14056   1.808   3.719   5.243
 4386SOL    HW114057   1.866   3.730   5.162
 4386SOL    HW214058   1.718   3.759   5.226
 4387SOL     OW14059   6.745   2.148   1.808
 4387SOL    HW114060   6.811   2.220   1.830
 4387SOL    HW214061   6.794   2.067   1.774
 4388SOL     OW14062   3.793   2.062   5.752
 4388SOL    HW114063   3.829   2.010   5.675
 4388SOL    HW214064   3.693   2.061   5.750
 4389SOL     OW14065   0.094   3.823   1.028
 4389SOL    HW114066   0.181   3.774   1.025
 4389SOL    HW214067   0.033   3.778   1.093
 4390SOL     OW14068   4.076   6.921   1.351
 4390SOL    HW114069   4.171   6.946   1.368
 4390SOL    HW214070   4.060   6.828   1.383
 4391SOL     OW14071   2.766   5.076   6.984
 4391SOL    HW114072   2.831   5.099   6.911
 4391SOL    HW214073   2.801   5.001   0.010
 4392SOL     OW14074   1.405   2.265   5.142
 4392SOL    HW114075   1.443   2.191   5.198
 4392SOL    HW214076   1.475   2.333   5.123
 4393SOL     OW14077   6.122   0.613   1.458
 4393SOL    HW114078   6.118   0.522   1.418
 4393SOL    HW214079   6.194   0.666   1.412
 4394SOL     OW14080   6.799   5.947   2.509
 4394SOL    HW114081   6.768   5.919   2.600
 4394SOL    HW214082   6.886   5.995   2.517
 4395SOL     OW14083   1.982   0.785   1.998
 4395SOL    HW114084   1.884   0.768   1.999
 4395SOL    HW214085   2.027   0.725   2.064
 4396SOL     OW14086   2.097   1.918   3.756
 4396SOL    HW114087   2.137   1.827   3.768
 4396SOL    HW214088   2.044   1.920   3.671
 4397SOL     OW14089   1.788   2.621   4.467
 4397SOL    HW114090   1.747   2.535   4.438
 4397SOL    HW214091   1.849   2.654   4.394
 4398SOL     OW14092   1.406   3.558   5.952
 4398SOL    HW114093   1.351   3.638   5.927
 4398SOL    HW214094   1.473   3.540   5.880
 4399SOL     OW14095   3.614   6.265   2.388
 4399SOL    HW114096   3.618   6.165   2.376
 4399SOL    HW214097   3.574   6.286   2.477
 4400SOL     OW14098   2.374   6.575   4.267
 4400SOL    HW114099   2.336   6.615   4.183
 4400SOL    HW214100   2.372   6.475   4.260
 4401SOL     OW14101   3.313   6.803   5.233
 4401SOL    HW114102   3.213   6.804   5.227
 4401SOL    HW214103   3.350   6.878   5.179
 4402SOL     OW14104   1.191   0.087   2.815
 4402SOL    HW114105   1.247   0.088   2.898
 4402SOL    HW214106   1.210   0.003   2.764
 4403SOL     OW14107   1.433   6.423   0.128
 4403SOL    HW114108   1.402   6.516   0.144
 4403SOL    HW214109   1.354   6.362   0.122
 4404SOL     OW14110   0.990   6.361   5.286
 4404SOL    HW114111   0.954   6.444   5.243
 4404SOL    HW214112   1.090   6.369   5.293
 4405SOL     OW14113   1.586   4.845   2.088
 4405SOL    HW114114   1.600   4.766   2.147
 4405SOL    HW214115   1.542   4.815   2.003
 4406SOL     OW14116   6.860   2.854   0.844
 4406SOL    HW114117   6.824   2.877   0.753
 4406SOL    HW214118   6.794   2.884   0.913
 4407SOL     OW14119   0.316   5.316   1.553
 4407SOL    HW114120   0.279   5.236   1.600
 4407SOL    HW214121   0.298   5.398   1.608
 4408SOL     OW14122   2.342   0.181   7.011
 4408SOL    HW114123   2.315   0.125   6.933
 4408SOL    HW214124   2.347   0.124   0.065
 4409SOL     OW14125   4.397   1.672   1.301
 4409SOL    HW114126   4.479   1.619   1.279
 4409SOL    HW214127   4.335   1.673   1.223
 4410SOL     OW14128   0.433   5.531   0.037
 4410SOL    HW114129   0.382   5.566   0.115
 4410SOL    HW214130   0.382   5.552   6.981
 4411SOL     OW14131   3.790   4.494   5.407
 4411SOL    HW114132   3.869   4.452   5.452
 4411SOL    HW214133   3.820   4.544   5.325
 4412SOL     OW14134   4.683   6.230   4.161
 4412SOL    HW114135   4.757   6.164   4.174
 4412SOL    HW214136   4.673   6.285   4.244
 4413SOL     OW14137   5.696   5.256   3.781
 4413SOL    HW114138   5.696   5.353   3.808
 4413SOL    HW214139   5.710   5.249   3.682
 4414SOL     OW14140   3.306   5.780   1.172
 4414SOL    HW114141   3.272   5.690   1.199
 4414SOL    HW214142   3.378   5.769   1.104
 4415SOL     OW14143   4.538   3.339   0.276
 4415SOL    HW114144   4.497   3.370   0.191
 4415SOL    HW214145   4.492   3.256   0.308
 4416SOL     OW14146   4.448   1.849   3.731
 4416SOL    HW114147   4.401   1.835   3.645
 4416SOL    HW214148   4.506   1.931   3.726
 4417SOL     OW14149   5.746   3.746   3.638
 4417SOL    HW114150   5.745   3.812   3.714
 4417SOL    HW214151   5.819   3.769   3.575
 4418SOL     OW14152   6.301   1.718   2.981
 4418SOL    HW114153   6.207   1.752   2.989
 4418SOL    HW214154   6.364   1.788   3.014
 4419SOL     OW14155   6.126   0.014   5.787
 4419SOL    HW114156   6.220   0.014   5.821
 4419SOL    HW214157   6.127   0.008   5.687
 4420SOL     OW14158   3.982   1.526   1.764
 4420SOL    HW114159   4.061   1.585   1.749
 4420SOL    HW214160   3.961   1.523   1.862
 4421SOL     OW14161   1.850   1.510   5.342
 4421SOL    HW114162   1.833   1.509   5.244
 4421SOL    HW214163   1.945   1.488   5.360
 4422SOL     OW14164   1.187   4.726   6.593
 4422SOL    HW114165   1.110   4.750   6.533
 4422SOL    HW214166   1.229   4.641   6.561
 4423SOL     OW14167   0.208   4.016   5.945
 4423SOL    HW114168   0.155   4.097   5.918
 4423SOL    HW214169   0.251   3.976   5.864
 4424SOL     OW14170   5.151   6.732   4.570
 4424SOL    HW114171   5.227   6.782   4.611
 4424SOL    HW214172   5.160   6.634   4.590
 4425SOL     OW14173   1.821   4.739   0.504
 4425SOL    HW114174   1.838   4.756   0.407
 4425SOL    HW214175   1.897   4.687   0.543
 4426SOL     OW14176   0.888   1.699   4.192
 4426SOL    HW114177   0.943   1.777   4.164
 4426SOL    HW214178   0.791   1.722   4.183
 4427SOL     OW14179   5.530   6.982   2.976
 4427SOL    HW114180   5.525   6.986   3.076
 4427SOL    HW214181   5.569   6.894   2.948
 4428SOL     OW14182   4.309   0.882   4.395
 4428SOL    HW114183   4.308   0.917   4.301
 4428SOL    HW214184   4.373   0.936   4.450
 4429SOL     OW14185   2.953   0.119   2.379
 4429SOL    HW114186   2.994   0.153   2.463
 4429SOL    HW214187   2.902   0.035   2.398
 4430SOL     OW14188   4.873   4.596   5.098
 4430SOL    HW114189   4.905   4.532   5.027
 4430SOL    HW214190   4.951   4.647   5.135
 4431SOL     OW14191   2.893   0.837   3.435
 4431SOL    HW114192   2.904   0.793   3.345
 4431SOL    HW214193   2.853   0.928   3.422
 4432SOL     OW14194   2.668   3.365   6.317
 4432SOL    HW114195   2.682   3.409   6.406
 4432SOL    HW214196   2.589   3.405   6.271
 4433SOL     OW14197   6.724   2.714   4.419
 4433SOL    HW114198   6.681   2.624   4.414
 4433SOL    HW214199   6.656   2.785   4.400
 4434SOL     OW14200   5.528   1.767   2.998
 4434SOL    HW114201   5.619   1.733   3.019
 4434SOL    HW214202   5.482   1.704   2.936
 4435SOL     OW14203   4.294   3.616   1.066
 4435SOL    HW114204   4.234   3.539   1.089
 4435SOL    HW214205   4.239   3.688   1.023
 4436SOL     OW14206   3.978   1.223   1.147
 4436SOL    HW114207   3.999   1.292   1.078
 4436SOL    HW214208   4.005   1.257   1.237
 4437SOL     OW14209   0.997   3.096   3.069
 4437SOL    HW114210   1.087   3.112   3.110
 4437SOL    HW214211   0.948   3.183   3.061
 4438SOL     OW14212   4.675   6.754   6.026
 4438SOL    HW114213   4.591   6.805   6.008
 4438SOL    HW214214   4.743   6.815   6.067
 4439SOL     OW14215   0.135   4.701   1.903
 4439SOL    HW114216   0.096   4.765   1.969
 4439SOL    HW214217   0.199   4.640   1.949
 4440SOL     OW14218   2.494   5.080   0.731
 4440SOL    HW114219   2.426   5.140   0.773
 4440SOL    HW214220   2.567   5.061   0.797
 4441SOL     OW14221   0.239   1.384   1.155
 4441SOL    HW114222   0.151   1.414   1.191
 4441SOL    HW214223   0.257   1.430   1.068
 4442SOL     OW14224   1.314   5.679   4.704
 4442SOL    HW114225   1.230   5.660   4.653
 4442SOL    HW214226   1.291   5.699   4.799
 4443SOL     OW14227   1.482   3.320   5.588
 4443SOL    HW114228   1.576   3.325   5.623
 4443SOL    HW214229   1.445   3.229   5.605
 4444SOL     OW14230   4.488   3.337   0.005
 4444SOL    HW114231   4.546   3.403   6.984
 4444SOL    HW214232   4.393   3.366   0.000
 4445SOL     OW14233   1.279   6.194   0.019
 4445SOL    HW114234   1.324   6.221   6.962
 4445SOL    HW214235   1.340   6.135   0.072
 4446SOL     OW14236   5.664   1.976   0.297
 4446SOL    HW114237   5.637   1.890   0.342
 4446SOL    HW214238   5.662   1.964   0.198
 4447SOL     OW14239   6.122   3.914   4.924
 4447SOL    HW114240   6.156   3.828   4.963
 4447SOL    HW214241   6.156   3.991   4.979
 4448SOL     OW14242   2.562   6.233   0.759
 4448SOL    HW114243   2.480   6.225   0.703
 4448SOL    HW214244   2.642   6.247   0.699
 4449SOL     OW14245   5.009   0.716   5.826
 4449SOL    HW114246   5.084   0.781   5.818
 4449SOL    HW214247   5.035   0.643   5.888
 4450SOL     OW14248   2.877   1.791   6.637
 4450SOL    HW114249   2.883   1.890   6.652
 4450SOL    HW214250   2.785   1.767   6.606
 4451SOL     OW14251   4.658   4.969   5.150
 4451SOL    HW114252   4.747   5.001   5.183
 4451SOL    HW214253   4.587   4.994   5.216
 4452SOL     OW14254   5.815   5.632   4.193
 4452SOL    HW114255   5.837   5.637   4.096
 4452SOL    HW214256   5.833   5.720   4.236
 4453SOL     OW14257   1.152   2.835   1.675
 4453SOL    HW114258   1.180   2.898   1.747
 4453SOL    HW214259   1.054   2.818   1.682
 4454SOL     OW14260   1.660   1.536   0.091
 4454SOL    HW114261   1.684   1.530   7.023
 4454SOL    HW214262   1.566   1.503   0.104
 4455SOL     OW14263   5.510   6.248   5.357
 4455SOL    HW114264   5.438   6.198   5.406
 4455SOL    HW214265   5.586   6.265   5.420
 4456SOL     OW14266   2.554   5.606   2.828
 4456SOL    HW114267   2.510   5.686   2.786
 4456SOL    HW214268   2.650   5.602   2.798
 4457SOL     OW14269   3.422   1.802   3.591
 4457SOL    HW114270   3.338   1.752   3.608
 4457SOL    HW214271   3.406   1.900   3.605
 4458SOL     OW14272   2.308   3.411   1.454
 4458SOL    HW114273   2.215   3.447   1.468
 4458SOL    HW214274   2.304   3.312   1.443
 4459SOL     OW14275   4.073   2.058   4.421
 4459SOL    HW114276   4.052   2.109   4.505
 4459SOL    HW214277   4.003   2.077   4.352
 4460SOL     OW14278   0.676   2.643   6.674
 4460SOL    HW114279   0.719   2.685   6.754
 4460SOL    HW214280   0.594   2.592   6.702
 4461SOL     OW14281   1.995   0.654   1.020
 4461SOL    HW114282   1.972   0.640   0.924
 4461SOL    HW214283   1.961   0.578   1.074
 4462SOL     OW14284   5.850   4.489   1.841
 4462SOL    HW114285   5.928   4.426   1.841
 4462SOL    HW214286   5.818   4.503   1.748
 4463SOL     OW14287   4.989   1.329   1.147
 4463SOL    HW114288   5.067   1.267   1.154
 4463SOL    HW214289   4.963   1.361   1.239
 4464SOL     OW14290   0.289   6.208   0.548
 4464SOL    HW114291   0.287   6.108   0.545
 4464SOL    HW214292   0.236   6.245   0.472
 4465SOL     OW14293   2.394   5.031   0.464
 4465SOL    HW114294   2.296   5.053   0.467
 4465SOL    HW214295   2.435   5.050   0.553
 4466SOL     OW14296   1.295   1.817   2.613
 4466SOL    HW114297   1.391   1.790   2.623
 4466SOL    HW214298   1.289   1.916   2.609
 4467SOL     OW14299   2.411   5.187   3.476
 4467SOL    HW114300   2.368   5.104   3.510
 4467SOL    HW214301   2.435   5.175   3.379
 4468SOL     OW14302   1.777   4.141   1.128
 4468SOL    HW114303   1.832   4.213   1.170
 4468SOL    HW214304   1.832   4.090   1.062
 4469SOL     OW14305   2.929   0.799   1.183
 4469SOL    HW114306   2.991   0.810   1.106
 4469SOL    HW214307   2.979   0.762   1.261
 4470SOL     OW14308   1.088   1.711   2.475
 4470SOL    HW114309   1.158   1.759   2.528
 4470SOL    HW214310   1.059   1.630   2.526
 4471SOL     OW14311   1.453   3.104   6.684
 4471SOL    HW114312   1.365   3.091   6.638
 4471SOL    HW214313   1.509   3.022   6.672
 4472SOL     OW14314   0.433   1.971   1.163
 4472SOL    HW114315   0.415   1.872   1.161
 4472SOL    HW214316   0.470   1.996   1.252
 4473SOL     OW14317   5.461   2.511   4.189
 4473SOL    HW114318   5.381   2.454   4.166
 4473SOL    HW214319   5.431   2.594   4.234
 4474SOL     OW14320   3.152   6.711   1.652
 4474SOL    HW114321   3.175   6.807   1.641
 4474SOL    HW214322   3.101   6.698   1.737
 4475SOL     OW14323   1.456   3.912   1.890
 4475SOL    HW114324   1.395   3.977   1.844
 4475SOL    HW214325   1.456   3.825   1.840
 4476SOL     OW14326   6.513   0.600   3.856
 4476SOL    HW114327   6.465   0.619   3.770
 4476SOL    HW214328   6.451   0.614   3.933
 4477SOL     OW14329   1.637   0.667   5.443
 4477SOL    HW114330   1.659   0.569   5.442
 4477SOL    HW214331   1.605   0.693   5.534
 4478SOL     OW14332   2.297   0.339   2.223
 4478SOL    HW114333   2.202   0.364   2.204
 4478SOL    HW214334   2.355   0.370   2.148
 4479SOL     OW14335   0.861   2.313   1.367
 4479SOL    HW114336   0.867   2.327   1.466
 4479SOL    HW214337   0.766   2.295   1.342
 4480SOL     OW14338   0.382   4.611   5.017
 4480SOL    HW114339   0.432   4.615   5.103
 4480SOL    HW214340   0.446   4.608   4.941
 4481SOL     OW14341   2.265   5.291   4.821
 4481SOL    HW114342   2.274   5.357   4.896
 4481SOL    HW214343   2.171   5.290   4.788
 4482SOL     OW14344   2.377   2.689   5.527
 4482SOL    HW114345   2.394   2.704   5.430
 4482SOL    HW214346   2.442   2.741   5.582
 4483SOL     OW14347   6.971   2.572   2.101
 4483SOL    HW114348   6.923   2.658   2.123
 4483SOL    HW214349   0.034   2.593   2.066
 4484SOL     OW14350   2.614   2.228   7.018
 4484SOL    HW114351   2.557   2.294   0.040
 4484SOL    HW214352   2.579   2.216   6.926
 4485SOL     OW14353   5.397   2.567   4.994
 4485SOL    HW114354   5.363   2.613   4.912
 4485SOL    HW214355   5.478   2.513   4.971
 4486SOL     OW14356   5.955   5.142   4.986
 4486SOL    HW114357   5.965   5.209   5.060
 4486SOL    HW214358   5.867   5.155   4.941
 4487SOL     OW14359   2.804   3.216   0.435
 4487SOL    HW114360   2.789   3.279   0.511
 4487SOL    HW214361   2.721   3.209   0.380
 4488SOL     OW14362   1.184   3.508   4.723
 4488SOL    HW114363   1.111   3.452   4.684
 4488SOL    HW214364   1.254   3.448   4.762
 4489SOL     OW14365   4.809   5.589   5.046
 4489SOL    HW114366   4.755   5.661   5.088
 4489SOL    HW214367   4.906   5.612   5.053
 4490SOL     OW14368   5.246   1.523   1.738
 4490SOL    HW114369   5.280   1.616   1.750
 4490SOL    HW214370   5.156   1.525   1.695
 4491SOL     OW14371   0.261   3.584   3.422
 4491SOL    HW114372   0.252   3.485   3.416
 4491SOL    HW214373   0.352   3.607   3.457
 4492SOL     OW14374   6.212   3.342   1.786
 4492SOL    HW114375   6.273   3.263   1.792
 4492SOL    HW214376   6.266   3.426   1.777
 4493SOL     OW14377   4.833   6.289   5.106
 4493SOL    HW114378   4.920   6.306   5.061
 4493SOL    HW214379   4.772   6.367   5.092
 4494SOL     OW14380   0.968   1.048   5.859
 4494SOL    HW114381   0.912   1.117   5.906
 4494SOL    HW214382   1.064   1.068   5.874
 4495SOL     OW14383   4.531   6.761   3.502
 4495SOL    HW114384   4.499   6.666   3.508
 4495SOL    HW214385   4.631   6.762   3.498
 4496SOL     OW14386   5.186   6.042   0.823
 4496SOL    HW114387   5.212   6.138   0.814
 4496SOL    HW214388   5.242   5.999   0.894
 4497SOL     OW14389   4.142   2.325   6.589
 4497SOL    HW114390   4.227   2.281   6.615
 4497SOL    HW214391   4.091   2.267   6.526
 4498SOL     OW14392   6.572   4.630   6.424
 4498SOL    HW114393   6.602   4.560   6.360
 4498SOL    HW214394   6.511   4.590   6.492
 4499SOL     OW14395   6.149   2.737   3.591
 4499SOL    HW114396   6.097   2.795   3.528
 4499SOL    HW214397   6.244   2.769   3.594
 4500SOL     OW14398   4.098   4.180   6.924
 4500SOL    HW114399   4.150   4.262   6.901
 4500SOL    HW214400   4.094   4.119   6.845
 4501SOL     OW14401   6.459   3.332   3.058
 4501SOL    HW114402   6.389   3.261   3.063
 4501SOL    HW214403   6.546   3.292   3.029
 4502SOL     OW14404   1.207   3.970   0.090
 4502SOL    HW114405   1.136   3.907   0.058
 4502SOL    HW214406   1.270   3.922   0.151
 4503SOL     OW14407   3.664   6.832   1.789
 4503SOL    HW114408   3.602   6.761   1.823
 4503SOL    HW214409   3.613   6.893   1.727
 4504SOL     OW14410   6.298   1.794   4.350
 4504SOL    HW114411   6.233   1.748   4.410
 4504SOL    HW214412   6.298   1.749   4.260
 4505SOL     OW14413   6.464   4.802   1.802
 4505SOL    HW114414   6.441   4.807   1.899
 4505SOL    HW214415   6.550   4.753   1.791
 4506SOL     OW14416   4.870   2.411   3.836
 4506SOL    HW114417   4.820   2.492   3.867
 4506SOL    HW214418   4.813   2.361   3.770
 4507SOL     OW14419   0.131   3.454   3.832
 4507SOL    HW114420   0.048   3.429   3.882
 4507SOL    HW214421   0.148   3.552   3.844
 4508SOL     OW14422   1.229   4.749   0.469
 4508SOL    HW114423   1.163   4.807   0.517
 4508SOL    HW214424   1.225   4.767   0.371
 4509SOL     OW14425   5.042   2.058   3.132
 4509SOL    HW114426   4.952   2.046   3.090
 4509SOL    HW214427   5.105   1.988   3.097
 4510SOL     OW14428   4.649   1.051   4.662
 4510SOL    HW114429   4.584   1.090   4.727
 4510SOL    HW214430   4.737   1.099   4.669
 4511SOL     OW14431   6.370   3.617   0.417
 4511SOL    HW114432   6.396   3.522   0.396
 4511SOL    HW214433   6.292   3.644   0.361
 4512SOL     OW14434   3.417   1.426   6.228
 4512SOL    HW114435   3.405   1.471   6.139
 4512SOL    HW214436   3.445   1.331   6.213
 4513SOL     OW14437   1.029   5.658   6.318
 4513SOL    HW114438   1.051   5.739   6.371
 4513SOL    HW214439   1.099   5.644   6.248
 4514SOL     OW14440   3.889   2.747   5.999
 4514SOL    HW114441   3.826   2.718   5.928
 4514SOL    HW214442   3.976   2.774   5.957
 4515SOL     OW14443   5.763   2.152   5.601
 4515SOL    HW114444   5.671   2.188   5.615
 4515SOL    HW214445   5.766   2.097   5.518
 4516SOL     OW14446   2.407   0.346   6.019
 4516SOL    HW114447   2.429   0.249   6.034
 4516SOL    HW214448   2.310   0.361   6.038
 4517SOL     OW14449   4.652   0.056   6.685
 4517SOL    HW114450   4.695   0.020   6.768
 4517SOL    HW214451   4.566   0.006   6.669
 4518SOL     OW14452   0.638   6.768   1.296
 4518SOL    HW114453   0.734   6.777   1.322
 4518SOL    HW214454   0.631   6.735   1.202
 4519SOL     OW14455   5.010   6.874   6.998
 4519SOL    HW114456   5.077   6.875   0.045
 4519SOL    HW214457   5.001   6.781   6.963
 4520SOL     OW14458   3.922   5.797   6.095
 4520SOL    HW114459   3.908   5.890   6.129
 4520SOL    HW214460   3.849   5.738   6.129
 4521SOL     OW14461   5.029   1.977   4.912
 4521SOL    HW114462   5.119   1.976   4.869
 4521SOL    HW214463   4.963   1.930   4.854
 4522SOL     OW14464   5.430   4.240   2.720
 4522SOL    HW114465   5.514   4.186   2.711
 4522SOL    HW214466   5.395   4.231   2.813
 4523SOL     OW14467   1.263   4.202   6.997
 4523SOL    HW114468   1.330   4.250   0.026
 4523SOL    HW214469   1.237   4.115   0.013
 4524SOL     OW14470   5.985   3.134   2.613
 4524SOL    HW114471   6.040   3.058   2.577
 4524SOL    HW214472   6.020   3.220   2.577
 4525SOL     OW14473   3.353   1.969   5.914
 4525SOL    HW114474   3.334   1.953   6.011
 4525SOL    HW214475   3.407   1.894   5.877
 4526SOL     OW14476   6.715   0.189   6.692
 4526SOL    HW114477   6.771   0.112   6.662
 4526SOL    HW214478   6.756   0.232   6.773
 4527SOL     OW14479   6.520   6.899   2.884
 4527SOL    HW114480   6.423   6.915   2.900
 4527SOL    HW214481   6.558   6.845   2.959
 4528SOL     OW14482   4.117   0.678   6.493
 4528SOL    HW114483   4.124   0.755   6.431
 4528SOL    HW214484   4.106   0.711   6.587
 4529SOL     OW14485   2.447   1.298   5.710
 4529SOL    HW114486   2.374   1.345   5.760
 4529SOL    HW214487   2.406   1.239   5.640
 4530SOL     OW14488   2.127   5.876   3.265
 4530SOL    HW114489   2.196   5.908   3.200
 4530SOL    HW214490   2.127   5.936   3.345
 4531SOL     OW14491   1.065   3.831   6.058
 4531SOL    HW114492   0.987   3.868   6.108
 4531SOL    HW214493   1.043   3.825   5.960
 4532SOL     OW14494   5.760   0.622   2.785
 4532SOL    HW114495   5.828   0.610   2.858
 4532SOL    HW214496   5.781   0.558   2.710
 4533SOL     OW14497   1.758   1.120   3.318
 4533SOL    HW114498   1.718   1.038   3.277
 4533SOL    HW214499   1.793   1.180   3.246
 4534SOL     OW14500   4.631   2.376   5.212
 4534SOL    HW114501   4.701   2.322   5.165
 4534SOL    HW214502   4.567   2.413   5.144
 4535SOL     OW14503   3.840   1.359   1.591
 4535SOL    HW114504   3.900   1.401   1.659
 4535SOL    HW214505   3.745   1.377   1.614
 4536SOL     OW14506   3.013   1.953   4.585
 4536SOL    HW114507   3.040   1.913   4.497
 4536SOL    HW214508   2.913   1.957   4.590
 4537SOL     OW14509   4.133   3.365   2.169
 4537SOL    HW114510   4.221   3.388   2.211
 4537SOL    HW214511   4.148   3.302   2.093
 4538SOL     OW14512   2.635   0.906   2.680
 4538SOL    HW114513   2.628   0.844   2.601
 4538SOL    HW214514   2.728   0.903   2.716
 4539SOL     OW14515   2.263   5.877   4.520
 4539SOL    HW114516   2.328   5.947   4.490
 4539SOL    HW214517   2.296   5.835   4.604
 4540SOL     OW14518   2.358   1.159   0.918
 4540SOL    HW114519   2.397   1.071   0.942
 4540SOL    HW214520   2.425   1.231   0.934
 4541SOL     OW14521   5.511   1.318   0.020
 4541SOL    HW114522   5.579   1.266   6.998
 4541SOL    HW214523   5.455   1.256   0.075
 4542SOL     OW14524   6.956   1.887   1.157
 4542SOL    HW114525   6.920   1.962   1.211
 4542SOL    HW214526   6.947   1.909   1.059
 4543SOL     OW14527   5.016   1.989   0.838
 4543SOL    HW114528   5.026   1.955   0.931
 4543SOL    HW214529   4.997   2.087   0.840
 4544SOL     OW14530   3.771   4.867   0.395
 4544SOL    HW114531   3.743   4.853   0.490
 4544SOL    HW214532   3.702   4.826   0.334
 4545SOL     OW14533   0.443   3.638   5.476
 4545SOL    HW114534   0.380   3.607   5.404
 4545SOL    HW214535   0.408   3.609   5.565
 4546SOL     OW14536   2.783   0.189   5.189
 4546SOL    HW114537   2.720   0.260   5.219
 4546SOL    HW214538   2.836   0.156   5.268
 4547SOL     OW14539   6.303   1.587   0.469
 4547SOL    HW114540   6.396   1.620   0.450
 4547SOL    HW214541   6.250   1.588   0.385
 4548SOL     OW14542   2.734   2.377   3.471
 4548SOL    HW114543   2.645   2.421   3.485
 4548SOL    HW214544   2.728   2.281   3.497
 4549SOL     OW14545   5.000   4.204   2.291
 4549SOL    HW114546   4.914   4.247   2.318
 4549SOL    HW214547   5.050   4.174   2.372
 4550SOL     OW14548   0.990   4.422   3.300
 4550SOL    HW114549   1.017   4.400   3.206
 4550SOL    HW214550   0.974   4.520   3.309
 4551SOL     OW14551   0.967   3.918   5.214
 4551SOL    HW114552   0.931   4.006   5.184
 4551SOL    HW214553   0.910   3.844   5.177
 4552SOL     OW14554   5.413   2.145   0.990
 4552SOL    HW114555   5.481   2.175   0.923
 4552SOL    HW214556   5.348   2.083   0.946
 4553SOL     OW14557   5.300   4.381   6.602
 4553SOL    HW114558   5.245   4.300   6.580
 4553SOL    HW214559   5.396   4.363   6.580
 4554SOL     OW14560   0.054   6.979   1.945
 4554SOL    HW114561   7.000   6.937   1.906
 4554SOL    HW214562   0.028   0.028   2.003
 4555SOL     OW14563   1.529   1.275   6.258
 4555SOL    HW114564   1.605   1.335   6.231
 4555SOL    HW214565   1.556   1.180   6.243
 4556SOL     OW14566   6.317   3.300   4.918
 4556SOL    HW114567   6.278   3.275   4.829
 4556SOL    HW214568   6.417   3.304   4.910
 4557SOL     OW14569   5.487   5.178   4.202
 4557SOL    HW114570   5.387   5.184   4.201
 4557SOL    HW214571   5.525   5.232   4.127
 4558SOL     OW14572   6.505   3.580   4.750
 4558SOL    HW114573   6.534   3.492   4.786
 4558SOL    HW214574   6.559   3.602   4.669
 4559SOL     OW14575   6.945   3.445   2.728
 4559SOL    HW114576   6.958   3.397   2.814
 4559SOL    HW214577   6.990   3.534   2.732
 4560SOL     OW14578   6.086   4.344   2.168
 4560SOL    HW114579   6.070   4.331   2.071
 4560SOL    HW214580   6.014   4.403   2.206
 4561SOL     OW14581   3.702   1.716   3.577
 4561SOL    HW114582   3.610   1.755   3.578
 4561SOL    HW214583   3.712   1.654   3.500
 4562SOL     OW14584   1.588   0.314   0.239
 4562SOL    HW114585   1.525   0.237   0.224
 4562SOL    HW214586   1.681   0.286   0.212
 4563SOL     OW14587   6.772   3.664   0.832
 4563SOL    HW114588   6.732   3.572   0.842
 4563SOL    HW214589   6.867   3.655   0.801
 4564SOL     OW14590   6.638   5.566   2.172
 4564SOL    HW114591   6.707   5.612   2.227
 4564SOL    HW214592   6.554   5.619   2.173
 4565SOL     OW14593   1.304   1.321   4.472
 4565SOL    HW114594   1.335   1.408   4.435
 4565SOL    HW214595   1.308   1.250   4.401
 4566SOL     OW14596   0.269   3.550   1.185
 4566SOL    HW114597   0.206   3.478   1.215
 4566SOL    HW214598   0.302   3.600   1.264
 4567SOL     OW14599   0.182   1.175   6.787
 4567SOL    HW114600   0.173   1.092   6.842
 4567SOL    HW214601   0.207   1.151   6.693
 4568SOL     OW14602   1.301   3.710   5.306
 4568SOL    HW114603   1.341   3.622   5.334
 4568SOL    HW214604   1.215   3.694   5.259
 4569SOL     OW14605   3.054   0.586   2.985
 4569SOL    HW114606   2.974   0.553   3.036
 4569SOL    HW214607   3.093   0.665   3.032
 4570SOL     OW14608   6.091   6.415   2.084
 4570SOL    HW114609   6.083   6.329   2.034
 4570SOL    HW214610   6.126   6.486   2.023
 4571SOL     OW14611   4.382   2.867   6.809
 4571SOL    HW114612   4.349   2.824   6.724
 4571SOL    HW214613   4.425   2.954   6.788
 4572SOL     OW14614   2.170   1.164   6.720
 4572SOL    HW114615   2.076   1.128   6.725
 4572SOL    HW214616   2.217   1.145   6.806
 4573SOL     OW14617   0.473   6.919   0.324
 4573SOL    HW114618   0.496   6.887   0.232
 4573SOL    HW214619   0.529   6.870   0.391
 4574SOL     OW14620   5.491   4.176   0.104
 4574SOL    HW114621   5.464   4.134   0.191
 4574SOL    HW214622   5.589   4.196   0.106
 4575SOL     OW14623   5.853   0.272   4.796
 4575SOL    HW114624   5.836   0.325   4.713
 4575SOL    HW214625   5.810   0.317   4.874
 4576SOL     OW14626   2.544   4.745   5.414
 4576SOL    HW114627   2.495   4.683   5.353
 4576SOL    HW214628   2.641   4.721   5.416
 4577SOL     OW14629   1.703   2.595   3.120
 4577SOL    HW114630   1.641   2.522   3.091
 4577SOL    HW214631   1.793   2.581   3.080
 4578SOL     OW14632   1.098   1.471   4.184
 4578SOL    HW114633   1.168   1.537   4.158
 4578SOL    HW214634   1.016   1.520   4.215
 4579SOL     OW14635   4.575   0.956   2.157
 4579SOL    HW114636   4.596   0.950   2.255
 4579SOL    HW214637   4.566   0.864   2.119
 4580SOL     OW14638   5.777   3.789   1.268
 4580SOL    HW114639   5.724   3.738   1.336
 4580SOL    HW214640   5.716   3.851   1.218
 4581SOL     OW14641   2.821   6.303   2.425
 4581SOL    HW114642   2.724   6.323   2.433
 4581SOL    HW214643   2.850   6.311   2.330
 4582SOL     OW14644   5.021   1.044   3.408
 4582SOL    HW114645   4.946   1.050   3.474
 4582SOL    HW214646   5.012   0.960   3.354
 4583SOL     OW14647   2.785   1.234   6.592
 4583SOL    HW114648   2.838   1.155   6.561
 4583SOL    HW214649   2.776   1.300   6.518
 4584SOL     OW14650   1.601   5.917   5.233
 4584SOL    HW114651   1.562   5.964   5.154
 4584SOL    HW214652   1.687   5.872   5.207
 4585SOL     OW14653   2.088   4.250   3.373
 4585SOL    HW114654   1.988   4.254   3.361
 4585SOL    HW214655   2.113   4.302   3.455
 4586SOL     OW14656   4.718   3.967   0.266
 4586SOL    HW114657   4.804   3.927   0.236
 4586SOL    HW214658   4.652   3.894   0.284
 4587SOL     OW14659   3.565   3.603   4.267
 4587SOL    HW114660   3.558   3.504   4.256
 4587SOL    HW214661   3.637   3.638   4.207
 4588SOL     OW14662   3.383   3.046   5.976
 4588SOL    HW114663   3.445   2.978   6.017
 4588SOL    HW214664   3.337   3.005   5.897
 4589SOL     OW14665   5.419   6.953   1.870
 4589SOL    HW114666   5.377   6.888   1.934
 4589SOL    HW214667   5.443   0.009   1.919
 4590SOL     OW14668   3.842   5.583   1.333
 4590SOL    HW114669   3.929   5.609   1.374
 4590SOL    HW214670   3.837   5.484   1.324
 4591SOL     OW14671   1.651   0.636   5.100
 4591SOL    HW114672   1.597   0.553   5.115
 4591SOL    HW214673   1.606   0.714   5.144
 4592SOL     OW14674   3.630   1.272   3.299
 4592SOL    HW114675   3.641   1.208   3.375
 4592SOL    HW214676   3.639   1.366   3.333
 4593SOL     OW14677   6.150   6.250   1.857
 4593SOL    HW114678   6.210   6.170   1.865
 4593SOL    HW214679   6.120   6.259   1.762
 4594SOL     OW14680   4.046   0.770   2.890
 4594SOL    HW114681   4.066   0.681   2.849
 4594SOL    HW214682   3.956   0.766   2.933
 4595SOL     OW14683   4.480   2.929   5.589
 4595SOL    HW114684   4.545   3.005   5.585
 4595SOL    HW214685   4.403   2.953   5.647
 4596SOL     OW14686   6.271   0.505   2.422
 4596SOL    HW114687   6.206   0.559   2.474
 4596SOL    HW214688   6.275   0.412   2.459
 4597SOL     OW14689   2.448   5.823   6.304
 4597SOL    HW114690   2.442   5.724   6.293
 4597SOL    HW214691   2.471   5.845   6.399
 4598SOL     OW14692   1.703   5.850   1.308
 4598SOL    HW114693   1.705   5.751   1.291
 4598SOL    HW214694   1.617   5.888   1.273
 4599SOL     OW14695   1.510   4.587   1.464
 4599SOL    HW114696   1.461   4.670   1.490
 4599SOL    HW214697   1.456   4.507   1.490
 4600SOL     OW14698   0.179   0.013   5.376
 4600SOL    HW114699   0.174   6.942   5.390
 4600SOL    HW214700   0.087   0.049   5.361
 4601SOL     OW14701   0.630   1.593   5.361
 4601SOL    HW114702   0.613   1.681   5.405
 4601SOL    HW214703   0.727   1.584   5.340
 4602SOL     OW14704   3.141   6.828   6.885
 4602SOL    HW114705   3.223   6.874   6.853
 4602SOL    HW214706   3.063   6.891   6.881
 4603SOL     OW14707   3.054   5.481   0.614
 4603SOL    HW114708   3.092   5.568   0.644
 4603SOL    HW214709   2.985   5.497   0.544
 4604SOL     OW14710   4.939   0.305   6.292
 4604SOL    HW114711   4.960   0.402   6.284
 4604SOL    HW214712   4.844   0.289   6.266
 4605SOL     OW14713   2.680   0.056   1.651
 4605SOL    HW114714   2.622   0.057   1.569
 4605SOL    HW214715   2.724   0.145   1.662
 4606SOL     OW14716   0.065   0.212   2.687
 4606SOL    HW114717   0.089   0.115   2.693
 4606SOL    HW214718   0.015   0.239   2.769
 4607SOL     OW14719   1.899   3.647   2.854
 4607SOL    HW114720   1.903   3.745   2.831
 4607SOL    HW214721   1.817   3.607   2.814
 4608SOL     OW14722   6.939   4.108   3.245
 4608SOL    HW114723   6.919   4.017   3.282
 4608SOL    HW214724   6.936   4.105   3.145
 4609SOL     OW14725   5.010   4.864   0.206
 4609SOL    HW114726   5.005   4.778   0.256
 4609SOL    HW214727   5.103   4.902   0.214
 4610SOL     OW14728   4.336   1.869   7.016
 4610SOL    HW114729   4.300   1.958   0.015
 4610SOL    HW214730   4.435   1.868   7.028
 4611SOL     OW14731   0.777   0.545   6.420
 4611SOL    HW114732   0.768   0.598   6.504
 4611SOL    HW214733   0.808   0.606   6.346
 4612SOL     OW14734   2.816   6.631   1.786
 4612SOL    HW114735   2.803   6.534   1.765
 4612SOL    HW214736   2.899   6.641   1.841
 4613SOL     OW14737   1.521   5.612   2.710
 4613SOL    HW114738   1.510   5.554   2.629
 4613SOL    HW214739   1.548   5.704   2.681
 4614SOL     OW14740   6.104   3.119   3.636
 4614SOL    HW114741   6.177   3.125   3.705
 4614SOL    HW214742   6.037   3.191   3.652
 4615SOL     OW14743   1.427   0.918   1.050
 4615SOL    HW114744   1.410   1.009   1.011
 4615SOL    HW214745   1.447   0.854   0.976
 4616SOL     OW14746   5.940   1.767   4.343
 4616SOL    HW114747   5.895   1.854   4.323
 4616SOL    HW214748   5.996   1.777   4.425
 4617SOL     OW14749   1.728   2.421   2.078
 4617SOL    HW114750   1.770   2.443   2.166
 4617SOL    HW214751   1.629   2.432   2.085
 4618SOL     OW14752   2.194   2.969   5.866
 4618SOL    HW114753   2.236   3.040   5.923
 4618SOL    HW214754   2.231   2.974   5.774
 4619SOL     OW14755   3.368   6.555   3.893
 4619SOL    HW114756   3.344   6.507   3.978
 4619SOL    HW214757   3.284   6.589   3.850
 4620SOL     OW14758   0.924   4.294   1.394
 4620SOL    HW114759   0.845   4.354   1.405
 4620SOL    HW214760   0.893   4.201   1.376
 4621SOL     OW14761   5.139   0.831   2.446
 4621SOL    HW114762   5.206   0.893   2.406
 4621SOL    HW214763   5.057   0.828   2.389
 4622SOL     OW14764   3.445   5.036   1.100
 4622SOL    HW114765   3.370   5.043   1.165
 4622SOL    HW214766   3.426   5.094   1.021
 4623SOL     OW14767   3.966   5.222   0.991
 4623SOL    HW114768   3.890   5.201   1.054
 4623SOL    HW214769   4.017   5.300   1.026
 4624SOL     OW14770   3.503   1.032   3.107
 4624SOL    HW114771   3.427   1.031   3.043
 4624SOL    HW214772   3.496   1.112   3.167
 4625SOL     OW14773   2.033   5.503   2.202
 4625SOL    HW114774   2.045   5.430   2.270
 4625SOL    HW214775   1.999   5.585   2.247
 4626SOL     OW14776   4.078   4.423   1.573
 4626SOL    HW114777   4.173   4.410   1.600
 4626SOL    HW214778   4.072   4.491   1.500
 4627SOL     OW14779   1.072   5.812   5.050
 4627SOL    HW114780   1.105   5.761   5.129
 4627SOL    HW214781   1.144   5.874   5.018
 4628SOL     OW14782   4.358   4.639   4.727
 4628SOL    HW114783   4.282   4.704   4.732
 4628SOL    HW214784   4.375   4.599   4.817
 4629SOL     OW14785   2.377   4.903   6.169
 4629SOL    HW114786   2.446   4.865   6.231
 4629SOL    HW214787   2.422   4.939   6.087
 4630SOL     OW14788   2.358   5.035   2.561
 4630SOL    HW114789   2.372   4.937   2.571
 4630SOL    HW214790   2.269   5.060   2.599
 4631SOL     OW14791   0.935   6.452   3.796
 4631SOL    HW114792   0.978   6.526   3.744
 4631SOL    HW214793   1.006   6.402   3.846
 4632SOL     OW14794   2.582   5.035   3.279
 4632SOL    HW114795   2.549   4.973   3.208
 4632SOL    HW214796   2.682   5.029   3.286
 4633SOL     OW14797   5.634   0.973   4.654
 4633SOL    HW114798   5.554   1.019   4.691
 4633SOL    HW214799   5.642   0.882   4.696
 4634SOL     OW14800   2.442   3.784   5.411
 4634SOL    HW114801   2.534   3.772   5.449
 4634SOL    HW214802   2.443   3.859   5.344
 4635SOL     OW14803   4.343   4.402   1.665
 4635SOL    HW114804   4.372   4.332   1.730
 4635SOL    HW214805   4.348   4.492   1.708
 4636SOL     OW14806   2.142   4.694   0.203
 4636SOL    HW114807   2.137   4.710   0.302
 4636SOL    HW214808   2.158   4.781   0.156
 4637SOL     OW14809   0.932   6.627   0.770
 4637SOL    HW114810   0.939   6.531   0.800
 4637SOL    HW214811   0.982   6.638   0.684
 4638SOL     OW14812   3.868   5.949   6.525
 4638SOL    HW114813   3.832   5.856   6.519
 4638SOL    HW214814   3.968   5.945   6.531
 4639SOL     OW14815   2.588   2.662   6.505
 4639SOL    HW114816   2.623   2.712   6.584
 4639SOL    HW214817   2.663   2.612   6.461
 4640SOL     OW14818   6.169   2.983   4.648
 4640SOL    HW114819   6.113   2.951   4.725
 4640SOL    HW214820   6.205   2.905   4.597
 4641SOL     OW14821   2.330   0.235   4.007
 4641SOL    HW114822   2.368   0.327   3.999
 4641SOL    HW214823   2.345   0.185   3.922
 4642SOL     OW14824   1.558   6.658   2.897
 4642SOL    HW114825   1.652   6.649   2.930
 4642SOL    HW214826   1.549   6.739   2.839
 4643SOL     OW14827   6.844   2.510   0.673
 4643SOL    HW114828   6.938   2.537   0.694
 4643SOL    HW214829   6.822   2.534   0.578
 4644SOL     OW14830   0.414   0.670   5.911
 4644SOL    HW114831   0.322   0.699   5.939
 4644SOL    HW214832   0.473   0.750   5.907
 4645SOL     OW14833   1.826   1.239   4.404
 4645SOL    HW114834   1.774   1.324   4.396
 4645SOL    HW214835   1.907   1.243   4.346
 4646SOL     OW14836   2.565   5.079   3.804
 4646SOL    HW114837   2.579   5.006   3.870
 4646SOL    HW214838   2.470   5.078   3.773
 4647SOL     OW14839   1.333   0.124   3.040
 4647SOL    HW114840   1.255   0.183   3.063
 4647SOL    HW214841   1.418   0.170   3.065
 4648SOL     OW14842   2.349   0.893   4.441
 4648SOL    HW114843   2.380   0.805   4.478
 4648SOL    HW214844   2.270   0.878   4.382
 4649SOL     OW14845   6.063   0.843   0.422
 4649SOL    HW114846   6.068   0.941   0.439
 4649SOL    HW214847   6.066   0.826   0.323
 4650SOL     OW14848   4.580   5.111   1.724
 4650SOL    HW114849   4.627   5.198   1.734
 4650SOL    HW214850   4.527   5.092   1.807
 4651SOL     OW14851   5.807   3.504   6.743
 4651SOL    HW114852   5.803   3.522   6.841
 4651SOL    HW214853   5.808   3.590   6.692
 4652SOL     OW14854   6.117   6.504   4.949
 4652SOL    HW114855   6.128   6.496   5.048
 4652SOL    HW214856   6.072   6.422   4.913
 4653SOL     OW14857   5.028   5.903   0.369
 4653SOL    HW114858   4.931   5.904   0.346
 4653SOL    HW214859   5.066   5.995   0.358
 4654SOL     OW14860   0.871   6.002   6.008
 4654SOL    HW114861   0.943   6.047   6.061
 4654SOL    HW214862   0.790   6.061   6.005
 4655SOL     OW14863   5.093   4.201   1.769
 4655SOL    HW114864   5.057   4.206   1.862
 4655SOL    HW214865   5.045   4.128   1.720
 4656SOL     OW14866   1.134   0.638   1.640
 4656SOL    HW114867   1.077   0.565   1.604
 4656SOL    HW214868   1.217   0.647   1.584
 4657SOL     OW14869   4.717   5.332   1.750
 4657SOL    HW114870   4.784   5.393   1.707
 4657SOL    HW214871   4.653   5.386   1.805
 4658SOL     OW14872   2.900   1.927   5.315
 4658SOL    HW114873   2.946   2.013   5.292
 4658SOL    HW214874   2.815   1.920   5.264
 4659SOL     OW14875   2.417   4.483   0.140
 4659SOL    HW114876   2.443   4.560   0.198
 4659SOL    HW214877   2.325   4.497   0.105
 4660SOL     OW14878   1.337   6.514   4.168
 4660SOL    HW114879   1.380   6.520   4.078
 4660SOL    HW214880   1.408   6.517   4.239
 4661SOL     OW14881   2.424   4.836   5.633
 4661SOL    HW114882   2.460   4.812   5.543
 4661SOL    HW214883   2.331   4.871   5.624
 4662SOL     OW14884   3.302   0.257   5.614
 4662SOL    HW114885   3.229   0.323   5.627
 4662SOL    HW214886   3.267   0.177   5.565
 4663SOL     OW14887   0.488   0.416   0.774
 4663SOL    HW114888   0.538   0.333   0.798
 4663SOL    HW214889   0.465   0.413   0.676
 4664SOL     OW14890   0.414   0.695   0.382
 4664SOL    HW114891   0.418   0.675   0.284
 4664SOL    HW214892   0.473   0.773   0.402
 4665SOL     OW14893   2.438   6.867   5.840
 4665SOL    HW114894   2.458   6.773   5.867
 4665SOL    HW214895   2.441   6.875   5.741
 4666SOL     OW14896   2.163   2.076   6.536
 4666SOL    HW114897   2.165   2.034   6.446
 4666SOL    HW214898   2.167   2.175   6.527
 4667SOL     OW14899   6.596   4.063   1.990
 4667SOL    HW114900   6.510   4.066   1.940
 4667SOL    HW214901   6.653   4.140   1.963
 4668SOL     OW14902   4.880   1.334   4.547
 4668SOL    HW114903   4.936   1.370   4.473
 4668SOL    HW214904   4.794   1.384   4.552
 4669SOL     OW14905   5.259   0.238   6.076
 4669SOL    HW114906   5.255   0.336   6.099
 4669SOL    HW214907   5.349   0.202   6.101
 4670SOL     OW14908   0.990   3.150   6.625
 4670SOL    HW114909   1.017   3.244   6.646
 4670SOL    HW214910   0.977   3.100   6.710
 4671SOL     OW14911   1.044   3.408   6.697
 4671SOL    HW114912   1.134   3.438   6.730
 4671SOL    HW214913   1.012   3.469   6.625
 4672SOL     OW14914   3.817   4.704   6.599
 4672SOL    HW114915   3.882   4.738   6.666
 4672SOL    HW214916   3.774   4.620   6.633
 4673SOL     OW14917   4.990   6.838   0.322
 4673SOL    HW114918   5.073   6.836   0.267
 4673SOL    HW214919   4.979   6.929   0.362
 4674SOL     OW14920   5.507   1.784   0.600
 4674SOL    HW114921   5.494   1.754   0.695
 4674SOL    HW214922   5.524   1.705   0.541
 4675SOL     OW14923   3.495   0.570   6.714
 4675SOL    HW114924   3.442   0.523   6.643
 4675SOL    HW214925   3.531   0.502   6.779
 4676SOL     OW14926   0.688   0.016   5.075
 4676SOL    HW114927   0.678   6.945   5.080
 4676SOL    HW214928   0.663   0.048   4.983
 4677SOL     OW14929   2.984   0.306   6.938
 4677SOL    HW114930   3.012   0.380   6.999
 4677SOL    HW214931   2.924   0.343   6.867
 4678SOL     OW14932   2.030   5.107   2.172
 4678SOL    HW114933   2.106   5.088   2.234
 4678SOL    HW214934   2.026   5.036   2.101
 4679SOL     OW14935   3.865   1.452   6.831
 4679SOL    HW114936   3.826   1.507   6.757
 4679SOL    HW214937   3.814   1.469   6.915
 4680SOL     OW14938   2.337   6.923   2.202
 4680SOL    HW114939   2.271   6.924   2.277
 4680SOL    HW214940   2.300   6.975   2.125
 4681SOL     OW14941   6.420   6.122   4.819
 4681SOL    HW114942   6.416   6.064   4.738
 4681SOL    HW214943   6.438   6.066   4.900
 4682SOL     OW14944   4.521   4.814   6.972
 4682SOL    HW114945   4.433   4.860   6.962
 4682SOL    HW214946   4.525   4.768   0.032
 4683SOL     OW14947   5.122   4.512   2.353
 4683SOL    HW114948   5.185   4.471   2.287
 4683SOL    HW214949   5.169   4.585   2.403
 4684SOL     OW14950   6.987   2.096   4.559
 4684SOL    HW114951   6.982   2.032   4.482
 4684SOL    HW214952   6.947   2.184   4.532
 4685SOL     OW14953   0.255   5.642   4.567
 4685SOL    HW114954   0.227   5.546   4.568
 4685SOL    HW214955   0.185   5.697   4.523
 4686SOL     OW14956   5.062   5.966   0.053
 4686SOL    HW114957   5.162   5.961   0.057
 4686SOL    HW214958   5.025   5.878   0.025
 4687SOL     OW14959   6.276   4.943   5.089
 4687SOL    HW114960   6.179   4.927   5.110
 4687SOL    HW214961   6.328   4.947   5.175
 4688SOL     OW14962   0.152   2.826   6.200
 4688SOL    HW114963   0.103   2.866   6.122
 4688SOL    HW214964   0.138   2.883   6.281
 4689SOL     OW14965   5.538   0.597   6.404
 4689SOL    HW114966   5.445   0.628   6.423
 4689SOL    HW214967   5.581   0.565   6.488
 4690SOL     OW14968   0.866   1.622   6.941
 4690SOL    HW114969   0.836   1.695   7.002
 4690SOL    HW214970   0.901   1.662   6.856
 4691SOL     OW14971   3.109   4.009   2.054
 4691SOL    HW114972   3.139   3.929   2.002
 4691SOL    HW214973   3.053   4.068   1.996
 4692SOL     OW14974   6.724   5.230   2.433
 4692SOL    HW114975   6.650   5.276   2.482
 4692SOL    HW214976   6.765   5.293   2.367
 4693SOL     OW14977   0.842   0.962   4.141
 4693SOL    HW114978   0.847   0.957   4.240
 4693SOL    HW214979   0.906   0.896   4.101
 4694SOL     OW14980   2.661   0.684   0.259
 4694SOL    HW114981   2.625   0.644   0.175
 4694SOL    HW214982   2.738   0.629   0.291
 4695SOL     OW14983   3.347   3.533   1.717
 4695SOL    HW114984   3.301   3.445   1.716
 4695SOL    HW214985   3.446   3.519   1.728
 4696SOL     OW14986   0.916   4.583   5.863
 4696SOL    HW114987   0.996   4.527   5.843
 4696SOL    HW214988   0.905   4.591   5.962
 4697SOL     OW14989   1.664   3.322   0.681
 4697SOL    HW114990   1.737   3.333   0.614
 4697SOL    HW214991   1.586   3.379   0.654
 4698SOL     OW14992   4.903   5.265   3.247
 4698SOL    HW114993   4.842   5.186   3.253
 4698SOL    HW214994   4.852   5.344   3.213
 4699SOL     OW14995   1.226   6.772   2.184
 4699SOL    HW114996   1.223   6.672   2.181
 4699SOL    HW214997   1.139   6.806   2.221
 4700SOL     OW14998   5.418   1.687   2.070
 4700SOL    HW114999   5.396   1.779   2.101
 4700SOL    HW215000   5.498   1.690   2.010
 4701SOL     OW15001   1.312   2.294   0.219
 4701SOL    HW115002   1.393   2.272   0.274
 4701SOL    HW215003   1.334   2.282   0.122
 4702SOL     OW15004   5.093   4.930   6.569
 4702SOL    HW115005   5.113   4.851   6.510
 4702SOL    HW215006   5.037   4.901   6.646
 4703SOL     OW15007   0.513   2.282   2.478
 4703SOL    HW115008   0.504   2.382   2.472
 4703SOL    HW215009   0.468   2.249   2.561
 4704SOL     OW15010   6.897   6.275   0.685
 4704SOL    HW115011   6.923   6.358   0.734
 4704SOL    HW215012   6.977   6.216   0.675
 4705SOL     OW15013   3.511   3.693   3.018
 4705SOL    HW115014   3.579   3.619   3.012
 4705SOL    HW215015   3.421   3.658   2.992
 4706SOL     OW15016   4.185   6.425   6.417
 4706SOL    HW115017   4.177   6.424   6.317
 4706SOL    HW215018   4.166   6.517   6.450
 4707SOL     OW15019   2.194   6.096   0.550
 4707SOL    HW115020   2.210   6.067   0.645
 4707SOL    HW215021   2.268   6.156   0.521
 4708SOL     OW15022   1.768   2.697   0.269
 4708SOL    HW115023   1.710   2.699   0.351
 4708SOL    HW215024   1.711   2.712   0.188
 4709SOL     OW15025   3.823   5.211   5.280
 4709SOL    HW115026   3.918   5.221   5.310
 4709SOL    HW215027   3.777   5.300   5.286
 4710SOL     OW15028   4.241   1.406   5.705
 4710SOL    HW115029   4.173   1.394   5.632
 4710SOL    HW215030   4.279   1.498   5.700
 4711SOL     OW15031   4.853   0.799   2.749
 4711SOL    HW115032   4.923   0.731   2.770
 4711SOL    HW215033   4.827   0.847   2.832
 4712SOL     OW15034   2.418   4.825   0.888
 4712SOL    HW115035   2.414   4.896   0.818
 4712SOL    HW215036   2.336   4.830   0.945
 4713SOL     OW15037   2.595   4.046   1.131
 4713SOL    HW115038   2.598   4.125   1.070
 4713SOL    HW215039   2.515   4.053   1.190
 4714SOL     OW15040   2.434   1.859   6.913
 4714SOL    HW115041   2.524   1.842   6.952
 4714SOL    HW215042   2.441   1.927   6.840
 4715SOL     OW15043   6.726   3.732   1.636
 4715SOL    HW115044   6.657   3.670   1.674
 4715SOL    HW215045   6.800   3.680   1.595
 4716SOL     OW15046   3.813   5.289   6.288
 4716SOL    HW115047   3.790   5.365   6.348
 4716SOL    HW215048   3.819   5.204   6.342
 4717SOL     OW15049   1.301   6.200   2.826
 4717SOL    HW115050   1.299   6.193   2.926
 4717SOL    HW215051   1.208   6.216   2.792
 4718SOL     OW15052   5.378   1.739   6.528
 4718SOL    HW115053   5.450   1.679   6.563
 4718SOL    HW215054   5.314   1.686   6.472
 4719SOL     OW15055   4.952   3.294   2.539
 4719SOL    HW115056   4.941   3.394   2.543
 4719SOL    HW215057   4.945   3.264   2.444
 4720SOL     OW15058   2.701   6.215   5.622
 4720SOL    HW115059   2.796   6.231   5.594
 4720SOL    HW215060   2.654   6.159   5.554
 4721SOL     OW15061   6.298   2.011   2.044
 4721SOL    HW115062   6.318   2.091   2.102
 4721SOL    HW215063   6.246   1.944   2.097
 4722SOL     OW15064   1.351   5.789   0.007
 4722SOL    HW115065   1.269   5.792   0.064
 4722SOL    HW215066   1.432   5.809   0.064
 4723SOL     OW15067   1.750   5.320   5.412
 4723SOL    HW115068   1.833   5.290   5.459
 4723SOL    HW215069   1.766   5.408   5.368
 4724SOL     OW15070   4.777   5.954   2.839
 4724SOL    HW115071   4.787   5.998   2.929
 4724SOL    HW215072   4.864   5.958   2.791
 4725SOL     OW15073   5.412   6.409   2.673
 4725SOL    HW115074   5.434   6.460   2.590
 4725SOL    HW215075   5.496   6.385   2.721
 4726SOL     OW15076   1.844   3.708   6.343
 4726SOL    HW115077   1.893   3.621   6.346
 4726SOL    HW215078   1.882   3.769   6.412
 4727SOL     OW15079   6.998   6.159   6.808
 4727SOL    HW115080   6.987   6.073   6.759
 4727SOL    HW215081   6.910   6.188   6.845
 4728SOL     OW15082   4.797   1.745   1.304
 4728SOL    HW115083   4.824   1.789   1.390
 4728SOL    HW215084   4.818   1.807   1.228
 4729SOL     OW15085   2.528   1.182   2.587
 4729SOL    HW115086   2.517   1.205   2.491
 4729SOL    HW215087   2.602   1.116   2.597
 4730SOL     OW15088   2.066   5.886   5.217
 4730SOL    HW115089   1.982   5.863   5.167
 4730SOL    HW215090   2.105   5.970   5.180
 4731SOL     OW15091   5.032   0.114   6.118
 4731SOL    HW115092   5.126   0.137   6.089
 4731SOL    HW215093   5.000   0.182   6.183
 4732SOL     OW15094   6.954   3.357   6.499
 4732SOL    HW115095   0.017   3.317   6.510
 4732SOL    HW215096   6.885   3.291   6.525
 4733SOL     OW15097   0.660   4.332   2.911
 4733SOL    HW115098   0.745   4.383   2.913
 4733SOL    HW215099   0.591   4.382   2.859
 4734SOL     OW15100   5.263   3.470   6.716
 4734SOL    HW115101   5.297   3.381   6.747
 4734SOL    HW215102   5.189   3.500   6.777
 4735SOL     OW15103   0.612   5.328   3.904
 4735SOL    HW115104   0.543   5.328   3.976
 4735SOL    HW215105   0.699   5.361   3.941
 4736SOL     OW15106   0.379   1.422   6.476
 4736SOL    HW115107   0.443   1.353   6.509
 4736SOL    HW215108   0.322   1.383   6.404
 4737SOL     OW15109   1.424   5.609   1.981
 4737SOL    HW115110   1.520   5.578   1.977
 4737SOL    HW215111   1.371   5.561   1.912
 4738SOL     OW15112   0.262   6.023   2.827
 4738SOL    HW115113   0.308   6.098   2.873
 4738SOL    HW215114   0.163   6.031   2.842
 4739SOL     OW15115   4.272   6.729   2.621
 4739SOL    HW115116   4.309   6.822   2.619
 4739SOL    HW215117   4.333   6.671   2.674
 4740SOL     OW15118   0.147   1.447   2.078
 4740SOL    HW115119   0.049   1.442   2.063
 4740SOL    HW215120   0.194   1.452   1.989
 4741SOL     OW15121   3.320   2.401   1.742
 4741SOL    HW115122   3.388   2.356   1.684
 4741SOL    HW215123   3.343   2.498   1.749
 4742SOL     OW15124   2.153   6.559   6.414
 4742SOL    HW115125   2.109   6.601   6.494
 4742SOL    HW215126   2.241   6.521   6.442
 4743SOL     OW15127   2.087   3.462   2.836
 4743SOL    HW115128   2.120   3.443   2.928
 4743SOL    HW215129   2.015   3.531   2.840
 4744SOL     OW15130   2.312   5.143   1.237
 4744SOL    HW115131   2.259   5.219   1.201
 4744SOL    HW215132   2.335   5.160   1.333
 4745SOL     OW15133   3.205   3.972   0.102
 4745SOL    HW115134   3.297   4.008   0.093
 4745SOL    HW215135   3.141   4.047   0.121
 4746SOL     OW15136   4.587   6.318   3.896
 4746SOL    HW115137   4.600   6.296   3.992
 4746SOL    HW215138   4.664   6.282   3.843
 4747SOL     OW15139   1.458   3.516   0.609
 4747SOL    HW115140   1.397   3.497   0.686
 4747SOL    HW215141   1.432   3.601   0.565
 4748SOL     OW15142   1.274   6.843   1.716
 4748SOL    HW115143   1.346   6.894   1.762
 4748SOL    HW215144   1.187   6.855   1.765
 4749SOL     OW15145   2.014   6.821   6.209
 4749SOL    HW115146   2.071   6.759   6.262
 4749SOL    HW215147   1.951   6.769   6.153
 4750SOL     OW15148   6.323   3.989   5.296
 4750SOL    HW115149   6.262   4.016   5.221
 4750SOL    HW215150   6.306   4.047   5.375
 4751SOL     OW15151   4.852   2.720   3.022
 4751SOL    HW115152   4.844   2.813   3.059
 4751SOL    HW215153   4.897   2.661   3.089
 4752SOL     OW15154   4.758   0.666   0.371
 4752SOL    HW115155   4.778   0.707   0.282
 4752SOL    HW215156   4.828   0.598   0.392
 4753SOL     OW15157   0.969   0.154   3.951
 4753SOL    HW115158   1.034   0.079   3.966
 4753SOL    HW215159   1.012   0.240   3.978
 4754SOL     OW15160   5.029   3.635   4.936
 4754SOL    HW115161   4.938   3.612   4.972
 4754SOL    HW215162   5.098   3.579   4.982
 4755SOL     OW15163   2.375   0.344   0.841
 4755SOL    HW115164   2.352   0.438   0.868
 4755SOL    HW215165   2.303   0.308   0.781
 4756SOL     OW15166   6.781   4.011   5.916
 4756SOL    HW115167   6.839   4.011   5.997
 4756SOL    HW215168   6.686   4.024   5.943
 4757SOL     OW15169   1.428   2.610   1.293
 4757SOL    HW115170   1.514   2.638   1.336
 4757SOL    HW215171   1.352   2.649   1.345
 4758SOL     OW15172   1.198   6.844   3.066
 4758SOL    HW115173   1.203   6.756   3.019
 4758SOL    HW215174   1.207   6.918   2.999
 4759SOL     OW15175   0.501   5.723   6.700
 4759SOL    HW115176   0.488   5.712   6.602
 4759SOL    HW215177   0.578   5.785   6.716
 4760SOL     OW15178   1.196   0.647   0.925
 4760SOL    HW115179   1.156   0.719   0.867
 4760SOL    HW215180   1.257   0.590   0.869
 4761SOL     OW15181   1.372   0.227   0.552
 4761SOL    HW115182   1.315   0.269   0.481
 4761SOL    HW215183   1.443   0.292   0.578
 4762SOL     OW15184   1.537   5.847   2.421
 4762SOL    HW115185   1.508   5.753   2.437
 4762SOL    HW215186   1.480   5.888   2.350
 4763SOL     OW15187   4.953   0.243   2.294
 4763SOL    HW115188   4.958   0.196   2.383
 4763SOL    HW215189   5.025   0.312   2.289
 4764SOL     OW15190   4.725   3.361   5.350
 4764SOL    HW115191   4.695   3.413   5.270
 4764SOL    HW215192   4.653   3.361   5.419
 4765SOL     OW15193   3.838   0.943   6.240
 4765SOL    HW115194   3.848   0.892   6.154
 4765SOL    HW215195   3.898   1.023   6.239
 4766SOL     OW15196   6.157   6.007   4.507
 4766SOL    HW115197   6.163   6.086   4.568
 4766SOL    HW215198   6.172   6.037   4.413
 4767SOL     OW15199   2.780   5.310   5.549
 4767SOL    HW115200   2.703   5.361   5.588
 4767SOL    HW215201   2.745   5.240   5.487
 4768SOL     OW15202   4.053   3.571   6.194
 4768SOL    HW115203   4.056   3.588   6.292
 4768SOL    HW215204   3.960   3.546   6.167
 4769SOL     OW15205   3.285   5.872   6.993
 4769SOL    HW115206   3.340   5.802   6.948
 4769SOL    HW215207   3.335   5.959   6.992
 4770SOL     OW15208   6.743   1.732   4.726
 4770SOL    HW115209   6.773   1.820   4.689
 4770SOL    HW215210   6.643   1.728   4.725
 4771SOL     OW15211   2.376   6.358   5.455
 4771SOL    HW115212   2.286   6.355   5.410
 4771SOL    HW215213   2.416   6.267   5.455
 4772SOL     OW15214   2.737   4.979   1.005
 4772SOL    HW115215   2.792   4.993   0.923
 4772SOL    HW215216   2.797   4.971   1.084
 4773SOL     OW15217   1.101   5.713   4.140
 4773SOL    HW115218   1.063   5.727   4.049
 4773SOL    HW215219   1.038   5.748   4.209
 4774SOL     OW15220   1.520   4.018   1.151
 4774SOL    HW115221   1.616   4.041   1.131
 4774SOL    HW215222   1.460   4.078   1.098
 4775SOL     OW15223   4.613   6.917   4.517
 4775SOL    HW115224   4.691   6.864   4.481
 4775SOL    HW215225   4.528   6.878   4.483
 4776SOL     OW15226   0.921   1.106   4.898
 4776SOL    HW115227   0.952   1.035   4.836
 4776SOL    HW215228   0.924   1.195   4.851
 4777SOL     OW15229   1.747   5.650   0.933
 4777SOL    HW115230   1.662   5.689   0.968
 4777SOL    HW215231   1.781   5.704   0.856
 4778SOL     OW15232   0.526   2.806   4.582
 4778SOL    HW115233   0.596   2.878   4.573
 4778SOL    HW215234   0.567   2.718   4.558
 4779SOL     OW15235   5.681   6.370   4.058
 4779SOL    HW115236   5.635   6.459   4.067
 4779SOL    HW215237   5.758   6.366   4.120
 4780SOL     OW15238   6.041   2.559   6.230
 4780SOL    HW115239   6.073   2.528   6.140
 4780SOL    HW215240   5.949   2.597   6.221
 4781SOL     OW15241   3.165   5.449   2.847
 4781SOL    HW115242   3.234   5.418   2.913
 4781SOL    HW215243   3.075   5.450   2.892
 4782SOL     OW15244   6.346   6.100   6.015
 4782SOL    HW115245   6.251   6.130   6.024
 4782SOL    HW215246   6.358   6.012   6.061
 4783SOL     OW15247   6.152   3.701   0.315
 4783SOL    HW115248   6.089   3.778   0.330
 4783SOL    HW215249   6.149   3.674   0.219
 4784SOL     OW15250   5.972   1.793   5.966
 4784SOL    HW115251   5.986   1.809   6.063
 4784SOL    HW215252   6.048   1.833   5.914
 4785SOL     OW15253   0.204   6.507   2.461
 4785SOL    HW115254   0.273   6.539   2.396
 4785SOL    HW215255   0.242   6.431   2.514
 4786SOL     OW15256   2.736   0.094   0.162
 4786SOL    HW115257   2.724   0.114   0.065
 4786SOL    HW215258   2.776   0.002   0.172
 4787SOL     OW15259   4.225   1.956   4.067
 4787SOL    HW115260   4.151   1.958   4.000
 4787SOL    HW215261   4.189   1.926   4.155
 4788SOL     OW15262   6.110   6.199   0.343
 4788SOL    HW115263   6.150   6.107   0.337
 4788SOL    HW215264   6.064   6.209   0.431
 4789SOL     OW15265   5.222   1.255   1.836
 4789SOL    HW115266   5.136   1.248   1.886
 4789SOL    HW215267   5.208   1.307   1.752
 4790SOL     OW15268   5.138   1.845   5.730
 4790SOL    HW115269   5.156   1.873   5.636
 4790SOL    HW215270   5.043   1.865   5.753
 4791SOL     OW15271   0.346   2.781   1.398
 4791SOL    HW115272   0.375   2.851   1.464
 4791SOL    HW215273   0.275   2.724   1.439
 4792SOL     OW15274   1.888   4.149   4.209
 4792SOL    HW115275   1.868   4.247   4.216
 4792SOL    HW215276   1.836   4.099   4.278
 4793SOL     OW15277   1.734   3.644   5.519
 4793SOL    HW115278   1.826   3.610   5.537
 4793SOL    HW215279   1.731   3.682   5.426
 4794SOL     OW15280   4.541   6.632   3.908
 4794SOL    HW115281   4.554   6.534   3.892
 4794SOL    HW215282   4.628   6.673   3.938
 4795SOL     OW15283   0.217   1.707   4.622
 4795SOL    HW115284   0.142   1.652   4.586
 4795SOL    HW215285   0.187   1.802   4.634
 4796SOL     OW15286   3.586   0.497   5.934
 4796SOL    HW115287   3.610   0.570   5.870
 4796SOL    HW215288   3.566   0.536   6.024
 4797SOL     OW15289   0.662   5.493   4.431
 4797SOL    HW115290   0.607   5.420   4.471
 4797SOL    HW215291   0.621   5.582   4.453
 4798SOL     OW15292   6.174   5.084   6.223
 4798SOL    HW115293   6.108   5.159   6.224
 4798SOL    HW215294   6.228   5.086   6.307
 4799SOL     OW15295   4.136   1.411   6.924
 4799SOL    HW115296   4.070   1.485   6.910
 4799SOL    HW215297   4.164   1.410   7.020
 4800SOL     OW15298   1.735   4.504   6.923
 4800SOL    HW115299   1.763   4.587   6.972
 4800SOL    HW215300   1.772   4.424   6.971
 4801SOL     OW15301   3.844   2.882   0.184
 4801SOL    HW115302   3.888   2.951   0.242
 4801SOL    HW215303   3.915   2.825   0.142
 4802SOL     OW15304   6.641   6.500   1.712
 4802SOL    HW115305   6.545   6.479   1.726
 4802SOL    HW215306   6.654   6.540   1.621
 4803SOL     OW15307   5.889   4.844   0.979
 4803SOL    HW115308   5.972   4.852   0.924
 4803SOL    HW215309   5.847   4.934   0.990
 4804SOL     OW15310   5.501   0.876   0.962
 4804SOL    HW115311   5.487   0.839   1.054
 4804SOL    HW215312   5.591   0.849   0.928
 4805SOL     OW15313   6.836   1.090   2.084
 4805SOL    HW115314   6.819   1.106   2.181
 4805SOL    HW215315   6.887   1.005   2.073
 4806SOL     OW15316   1.172   3.909   3.173
 4806SOL    HW115317   1.163   4.000   3.132
 4806SOL    HW215318   1.244   3.911   3.242
 4807SOL     OW15319   1.898   3.647   6.697
 4807SOL    HW115320   1.864   3.563   6.738
 4807SOL    HW215321   1.977   3.625   6.638
 4808SOL     OW15322   3.870   5.283   0.574
 4808SOL    HW115323   3.953   5.326   0.607
 4808SOL    HW215324   3.846   5.206   0.634
 4809SOL     OW15325   3.568   4.400   1.727
 4809SOL    HW115326   3.652   4.383   1.675
 4809SOL    HW215327   3.583   4.478   1.789
 4810SOL     OW15328   1.434   4.310   3.786
 4810SOL    HW115329   1.374   4.376   3.740
 4810SOL    HW215330   1.458   4.345   3.877
 4811SOL     OW15331   3.826   4.072   4.542
 4811SOL    HW115332   3.833   4.158   4.591
 4811SOL    HW215333   3.731   4.058   4.512
 4812SOL     OW15334   0.596   0.054   1.773
 4812SOL    HW115335   0.590   7.001   1.716
 4812SOL    HW215336   0.513   0.063   1.828
 4813SOL     OW15337   5.773   2.221   5.869
 4813SOL    HW115338   5.788   2.182   5.778
 4813SOL    HW215339   5.861   2.244   5.910
 4814SOL     OW15340   0.260   3.412   2.255
 4814SOL    HW115341   0.200   3.379   2.327
 4814SOL    HW215342   0.235   3.507   2.232
 4815SOL     OW15343   5.240   4.670   2.527
 4815SOL    HW115344   5.224   4.760   2.567
 4815SOL    HW215345   5.255   4.603   2.600
 4816SOL     OW15346   2.276   6.669   1.431
 4816SOL    HW115347   2.226   6.582   1.425
 4816SOL    HW215348   2.216   6.744   1.402
 4817SOL     OW15349   3.556   1.072   1.908
 4817SOL    HW115350   3.637   1.051   1.854
 4817SOL    HW215351   3.474   1.038   1.860
 4818SOL     OW15352   1.314   1.101   4.264
 4818SOL    HW115353   1.401   1.095   4.216
 4818SOL    HW215354   1.240   1.079   4.201
 4819SOL     OW15355   3.163   2.040   1.789
 4819SOL    HW115356   3.108   2.123   1.781
 4819SOL    HW215357   3.242   2.045   1.728
 4820SOL     OW15358   6.356   2.590   1.423
 4820SOL    HW115359   6.328   2.637   1.340
 4820SOL    HW215360   6.400   2.503   1.399
 4821SOL     OW15361   6.202   6.016   1.359
 4821SOL    HW115362   6.181   6.067   1.275
 4821SOL    HW215363   6.292   6.044   1.393
 4822SOL     OW15364   1.772   3.370   3.629
 4822SOL    HW115365   1.674   3.389   3.632
 4822SOL    HW215366   1.788   3.275   3.656
 4823SOL     OW15367   0.156   0.643   3.609
 4823SOL    HW115368   0.066   0.663   3.649
 4823SOL    HW215369   0.170   0.544   3.608
 4824SOL     OW15370   5.583   1.730   4.116
 4824SOL    HW115371   5.515   1.661   4.092
 4824SOL    HW215372   5.546   1.791   4.186
 4825SOL     OW15373   2.110   2.680   3.987
 4825SOL    HW115374   2.096   2.616   3.913
 4825SOL    HW215375   2.201   2.721   3.980
 4826SOL     OW15376   0.536   6.961   1.109
 4826SOL    HW115377   0.616   6.970   1.050
 4826SOL    HW215378   0.557   7.001   1.199
 4827SOL     OW15379   6.159   0.536   1.738
 4827SOL    HW115380   6.234   0.564   1.677
 4827SOL    HW215381   6.193   0.530   1.832
 4828SOL     OW15382   6.282   3.798   1.703
 4828SOL    HW115383   6.224   3.879   1.698
 4828SOL    HW215384   6.350   3.811   1.775
 4829SOL     OW15385   3.446   6.772   6.623
 4829SOL    HW115386   3.443   6.772   6.723
 4829SOL    HW215387   3.434   6.678   6.591
 4830SOL     OW15388   5.218   5.378   3.906
 4830SOL    HW115389   5.199   5.394   4.003
 4830SOL    HW215390   5.284   5.303   3.896
 4831SOL     OW15391   6.689   5.773   5.757
 4831SOL    HW115392   6.733   5.753   5.669
 4831SOL    HW215393   6.737   5.725   5.830
 4832SOL     OW15394   3.048   2.539   6.543
 4832SOL    HW115395   3.115   2.493   6.602
 4832SOL    HW215396   2.973   2.574   6.599
 4833SOL     OW15397   4.781   1.995   3.008
 4833SOL    HW115398   4.694   1.991   2.960
 4833SOL    HW215399   4.820   1.904   3.014
 4834SOL     OW15400   3.369   0.585   0.247
 4834SOL    HW115401   3.344   0.657   0.311
 4834SOL    HW215402   3.294   0.518   0.242
 4835SOL     OW15403   1.683   0.451   6.792
 4835SOL    HW115404   1.768   0.433   6.842
 4835SOL    HW215405   1.696   0.426   6.696
 4836SOL     OW15406   4.586   2.648   3.342
 4836SOL    HW115407   4.520   2.632   3.416
 4836SOL    HW215408   4.603   2.746   3.333
 4837SOL     OW15409   3.570   2.844   1.936
 4837SOL    HW115410   3.626   2.866   2.015
 4837SOL    HW215411   3.560   2.925   1.878
 4838SOL     OW15412   2.527   5.091   2.359
 4838SOL    HW115413   2.613   5.042   2.342
 4838SOL    HW215414   2.490   5.064   2.448
 4839SOL     OW15415   1.353   3.569   5.667
 4839SOL    HW115416   1.279   3.543   5.605
 4839SOL    HW215417   1.427   3.501   5.661
 4840SOL     OW15418   6.895   0.314   6.113
 4840SOL    HW115419   6.939   0.390   6.065
 4840SOL    HW215420   6.796   0.330   6.115
 4841SOL     OW15421   3.417   5.589   1.672
 4841SOL    HW115422   3.358   5.512   1.647
 4841SOL    HW215423   3.483   5.560   1.741
 4842SOL     OW15424   3.268   4.840   1.873
 4842SOL    HW115425   3.202   4.851   1.948
 4842SOL    HW215426   3.226   4.787   1.799
 4843SOL     OW15427   6.250   3.996   0.478
 4843SOL    HW115428   6.289   4.008   0.569
 4843SOL    HW215429   6.317   4.022   0.409
 4844SOL     OW15430   6.937   4.011   6.150
 4844SOL    HW115431   0.001   4.051   6.152
 4844SOL    HW215432   6.943   3.912   6.163
 4845SOL     OW15433   6.550   5.799   4.425
 4845SOL    HW115434   6.637   5.769   4.463
 4845SOL    HW215435   6.502   5.721   4.385
 4846SOL     OW15436   6.750   3.448   2.055
 4846SOL    HW115437   6.832   3.391   2.053
 4846SOL    HW215438   6.767   3.533   2.006
 4847SOL     OW15439   3.369   1.567   5.972
 4847SOL    HW115440   3.421   1.652   5.961
 4847SOL    HW215441   3.288   1.570   5.913
 4848SOL     OW15442   1.486   1.158   4.618
 4848SOL    HW115443   1.538   1.133   4.537
 4848SOL    HW215444   1.407   1.214   4.592
 4849SOL     OW15445   0.906   6.783   0.187
 4849SOL    HW115446   0.851   6.865   0.203
 4849SOL    HW215447   1.000   6.810   0.163
 4850SOL     OW15448   4.247   0.894   2.387
 4850SOL    HW115449   4.224   0.981   2.344
 4850SOL    HW215450   4.301   0.911   2.469
 4851SOL     OW15451   3.616   5.508   5.320
 4851SOL    HW115452   3.653   5.469   5.404
 4851SOL    HW215453   3.561   5.589   5.342
 4852SOL     OW15454   0.928   0.093   6.502
 4852SOL    HW115455   1.024   0.083   6.530
 4852SOL    HW215456   0.869   0.059   6.576
 4853SOL     OW15457   3.024   1.062   2.489
 4853SOL    HW115458   3.052   1.140   2.545
 4853SOL    HW215459   3.098   0.996   2.483
 4854SOL     OW15460   5.306   6.144   2.727
 4854SOL    HW115461   5.256   6.147   2.641
 4854SOL    HW215462   5.377   6.214   2.727
 4855SOL     OW15463   6.072   2.680   2.445
 4855SOL    HW115464   6.074   2.582   2.425
 4855SOL    HW215465   6.055   2.731   2.361
 4856SOL     OW15466   1.598   3.997   2.362
 4856SOL    HW115467   1.629   3.928   2.427
 4856SOL    HW215468   1.578   3.953   2.274
 4857SOL     OW15469   1.766   2.153   5.673
 4857SOL    HW115470   1.712   2.220   5.724
 4857SOL    HW215471   1.798   2.194   5.588
 4858SOL     OW15472   1.817   0.974   4.519
 4858SOL    HW115473   1.876   0.963   4.599
 4858SOL    HW215474   1.828   1.066   4.482
 4859SOL     OW15475   0.999   0.768   4.040
 4859SOL    HW115476   0.963   0.692   3.986
 4859SOL    HW215477   1.051   0.732   4.117
 4860SOL     OW15478   3.373   4.898   2.153
 4860SOL    HW115479   3.450   4.851   2.111
 4860SOL    HW215480   3.291   4.841   2.148
 4861SOL     OW15481   5.040   5.457   0.101
 4861SOL    HW115482   4.950   5.472   0.141
 4861SOL    HW215483   5.081   5.375   0.141
 4862SOL     OW15484   2.861   4.883   4.713
 4862SOL    HW115485   2.775   4.922   4.680
 4862SOL    HW215486   2.922   4.866   4.635
 4863SOL     OW15487   5.798   4.799   0.581
 4863SOL    HW115488   5.706   4.839   0.577
 4863SOL    HW215489   5.793   4.703   0.554
 4864SOL     OW15490   3.413   1.351   4.297
 4864SOL    HW115491   3.393   1.440   4.256
 4864SOL    HW215492   3.478   1.301   4.239
 4865SOL     OW15493   1.603   0.758   5.708
 4865SOL    HW115494   1.591   0.848   5.664
 4865SOL    HW215495   1.697   0.749   5.740
 4866SOL     OW15496   6.436   3.614   1.123
 4866SOL    HW115497   6.389   3.697   1.093
 4866SOL    HW215498   6.389   3.575   1.203
 4867SOL     OW15499   4.041   5.640   2.900
 4867SOL    HW115500   4.040   5.723   2.955
 4867SOL    HW215501   4.135   5.609   2.887
 4868SOL     OW15502   6.176   4.904   2.932
 4868SOL    HW115503   6.211   4.819   2.893
 4868SOL    HW215504   6.077   4.908   2.922
 4869SOL     OW15505   1.824   1.697   1.391
 4869SOL    HW115506   1.909   1.709   1.340
 4869SOL    HW215507   1.765   1.633   1.341
 4870SOL     OW15508   1.058   6.095   1.587
 4870SOL    HW115509   1.083   5.999   1.596
 4870SOL    HW215510   0.967   6.109   1.627
 4871SOL     OW15511   0.368   0.736   3.999
 4871SOL    HW115512   0.467   0.747   4.000
 4871SOL    HW215513   0.345   0.640   4.018
 4872SOL     OW15514   6.476   0.124   3.473
 4872SOL    HW115515   6.385   0.161   3.460
 4872SOL    HW215516   6.493   0.110   3.571
 4873SOL     OW15517   6.421   5.514   4.448
 4873SOL    HW115518   6.417   5.442   4.517
 4873SOL    HW215519   6.328   5.537   4.418
 4874SOL     OW15520   4.952   3.629   2.305
 4874SOL    HW115521   4.927   3.563   2.234
 4874SOL    HW215522   5.013   3.698   2.267
 4875SOL     OW15523   6.416   1.167   0.223
 4875SOL    HW115524   6.486   1.223   0.179
 4875SOL    HW215525   6.367   1.115   0.154
 4876SOL     OW15526   0.011   1.537   3.584
 4876SOL    HW115527   7.018   1.441   3.566
 4876SOL    HW215528   0.087   1.566   3.527
 4877SOL     OW15529   0.640   2.119   5.389
 4877SOL    HW115530   0.555   2.151   5.430
 4877SOL    HW215531   0.718   2.155   5.442
 4878SOL     OW15532   6.359   1.145   1.882
 4878SOL    HW115533   6.451   1.182   1.894
 4878SOL    HW215534   6.359   1.079   1.807
 4879SOL     OW15535   4.300   2.123   2.009
 4879SOL    HW115536   4.243   2.160   1.935
 4879SOL    HW215537   4.248   2.053   2.059
 4880SOL     OW15538   6.195   3.428   0.031
 4880SOL    HW115539   6.124   3.410   6.991
 4880SOL    HW215540   6.164   3.397   0.121
 4881SOL     OW15541   1.890   1.178   0.305
 4881SOL    HW115542   1.903   1.232   0.221
 4881SOL    HW215543   1.875   1.239   0.382
 4882SOL     OW15544   4.423   1.196   5.505
 4882SOL    HW115545   4.331   1.199   5.466
 4882SOL    HW215546   4.426   1.248   5.590
 4883SOL     OW15547   4.920   4.342   1.228
 4883SOL    HW115548   4.934   4.368   1.323
 4883SOL    HW215549   4.866   4.258   1.224
 4884SOL     OW15550   2.862   5.226   1.704
 4884SOL    HW115551   2.858   5.272   1.793
 4884SOL    HW215552   2.946   5.171   1.700
 4885SOL     OW15553   1.951   5.464   1.295
 4885SOL    HW115554   2.003   5.547   1.275
 4885SOL    HW215555   2.007   5.401   1.348
 4886SOL     OW15556   2.829   6.367   1.385
 4886SOL    HW115557   2.739   6.407   1.404
 4886SOL    HW215558   2.831   6.273   1.419
 4887SOL     OW15559   7.021   6.572   1.437
 4887SOL    HW115560   6.922   6.557   1.445
 4887SOL    HW215561   0.013   6.610   1.347
 4888SOL     OW15562   2.766   0.184   3.476
 4888SOL    HW115563   2.749   0.086   3.466
 4888SOL    HW215564   2.863   0.200   3.492
 4889SOL     OW15565   6.705   2.222   5.135
 4889SOL    HW115566   6.610   2.230   5.106
 4889SOL    HW215567   6.712   2.238   5.233
 4890SOL     OW15568   0.026   1.982   5.496
 4890SOL    HW115569   0.078   1.963   5.412
 4890SOL    HW215570   0.009   1.896   5.544
 4891SOL     OW15571   2.231   5.496   0.202
 4891SOL    HW115572   2.300   5.554   0.245
 4891SOL    HW215573   2.167   5.553   0.150
 4892SOL     OW15574   4.548   5.478   2.260
 4892SOL    HW115575   4.488   5.412   2.305
 4892SOL    HW215576   4.550   5.563   2.313
 4893SOL     OW15577   6.036   3.354   2.476
 4893SOL    HW115578   6.090   3.348   2.392
 4893SOL    HW215579   5.939   3.362   2.453
 4894SOL     OW15580   3.612   0.764   2.569
 4894SOL    HW115581   3.605   0.858   2.603
 4894SOL    HW215582   3.705   0.730   2.585
 4895SOL     OW15583   0.734   4.579   3.930
 4895SOL    HW115584   0.779   4.509   3.875
 4895SOL    HW215585   0.713   4.658   3.873
 4896SOL     OW15586   2.456   4.777   2.514
 4896SOL    HW115587   2.508   4.730   2.443
 4896SOL    HW215588   2.378   4.722   2.541
 4897SOL     OW15589   1.878   5.782   5.040
 4897SOL    HW115590   1.892   5.683   5.037
 4897SOL    HW215591   1.792   5.805   4.995
 4898SOL     OW15592   3.532   1.239   4.978
 4898SOL    HW115593   3.500   1.310   5.041
 4898SOL    HW215594   3.552   1.156   5.029
 4899SOL     OW15595   5.565   5.100   2.880
 4899SOL    HW115596   5.540   5.004   2.873
 4899SOL    HW215597   5.626   5.124   2.804
 4900SOL     OW15598   3.719   5.880   5.076
 4900SOL    HW115599   3.621   5.893   5.065
 4900SOL    HW215600   3.747   5.796   5.030
 4901SOL     OW15601   2.476   1.892   5.710
 4901SOL    HW115602   2.523   1.944   5.781
 4901SOL    HW215603   2.404   1.836   5.752
 4902SOL     OW15604   0.973   1.325   4.754
 4902SOL    HW115605   1.026   1.335   4.670
 4902SOL    HW215606   0.887   1.376   4.745
 4903SOL     OW15607   4.537   5.963   0.251
 4903SOL    HW115608   4.468   6.033   0.268
 4903SOL    HW215609   4.495   5.885   0.203
 4904SOL     OW15610   1.963   0.175   5.497
 4904SOL    HW115611   1.955   0.139   5.404
 4904SOL    HW215612   2.059   0.196   5.516
 4905SOL     OW15613   3.539   0.845   3.767
 4905SOL    HW115614   3.475   0.921   3.758
 4905SOL    HW215615   3.512   0.770   3.707
 4906SOL     OW15616   4.881   2.077   6.330
 4906SOL    HW115617   4.975   2.046   6.319
 4906SOL    HW215618   4.823   1.999   6.354
 4907SOL     OW15619   4.959   0.298   1.446
 4907SOL    HW115620   5.041   0.244   1.462
 4907SOL    HW215621   4.980   0.395   1.458
 4908SOL     OW15622   5.554   6.491   6.786
 4908SOL    HW115623   5.531   6.501   6.883
 4908SOL    HW215624   5.534   6.576   6.738
 4909SOL     OW15625   0.177   5.425   3.331
 4909SOL    HW115626   0.083   5.446   3.302
 4909SOL    HW215627   0.236   5.420   3.251
 4910SOL     OW15628   5.657   0.526   4.380
 4910SOL    HW115629   5.643   0.525   4.281
 4910SOL    HW215630   5.574   0.493   4.425
 4911SOL     OW15631   1.689   3.786   3.308
 4911SOL    HW115632   1.770   3.824   3.354
 4911SOL    HW215633   1.611   3.788   3.371
 4912SOL     OW15634   5.579   2.024   5.935
 4912SOL    HW115635   5.660   2.076   5.906
 4912SOL    HW215636   5.608   1.937   5.975
 4913SOL     OW15637   4.318   3.592   5.569
 4913SOL    HW115638   4.330   3.580   5.470
 4913SOL    HW215639   4.404   3.574   5.616
 4914SOL     OW15640   4.455   6.940   5.295
 4914SOL    HW115641   4.439   7.022   5.240
 4914SOL    HW215642   4.484   6.865   5.235
 4915SOL     OW15643   2.204   6.191   5.032
 4915SOL    HW115644   2.295   6.153   5.020
 4915SOL    HW215645   2.210   6.291   5.036
 4916SOL     OW15646   0.756   1.329   3.836
 4916SOL    HW115647   0.790   1.422   3.848
 4916SOL    HW215648   0.737   1.288   3.925
 4917SOL     OW15649   3.490   5.529   1.361
 4917SOL    HW115650   3.492   5.467   1.439
 4917SOL    HW215651   3.407   5.512   1.308
 4918SOL     OW15652   5.610   6.833   1.670
 4918SOL    HW115653   5.692   6.861   1.620
 4918SOL    HW215654   5.591   6.898   1.743
 4919SOL     OW15655   2.911   3.445   2.015
 4919SOL    HW115656   2.933   3.357   2.057
 4919SOL    HW215657   2.826   3.435   1.961
 4920SOL     OW15658   5.374   6.860   4.668
 4920SOL    HW115659   5.325   6.904   4.744
 4920SOL    HW215660   5.447   6.803   4.703
 4921SOL     OW15661   1.368   5.308   0.199
 4921SOL    HW115662   1.325   5.223   0.168
 4921SOL    HW215663   1.400   5.359   0.120
 4922SOL     OW15664   2.932   2.278   4.286
 4922SOL    HW115665   2.862   2.337   4.245
 4922SOL    HW215666   2.997   2.249   4.216
 4923SOL     OW15667   2.815   1.379   2.403
 4923SOL    HW115668   2.743   1.440   2.370
 4923SOL    HW215669   2.778   1.287   2.415
 4924SOL     OW15670   3.174   1.599   4.605
 4924SOL    HW115671   3.184   1.652   4.521
 4924SOL    HW215672   3.121   1.651   4.672
 4925SOL     OW15673   5.228   0.574   2.505
 4925SOL    HW115674   5.169   0.655   2.508
 4925SOL    HW215675   5.324   0.602   2.501
 4926SOL     OW15676   5.599   1.459   1.748
 4926SOL    HW115677   5.681   1.513   1.764
 4926SOL    HW215678   5.528   1.517   1.707
 4927SOL     OW15679   3.228   3.618   5.376
 4927SOL    HW115680   3.251   3.660   5.288
 4927SOL    HW215681   3.309   3.575   5.415
 4928SOL     OW15682   1.488   0.711   0.046
 4928SOL    HW115683   1.575   0.737   0.088
 4928SOL    HW215684   1.492   0.614   0.020
 4929SOL     OW15685   6.315   0.266   4.459
 4929SOL    HW115686   6.393   0.327   4.444
 4929SOL    HW215687   6.337   0.201   4.532
 4930SOL     OW15688   5.635   0.365   2.525
 4930SOL    HW115689   5.570   0.388   2.598
 4930SOL    HW215690   5.717   0.421   2.535
 4931SOL     OW15691   6.236   6.629   1.742
 4931SOL    HW115692   6.254   6.674   1.654
 4931SOL    HW215693   6.267   6.688   1.816
 4932SOL     OW15694   3.973   3.080   2.929
 4932SOL    HW115695   3.915   3.160   2.913
 4932SOL    HW215696   3.945   3.036   3.015
 4933SOL     OW15697   2.586   6.979   2.220
 4933SOL    HW115698   2.598   0.011   2.298
 4933SOL    HW215699   2.490   6.950   2.214
 4934SOL     OW15700   3.473   6.277   2.632
 4934SOL    HW115701   3.552   6.303   2.688
 4934SOL    HW215702   3.433   6.193   2.669
 4935SOL     OW15703   1.507   1.868   6.299
 4935SOL    HW115704   1.478   1.869   6.395
 4935SOL    HW215705   1.567   1.946   6.282
 4936SOL     OW15706   3.270   5.013   1.308
 4936SOL    HW115707   3.193   5.060   1.266
 4936SOL    HW215708   3.255   4.914   1.305
 4937SOL     OW15709   5.898   2.938   5.732
 4937SOL    HW115710   5.809   2.981   5.717
 4937SOL    HW215711   5.884   2.845   5.766
 4938SOL     OW15712   2.550   5.859   5.847
 4938SOL    HW115713   2.520   5.954   5.840
 4938SOL    HW215714   2.472   5.801   5.872
 4939SOL     OW15715   5.305   1.836   4.984
 4939SOL    HW115716   5.266   1.910   4.929
 4939SOL    HW215717   5.243   1.758   4.982
 4940SOL     OW15718   1.013   1.221   4.374
 4940SOL    HW115719   1.073   1.229   4.295
 4940SOL    HW215720   1.033   1.295   4.439
 4941SOL     OW15721   4.150   2.198   6.248
 4941SOL    HW115722   4.203   2.187   6.164
 4941SOL    HW215723   4.066   2.249   6.229
 4942SOL     OW15724   5.230   3.159   5.635
 4942SOL    HW115725   5.238   3.134   5.731
 4942SOL    HW215726   5.141   3.128   5.601
 4943SOL     OW15727   3.893   3.380   1.001
 4943SOL    HW115728   3.916   3.420   0.912
 4943SOL    HW215729   3.807   3.419   1.034
 4944SOL     OW15730   2.048   4.343   2.765
 4944SOL    HW115731   2.108   4.265   2.784
 4944SOL    HW215732   2.100   4.428   2.775
 4945SOL     OW15733   1.036   1.397   3.696
 4945SOL    HW115734   0.943   1.419   3.728
 4945SOL    HW215735   1.032   1.322   3.630
 4946SOL     OW15736   0.716   3.028   1.615
 4946SOL    HW115737   0.629   3.002   1.573
 4946SOL    HW215738   0.768   3.085   1.552
 4947SOL     OW15739   1.399   6.986   0.504
 4947SOL    HW115740   1.333   6.970   0.577
 4947SOL    HW215741   1.423   0.055   0.501
 4948SOL     OW15742   2.710   0.485   2.275
 4948SOL    HW115743   2.736   0.399   2.229
 4948SOL    HW215744   2.725   0.476   2.373
 4949SOL     OW15745   4.933   0.602   5.375
 4949SOL    HW115746   4.923   0.506   5.399
 4949SOL    HW215747   4.919   0.613   5.276
 4950SOL     OW15748   3.070   5.737   3.564
 4950SOL    HW115749   3.013   5.676   3.510
 4950SOL    HW215750   3.016   5.778   3.638
 4951SOL     OW15751   5.590   1.325   4.759
 4951SOL    HW115752   5.669   1.319   4.819
 4951SOL    HW215753   5.619   1.311   4.664
 4952SOL     OW15754   0.497   0.697   4.896
 4952SOL    HW115755   0.535   0.777   4.851
 4952SOL    HW215756   0.416   0.666   4.847
 4953SOL     OW15757   2.452   6.160   2.092
 4953SOL    HW115758   2.470   6.243   2.040
 4953SOL    HW215759   2.364   6.122   2.064
 4954SOL     OW15760   4.728   4.371   6.254
 4954SOL    HW115761   4.711   4.429   6.334
 4954SOL    HW215762   4.815   4.323   6.266
 4955SOL     OW15763   1.768   5.896   6.570
 4955SOL    HW115764   1.746   5.934   6.659
 4955SOL    HW215765   1.788   5.798   6.579
 4956SOL     OW15766   3.058   6.530   5.180
 4956SOL    HW115767   3.147   6.507   5.139
 4956SOL    HW215768   3.071   6.601   5.249
 4957SOL     OW15769   6.798   0.785   3.323
 4957SOL    HW115770   6.869   0.839   3.278
 4957SOL    HW215771   6.826   0.767   3.418
 4958SOL     OW15772   0.131   6.159   6.016
 4958SOL    HW115773   0.130   6.238   5.955
 4958SOL    HW215774   0.196   6.091   5.980
 4959SOL     OW15775   6.376   1.107   6.769
 4959SOL    HW115776   6.469   1.089   6.736
 4959SOL    HW215777   6.349   1.199   6.744
 4960SOL     OW15778   3.181   6.499   3.533
 4960SOL    HW115779   3.149   6.439   3.460
 4960SOL    HW215780   3.219   6.444   3.607
 4961SOL     OW15781   5.081   1.153   5.163
 4961SOL    HW115782   5.163   1.210   5.166
 4961SOL    HW215783   5.006   1.201   5.208
 4962SOL     OW15784   5.806   2.550   1.435
 4962SOL    HW115785   5.872   2.490   1.390
 4962SOL    HW215786   5.736   2.578   1.368
 4963SOL     OW15787   5.628   5.835   1.113
 4963SOL    HW115788   5.621   5.785   1.026
 4963SOL    HW215789   5.569   5.915   1.109
 4964SOL     OW15790   4.005   6.349   3.229
 4964SOL    HW115791   4.042   6.343   3.136
 4964SOL    HW215792   3.935   6.421   3.232
 4965SOL     OW15793   0.100   6.828   3.969
 4965SOL    HW115794   0.178   6.849   4.027
 4965SOL    HW215795   0.132   6.810   3.876
 4966SOL     OW15796   2.365   6.860   4.817
 4966SOL    HW115797   2.425   6.783   4.839
 4966SOL    HW215798   2.309   6.882   4.897
 4967SOL     OW15799   4.495   3.257   6.587
 4967SOL    HW115800   4.420   3.320   6.568
 4967SOL    HW215801   4.484   3.219   6.679
 4968SOL     OW15802   5.195   2.940   3.584
 4968SOL    HW115803   5.139   2.859   3.598
 4968SOL    HW215804   5.210   2.953   3.486
 4969SOL     OW15805   1.588   1.168   2.511
 4969SOL    HW115806   1.648   1.125   2.444
 4969SOL    HW215807   1.642   1.229   2.570
 4970SOL     OW15808   1.799   2.539   4.995
 4970SOL    HW115809   1.872   2.473   4.977
 4970SOL    HW215810   1.761   2.571   4.908
 4971SOL     OW15811   6.365   6.098   3.665
 4971SOL    HW115812   6.416   6.077   3.581
 4971SOL    HW215813   6.361   6.197   3.678
 4972SOL     OW15814   1.998   3.505   0.725
 4972SOL    HW115815   1.938   3.561   0.782
 4972SOL    HW215816   1.949   3.422   0.696
 4973SOL     OW15817   6.956   6.968   1.436
 4973SOL    HW115818   6.904   0.017   1.400
 4973SOL    HW215819   0.026   6.987   1.427
 4974SOL     OW15820   6.836   4.357   0.544
 4974SOL    HW115821   6.883   4.299   0.478
 4974SOL    HW215822   6.840   4.315   0.635
 4975SOL     OW15823   6.148   5.917   0.297
 4975SOL    HW115824   6.213   5.882   0.364
 4975SOL    HW215825   6.055   5.889   0.323
 4976SOL     OW15826   2.860   0.628   4.305
 4976SOL    HW115827   2.839   0.535   4.274
 4976SOL    HW215828   2.779   0.685   4.294
 4977SOL     OW15829   5.365   3.884   0.750
 4977SOL    HW115830   5.376   3.807   0.812
 4977SOL    HW215831   5.431   3.956   0.774
 4978SOL     OW15832   6.647   3.663   5.610
 4978SOL    HW115833   6.708   3.713   5.671
 4978SOL    HW215834   6.603   3.727   5.548
 4979SOL     OW15835   0.327   1.758   5.029
 4979SOL    HW115836   0.381   1.829   5.074
 4979SOL    HW215837   0.350   1.754   4.932
 4980SOL     OW15838   4.804   6.791   3.424
 4980SOL    HW115839   4.809   6.806   3.325
 4980SOL    HW215840   4.850   6.705   3.447
 4981SOL     OW15841   5.155   5.569   5.840
 4981SOL    HW115842   5.077   5.555   5.778
 4981SOL    HW215843   5.122   5.586   5.933
 4982SOL     OW15844   2.647   1.345   6.813
 4982SOL    HW115845   2.550   1.342   6.789
 4982SOL    HW215846   2.702   1.313   6.736
 4983SOL     OW15847   4.852   3.171   4.051
 4983SOL    HW115848   4.840   3.181   4.149
 4983SOL    HW215849   4.879   3.259   4.012
 4984SOL     OW15850   5.610   3.813   4.408
 4984SOL    HW115851   5.560   3.900   4.415
 4984SOL    HW215852   5.627   3.792   4.312
 4985SOL     OW15853   6.619   6.266   3.931
 4985SOL    HW115854   6.673   6.186   3.907
 4985SOL    HW215855   6.560   6.292   3.854
 4986SOL     OW15856   6.715   4.809   3.195
 4986SOL    HW115857   6.748   4.887   3.248
 4986SOL    HW215858   6.747   4.724   3.237
 4987SOL     OW15859   0.503   2.008   1.425
 4987SOL    HW115860   0.527   1.923   1.470
 4987SOL    HW215861   0.570   2.079   1.448
 4988SOL     OW15862   6.891   1.601   3.815
 4988SOL    HW115863   6.922   1.567   3.904
 4988SOL    HW215864   6.959   1.579   3.745
 4989SOL     OW15865   6.193   1.096   1.520
 4989SOL    HW115866   6.124   1.040   1.475
 4989SOL    HW215867   6.209   1.063   1.613
 4990SOL     OW15868   1.009   1.710   6.376
 4990SOL    HW115869   0.937   1.779   6.368
 4990SOL    HW215870   1.032   1.676   6.285
 4991SOL     OW15871   0.646   3.835   3.976
 4991SOL    HW115872   0.677   3.744   4.003
 4991SOL    HW215873   0.547   3.835   3.965
 4992SOL     OW15874   4.562   0.886   4.234
 4992SOL    HW115875   4.617   0.901   4.152
 4992SOL    HW215876   4.545   0.973   4.280
 4993SOL     OW15877   2.515   4.566   3.733
 4993SOL    HW115878   2.493   4.639   3.669
 4993SOL    HW215879   2.433   4.512   3.752
 4994SOL     OW15880   1.390   0.284   2.462
 4994SOL    HW115881   1.301   0.286   2.508
 4994SOL    HW215882   1.459   0.245   2.524
 4995SOL     OW15883   6.936   3.314   5.662
 4995SOL    HW115884   6.947   3.243   5.591
 4995SOL    HW215885   7.020   3.368   5.667
 4996SOL     OW15886   1.484   0.553   2.400
 4996SOL    HW115887   1.580   0.545   2.375
 4996SOL    HW215888   1.448   0.462   2.422
 4997SOL     OW15889   6.124   2.300   3.097
 4997SOL    HW115890   6.144   2.341   3.186
 4997SOL    HW215891   6.049   2.350   3.054
 4998SOL     OW15892   2.098   4.035   4.820
 4998SOL    HW115893   2.179   4.037   4.878
 4998SOL    HW215894   2.016   4.048   4.876
 4999SOL     OW15895   4.865   5.531   1.227
 4999SOL    HW115896   4.904   5.535   1.319
 4999SOL    HW215897   4.868   5.622   1.186
 5000SOL     OW15898   1.733   0.733   4.042
 5000SOL    HW115899   1.779   0.820   4.053
 5000SOL    HW215900   1.648   0.747   3.991
 5001SOL     OW15901   2.068   4.089   6.216
 5001SOL    HW115902   2.151   4.094   6.273
 5001SOL    HW215903   2.031   3.996   6.220
 5002SOL     OW15904   1.325   2.874   3.105
 5002SOL    HW115905   1.331   2.956   3.163
 5002SOL    HW215906   1.243   2.880   3.048
 5003SOL     OW15907   0.876   6.732   3.657
 5003SOL    HW115908   0.780   6.705   3.666
 5003SOL    HW215909   0.924   6.666   3.600
 5004SOL     OW15910   2.275   5.362   5.596
 5004SOL    HW115911   2.316   5.340   5.507
 5004SOL    HW215912   2.339   5.337   5.669
 5005SOL     OW15913   3.753   2.182   0.625
 5005SOL    HW115914   3.755   2.150   0.720
 5005SOL    HW215915   3.756   2.282   0.623
 5006SOL     OW15916   5.550   6.863   6.201
 5006SOL    HW115917   5.474   6.842   6.139
 5006SOL    HW215918   5.529   6.947   6.252
 5007SOL     OW15919   2.575   0.492   6.192
 5007SOL    HW115920   2.520   0.431   6.136
 5007SOL    HW215921   2.672   0.479   6.171
 5008SOL     OW15922   6.615   0.371   3.764
 5008SOL    HW115923   6.569   0.439   3.820
 5008SOL    HW215924   6.700   0.342   3.809
 5009SOL     OW15925   2.092   6.165   1.856
 5009SOL    HW115926   2.127   6.228   1.786
 5009SOL    HW215927   2.118   6.071   1.832
 5010SOL     OW15928   3.912   3.516   4.013
 5010SOL    HW115929   3.847   3.459   3.963
 5010SOL    HW215930   3.973   3.457   4.066
 5011SOL     OW15931   2.138   3.210   2.039
 5011SOL    HW115932   2.041   3.202   2.064
 5011SOL    HW215933   2.162   3.306   2.029
 5012SOL     OW15934   5.929   2.713   6.811
 5012SOL    HW115935   5.859   2.646   6.837
 5012SOL    HW215936   5.900   2.762   6.728
 5013SOL     OW15937   5.426   0.805   6.898
 5013SOL    HW115938   5.343   0.815   6.953
 5013SOL    HW215939   5.485   0.736   6.940
 5014SOL     OW15940   6.181   5.607   0.818
 5014SOL    HW115941   6.110   5.537   0.820
 5014SOL    HW215942   6.141   5.697   0.834
 5015SOL     OW15943   4.009   1.976   3.873
 5015SOL    HW115944   3.989   1.908   3.803
 5015SOL    HW215945   4.031   2.063   3.830
 5016SOL     OW15946   1.992   1.136   2.135
 5016SOL    HW115947   2.035   1.086   2.210
 5016SOL    HW215948   2.054   1.138   2.056
 5017SOL     OW15949   2.333   2.562   0.880
 5017SOL    HW115950   2.359   2.657   0.859
 5017SOL    HW215951   2.339   2.547   0.979
 5018SOL     OW15952   0.857   4.483   1.646
 5018SOL    HW115953   0.946   4.509   1.609
 5018SOL    HW215954   0.789   4.485   1.573
 5019SOL     OW15955   2.319   4.496   0.519
 5019SOL    HW115956   2.287   4.585   0.484
 5019SOL    HW215957   2.417   4.488   0.502
 5020SOL     OW15958   5.590   6.653   5.033
 5020SOL    HW115959   5.595   6.736   5.089
 5020SOL    HW215960   5.522   6.590   5.073
 5021SOL     OW15961   1.020   3.535   5.977
 5021SOL    HW115962   1.069   3.449   5.993
 5021SOL    HW215963   1.045   3.572   5.888
 5022SOL     OW15964   1.605   0.144   1.116
 5022SOL    HW115965   1.635   0.124   1.209
 5022SOL    HW215966   1.684   0.163   1.058
 5023SOL     OW15967   6.417   3.362   0.958
 5023SOL    HW115968   6.349   3.292   0.980
 5023SOL    HW215969   6.410   3.438   1.023
 5024SOL     OW15970   0.061   4.207   2.822
 5024SOL    HW115971   6.995   4.238   2.804
 5024SOL    HW215972   0.080   4.125   2.769
 5025SOL     OW15973   4.577   2.287   2.304
 5025SOL    HW115974   4.655   2.344   2.332
 5025SOL    HW215975   4.507   2.345   2.262
 5026SOL     OW15976   5.996   6.017   6.348
 5026SOL    HW115977   5.961   5.977   6.263
 5026SOL    HW215978   5.923   6.022   6.415
 5027SOL     OW15979   0.857   6.620   2.901
 5027SOL    HW115980   0.897   6.531   2.923
 5027SOL    HW215981   0.838   6.625   2.803
 5028SOL     OW15982   0.535   6.115   1.729
 5028SOL    HW115983   0.483   6.058   1.665
 5028SOL    HW215984   0.480   6.195   1.753
 5029SOL     OW15985   6.791   3.279   2.967
 5029SOL    HW115986   6.885   3.311   2.979
 5029SOL    HW215987   6.792   3.181   2.947
 5030SOL     OW15988   6.779   0.564   6.874
 5030SOL    HW115989   6.713   0.506   6.827
 5030SOL    HW215990   6.731   0.622   6.940
 5031SOL     OW15991   6.073   1.239   4.512
 5031SOL    HW115992   6.037   1.165   4.568
 5031SOL    HW215993   6.002   1.274   4.451
 5032SOL     OW15994   1.524   4.422   1.127
 5032SOL    HW115995   1.476   4.484   1.065
 5032SOL    HW215996   1.620   4.415   1.099
 5033SOL     OW15997   1.868   5.098   6.077
 5033SOL    HW115998   1.876   5.194   6.049
 5033SOL    HW215999   1.935   5.078   6.149
 5034SOL     OW16000   0.034   3.452   1.976
 5034SOL    HW116001   0.080   3.373   1.936
 5034SOL    HW216002   0.101   3.507   2.027
 5035SOL     OW16003   5.969   4.681   1.448
 5035SOL    HW116004   6.066   4.664   1.464
 5035SOL    HW216005   5.955   4.712   1.354
 5036SOL     OW16006   0.495   5.624   6.449
 5036SOL    HW116007   0.592   5.646   6.440
 5036SOL    HW216008   0.466   5.565   6.374
 5037SOL     OW16009   4.672   2.726   2.819
 5037SOL    HW116010   4.729   2.738   2.900
 5037SOL    HW216011   4.604   2.655   2.836
 5038SOL     OW16012   1.985   5.692   5.419
 5038SOL    HW116013   2.039   5.669   5.499
 5038SOL    HW216014   2.042   5.740   5.353
 5039SOL     OW16015   1.961   3.810   4.993
 5039SOL    HW116016   2.025   3.858   5.053
 5039SOL    HW216017   1.891   3.874   4.962
 5040SOL     OW16018   2.428   3.074   6.707
 5040SOL    HW116019   2.377   3.155   6.735
 5040SOL    HW216020   2.525   3.098   6.698
 5041SOL     OW16021   0.926   3.260   0.989
 5041SOL    HW116022   0.923   3.296   0.896
 5041SOL    HW216023   0.860   3.186   0.998
 5042SOL     OW16024   0.029   3.269   7.001
 5042SOL    HW116025   0.128   3.282   6.992
 5042SOL    HW216026   7.017   3.351   0.015
 5043SOL     OW16027   3.552   0.949   5.437
 5043SOL    HW116028   3.503   1.030   5.404
 5043SOL    HW216029   3.525   0.870   5.382
 5044SOL     OW16030   6.184   6.105   3.395
 5044SOL    HW116031   6.226   6.064   3.314
 5044SOL    HW216032   6.152   6.034   3.457
 5045SOL     OW16033   5.198   3.460   0.274
 5045SOL    HW116034   5.252   3.376   0.271
 5045SOL    HW216035   5.115   3.444   0.326
 5046SOL     OW16036   3.839   2.957   5.095
 5046SOL    HW116037   3.870   3.041   5.141
 5046SOL    HW216038   3.839   2.882   5.161
 5047SOL     OW16039   6.210   1.449   2.574
 5047SOL    HW116040   6.122   1.494   2.559
 5047SOL    HW216041   6.231   1.448   2.672
 5048SOL     OW16042   6.187   2.039   1.713
 5048SOL    HW116043   6.204   2.127   1.669
 5048SOL    HW216044   6.238   2.035   1.799
 5049SOL     OW16045   6.441   1.248   2.904
 5049SOL    HW116046   6.492   1.252   2.990
 5049SOL    HW216047   6.489   1.188   2.840
 5050SOL     OW16048   0.414   1.803   1.793
 5050SOL    HW116049   0.383   1.746   1.869
 5050SOL    HW216050   0.511   1.822   1.803
 5051SOL     OW16051   3.836   3.040   0.650
 5051SOL    HW116052   3.867   3.065   0.558
 5051SOL    HW216053   3.913   3.047   0.714
 5052SOL     OW16054   2.750   4.691   6.821
 5052SOL    HW116055   2.798   4.768   6.779
 5052SOL    HW216056   2.801   4.659   6.900
 5053SOL     OW16057   2.072   3.745   2.331
 5053SOL    HW116058   2.086   3.659   2.282
 5053SOL    HW216059   2.052   3.818   2.266
 5054SOL     OW16060   3.666   6.043   5.508
 5054SOL    HW116061   3.739   6.109   5.527
 5054SOL    HW216062   3.607   6.035   5.589
 5055SOL     OW16063   0.277   1.307   4.879
 5055SOL    HW116064   0.201   1.328   4.940
 5055SOL    HW216065   0.241   1.286   4.788
 5056SOL     OW16066   7.020   4.406   6.444
 5056SOL    HW116067   0.039   4.479   6.495
 5056SOL    HW216068   0.014   4.318   6.485
 5057SOL     OW16069   0.794   5.701   3.562
 5057SOL    HW116070   0.857   5.630   3.593
 5057SOL    HW216071   0.844   5.767   3.506
 5058SOL     OW16072   4.176   3.688   6.810
 5058SOL    HW116073   4.214   3.732   6.893
 5058SOL    HW216074   4.092   3.640   6.833
 5059SOL     OW16075   4.586   2.720   4.838
 5059SOL    HW116076   4.612   2.746   4.746
 5059SOL    HW216077   4.597   2.798   4.900
 5060SOL     OW16078   6.985   3.117   4.672
 5060SOL    HW116079   0.009   3.037   4.643
 5060SOL    HW216080   0.004   3.200   4.642
 5061SOL     OW16081   2.946   3.344   4.226
 5061SOL    HW116082   2.997   3.298   4.299
 5061SOL    HW216083   2.857   3.300   4.214
 5062SOL     OW16084   5.354   1.859   2.332
 5062SOL    HW116085   5.359   1.959   2.326
 5062SOL    HW216086   5.446   1.822   2.342
 5063SOL     OW16087   1.230   6.534   1.897
 5063SOL    HW116088   1.162   6.606   1.906
 5063SOL    HW216089   1.289   6.532   1.978
 5064SOL     OW16090   4.838   5.378   0.516
 5064SOL    HW116091   4.865   5.291   0.476
 5064SOL    HW216092   4.890   5.394   0.600
 5065SOL     OW16093   1.696   0.484   2.967
 5065SOL    HW116094   1.749   0.560   3.005
 5065SOL    HW216095   1.721   0.471   2.871
 5066SOL     OW16096   2.552   3.976   1.728
 5066SOL    HW116097   2.536   3.926   1.643
 5066SOL    HW216098   2.470   3.970   1.786
 5067SOL     OW16099   4.114   2.155   1.812
 5067SOL    HW116100   4.117   2.247   1.775
 5067SOL    HW216101   4.128   2.089   1.738
 5068SOL     OW16102   2.733   5.327   0.066
 5068SOL    HW116103   2.733   5.229   0.042
 5068SOL    HW216104   2.819   5.349   0.112
 5069SOL     OW16105   2.314   2.975   5.620
 5069SOL    HW116106   2.314   2.916   5.539
 5069SOL    HW216107   2.381   3.048   5.607
 5070SOL     OW16108   5.877   4.285   3.992
 5070SOL    HW116109   5.814   4.327   4.057
 5070SOL    HW216110   5.825   4.240   3.920
 5071SOL     OW16111   3.787   1.640   3.333
 5071SOL    HW116112   3.824   1.732   3.346
 5071SOL    HW216113   3.757   1.630   3.238
 5072SOL     OW16114   2.233   1.111   1.182
 5072SOL    HW116115   2.267   1.089   1.274
 5072SOL    HW216116   2.308   1.141   1.125
 5073SOL     OW16117   1.640   6.371   1.819
 5073SOL    HW116118   1.559   6.350   1.874
 5073SOL    HW216119   1.719   6.323   1.856
 5074SOL     OW16120   3.856   1.845   1.739
 5074SOL    HW116121   3.832   1.885   1.827
 5074SOL    HW216122   3.773   1.810   1.694
 5075SOL     OW16123   1.624   2.460   0.029
 5075SOL    HW116124   1.557   2.506   0.089
 5075SOL    HW216125   1.706   2.439   0.082
 5076SOL     OW16126   5.580   6.822   6.985
 5076SOL    HW116127   5.647   6.815   6.911
 5076SOL    HW216128   5.592   6.908   0.005
 5077SOL     OW16129   1.306   3.955   6.107
 5077SOL    HW116130   1.384   3.893   6.101
 5077SOL    HW216131   1.221   3.903   6.100
 5078SOL     OW16132   0.516   0.875   4.271
 5078SOL    HW116133   0.555   0.812   4.204
 5078SOL    HW216134   0.534   0.841   4.364
 5079SOL     OW16135   2.496   2.468   5.832
 5079SOL    HW116136   2.397   2.457   5.838
 5079SOL    HW216137   2.524   2.549   5.884
 5080SOL     OW16138   5.814   5.420   5.385
 5080SOL    HW116139   5.884   5.451   5.321
 5080SOL    HW216140   5.789   5.494   5.446
 5081SOL     OW16141   2.294   5.069   5.016
 5081SOL    HW116142   2.271   5.145   4.955
 5081SOL    HW216143   2.393   5.063   5.027
 5082SOL     OW16144   4.770   6.937   6.890
 5082SOL    HW116145   4.690   6.902   6.939
 5082SOL    HW216146   4.848   6.940   6.952
 5083SOL     OW16147   3.590   0.456   0.968
 5083SOL    HW116148   3.645   0.406   0.901
 5083SOL    HW216149   3.493   0.448   0.945
 5084SOL     OW16150   0.796   4.864   4.778
 5084SOL    HW116151   0.829   4.847   4.685
 5084SOL    HW216152   0.696   4.868   4.778
 5085SOL     OW16153   1.174   2.874   5.790
 5085SOL    HW116154   1.186   2.963   5.745
 5085SOL    HW216155   1.161   2.889   5.888
 5086SOL     OW16156   0.384   4.266   2.208
 5086SOL    HW116157   0.470   4.225   2.177
 5086SOL    HW216158   0.309   4.234   2.151
 5087SOL     OW16159   6.912   5.347   2.277
 5087SOL    HW116160   6.918   5.390   2.187
 5087SOL    HW216161   6.984   5.279   2.286
 5088SOL     OW16162   4.536   6.508   3.145
 5088SOL    HW116163   4.527   6.437   3.215
 5088SOL    HW216164   4.500   6.473   3.058
 5089SOL     OW16165   5.609   4.197   3.873
 5089SOL    HW116166   5.559   4.279   3.899
 5089SOL    HW216167   5.590   4.124   3.938
 5090SOL     OW16168   2.129   0.899   3.015
 5090SOL    HW116169   2.222   0.862   3.018
 5090SOL    HW216170   2.125   0.985   3.064
 5091SOL     OW16171   6.432   0.743   0.759
 5091SOL    HW116172   6.447   0.837   0.728
 5091SOL    HW216173   6.475   0.730   0.848
 5092SOL     OW16174   3.603   2.875   3.853
 5092SOL    HW116175   3.503   2.887   3.849
 5092SOL    HW216176   3.644   2.914   3.771
 5093SOL     OW16177   2.716   1.747   1.833
 5093SOL    HW116178   2.711   1.667   1.773
 5093SOL    HW216179   2.783   1.812   1.796
 5094SOL     OW16180   1.791   5.573   6.682
 5094SOL    HW116181   1.888   5.597   6.685
 5094SOL    HW216182   1.778   5.482   6.721
 5095SOL     OW16183   0.522   1.499   2.880
 5095SOL    HW116184   0.617   1.515   2.851
 5095SOL    HW216185   0.511   1.527   2.975
 5096SOL     OW16186   5.561   4.824   6.146
 5096SOL    HW116187   5.634   4.806   6.212
 5096SOL    HW216188   5.472   4.820   6.192
 5097SOL     OW16189   6.641   0.359   0.037
 5097SOL    HW116190   6.705   0.311   7.005
 5097SOL    HW216191   6.670   0.347   0.132
 5098SOL     OW16192   3.665   2.382   1.387
 5098SOL    HW116193   3.671   2.349   1.293
 5098SOL    HW216194   3.744   2.350   1.439
 5099SOL     OW16195   0.145   6.311   1.574
 5099SOL    HW116196   0.083   6.384   1.544
 5099SOL    HW216197   0.200   6.281   1.497
 5100SOL     OW16198   3.080   5.434   3.371
 5100SOL    HW116199   3.101   5.456   3.467
 5100SOL    HW216200   3.130   5.496   3.311
 5101SOL     OW16201   4.124   0.463   4.674
 5101SOL    HW116202   4.178   0.386   4.641
 5101SOL    HW216203   4.163   0.548   4.638
 5102SOL     OW16204   4.853   5.888   4.422
 5102SOL    HW116205   4.767   5.837   4.422
 5102SOL    HW216206   4.907   5.862   4.502
 5103SOL     OW16207   0.569   1.163   4.766
 5103SOL    HW116208   0.571   1.260   4.786
 5103SOL    HW216209   0.637   1.142   4.696
 5104SOL     OW16210   3.323   5.839   1.667
 5104SOL    HW116211   3.272   5.842   1.752
 5104SOL    HW216212   3.379   5.756   1.664
 5105SOL     OW16213   3.365   2.911   6.256
 5105SOL    HW116214   3.355   2.901   6.355
 5105SOL    HW216215   3.275   2.925   6.214
 5106SOL     OW16216   3.999   1.719   1.236
 5106SOL    HW116217   3.955   1.680   1.317
 5106SOL    HW216218   3.954   1.804   1.210
 5107SOL     OW16219   5.286   1.925   0.797
 5107SOL    HW116220   5.307   1.830   0.774
 5107SOL    HW216221   5.209   1.927   0.860
 5108SOL     OW16222   4.140   3.745   5.227
 5108SOL    HW116223   4.165   3.842   5.223
 5108SOL    HW216224   4.219   3.689   5.203
 5109SOL     OW16225   1.427   2.561   0.163
 5109SOL    HW116226   1.379   2.642   0.130
 5109SOL    HW216227   1.367   2.510   0.225
 5110SOL     OW16228   0.158   0.601   6.389
 5110SOL    HW116229   0.109   0.688   6.383
 5110SOL    HW216230   0.095   0.526   6.366
 5111SOL     OW16231   1.291   6.849   4.195
 5111SOL    HW116232   1.347   6.904   4.258
 5111SOL    HW216233   1.268   6.762   4.239
 5112SOL     OW16234   0.420   0.207   3.062
 5112SOL    HW116235   0.348   0.166   3.005
 5112SOL    HW216236   0.504   0.215   3.009
 5113SOL     OW16237   1.389   6.085   1.469
 5113SOL    HW116238   1.416   6.043   1.556
 5113SOL    HW216239   1.383   6.184   1.481
 5114SOL     OW16240   4.134   6.802   0.365
 5114SOL    HW116241   4.142   6.793   0.465
 5114SOL    HW216242   4.049   6.759   0.335
 5115SOL     OW16243   1.927   4.245   2.119
 5115SOL    HW116244   1.920   4.203   2.029
 5115SOL    HW216245   1.947   4.343   2.109
 5116SOL     OW16246   2.161   6.581   0.011
 5116SOL    HW116247   2.171   6.482   0.017
 5116SOL    HW216248   2.084   6.610   0.067
 5117SOL     OW16249   0.861   3.915   3.809
 5117SOL    HW116250   0.790   3.869   3.863
 5117SOL    HW216251   0.939   3.936   3.869
 5118SOL     OW16252   5.607   0.123   0.110
 5118SOL    HW116253   5.626   0.170   0.024
 5118SOL    HW216254   5.630   0.182   0.187
 5119SOL     OW16255   4.637   1.495   1.302
 5119SOL    HW116256   4.711   1.435   1.330
 5119SOL    HW216257   4.675   1.581   1.268
 5120SOL     OW16258   4.847   6.742   5.375
 5120SOL    HW116259   4.772   6.681   5.400
 5120SOL    HW216260   4.858   6.812   5.445
 5121SOL     OW16261   3.419   3.548   0.122
 5121SOL    HW116262   3.432   3.487   0.201
 5121SOL    HW216263   3.448   3.641   0.147
 5122SOL     OW16264   3.751   5.767   2.850
 5122SOL    HW116265   3.765   5.687   2.908
 5122SOL    HW216266   3.664   5.759   2.802
 5123SOL     OW16267   5.850   2.015   4.281
 5123SOL    HW116268   5.907   2.088   4.320
 5123SOL    HW216269   5.798   2.052   4.204
 5124SOL     OW16270   2.185   6.457   3.847
 5124SOL    HW116271   2.198   6.389   3.775
 5124SOL    HW216272   2.274   6.493   3.875
 5125SOL     OW16273   0.205   1.920   3.016
 5125SOL    HW116274   0.144   1.878   3.084
 5125SOL    HW216275   0.250   1.999   3.056
 5126SOL     OW16276   0.978   6.384   6.860
 5126SOL    HW116277   0.974   6.303   6.918
 5126SOL    HW216278   1.023   6.458   6.909
 5127SOL     OW16279   0.559   5.440   6.800
 5127SOL    HW116280   0.594   5.441   6.894
 5127SOL    HW216281   0.546   5.534   6.769
 5128SOL     OW16282   6.542   6.641   0.836
 5128SOL    HW116283   6.502   6.669   0.749
 5128SOL    HW216284   6.632   6.600   0.821
 5129SOL     OW16285   4.918   6.528   2.803
 5129SOL    HW116286   4.920   6.456   2.872
 5129SOL    HW216287   5.007   6.573   2.800
 5130SOL     OW16288   0.176   5.336   2.389
 5130SOL    HW116289   0.226   5.372   2.468
 5130SOL    HW216290   0.241   5.314   2.316
 5131SOL     OW16291   1.862   3.158   4.066
 5131SOL    HW116292   1.933   3.162   3.996
 5131SOL    HW216293   1.883   3.084   4.130
 5132SOL     OW16294   4.158   2.816   5.947
 5132SOL    HW116295   4.195   2.740   6.000
 5132SOL    HW216296   4.231   2.858   5.893
 5133SOL     OW16297   2.642   4.846   0.235
 5133SOL    HW116298   2.730   4.845   0.188
 5133SOL    HW216299   2.578   4.903   0.184
 5134SOL     OW16300   6.873   2.822   2.149
 5134SOL    HW116301   6.789   2.811   2.204
 5134SOL    HW216302   6.931   2.891   2.191
 5135SOL     OW16303   6.299   2.148   5.290
 5135SOL    HW116304   6.213   2.148   5.341
 5135SOL    HW216305   6.307   2.063   5.237
 5136SOL     OW16306   4.754   0.287   5.961
 5136SOL    HW116307   4.710   0.364   5.916
 5136SOL    HW216308   4.727   0.284   6.057
 5137SOL     OW16309   5.749   3.034   6.435
 5137SOL    HW116310   5.830   3.079   6.397
 5137SOL    HW216311   5.684   3.014   6.362
 5138SOL     OW16312   3.204   2.990   5.763
 5138SOL    HW116313   3.111   3.003   5.799
 5138SOL    HW216314   3.229   3.068   5.706
 5139SOL     OW16315   1.514   6.979   3.652
 5139SOL    HW116316   1.594   6.970   3.593
 5139SOL    HW216317   1.446   0.009   3.607
 5140SOL     OW16318   3.268   1.713   0.012
 5140SOL    HW116319   3.186   1.668   7.003
 5140SOL    HW216320   3.302   1.780   6.974
 5141SOL     OW16321   0.106   3.704   0.569
 5141SOL    HW116322   0.138   3.610   0.580
 5141SOL    HW216323   0.009   3.703   0.546
 5142SOL     OW16324   6.242   1.226   3.780
 5142SOL    HW116325   6.149   1.232   3.745
 5142SOL    HW216326   6.243   1.166   3.860
 5143SOL     OW16327   0.601   4.194   3.843
 5143SOL    HW116328   0.553   4.192   3.931
 5143SOL    HW216329   0.558   4.128   3.780
 5144SOL     OW16330   1.082   5.922   6.467
 5144SOL    HW116331   1.024   6.002   6.453
 5144SOL    HW216332   1.080   5.895   6.563
 5145SOL     OW16333   1.505   5.065   5.882
 5145SOL    HW116334   1.551   5.037   5.967
 5145SOL    HW216335   1.515   4.992   5.814
 5146SOL     OW16336   4.496   3.874   5.577
 5146SOL    HW116337   4.456   3.785   5.555
 5146SOL    HW216338   4.465   3.904   5.667
 5147SOL     OW16339   0.143   4.683   2.613
 5147SOL    HW116340   0.212   4.641   2.671
 5147SOL    HW216341   0.157   4.654   2.518
 5148SOL     OW16342   1.065   6.417   0.921
 5148SOL    HW116343   1.055   6.387   1.016
 5148SOL    HW216344   1.159   6.401   0.891
 5149SOL     OW16345   5.951   5.852   4.580
 5149SOL    HW116346   5.858   5.887   4.593
 5149SOL    HW216347   6.006   5.920   4.532
 5150SOL     OW16348   2.307   4.957   3.010
 5150SOL    HW116349   2.239   4.902   2.962
 5150SOL    HW216350   2.343   5.026   2.948
 5151SOL     OW16351   5.497   1.418   0.333
 5151SOL    HW116352   5.398   1.418   0.347
 5151SOL    HW216353   5.521   1.346   0.269
 5152SOL     OW16354   1.933   4.805   6.416
 5152SOL    HW116355   1.894   4.819   6.325
 5152SOL    HW216356   1.868   4.838   6.485
 5153SOL     OW16357   2.289   1.029   6.505
 5153SOL    HW116358   2.258   1.075   6.588
 5153SOL    HW216359   2.383   1.055   6.485
 5154SOL     OW16360   2.067   2.989   6.453
 5154SOL    HW116361   2.014   2.925   6.397
 5154SOL    HW216362   2.164   2.968   6.445
 5155SOL     OW16363   3.830   6.437   2.317
 5155SOL    HW116364   3.768   6.361   2.335
 5155SOL    HW216365   3.796   6.520   2.361
 5156SOL     OW16366   0.238   3.106   5.447
 5156SOL    HW116367   0.227   3.068   5.355
 5156SOL    HW216368   0.148   3.121   5.488
 5157SOL     OW16369   4.513   2.521   3.584
 5157SOL    HW116370   4.426   2.481   3.611
 5157SOL    HW216371   4.585   2.452   3.591
 5158SOL     OW16372   3.271   1.792   1.148
 5158SOL    HW116373   3.249   1.695   1.143
 5158SOL    HW216374   3.293   1.826   1.057
 5159SOL     OW16375   0.501   3.264   4.489
 5159SOL    HW116376   0.523   3.272   4.586
 5159SOL    HW216377   0.551   3.333   4.437
 5160SOL     OW16378   0.384   3.749   4.005
 5160SOL    HW116379   0.309   3.784   4.061
 5160SOL    HW216380   0.360   3.756   3.908
 5161SOL     OW16381   1.524   3.606   4.403
 5161SOL    HW116382   1.482   3.540   4.465
 5161SOL    HW216383   1.624   3.597   4.407
 5162SOL     OW16384   1.195   5.074   4.046
 5162SOL    HW116385   1.226   5.167   4.063
 5162SOL    HW216386   1.268   5.010   4.071
 5163SOL     OW16387   3.587   4.890   1.288
 5163SOL    HW116388   3.556   4.950   1.215
 5163SOL    HW216389   3.641   4.815   1.250
 5164SOL     OW16390   5.949   2.292   6.653
 5164SOL    HW116391   6.010   2.369   6.631
 5164SOL    HW216392   5.920   2.248   6.568
 5165SOL     OW16393   5.933   3.411   5.458
 5165SOL    HW116394   6.014   3.469   5.470
 5165SOL    HW216395   5.931   3.375   5.365
 5166SOL     OW16396   1.310   5.271   1.622
 5166SOL    HW116397   1.280   5.185   1.663
 5166SOL    HW216398   1.352   5.253   1.533
 5167SOL     OW16399   6.171   0.317   5.801
 5167SOL    HW116400   6.211   0.336   5.891
 5167SOL    HW216401   6.153   0.219   5.793
 5168SOL     OW16402   5.090   2.560   3.816
 5168SOL    HW116403   5.044   2.638   3.774
 5168SOL    HW216404   5.022   2.495   3.849
 5169SOL     OW16405   3.242   2.471   5.788
 5169SOL    HW116406   3.144   2.462   5.808
 5169SOL    HW216407   3.261   2.437   5.696
 5170SOL     OW16408   6.794   3.774   5.800
 5170SOL    HW116409   6.781   3.871   5.821
 5170SOL    HW216410   6.821   3.725   5.883
 5171SOL     OW16411   2.288   5.116   4.458
 5171SOL    HW116412   2.334   5.111   4.546
 5171SOL    HW216413   2.202   5.165   4.467
 5172SOL     OW16414   0.208   3.063   2.075
 5172SOL    HW116415   0.290   3.089   2.126
 5172SOL    HW216416   0.185   3.136   2.010
 5173SOL     OW16417   5.768   4.910   6.337
 5173SOL    HW116418   5.687   4.941   6.388
 5173SOL    HW216419   5.849   4.959   6.369
 5174SOL     OW16420   2.111   4.671   4.233
 5174SOL    HW116421   2.159   4.717   4.307
 5174SOL    HW216422   2.173   4.606   4.189
 5175SOL     OW16423   2.364   4.213   0.015
 5175SOL    HW116424   2.273   4.174   0.028
 5175SOL    HW216425   2.397   4.251   0.101
 5176SOL     OW16426   4.360   3.477   1.528
 5176SOL    HW116427   4.304   3.426   1.462
 5176SOL    HW216428   4.437   3.421   1.558
 5177SOL     OW16429   4.640   0.061   5.875
 5177SOL    HW116430   4.683   0.141   5.916
 5177SOL    HW216431   4.584   0.089   5.797
 5178SOL     OW16432   2.092   2.670   1.360
 5178SOL    HW116433   2.026   2.600   1.333
 5178SOL    HW216434   2.122   2.652   1.454
 5179SOL     OW16435   4.222   5.971   5.558
 5179SOL    HW116436   4.319   5.973   5.581
 5179SOL    HW216437   4.207   6.012   5.468
 5180SOL     OW16438   2.929   2.955   6.480
 5180SOL    HW116439   2.833   2.962   6.453
 5180SOL    HW216440   2.973   2.880   6.432
 5181SOL     OW16441   5.247   1.768   2.654
 5181SOL    HW116442   5.274   1.796   2.562
 5181SOL    HW216443   5.214   1.847   2.705
 5182SOL     OW16444   5.107   5.210   1.247
 5182SOL    HW116445   5.101   5.111   1.255
 5182SOL    HW216446   5.203   5.239   1.255
 5183SOL     OW16447   4.410   0.441   2.702
 5183SOL    HW116448   4.381   0.355   2.658
 5183SOL    HW216449   4.336   0.508   2.694
 5184SOL     OW16450   0.790   1.975   3.839
 5184SOL    HW116451   0.712   1.986   3.902
 5184SOL    HW216452   0.756   1.958   3.747
 5185SOL     OW16453   4.839   6.964   3.199
 5185SOL    HW116454   4.917   6.978   3.139
 5185SOL    HW216455   4.815   0.022   3.244
 5186SOL     OW16456   6.030   3.341   0.837
 5186SOL    HW116457   6.100   3.404   0.805
 5186SOL    HW216458   5.980   3.383   0.912
 5187SOL     OW16459   6.228   0.927   3.591
 5187SOL    HW116460   6.237   1.022   3.561
 5187SOL    HW216461   6.317   0.892   3.618
 5188SOL     OW16462   0.615   4.879   0.591
 5188SOL    HW116463   0.610   4.913   0.685
 5188SOL    HW216464   0.705   4.838   0.575
 5189SOL     OW16465   4.646   5.120   1.124
 5189SOL    HW116466   4.676   5.054   1.192
 5189SOL    HW216467   4.547   5.111   1.111
 5190SOL     OW16468   0.742   2.298   4.586
 5190SOL    HW116469   0.839   2.308   4.608
 5190SOL    HW216470   0.698   2.239   4.654
 5191SOL     OW16471   3.608   0.511   1.999
 5191SOL    HW116472   3.664   0.458   1.935
 5191SOL    HW216473   3.556   0.449   2.057
 5192SOL     OW16474   3.977   5.603   2.260
 5192SOL    HW116475   3.934   5.583   2.172
 5192SOL    HW216476   3.920   5.568   2.334
 5193SOL     OW16477   4.753   4.743   3.886
 5193SOL    HW116478   4.824   4.812   3.874
 5193SOL    HW216479   4.687   4.749   3.811
 5194SOL     OW16480   4.652   7.013   6.264
 5194SOL    HW116481   4.640   6.950   6.340
 5194SOL    HW216482   4.744   7.002   6.226
 5195SOL     OW16483   6.413   6.420   4.732
 5195SOL    HW116484   6.504   6.423   4.773
 5195SOL    HW216485   6.384   6.325   4.724
 5196SOL     OW16486   1.306   3.497   0.809
 5196SOL    HW116487   1.342   3.458   0.894
 5196SOL    HW216488   1.228   3.556   0.830
 5197SOL     OW16489   1.995   6.134   4.080
 5197SOL    HW116490   1.927   6.064   4.059
 5197SOL    HW216491   2.009   6.138   4.179
 5198SOL     OW16492   3.445   0.192   4.381
 5198SOL    HW116493   3.510   0.194   4.457
 5198SOL    HW216494   3.437   0.098   4.346
 5199SOL     OW16495   1.777   6.331   0.741
 5199SOL    HW116496   1.713   6.396   0.780
 5199SOL    HW216497   1.869   6.351   0.776
 5200SOL     OW16498   1.070   2.077   4.848
 5200SOL    HW116499   1.102   1.984   4.829
 5200SOL    HW216500   0.979   2.073   4.889
 5201SOL     OW16501   4.950   5.901   4.162
 5201SOL    HW116502   4.997   5.978   4.119
 5201SOL    HW216503   4.918   5.929   4.253
 5202SOL     OW16504   5.404   3.404   6.087
 5202SOL    HW116505   5.483   3.349   6.111
 5202SOL    HW216506   5.320   3.352   6.106
 5203SOL     OW16507   1.580   0.877   6.839
 5203SOL    HW116508   1.525   0.831   6.909
 5203SOL    HW216509   1.576   0.825   6.754
 5204SOL     OW16510   3.548   6.467   6.892
 5204SOL    HW116511   3.586   6.533   6.828
 5204SOL    HW216512   3.555   6.375   6.853
 5205SOL     OW16513   6.896   5.463   0.093
 5205SOL    HW116514   6.900   5.394   0.021
 5205SOL    HW216515   6.987   5.501   0.108
 5206SOL     OW16516   0.456   5.372   5.793
 5206SOL    HW116517   0.409   5.387   5.706
 5206SOL    HW216518   0.553   5.396   5.784
 5207SOL     OW16519   0.453   0.513   3.589
 5207SOL    HW116520   0.516   0.580   3.629
 5207SOL    HW216521   0.391   0.559   3.526
 5208SOL     OW16522   5.053   2.315   0.540
 5208SOL    HW116523   5.143   2.335   0.580
 5208SOL    HW216524   5.010   2.400   0.511
 5209SOL     OW16525   5.141   0.452   2.269
 5209SOL    HW116526   5.174   0.513   2.341
 5209SOL    HW216527   5.164   0.490   2.180
 5210SOL     OW16528   5.608   3.949   1.113
 5210SOL    HW116529   5.617   3.958   1.013
 5210SOL    HW216530   5.511   3.949   1.137
 5211SOL     OW16531   5.164   1.722   4.693
 5211SOL    HW116532   5.122   1.651   4.750
 5211SOL    HW216533   5.256   1.693   4.667
 5212SOL     OW16534   1.033   2.544   0.694
 5212SOL    HW116535   1.043   2.495   0.780
 5212SOL    HW216536   0.941   2.582   0.688
 5213SOL     OW16537   4.076   3.796   1.662
 5213SOL    HW116538   4.130   3.869   1.702
 5213SOL    HW216539   4.068   3.810   1.563
 5214SOL     OW16540   4.930   3.610   5.958
 5214SOL    HW116541   4.953   3.602   6.055
 5214SOL    HW216542   5.006   3.654   5.910
 5215SOL     OW16543   6.906   4.105   4.169
 5215SOL    HW116544   6.992   4.150   4.193
 5215SOL    HW216545   6.924   4.008   4.151
 5216SOL     OW16546   4.740   5.777   1.046
 5216SOL    HW116547   4.666   5.820   1.098
 5216SOL    HW216548   4.716   5.774   0.949
 5217SOL     OW16549   3.775   5.878   4.553
 5217SOL    HW116550   3.792   5.781   4.570
 5217SOL    HW216551   3.759   5.892   4.455
 5218SOL     OW16552   0.250   1.317   0.812
 5218SOL    HW116553   0.268   1.356   0.721
 5218SOL    HW216554   0.220   1.390   0.873
 5219SOL     OW16555   3.409   1.891   4.626
 5219SOL    HW116556   3.500   1.861   4.598
 5219SOL    HW216557   3.416   1.976   4.678
 5220SOL     OW16558   1.656   4.748   2.995
 5220SOL    HW116559   1.697   4.789   2.913
 5220SOL    HW216560   1.573   4.797   3.019
 5221SOL     OW16561   0.039   0.264   1.908
 5221SOL    HW116562   0.119   0.265   1.848
 5221SOL    HW216563   0.068   0.248   2.002
 5222SOL     OW16564   3.733   5.443   2.308
 5222SOL    HW116565   3.763   5.404   2.221
 5222SOL    HW216566   3.650   5.497   2.294
 5223SOL     OW16567   6.980   2.446   1.275
 5223SOL    HW116568   0.021   2.388   1.319
 5223SOL    HW216569   6.996   2.448   1.177
 5224SOL     OW16570   0.100   1.790   4.281
 5224SOL    HW116571   0.028   1.779   4.349
 5224SOL    HW216572   0.062   1.834   4.199
 5225SOL     OW16573   0.252   0.778   4.361
 5225SOL    HW116574   0.241   0.685   4.327
 5225SOL    HW216575   0.323   0.824   4.309
 5226SOL     OW16576   0.343   6.198   3.394
 5226SOL    HW116577   0.269   6.153   3.343
 5226SOL    HW216578   0.353   6.154   3.483
 5227SOL     OW16579   0.148   3.587   6.061
 5227SOL    HW116580   0.054   3.606   6.031
 5227SOL    HW216581   0.181   3.662   6.118
 5228SOL     OW16582   0.892   2.677   6.862
 5228SOL    HW116583   0.902   2.773   6.834
 5228SOL    HW216584   0.933   2.664   6.953
 5229SOL     OW16585   3.106   6.262   6.502
 5229SOL    HW116586   3.047   6.341   6.488
 5229SOL    HW216587   3.084   6.191   6.434
 5230SOL     OW16588   6.313   0.299   2.957
 5230SOL    HW116589   6.237   0.357   2.926
 5230SOL    HW216590   6.293   0.266   3.049
 5231SOL     OW16591   5.003   2.083   3.397
 5231SOL    HW116592   5.025   2.078   3.300
 5231SOL    HW216593   5.065   2.024   3.448
 5232SOL     OW16594   1.508   4.236   6.168
 5232SOL    HW116595   1.408   4.231   6.161
 5232SOL    HW216596   1.534   4.271   6.257
 5233SOL     OW16597   3.094   0.810   1.840
 5233SOL    HW116598   3.022   0.780   1.776
 5233SOL    HW216599   3.054   0.824   1.930
 5234SOL     OW16600   3.326   2.861   6.544
 5234SOL    HW116601   3.407   2.918   6.555
 5234SOL    HW216602   3.273   2.862   6.629
 5235SOL     OW16603   1.902   2.201   0.576
 5235SOL    HW116604   1.879   2.267   0.648
 5235SOL    HW216605   1.995   2.167   0.591
 5236SOL     OW16606   3.110   5.110   1.699
 5236SOL    HW116607   3.087   5.139   1.792
 5236SOL    HW216608   3.156   5.022   1.702
 5237SOL     OW16609   2.453   1.289   4.726
 5237SOL    HW116610   2.485   1.229   4.653
 5237SOL    HW216611   2.478   1.249   4.815
 5238SOL     OW16612   1.119   5.356   1.366
 5238SOL    HW116613   1.117   5.340   1.268
 5238SOL    HW216614   1.136   5.454   1.383
 5239SOL     OW16615   3.421   3.617   1.141
 5239SOL    HW116616   3.364   3.588   1.218
 5239SOL    HW216617   3.462   3.706   1.161
 5240SOL     OW16618   2.694   2.509   5.290
 5240SOL    HW116619   2.604   2.474   5.264
 5240SOL    HW216620   2.765   2.448   5.257
 5241SOL     OW16621   0.570   5.790   2.312
 5241SOL    HW116622   0.591   5.747   2.224
 5241SOL    HW216623   0.527   5.879   2.296
 5242SOL     OW16624   5.002   0.019   1.940
 5242SOL    HW116625   4.924   0.043   1.882
 5242SOL    HW216626   5.053   0.102   1.963
 5243SOL     OW16627   2.418   6.383   1.939
 5243SOL    HW116628   2.362   6.462   1.914
 5243SOL    HW216629   2.501   6.415   1.986
 5244SOL     OW16630   5.520   3.553   0.439
 5244SOL    HW116631   5.443   3.596   0.391
 5244SOL    HW216632   5.546   3.611   0.517
 5245SOL     OW16633   4.012   4.441   0.865
 5245SOL    HW116634   4.095   4.405   0.823
 5245SOL    HW216635   3.951   4.476   0.794
 5246SOL     OW16636   6.349   2.480   2.280
 5246SOL    HW116637   6.351   2.580   2.287
 5246SOL    HW216638   6.254   2.450   2.266
 5247SOL     OW16639   3.905   0.949   5.854
 5247SOL    HW116640   3.938   0.978   5.765
 5247SOL    HW216641   3.831   1.010   5.884
 5248SOL     OW16642   0.171   1.640   2.901
 5248SOL    HW116643   0.182   1.727   2.949
 5248SOL    HW216644   0.197   1.565   2.962
 5249SOL     OW16645   1.550   5.672   6.660
 5249SOL    HW116646   1.482   5.614   6.614
 5249SOL    HW216647   1.640   5.632   6.649
 5250SOL     OW16648   0.959   5.864   0.388
 5250SOL    HW116649   0.915   5.952   0.367
 5250SOL    HW216650   1.015   5.874   0.470
 5251SOL     OW16651   1.090   4.545   0.947
 5251SOL    HW116652   1.018   4.533   1.015
 5251SOL    HW216653   1.049   4.569   0.859
 5252SOL     OW16654   3.054   6.732   1.925
 5252SOL    HW116655   3.127   6.730   1.994
 5252SOL    HW216656   3.017   6.824   1.918
 5253SOL     OW16657   6.604   3.801   4.916
 5253SOL    HW116658   6.658   3.802   4.832
 5253SOL    HW216659   6.519   3.752   4.900
 5254SOL     OW16660   6.218   0.200   3.511
 5254SOL    HW116661   6.172   0.175   3.597
 5254SOL    HW216662   6.224   0.299   3.503
 5255SOL     OW16663   5.378   2.274   4.739
 5255SOL    HW116664   5.368   2.253   4.836
 5255SOL    HW216665   5.456   2.335   4.725
 5256SOL     OW16666   5.200   1.664   4.263
 5256SOL    HW116667   5.143   1.736   4.304
 5256SOL    HW216668   5.296   1.680   4.287
 5257SOL     OW16669   4.755   7.022   1.188
 5257SOL    HW116670   4.748   6.967   1.105
 5257SOL    HW216671   4.786   0.086   1.164
 5258SOL     OW16672   5.734   1.962   2.797
 5258SOL    HW116673   5.666   1.955   2.870
 5258SOL    HW216674   5.812   2.017   2.830
 5259SOL     OW16675   4.772   5.731   2.572
 5259SOL    HW116676   4.843   5.802   2.562
 5259SOL    HW216677   4.692   5.757   2.517
 5260SOL     OW16678   3.852   5.519   0.432
 5260SOL    HW116679   3.911   5.589   0.472
 5260SOL    HW216680   3.854   5.437   0.489
 5261SOL     OW16681   0.355   4.174   6.596
 5261SOL    HW116682   0.425   4.116   6.555
 5261SOL    HW216683   0.376   4.270   6.578
 5262SOL     OW16684   3.161   0.872   3.608
 5262SOL    HW116685   3.075   0.910   3.573
 5262SOL    HW216686   3.205   0.940   3.667
 5263SOL     OW16687   1.574   1.011   2.729
 5263SOL    HW116688   1.567   1.062   2.644
 5263SOL    HW216689   1.582   0.913   2.708
 5264SOL     OW16690   6.487   2.242   1.766
 5264SOL    HW116691   6.466   2.296   1.847
 5264SOL    HW216692   6.576   2.198   1.777
 5265SOL     OW16693   6.441   3.178   4.575
 5265SOL    HW116694   6.514   3.230   4.530
 5265SOL    HW216695   6.380   3.241   4.623
 5266SOL     OW16696   2.792   5.466   0.493
 5266SOL    HW116697   2.725   5.511   0.553
 5266SOL    HW216698   2.768   5.370   0.482
 5267SOL     OW16699   4.846   2.239   4.808
 5267SOL    HW116700   4.782   2.315   4.793
 5267SOL    HW216701   4.803   2.153   4.778
 5268SOL     OW16702   5.377   0.540   6.792
 5268SOL    HW116703   5.296   0.485   6.773
 5268SOL    HW216704   5.354   0.637   6.785
 5269SOL     OW16705   0.615   6.645   2.158
 5269SOL    HW116706   0.621   6.560   2.105
 5269SOL    HW216707   0.593   6.721   2.098
 5270SOL     OW16708   5.816   1.137   1.705
 5270SOL    HW116709   5.723   1.174   1.700
 5270SOL    HW216710   5.844   1.105   1.615
 5271SOL     OW16711   5.739   5.046   5.170
 5271SOL    HW116712   5.718   5.100   5.088
 5271SOL    HW216713   5.660   4.989   5.193
 5272SOL     OW16714   3.264   5.505   1.217
 5272SOL    HW116715   3.319   5.451   1.154
 5272SOL    HW216716   3.169   5.504   1.188
 5273SOL     OW16717   0.440   3.541   2.486
 5273SOL    HW116718   0.474   3.448   2.475
 5273SOL    HW216719   0.452   3.592   2.400
 5274SOL     OW16720   5.385   0.012   2.755
 5274SOL    HW116721   5.322   0.090   2.757
 5274SOL    HW216722   5.431   0.003   2.843
 5275SOL     OW16723   3.691   1.572   0.598
 5275SOL    HW116724   3.673   1.594   0.693
 5275SOL    HW216725   3.616   1.517   0.561
 5276SOL     OW16726   2.011   0.127   1.350
 5276SOL    HW116727   1.914   0.129   1.327
 5276SOL    HW216728   2.056   0.207   1.311
 5277SOL     OW16729   2.595   1.064   3.069
 5277SOL    HW116730   2.613   1.151   3.024
 5277SOL    HW216731   2.520   1.017   3.023
 5278SOL     OW16732   4.719   5.493   4.316
 5278SOL    HW116733   4.794   5.520   4.256
 5278SOL    HW216734   4.666   5.419   4.273
 5279SOL     OW16735   2.846   6.055   0.691
 5279SOL    HW116736   2.828   6.039   0.788
 5279SOL    HW216737   2.944   6.071   0.677
 5280SOL     OW16738   2.865   5.956   5.077
 5280SOL    HW116739   2.898   6.050   5.064
 5280SOL    HW216740   2.881   5.904   4.993
 5281SOL     OW16741   6.152   2.069   2.277
 5281SOL    HW116742   6.115   2.032   2.362
 5281SOL    HW216743   6.233   2.123   2.297
 5282SOL     OW16744   2.817   1.644   3.798
 5282SOL    HW116745   2.916   1.630   3.796
 5282SOL    HW216746   2.773   1.571   3.746
 5283SOL     OW16747   4.975   6.781   1.861
 5283SOL    HW116748   5.015   6.770   1.770
 5283SOL    HW216749   4.998   6.871   1.897
 5284SOL     OW16750   5.109   4.478   3.104
 5284SOL    HW116751   5.037   4.494   3.037
 5284SOL    HW216752   5.084   4.401   3.163
 5285SOL     OW16753   3.096   4.894   4.257
 5285SOL    HW116754   3.087   4.925   4.351
 5285SOL    HW216755   3.188   4.855   4.244
 5286SOL     OW16756   2.337   4.269   1.095
 5286SOL    HW116757   2.243   4.241   1.114
 5286SOL    HW216758   2.360   4.350   1.149
 5287SOL     OW16759   2.526   1.388   0.985
 5287SOL    HW116760   2.579   1.435   1.056
 5287SOL    HW216761   2.587   1.338   0.924
 5288SOL     OW16762   3.581   0.183   1.423
 5288SOL    HW116763   3.675   0.208   1.446
 5288SOL    HW216764   3.540   0.133   1.500
 5289SOL     OW16765   1.564   4.798   0.181
 5289SOL    HW116766   1.563   4.830   0.276
 5289SOL    HW216767   1.583   4.875   0.121
 5290SOL     OW16768   3.046   5.409   6.587
 5290SOL    HW116769   2.950   5.393   6.610
 5290SOL    HW216770   3.088   5.467   6.657
 5291SOL     OW16771   2.577   5.465   5.660
 5291SOL    HW116772   2.543   5.525   5.587
 5291SOL    HW216773   2.512   5.465   5.736
 5292SOL     OW16774   6.346   3.108   0.293
 5292SOL    HW116775   6.282   3.078   0.222
 5292SOL    HW216776   6.311   3.082   0.383
 5293SOL     OW16777   0.428   1.094   5.152
 5293SOL    HW116778   0.416   1.067   5.056
 5293SOL    HW216779   0.525   1.117   5.168
 5294SOL     OW16780   5.610   3.318   6.744
 5294SOL    HW116781   5.672   3.396   6.749
 5294SOL    HW216782   5.554   3.315   6.826
 5295SOL     OW16783   5.577   1.357   3.031
 5295SOL    HW116784   5.512   1.430   3.011
 5295SOL    HW216785   5.608   1.315   2.945
 5296SOL     OW16786   1.558   4.924   6.985
 5296SOL    HW116787   1.609   4.894   6.905
 5296SOL    HW216788   1.486   4.988   6.957
 5297SOL     OW16789   2.003   2.057   1.022
 5297SOL    HW116790   2.014   1.960   1.001
 5297SOL    HW216791   2.063   2.111   0.963
 5298SOL     OW16792   6.561   5.342   2.042
 5298SOL    HW116793   6.468   5.350   2.078
 5298SOL    HW216794   6.621   5.408   2.088
 5299SOL     OW16795   2.580   0.582   1.576
 5299SOL    HW116796   2.545   0.674   1.593
 5299SOL    HW216797   2.664   0.588   1.521
 5300SOL     OW16798   0.289   5.426   3.091
 5300SOL    HW116799   0.387   5.422   3.110
 5300SOL    HW216800   0.271   5.386   3.001
 5301SOL     OW16801   4.031   1.581   6.646
 5301SOL    HW116802   3.980   1.515   6.590
 5301SOL    HW216803   3.998   1.575   6.741
 5302SOL     OW16804   6.611   4.173   2.625
 5302SOL    HW116805   6.611   4.236   2.547
 5302SOL    HW216806   6.523   4.126   2.629
 5303SOL     OW16807   6.547   5.350   3.697
 5303SOL    HW116808   6.534   5.296   3.781
 5303SOL    HW216809   6.479   5.423   3.694
 5304SOL     OW16810   5.179   1.961   6.269
 5304SOL    HW116811   5.199   2.059   6.273
 5304SOL    HW216812   5.182   1.930   6.174
 5305SOL     OW16813   1.645   0.888   4.326
 5305SOL    HW116814   1.699   0.845   4.254
 5305SOL    HW216815   1.706   0.928   4.395
 5306SOL     OW16816   2.935   5.865   5.352
 5306SOL    HW116817   2.900   5.910   5.269
 5306SOL    HW216818   2.988   5.784   5.326
 5307SOL     OW16819   4.509   6.269   5.571
 5307SOL    HW116820   4.483   6.354   5.618
 5307SOL    HW216821   4.608   6.260   5.571
 5308SOL     OW16822   0.583   0.449   4.034
 5308SOL    HW116823   0.589   0.384   4.110
 5308SOL    HW216824   0.547   0.403   3.953
 5309SOL     OW16825   3.866   3.929   3.565
 5309SOL    HW116826   3.843   3.869   3.641
 5309SOL    HW216827   3.821   4.018   3.577
 5310SOL     OW16828   4.956   2.603   1.665
 5310SOL    HW116829   4.976   2.638   1.757
 5310SOL    HW216830   4.857   2.590   1.656
 5311SOL     OW16831   1.504   5.467   6.978
 5311SOL    HW116832   1.499   5.435   6.883
 5311SOL    HW216833   1.562   5.549   6.982
 5312SOL     OW16834   0.937   4.854   2.367
 5312SOL    HW116835   0.975   4.946   2.372
 5312SOL    HW216836   0.996   4.790   2.416
 5313SOL     OW16837   1.052   5.808   6.726
 5313SOL    HW116838   1.147   5.829   6.749
 5313SOL    HW216839   1.020   5.732   6.783
 5314SOL     OW16840   4.160   5.226   0.292
 5314SOL    HW116841   4.090   5.283   0.249
 5314SOL    HW216842   4.250   5.267   0.277
 5315SOL     OW16843   4.703   4.488   2.175
 5315SOL    HW116844   4.663   4.407   2.132
 5315SOL    HW216845   4.737   4.464   2.266
 5316SOL     OW16846   6.995   5.220   5.062
 5316SOL    HW116847   0.026   5.139   5.055
 5316SOL    HW216848   6.919   5.211   4.998
 5317SOL     OW16849   5.702   0.998   3.398
 5317SOL    HW116850   5.611   0.972   3.364
 5317SOL    HW216851   5.745   1.060   3.332
 5318SOL     OW16852   6.831   2.411   4.957
 5318SOL    HW116853   6.768   2.488   4.948
 5318SOL    HW216854   6.788   2.339   5.012
 5319SOL     OW16855   5.949   6.983   6.413
 5319SOL    HW116856   6.037   6.946   6.383
 5319SOL    HW216857   5.881   6.910   6.413
 5320SOL     OW16858   6.256   3.948   6.856
 5320SOL    HW116859   6.267   3.890   6.775
 5320SOL    HW216860   6.159   3.970   6.868
 5321SOL     OW16861   1.446   5.007   4.491
 5321SOL    HW116862   1.387   4.938   4.450
 5321SOL    HW216863   1.537   4.968   4.507
 5322SOL     OW16864   4.055   6.391   6.839
 5322SOL    HW116865   3.987   6.331   6.882
 5322SOL    HW216866   4.083   6.461   6.904
 5323SOL     OW16867   4.379   2.156   0.614
 5323SOL    HW116868   4.368   2.191   0.521
 5323SOL    HW216869   4.412   2.229   0.674
 5324SOL     OW16870   3.900   2.437   1.695
 5324SOL    HW116871   3.899   2.511   1.627
 5324SOL    HW216872   3.817   2.443   1.751
 5325SOL     OW16873   4.941   6.679   2.574
 5325SOL    HW116874   4.914   6.627   2.655
 5325SOL    HW216875   4.918   6.627   2.492
 5326SOL     OW16876   6.949   5.510   1.639
 5326SOL    HW116877   6.966   5.439   1.707
 5326SOL    HW216878   6.982   5.478   1.550
 5327SOL     OW16879   0.557   6.918   4.735
 5327SOL    HW116880   0.537   7.013   4.759
 5327SOL    HW216881   0.527   6.858   4.809
 5328SOL     OW16882   3.826   3.477   6.407
 5328SOL    HW116883   3.771   3.495   6.325
 5328SOL    HW216884   3.796   3.392   6.450
 5329SOL     OW16885   0.234   4.647   0.041
 5329SOL    HW116886   0.312   4.585   0.052
 5329SOL    HW216887   0.232   4.680   6.975
 5330SOL     OW16888   4.113   3.690   0.271
 5330SOL    HW116889   4.114   3.782   0.309
 5330SOL    HW216890   4.019   3.660   0.258
 5331SOL     OW16891   4.774   2.387   0.474
 5331SOL    HW116892   4.703   2.444   0.433
 5331SOL    HW216893   4.762   2.384   0.573
 5332SOL     OW16894   6.483   5.182   0.420
 5332SOL    HW116895   6.493   5.127   0.503
 5332SOL    HW216896   6.465   5.122   0.342
 5333SOL     OW16897   2.405   1.255   3.591
 5333SOL    HW116898   2.482   1.193   3.580
 5333SOL    HW216899   2.416   1.334   3.531
 5334SOL     OW16900   4.545   4.798   3.710
 5334SOL    HW116901   4.574   4.888   3.745
 5334SOL    HW216902   4.480   4.757   3.774
 5335SOL     OW16903   6.853   4.586   2.684
 5335SOL    HW116904   6.855   4.574   2.783
 5335SOL    HW216905   6.910   4.516   2.641
 5336SOL     OW16906   2.202   2.000   4.006
 5336SOL    HW116907   2.242   2.079   3.960
 5336SOL    HW216908   2.161   1.940   3.938
 5337SOL     OW16909   6.126   4.266   1.478
 5337SOL    HW116910   6.197   4.228   1.418
 5337SOL    HW216911   6.164   4.281   1.569
 5338SOL     OW16912   6.334   2.745   0.054
 5338SOL    HW116913   6.305   2.652   0.076
 5338SOL    HW216914   6.349   2.754   6.984
 5339SOL     OW16915   5.981   2.227   2.115
 5339SOL    HW116916   6.037   2.165   2.170
 5339SOL    HW216917   5.940   2.177   2.039
 5340SOL     OW16918   5.417   3.230   2.108
 5340SOL    HW116919   5.430   3.138   2.143
 5340SOL    HW216920   5.370   3.226   2.019
 5341SOL     OW16921   4.480   4.809   3.187
 5341SOL    HW116922   4.527   4.801   3.099
 5341SOL    HW216923   4.426   4.727   3.204
 5342SOL     OW16924   5.972   6.900   5.954
 5342SOL    HW116925   5.923   6.818   5.924
 5342SOL    HW216926   6.011   6.947   5.874
 5343SOL     OW16927   3.931   3.640   5.698
 5343SOL    HW116928   3.994   3.688   5.637
 5343SOL    HW216929   3.840   3.638   5.658
 5344SOL     OW16930   0.572   1.470   0.171
 5344SOL    HW116931   0.490   1.413   0.172
 5344SOL    HW216932   0.635   1.436   0.102
 5345SOL     OW16933   4.948   1.391   6.801
 5345SOL    HW116934   4.985   1.470   6.849
 5345SOL    HW216935   4.978   1.391   6.706
 5346SOL     OW16936   2.808   5.219   3.709
 5346SOL    HW116937   2.735   5.156   3.737
 5346SOL    HW216938   2.852   5.184   3.626
 5347SOL     OW16939   6.696   2.508   3.701
 5347SOL    HW116940   6.708   2.428   3.643
 5347SOL    HW216941   6.694   2.590   3.644
 5348SOL     OW16942   5.833   1.506   4.597
 5348SOL    HW116943   5.874   1.510   4.688
 5348SOL    HW216944   5.779   1.422   4.588
 5349SOL     OW16945   0.652   2.949   2.080
 5349SOL    HW116946   0.712   2.970   2.158
 5349SOL    HW216947   0.669   2.856   2.049
 5350SOL     OW16948   1.687   6.946   5.705
 5350SOL    HW116949   1.611   6.881   5.695
 5350SOL    HW216950   1.739   6.924   5.788
 5351SOL     OW16951   0.374   5.588   1.229
 5351SOL    HW116952   0.405   5.532   1.305
 5351SOL    HW216953   0.422   5.676   1.230
 5352SOL     OW16954   2.066   4.007   3.032
 5352SOL    HW116955   2.028   3.961   3.113
 5352SOL    HW216956   2.085   4.102   3.055
 5353SOL     OW16957   3.910   5.501   3.760
 5353SOL    HW116958   3.924   5.441   3.839
 5353SOL    HW216959   3.991   5.498   3.701
 5354SOL     OW16960   3.642   5.300   0.873
 5354SOL    HW116961   3.697   5.218   0.860
 5354SOL    HW216962   3.668   5.345   0.958
 5355SOL     OW16963   5.268   5.497   5.453
 5355SOL    HW116964   5.206   5.425   5.423
 5355SOL    HW216965   5.219   5.584   5.458
 5356SOL     OW16966   6.957   4.042   1.929
 5356SOL    HW116967   0.029   4.045   1.921
 5356SOL    HW216968   6.932   4.007   2.019
 5357SOL     OW16969   4.743   4.874   1.783
 5357SOL    HW116970   4.714   4.967   1.760
 5357SOL    HW216971   4.681   4.809   1.740
 5358SOL     OW16972   4.388   1.583   6.859
 5358SOL    HW116973   4.379   1.668   6.806
 5358SOL    HW216974   4.303   1.566   6.908
 5359SOL     OW16975   2.203   1.734   0.268
 5359SOL    HW116976   2.140   1.801   0.308
 5359SOL    HW216977   2.164   1.642   0.276
 5360SOL     OW16978   5.424   5.180   3.842
 5360SOL    HW116979   5.378   5.126   3.771
 5360SOL    HW216980   5.521   5.189   3.820
 5361SOL     OW16981   3.598   6.702   2.793
 5361SOL    HW116982   3.685   6.749   2.802
 5361SOL    HW216983   3.524   6.763   2.822
 5362SOL     OW16984   5.100   6.292   2.101
 5362SOL    HW116985   5.128   6.293   2.005
 5362SOL    HW216986   5.178   6.318   2.158
 5363SOL     OW16987   5.453   6.241   4.764
 5363SOL    HW116988   5.549   6.241   4.791
 5363SOL    HW216989   5.435   6.319   4.704
 5364SOL     OW16990   5.233   0.887   2.693
 5364SOL    HW116991   5.185   0.841   2.618
 5364SOL    HW216992   5.252   0.822   2.766
 5365SOL     OW16993   3.131   3.208   3.599
 5365SOL    HW116994   3.039   3.243   3.579
 5365SOL    HW216995   3.145   3.121   3.551
 5366SOL     OW16996   6.874   0.191   1.333
 5366SOL    HW116997   6.940   0.265   1.321
 5366SOL    HW216998   6.861   0.143   1.246
 5367SOL     OW16999   6.128   0.073   0.706
 5367SOL    HW117000   6.074   0.124   0.639
 5367SOL    HW217001   6.069   0.009   0.755
 5368SOL     OW17002   6.696   5.919   2.097
 5368SOL    HW117003   6.664   6.005   2.137
 5368SOL    HW217004   6.678   5.919   1.999
 5369SOL     OW17005   2.637   4.870   2.083
 5369SOL    HW117006   2.673   4.837   1.996
 5369SOL    HW217007   2.660   4.805   2.155
 5370SOL     OW17008   3.879   3.976   1.490
 5370SOL    HW117009   3.823   3.960   1.571
 5370SOL    HW217010   3.929   3.894   1.466
 5371SOL     OW17011   6.670   4.950   5.109
 5371SOL    HW117012   6.580   4.964   5.150
 5371SOL    HW217013   6.672   4.989   5.017
 5372SOL     OW17014   1.699   6.938   2.947
 5372SOL    HW117015   1.672   6.925   3.043
 5372SOL    HW217016   1.630   6.897   2.887
 5373SOL     OW17017   4.284   6.671   5.718
 5373SOL    HW117018   4.353   6.743   5.713
 5373SOL    HW217019   4.237   6.664   5.630
 5374SOL     OW17020   2.557   5.190   1.359
 5374SOL    HW117021   2.581   5.097   1.330
 5374SOL    HW217022   2.594   5.256   1.293
 5375SOL     OW17023   0.988   6.682   5.098
 5375SOL    HW117024   1.010   6.778   5.113
 5375SOL    HW217025   1.069   6.633   5.066
 5376SOL     OW17026   1.140   1.967   0.942
 5376SOL    HW117027   1.084   1.984   1.023
 5376SOL    HW217028   1.219   1.912   0.968
 5377SOL     OW17029   1.999   0.580   2.889
 5377SOL    HW117030   1.932   0.573   2.814
 5377SOL    HW217031   1.993   0.670   2.931
 5378SOL     OW17032   5.774   0.792   0.882
 5378SOL    HW117033   5.833   0.760   0.956
 5378SOL    HW217034   5.825   0.791   0.796
 5379SOL     OW17035   1.884   2.755   5.407
 5379SOL    HW117036   1.845   2.754   5.315
 5379SOL    HW217037   1.826   2.808   5.467
 5380SOL     OW17038   3.735   0.367   1.175
 5380SOL    HW117039   3.682   0.406   1.099
 5380SOL    HW217040   3.724   0.268   1.176
 5381SOL     OW17041   5.540   6.526   3.002
 5381SOL    HW117042   5.535   6.598   2.933
 5381SOL    HW217043   5.459   6.467   2.995
 5382SOL     OW17044   4.193   1.689   2.983
 5382SOL    HW117045   4.248   1.736   2.915
 5382SOL    HW217046   4.229   1.597   2.997
 5383SOL     OW17047   1.321   2.986   4.293
 5383SOL    HW117048   1.262   2.909   4.317
 5383SOL    HW217049   1.416   2.965   4.318
 5384SOL     OW17050   4.496   5.958   5.314
 5384SOL    HW117051   4.452   5.935   5.401
 5384SOL    HW217052   4.583   6.005   5.333
 5385SOL     OW17053   6.452   2.638   6.037
 5385SOL    HW117054   6.545   2.626   6.002
 5385SOL    HW217055   6.412   2.549   6.058
 5386SOL     OW17056   6.077   3.135   3.992
 5386SOL    HW117057   6.050   3.203   4.061
 5386SOL    HW217058   6.157   3.168   3.942
 5387SOL     OW17059   2.757   0.412   2.527
 5387SOL    HW117060   2.744   0.315   2.545
 5387SOL    HW217061   2.760   0.462   2.614
 5388SOL     OW17062   0.671   6.204   2.631
 5388SOL    HW117063   0.638   6.278   2.689
 5388SOL    HW217064   0.610   6.125   2.641
 5389SOL     OW17065   4.297   1.468   4.561
 5389SOL    HW117066   4.220   1.508   4.510
 5389SOL    HW217067   4.365   1.434   4.497
 5390SOL     OW17068   6.584   3.417   4.159
 5390SOL    HW117069   6.633   3.454   4.080
 5390SOL    HW217070   6.489   3.449   4.156
 5391SOL     OW17071   2.277   2.181   0.007
 5391SOL    HW117072   2.319   2.263   0.046
 5391SOL    HW217073   2.310   2.167   6.942
 5392SOL     OW17074   4.377   2.413   3.287
 5392SOL    HW117075   4.339   2.386   3.376
 5392SOL    HW217076   4.444   2.486   3.300
 5393SOL     OW17077   4.208   0.838   5.329
 5393SOL    HW117078   4.212   0.924   5.279
 5393SOL    HW217079   4.209   0.856   5.427
 5394SOL     OW17080   1.639   0.070   0.769
 5394SOL    HW117081   1.546   0.059   0.804
 5394SOL    HW217082   1.704   0.068   0.845
 5395SOL     OW17083   5.451   1.380   1.454
 5395SOL    HW117084   5.520   1.315   1.423
 5395SOL    HW217085   5.495   1.454   1.505
 5396SOL     OW17086   6.055   5.368   2.752
 5396SOL    HW117087   6.140   5.404   2.791
 5396SOL    HW217088   5.977   5.403   2.804
 5397SOL     OW17089   6.159   1.501   3.181
 5397SOL    HW117090   6.144   1.405   3.201
 5397SOL    HW217091   6.258   1.521   3.186
 5398SOL     OW17092   4.488   2.246   3.832
 5398SOL    HW117093   4.539   2.235   3.917
 5398SOL    HW217094   4.433   2.329   3.836
 5399SOL     OW17095   1.619   0.243   5.229
 5399SOL    HW117096   1.592   0.147   5.229
 5399SOL    HW217097   1.559   0.295   5.289
 5400SOL     OW17098   3.330   3.008   1.093
 5400SOL    HW117099   3.376   2.939   1.038
 5400SOL    HW217100   3.244   2.972   1.129
 5401SOL     OW17101   4.927   4.605   2.905
 5401SOL    HW117102   4.951   4.701   2.887
 5401SOL    HW217103   4.855   4.577   2.841
 5402SOL     OW17104   2.208   0.245   0.383
 5402SOL    HW117105   2.260   0.163   0.406
 5402SOL    HW217106   2.269   0.312   0.340
 5403SOL     OW17107   5.053   3.178   0.096
 5403SOL    HW117108   5.074   3.091   0.051
 5403SOL    HW217109   5.133   3.208   0.149
 5404SOL     OW17110   0.184   0.856   0.995
 5404SOL    HW117111   0.166   0.758   0.988
 5404SOL    HW217112   0.277   0.871   1.028
 5405SOL     OW17113   5.228   5.723   0.408
 5405SOL    HW117114   5.205   5.687   0.499
 5405SOL    HW217115   5.157   5.788   0.380
 5406SOL     OW17116   2.505   0.883   4.868
 5406SOL    HW117117   2.534   0.788   4.859
 5406SOL    HW217118   2.405   0.888   4.865
 5407SOL     OW17119   2.837   0.590   1.444
 5407SOL    HW117120   2.906   0.520   1.424
 5407SOL    HW217121   2.790   0.615   1.359
 5408SOL     OW17122   2.600   2.231   4.392
 5408SOL    HW117123   2.627   2.140   4.359
 5408SOL    HW217124   2.660   2.259   4.467
 5409SOL     OW17125   6.735   2.792   1.589
 5409SOL    HW117126   6.707   2.746   1.674
 5409SOL    HW217127   6.783   2.727   1.530
 5410SOL     OW17128   0.163   2.278   1.337
 5410SOL    HW117129   0.228   2.325   1.278
 5410SOL    HW217130   0.209   2.249   1.421
 5411SOL     OW17131   4.739   4.969   6.587
 5411SOL    HW117132   4.798   5.042   6.553
 5411SOL    HW217133   4.644   4.989   6.564
 5412SOL     OW17134   0.990   1.416   6.380
 5412SOL    HW117135   1.006   1.475   6.459
 5412SOL    HW217136   1.057   1.437   6.309
 5413SOL     OW17137   6.442   6.988   5.531
 5413SOL    HW117138   6.346   7.015   5.542
 5413SOL    HW217139   6.482   0.011   5.455
 5414SOL     OW17140   6.881   4.782   5.636
 5414SOL    HW117141   6.944   4.705   5.646
 5414SOL    HW217142   6.861   4.797   5.540
 5415SOL     OW17143   3.076   0.087   0.295
 5415SOL    HW117144   3.163   0.041   0.313
 5415SOL    HW217145   3.008   0.058   0.363
 5416SOL     OW17146   2.717   5.067   5.415
 5416SOL    HW117147   2.816   5.081   5.414
 5416SOL    HW217148   2.695   4.990   5.355
 5417SOL     OW17149   4.926   6.089   3.561
 5417SOL    HW117150   4.876   6.148   3.624
 5417SOL    HW217151   4.871   6.009   3.538
 5418SOL     OW17152   5.951   4.579   4.272
 5418SOL    HW117153   5.877   4.617   4.328
 5418SOL    HW217154   6.033   4.569   4.327
 5419SOL     OW17155   4.218   6.939   6.998
 5419SOL    HW117156   4.272   6.861   6.968
 5419SOL    HW217157   4.158   6.969   6.923
 5420SOL     OW17158   1.524   1.495   1.083
 5420SOL    HW117159   1.536   1.547   1.167
 5420SOL    HW217160   1.570   1.542   1.007
 5421SOL     OW17161   3.383   5.325   2.082
 5421SOL    HW117162   3.356   5.343   2.176
 5421SOL    HW217163   3.470   5.371   2.062
 5422SOL     OW17164   1.871   5.970   3.858
 5422SOL    HW117165   1.876   5.896   3.791
 5422SOL    HW217166   1.829   5.936   3.942
 5423SOL     OW17167   6.436   6.116   2.123
 5423SOL    HW117168   6.366   6.129   2.052
 5423SOL    HW217169   6.417   6.033   2.174
 5424SOL     OW17170   4.847   4.148   5.157
 5424SOL    HW117171   4.874   4.092   5.236
 5424SOL    HW217172   4.755   4.185   5.172
 5425SOL     OW17173   0.358   3.330   5.470
 5425SOL    HW117174   0.321   3.237   5.475
 5425SOL    HW217175   0.450   3.333   5.508
 5426SOL     OW17176   5.289   5.389   2.176
 5426SOL    HW117177   5.281   5.470   2.118
 5426SOL    HW217178   5.202   5.339   2.174
 5427SOL     OW17179   5.035   2.487   6.941
 5427SOL    HW117180   5.060   2.450   0.002
 5427SOL    HW217181   5.068   2.426   6.869
 5428SOL     OW17182   6.384   5.361   3.077
 5428SOL    HW117183   6.325   5.285   3.048
 5428SOL    HW217184   6.422   5.406   2.997
 5429SOL     OW17185   3.136   0.629   3.697
 5429SOL    HW117186   3.151   0.716   3.649
 5429SOL    HW217187   3.058   0.639   3.759
 5430SOL     OW17188   2.506   3.811   6.295
 5430SOL    HW117189   2.542   3.722   6.323
 5430SOL    HW217190   2.435   3.798   6.226
 5431SOL     OW17191   2.889   5.070   6.341
 5431SOL    HW117192   2.884   5.169   6.326
 5431SOL    HW217193   2.985   5.041   6.341
 5432SOL     OW17194   5.490   5.691   1.362
 5432SOL    HW117195   5.581   5.652   1.372
 5432SOL    HW217196   5.490   5.786   1.393
 5433SOL     OW17197   1.394   0.293   1.013
 5433SOL    HW117198   1.454   0.233   1.066
 5433SOL    HW217199   1.448   0.354   0.955
 5434SOL     OW17200   4.866   1.144   4.977
 5434SOL    HW117201   4.955   1.157   5.022
 5434SOL    HW217202   4.821   1.064   5.016
 5435SOL     OW17203   6.699   3.901   0.938
 5435SOL    HW117204   6.611   3.890   0.985
 5435SOL    HW217205   6.733   3.811   0.911
 5436SOL     OW17206   1.386   5.559   2.271
 5436SOL    HW117207   1.430   5.610   2.198
 5436SOL    HW217208   1.308   5.612   2.306
 5437SOL     OW17209   3.625   5.322   0.164
 5437SOL    HW117210   3.705   5.290   0.214
 5437SOL    HW217211   3.542   5.294   0.211
 5438SOL     OW17212   4.814   4.363   2.411
 5438SOL    HW117213   4.779   4.294   2.475
 5438SOL    HW217214   4.885   4.418   2.457
 5439SOL     OW17215   0.994   4.240   0.987
 5439SOL    HW117216   1.083   4.219   1.028
 5439SOL    HW217217   0.948   4.311   1.040
 5440SOL     OW17218   5.939   6.210   3.293
 5440SOL    HW117219   6.029   6.178   3.322
 5440SOL    HW217220   5.886   6.133   3.257
 5441SOL     OW17221   4.662   2.638   3.801
 5441SOL    HW117222   4.621   2.702   3.867
 5441SOL    HW217223   4.589   2.595   3.748
 5442SOL     OW17224   5.056   6.903   4.377
 5442SOL    HW117225   5.117   6.860   4.443
 5442SOL    HW217226   5.019   6.988   4.416
 5443SOL     OW17227   4.873   6.569   5.155
 5443SOL    HW117228   4.953   6.602   5.105
 5443SOL    HW217229   4.862   6.622   5.238
 5444SOL     OW17230   0.384   1.453   3.830
 5444SOL    HW117231   0.444   1.409   3.897
 5444SOL    HW217232   0.425   1.540   3.802
 5445SOL     OW17233   5.252   5.314   5.753
 5445SOL    HW117234   5.164   5.270   5.734
 5445SOL    HW217235   5.237   5.395   5.809
 5446SOL     OW17236   0.146   4.881   5.195
 5446SOL    HW117237   0.154   4.950   5.268
 5446SOL    HW217238   0.056   4.888   5.153
 5447SOL     OW17239   1.396   2.012   0.608
 5447SOL    HW117240   1.397   1.912   0.612
 5447SOL    HW217241   1.486   2.045   0.577
 5448SOL     OW17242   4.590   5.772   3.595
 5448SOL    HW117243   4.603   5.702   3.666
 5448SOL    HW217244   4.569   5.860   3.639
 5449SOL     OW17245   3.138   1.653   2.351
 5449SOL    HW117246   3.072   1.700   2.291
 5449SOL    HW217247   3.140   1.556   2.329
 5450SOL     OW17248   4.137   6.437   1.655
 5450SOL    HW117249   4.145   6.346   1.696
 5450SOL    HW217250   4.143   6.507   1.727
 5451SOL     OW17251   1.103   0.163   3.283
 5451SOL    HW117252   1.170   0.089   3.281
 5451SOL    HW217253   1.107   0.213   3.196
 5452SOL     OW17254   1.830   5.050   1.852
 5452SOL    HW117255   1.753   5.014   1.800
 5452SOL    HW217256   1.840   4.999   1.937
 5453SOL     OW17257   6.225   4.033   3.247
 5453SOL    HW117258   6.196   4.110   3.191
 5453SOL    HW217259   6.323   4.039   3.265
 5454SOL     OW17260   6.272   5.518   2.812
 5454SOL    HW117261   6.371   5.506   2.814
 5454SOL    HW217262   6.248   5.584   2.740
 5455SOL     OW17263   0.336   1.713   2.368
 5455SOL    HW117264   0.264   1.648   2.393
 5455SOL    HW217265   0.315   1.802   2.407
 5456SOL     OW17266   5.085   0.605   6.595
 5456SOL    HW117267   5.109   0.514   6.629
 5456SOL    HW217268   5.008   0.641   6.648
 5457SOL     OW17269   6.312   2.820   0.603
 5457SOL    HW117270   6.383   2.765   0.559
 5457SOL    HW217271   6.317   2.914   0.569
 5458SOL     OW17272   6.316   4.157   1.312
 5458SOL    HW117273   6.293   4.068   1.274
 5458SOL    HW217274   6.384   4.202   1.254
 5459SOL     OW17275   1.407   4.499   5.636
 5459SOL    HW117276   1.354   4.551   5.702
 5459SOL    HW217277   1.496   4.476   5.676
 5460SOL     OW17278   1.797   1.041   0.674
 5460SOL    HW117279   1.841   1.127   0.698
 5460SOL    HW217280   1.855   0.965   0.702
 5461SOL     OW17281   0.145   1.588   6.108
 5461SOL    HW117282   0.154   1.573   6.009
 5461SOL    HW217283   0.080   1.663   6.123
 5462SOL     OW17284   5.294   6.252   6.391
 5462SOL    HW117285   5.232   6.249   6.469
 5462SOL    HW217286   5.251   6.207   6.313
 5463SOL     OW17287   0.199   2.854   6.496
 5463SOL    HW117288   0.236   2.816   6.580
 5463SOL    HW217289   0.236   2.946   6.481
 5464SOL     OW17290   5.998   6.315   5.548
 5464SOL    HW117291   5.939   6.380   5.500
 5464SOL    HW217292   5.948   6.229   5.561
 5465SOL     OW17293   6.548   6.451   2.912
 5465SOL    HW117294   6.607   6.454   2.992
 5465SOL    HW217295   6.464   6.400   2.933
 5466SOL     OW17296   5.814   2.258   5.029
 5466SOL    HW117297   5.774   2.173   4.995
 5466SOL    HW217298   5.851   2.243   5.120
 5467SOL     OW17299   5.729   4.125   3.655
 5467SOL    HW117300   5.661   4.103   3.585
 5467SOL    HW217301   5.682   4.162   3.736
 5468SOL     OW17302   6.691   1.785   2.580
 5468SOL    HW117303   6.678   1.686   2.574
 5468SOL    HW217304   6.629   1.831   2.518
 5469SOL     OW17305   1.835   0.674   5.860
 5469SOL    HW117306   1.810   0.660   5.956
 5469SOL    HW217307   1.827   0.588   5.810
 5470SOL     OW17308   3.916   5.406   5.049
 5470SOL    HW117309   3.985   5.427   4.980
 5470SOL    HW217310   3.873   5.318   5.026
 5471SOL     OW17311   4.978   7.022   2.443
 5471SOL    HW117312   5.074   0.014   2.460
 5471SOL    HW217313   4.966   6.993   2.348
 5472SOL     OW17314   2.890   2.295   6.501
 5472SOL    HW117315   2.941   2.379   6.522
 5472SOL    HW217316   2.922   2.256   6.415
 5473SOL     OW17317   1.769   4.817   0.809
 5473SOL    HW117318   1.823   4.788   0.888
 5473SOL    HW217319   1.803   4.770   0.727
 5474SOL     OW17320   0.945   5.479   3.607
 5474SOL    HW117321   0.848   5.461   3.622
 5474SOL    HW217322   0.996   5.458   3.691
 5475SOL     OW17323   1.456   1.952   0.023
 5475SOL    HW117324   1.465   2.031   6.990
 5475SOL    HW217325   1.396   1.976   0.099
 5476SOL     OW17326   2.234   5.555   5.352
 5476SOL    HW117327   2.263   5.534   5.446
 5476SOL    HW217328   2.284   5.634   5.319
 5477SOL     OW17329   1.686   4.501   3.406
 5477SOL    HW117330   1.729   4.574   3.353
 5477SOL    HW217331   1.596   4.531   3.438
 5478SOL     OW17332   5.542   5.327   6.246
 5478SOL    HW117333   5.565   5.267   6.169
 5478SOL    HW217334   5.448   5.361   6.235
 5479SOL     OW17335   4.564   1.356   4.929
 5479SOL    HW117336   4.547   1.272   4.878
 5479SOL    HW217337   4.553   1.339   5.026
 5480SOL     OW17338   5.929   4.610   5.104
 5480SOL    HW117339   5.926   4.577   5.009
 5480SOL    HW217340   5.970   4.701   5.105
 5481SOL     OW17341   3.930   1.193   6.121
 5481SOL    HW117342   3.966   1.277   6.080
 5481SOL    HW217343   3.855   1.158   6.065
 5482SOL     OW17344   3.711   3.720   2.220
 5482SOL    HW117345   3.616   3.689   2.221
 5482SOL    HW217346   3.761   3.673   2.147
 5483SOL     OW17347   6.449   2.859   5.885
 5483SOL    HW117348   6.423   2.930   5.950
 5483SOL    HW217349   6.437   2.769   5.926
 5484SOL     OW17350   6.832   6.741   3.800
 5484SOL    HW117351   6.741   6.703   3.820
 5484SOL    HW217352   6.896   6.712   3.872
 5485SOL     OW17353   3.001   0.302   4.436
 5485SOL    HW117354   3.087   0.301   4.385
 5485SOL    HW217355   3.015   0.344   4.525
 5486SOL     OW17356   1.888   0.239   3.698
 5486SOL    HW117357   1.908   0.147   3.665
 5486SOL    HW217358   1.790   0.258   3.686
 5487SOL     OW17359   5.990   3.959   0.430
 5487SOL    HW117360   6.088   3.976   0.437
 5487SOL    HW217361   5.941   4.046   0.432
 5488SOL     OW17362   4.475   2.041   0.178
 5488SOL    HW117363   4.482   1.959   0.235
 5488SOL    HW217364   4.404   2.101   0.215
 5489SOL     OW17365   1.725   4.539   2.135
 5489SOL    HW117366   1.767   4.548   2.225
 5489SOL    HW217367   1.660   4.464   2.137
 5490SOL     OW17368   3.471   0.154   0.161
 5490SOL    HW117369   3.559   0.195   0.184
 5490SOL    HW217370   3.413   0.222   0.117
 5491SOL     OW17371   1.712   4.752   6.576
 5491SOL    HW117372   1.750   4.665   6.546
 5491SOL    HW217373   1.629   4.735   6.629
 5492SOL     OW17374   1.185   1.163   5.978
 5492SOL    HW117375   1.102   1.201   6.020
 5492SOL    HW217376   1.246   1.237   5.950
 5493SOL     OW17377   3.607   3.322   5.368
 5493SOL    HW117378   3.694   3.286   5.400
 5493SOL    HW217379   3.577   3.270   5.288
 5494SOL     OW17380   6.679   3.218   0.921
 5494SOL    HW117381   6.670   3.120   0.933
 5494SOL    HW217382   6.591   3.262   0.936
 5495SOL     OW17383   3.528   3.236   1.147
 5495SOL    HW117384   3.450   3.174   1.146
 5495SOL    HW217385   3.513   3.308   1.215
 5496SOL     OW17386   3.816   5.940   1.285
 5496SOL    HW117387   3.765   5.862   1.322
 5496SOL    HW217388   3.776   6.025   1.318
 5497SOL     OW17389   0.565   2.037   3.180
 5497SOL    HW117390   0.645   2.092   3.162
 5497SOL    HW217391   0.593   1.946   3.211
 5498SOL     OW17392   4.832   1.140   6.828
 5498SOL    HW117393   4.860   1.228   6.790
 5498SOL    HW217394   4.778   1.155   6.911
 5499SOL     OW17395   0.397   0.739   3.405
 5499SOL    HW117396   0.462   0.770   3.336
 5499SOL    HW217397   0.383   0.812   3.472
 5500SOL     OW17398   2.152   5.890   0.002
 5500SOL    HW117399   2.237   5.917   6.985
 5500SOL    HW217400   2.139   5.946   0.084
 5501SOL     OW17401   3.510   6.999   1.626
 5501SOL    HW117402   3.421   6.975   1.665
 5501SOL    HW217403   3.523   6.950   1.540
 5502SOL     OW17404   6.060   4.033   6.055
 5502SOL    HW117405   6.146   3.984   6.040
 5502SOL    HW217406   6.014   3.998   6.136
 5503SOL     OW17407   1.115   5.094   2.762
 5503SOL    HW117408   1.082   5.186   2.786
 5503SOL    HW217409   1.044   5.046   2.711
 5504SOL     OW17410   2.863   0.966   5.005
 5504SOL    HW117411   2.813   1.004   5.083
 5504SOL    HW217412   2.812   0.985   4.920
 5505SOL     OW17413   1.816   6.103   4.837
 5505SOL    HW117414   1.727   6.085   4.797
 5505SOL    HW217415   1.879   6.029   4.813
 5506SOL     OW17416   6.779   0.413   4.826
 5506SOL    HW117417   6.789   0.493   4.766
 5506SOL    HW217418   6.753   0.333   4.771
 5507SOL     OW17419   2.835   6.532   3.303
 5507SOL    HW117420   2.748   6.559   3.262
 5507SOL    HW217421   2.909   6.586   3.262
 5508SOL     OW17422   2.353   1.193   7.020
 5508SOL    HW117423   2.389   1.189   0.085
 5508SOL    HW217424   2.424   1.162   6.956
 5509SOL     OW17425   6.997   5.996   0.674
 5509SOL    HW117426   6.899   6.001   0.657
 5509SOL    HW217427   7.022   5.902   0.696
 5510SOL     OW17428   4.724   6.630   6.805
 5510SOL    HW117429   4.760   6.714   6.764
 5510SOL    HW217430   4.627   6.622   6.784
 5511SOL     OW17431   1.535   0.306   3.120
 5511SOL    HW117432   1.544   0.316   3.219
 5511SOL    HW217433   1.591   0.375   3.075
 5512SOL     OW17434   6.543   2.266   0.614
 5512SOL    HW117435   6.473   2.326   0.576
 5512SOL    HW217436   6.516   2.171   0.601
 5513SOL     OW17437   5.040   4.291   5.053
 5513SOL    HW117438   5.015   4.356   4.980
 5513SOL    HW217439   4.957   4.257   5.097
 5514SOL     OW17440   5.352   5.370   2.696
 5514SOL    HW117441   5.278   5.432   2.669
 5514SOL    HW217442   5.324   5.317   2.776
 5515SOL     OW17443   6.178   3.308   1.476
 5515SOL    HW117444   6.122   3.241   1.427
 5515SOL    HW217445   6.155   3.307   1.573
 5516SOL     OW17446   1.799   2.761   0.626
 5516SOL    HW117447   1.825   2.855   0.601
 5516SOL    HW217448   1.707   2.743   0.592
 5517SOL     OW17449   3.064   2.071   2.413
 5517SOL    HW117450   3.084   2.146   2.476
 5517SOL    HW217451   3.053   1.986   2.464
 5518SOL     OW17452   6.271   5.856   6.099
 5518SOL    HW117453   6.338   5.781   6.094
 5518SOL    HW217454   6.198   5.831   6.163
 5519SOL     OW17455   5.277   3.970   3.023
 5519SOL    HW117456   5.299   3.890   2.967
 5519SOL    HW217457   5.272   3.943   3.119
 5520SOL     OW17458   0.890   4.526   2.591
 5520SOL    HW117459   0.856   4.524   2.685
 5520SOL    HW217460   0.813   4.536   2.528
 5521SOL     OW17461   4.359   5.645   2.063
 5521SOL    HW117462   4.449   5.676   2.094
 5521SOL    HW217463   4.328   5.569   2.120
 5522SOL     OW17464   1.802   3.595   1.500
 5522SOL    HW117465   1.792   3.659   1.424
 5522SOL    HW217466   1.764   3.506   1.474
 5523SOL     OW17467   3.362   6.939   2.677
 5523SOL    HW117468   3.389   6.913   2.585
 5523SOL    HW217469   3.402   0.000   2.700
 5524SOL     OW17470   0.170   5.989   4.707
 5524SOL    HW117471   0.079   5.998   4.748
 5524SOL    HW217472   0.208   5.900   4.729
 5525SOL     OW17473   0.070   4.475   0.187
 5525SOL    HW117474   0.158   4.518   0.165
 5525SOL    HW217475   0.019   4.460   0.102
 5526SOL     OW17476   5.988   3.566   4.615
 5526SOL    HW117477   5.956   3.645   4.562
 5526SOL    HW217478   6.060   3.595   4.678
 5527SOL     OW17479   0.534   3.170   2.699
 5527SOL    HW117480   0.523   3.255   2.750
 5527SOL    HW217481   0.475   3.171   2.619
 5528SOL     OW17482   0.591   2.152   6.208
 5528SOL    HW117483   0.588   2.076   6.273
 5528SOL    HW217484   0.678   2.201   6.218
 5529SOL     OW17485   2.178   0.126   4.519
 5529SOL    HW117486   2.176   0.166   4.427
 5529SOL    HW217487   2.232   0.185   4.580
 5530SOL     OW17488   0.018   1.876   1.990
 5530SOL    HW117489   0.039   1.954   1.930
 5530SOL    HW217490   7.016   1.799   1.934
 5531SOL     OW17491   3.814   3.064   4.347
 5531SOL    HW117492   3.809   3.021   4.437
 5531SOL    HW217493   3.760   3.012   4.282
 5532SOL     OW17494   1.784   1.273   1.015
 5532SOL    HW117495   1.875   1.238   1.037
 5532SOL    HW217496   1.718   1.241   1.084
 5533SOL     OW17497   2.848   0.713   2.329
 5533SOL    HW117498   2.813   0.655   2.256
 5533SOL    HW217499   2.946   0.729   2.316
 5534SOL     OW17500   1.350   3.263   6.296
 5534SOL    HW117501   1.266   3.318   6.296
 5534SOL    HW217502   1.428   3.321   6.272
 5535SOL     OW17503   6.891   3.551   3.086
 5535SOL    HW117504   6.935   3.602   3.160
 5535SOL    HW217505   6.955   3.485   3.048
 5536SOL     OW17506   2.921   0.930   4.018
 5536SOL    HW117507   2.954   0.929   4.113
 5536SOL    HW217508   2.843   0.868   4.010
 5537SOL     OW17509   3.367   1.468   4.792
 5537SOL    HW117510   3.440   1.407   4.761
 5537SOL    HW217511   3.305   1.488   4.717
 5538SOL     OW17512   3.352   6.906   4.661
 5538SOL    HW117513   3.254   6.895   4.674
 5538SOL    HW217514   3.371   6.913   4.563
 5539SOL     OW17515   0.737   1.910   0.982
 5539SOL    HW117516   0.669   1.977   0.950
 5539SOL    HW217517   0.748   1.839   0.913
 5540SOL     OW17518   5.270   3.214   1.856
 5540SOL    HW117519   5.207   3.170   1.920
 5540SOL    HW217520   5.268   3.165   1.769
 5541SOL     OW17521   5.304   3.093   5.887
 5541SOL    HW117522   5.265   3.001   5.890
 5541SOL    HW217523   5.306   3.131   5.979
 5542SOL     OW17524   5.768   6.143   5.659
 5542SOL    HW117525   5.853   6.092   5.668
 5542SOL    HW217526   5.694   6.093   5.705
 5543SOL     OW17527   1.837   5.425   6.220
 5543SOL    HW117528   1.794   5.442   6.131
 5543SOL    HW217529   1.913   5.489   6.233
 5544SOL     OW17530   5.622   5.556   5.859
 5544SOL    HW117531   5.682   5.595   5.789
 5544SOL    HW217532   5.537   5.608   5.863
 5545SOL     OW17533   5.006   1.114   2.462
 5545SOL    HW117534   4.938   1.083   2.395
 5545SOL    HW217535   5.093   1.130   2.416
 5546SOL     OW17536   1.144   6.291   3.901
 5546SOL    HW117537   1.109   6.205   3.864
 5546SOL    HW217538   1.243   6.293   3.891
 5547SOL     OW17539   3.989   1.149   4.923
 5547SOL    HW117540   4.057   1.168   4.852
 5547SOL    HW217541   3.906   1.202   4.905
 5548SOL     OW17542   6.533   4.123   5.637
 5548SOL    HW117543   6.510   4.217   5.612
 5548SOL    HW217544   6.620   4.098   5.594
 5549SOL     OW17545   3.644   4.283   1.420
 5549SOL    HW117546   3.619   4.379   1.425
 5549SOL    HW217547   3.643   4.243   1.512
 5550SOL     OW17548   2.427   4.386   2.003
 5550SOL    HW117549   2.412   4.481   1.975
 5550SOL    HW217550   2.452   4.332   1.923
 5551SOL     OW17551   1.476   6.459   2.728
 5551SOL    HW117552   1.386   6.429   2.760
 5551SOL    HW217553   1.516   6.521   2.796
 5552SOL     OW17554   6.323   0.835   6.730
 5552SOL    HW117555   6.262   0.843   6.651
 5552SOL    HW217556   6.344   0.926   6.765
 5553SOL     OW17557   4.434   6.724   6.278
 5553SOL    HW117558   4.509   6.750   6.339
 5553SOL    HW217559   4.431   6.787   6.200
 5554SOL     OW17560   5.019   2.264   0.871
 5554SOL    HW117561   5.105   2.290   0.914
 5554SOL    HW217562   4.984   2.341   0.817
 5555SOL     OW17563   0.958   3.694   2.448
 5555SOL    HW117564   0.944   3.607   2.403
 5555SOL    HW217565   1.040   3.689   2.505
 5556SOL     OW17566   6.334   1.606   3.605
 5556SOL    HW117567   6.383   1.693   3.606
 5556SOL    HW217568   6.246   1.617   3.560
 5557SOL     OW17569   4.184   6.015   2.174
 5557SOL    HW117570   4.117   5.951   2.212
 5557SOL    HW217571   4.166   6.107   2.208
 5558SOL     OW17572   3.301   3.287   6.554
 5558SOL    HW117573   3.299   3.383   6.524
 5558SOL    HW217574   3.229   3.236   6.505
 5559SOL     OW17575   1.738   0.322   2.042
 5559SOL    HW117576   1.722   0.340   1.945
 5559SOL    HW217577   1.650   0.322   2.090
 5560SOL     OW17578   7.021   5.390   1.111
 5560SOL    HW117579   0.013   5.467   1.171
 5560SOL    HW217580   6.931   5.354   1.132
 5561SOL     OW17581   2.158   0.810   4.240
 5561SOL    HW117582   2.130   0.742   4.173
 5561SOL    HW217583   2.078   0.842   4.291
 5562SOL     OW17584   4.306   2.720   7.008
 5562SOL    HW117585   4.340   2.632   6.976
 5562SOL    HW217586   4.327   2.790   6.941
 5563SOL     OW17587   3.021   5.144   3.032
 5563SOL    HW117588   2.947   5.122   2.969
 5563SOL    HW217589   3.018   5.241   3.055
 5564SOL     OW17590   4.822   0.339   0.466
 5564SOL    HW117591   4.752   0.348   0.395
 5564SOL    HW217592   4.911   0.361   0.428
 5565SOL     OW17593   3.940   2.335   6.140
 5565SOL    HW117594   3.859   2.286   6.106
 5565SOL    HW217595   3.981   2.387   6.066
 5566SOL     OW17596   1.409   4.684   7.005
 5566SOL    HW117597   1.478   4.704   0.046
 5566SOL    HW217598   1.450   4.630   6.931
 5567SOL     OW17599   6.951   3.429   1.231
 5567SOL    HW117600   6.917   3.515   1.193
 5567SOL    HW217601   6.943   3.357   1.163
 5568SOL     OW17602   5.238   1.190   3.469
 5568SOL    HW117603   5.167   1.122   3.452
 5568SOL    HW217604   5.255   1.243   3.386
 5569SOL     OW17605   2.040   1.772   2.309
 5569SOL    HW117606   2.115   1.797   2.370
 5569SOL    HW217607   1.998   1.855   2.271
 5570SOL     OW17608   6.278   3.929   4.462
 5570SOL    HW117609   6.196   3.966   4.418
 5570SOL    HW217610   6.272   3.829   4.464
 5571SOL     OW17611   5.959   5.890   1.398
 5571SOL    HW117612   6.058   5.896   1.386
 5571SOL    HW217613   5.921   5.982   1.407
 5572SOL     OW17614   1.122   3.887   4.888
 5572SOL    HW117615   1.083   3.978   4.873
 5572SOL    HW217616   1.100   3.829   4.810
 5573SOL     OW17617   1.627   5.781   4.894
 5573SOL    HW117618   1.641   5.728   4.810
 5573SOL    HW217619   1.587   5.869   4.871
 5574SOL     OW17620   0.244   1.870   2.143
 5574SOL    HW117621   0.249   1.800   2.214
 5574SOL    HW217622   0.156   1.864   2.097
 5575SOL     OW17623   0.021   1.072   1.079
 5575SOL    HW117624   0.071   0.990   1.049
 5575SOL    HW217625   6.952   1.050   1.087
 5576SOL     OW17626   0.912   4.827   1.767
 5576SOL    HW117627   0.935   4.804   1.861
 5576SOL    HW217628   0.974   4.779   1.705
 5577SOL     OW17629   2.724   2.703   0.175
 5577SOL    HW117630   2.810   2.653   0.185
 5577SOL    HW217631   2.665   2.684   0.253
 5578SOL     OW17632   3.598   3.567   1.792
 5578SOL    HW117633   3.570   3.658   1.820
 5578SOL    HW217634   3.696   3.557   1.804
 5579SOL     OW17635   0.303   3.445   0.436
 5579SOL    HW117636   0.235   3.470   0.367
 5579SOL    HW217637   0.264   3.379   0.500
 5580SOL     OW17638   4.633   2.460   5.563
 5580SOL    HW117639   4.693   2.492   5.490
 5580SOL    HW217640   4.688   2.432   5.642
 5581SOL     OW17641   2.025   0.348   2.071
 5581SOL    HW117642   2.077   0.309   1.995
 5581SOL    HW217643   1.933   0.307   2.072
 5582SOL     OW17644   3.660   3.302   6.680
 5582SOL    HW117645   3.594   3.367   6.643
 5582SOL    HW217646   3.634   3.277   6.773
 5583SOL     OW17647   4.758   1.126   2.717
 5583SOL    HW117648   4.815   1.090   2.644
 5583SOL    HW217649   4.787   1.219   2.739
 5584SOL     OW17650   6.755   4.289   4.460
 5584SOL    HW117651   6.674   4.340   4.491
 5584SOL    HW217652   6.765   4.300   4.361
 5585SOL     OW17653   5.757   5.484   3.237
 5585SOL    HW117654   5.683   5.524   3.184
 5585SOL    HW217655   5.757   5.384   3.223
 5586SOL     OW17656   0.368   2.977   5.890
 5586SOL    HW117657   0.342   3.069   5.861
 5586SOL    HW217658   0.335   2.961   5.983
 5587SOL     OW17659   4.156   6.424   0.582
 5587SOL    HW117660   4.149   6.523   0.568
 5587SOL    HW217661   4.184   6.380   0.496
 5588SOL     OW17662   2.242   5.438   3.080
 5588SOL    HW117663   2.244   5.350   3.127
 5588SOL    HW217664   2.181   5.501   3.129
 5589SOL     OW17665   6.666   3.395   5.647
 5589SOL    HW117666   6.757   3.370   5.679
 5589SOL    HW217667   6.654   3.494   5.654
 5590SOL     OW17668   0.015   6.182   3.643
 5590SOL    HW117669   0.070   6.117   3.695
 5590SOL    HW217670   0.072   6.257   3.611
 5591SOL     OW17671   5.756   1.693   1.539
 5591SOL    HW117672   5.788   1.749   1.615
 5591SOL    HW217673   5.657   1.679   1.547
 5592SOL     OW17674   2.060   5.687   2.753
 5592SOL    HW117675   2.068   5.597   2.796
 5592SOL    HW217676   1.979   5.688   2.693
 5593SOL     OW17677   0.698   2.599   0.521
 5593SOL    HW117678   0.637   2.520   0.524
 5593SOL    HW217679   0.650   2.679   0.557
 5594SOL     OW17680   4.854   1.098   6.005
 5594SOL    HW117681   4.949   1.120   5.983
 5594SOL    HW217682   4.802   1.183   6.013
 5595SOL     OW17683   0.444   1.373   4.542
 5595SOL    HW117684   0.438   1.469   4.518
 5595SOL    HW217685   0.522   1.331   4.495
 5596SOL     OW17686   4.581   0.757   2.607
 5596SOL    HW117687   4.671   0.723   2.580
 5596SOL    HW217688   4.566   0.847   2.566
 5597SOL     OW17689   4.747   2.940   4.341
 5597SOL    HW117690   4.845   2.922   4.346
 5597SOL    HW217691   4.732   3.038   4.329
 5598SOL     OW17692   5.327   3.924   4.309
 5598SOL    HW117693   5.293   3.882   4.225
 5598SOL    HW217694   5.381   4.005   4.287
 5599SOL     OW17695   0.839   2.021   2.790
 5599SOL    HW117696   0.756   2.074   2.808
 5599SOL    HW217697   0.826   1.967   2.706
 5600SOL     OW17698   1.531   1.638   1.657
 5600SOL    HW117699   1.572   1.728   1.674
 5600SOL    HW217700   1.457   1.623   1.722
 5601SOL     OW17701   1.787   0.587   6.144
 5601SOL    HW117702   1.729   0.643   6.204
 5601SOL    HW217703   1.883   0.611   6.158
 5602SOL     OW17704   0.201   1.567   0.952
 5602SOL    HW117705   0.141   1.630   0.902
 5602SOL    HW217706   0.274   1.618   0.997
 5603SOL     OW17707   5.645   2.542   0.167
 5603SOL    HW117708   5.700   2.473   0.215
 5603SOL    HW217709   5.688   2.631   0.176
 5604SOL     OW17710   6.289   1.951   5.122
 5604SOL    HW117711   6.332   1.907   5.043
 5604SOL    HW217712   6.190   1.946   5.114
 5605SOL     OW17713   0.047   1.578   5.440
 5605SOL    HW117714   0.060   1.628   5.355
 5605SOL    HW217715   7.022   1.633   5.504
 5606SOL     OW17716   4.826   6.429   0.655
 5606SOL    HW117717   4.753   6.426   0.588
 5606SOL    HW217718   4.789   6.406   0.746
 5607SOL     OW17719   5.359   1.480   2.516
 5607SOL    HW117720   5.285   1.545   2.531
 5607SOL    HW217721   5.399   1.494   2.426
 5608SOL     OW17722   5.312   0.027   4.133
 5608SOL    HW117723   5.391   7.006   4.168
 5608SOL    HW217724   5.317   0.031   4.033
 5609SOL     OW17725   2.989   5.794   1.010
 5609SOL    HW117726   2.944   5.882   0.995
 5609SOL    HW217727   3.013   5.784   1.107
 5610SOL     OW17728   3.777   6.207   0.210
 5610SOL    HW117729   3.769   6.137   0.139
 5610SOL    HW217730   3.687   6.247   0.228
 5611SOL     OW17731   1.128   5.882   2.870
 5611SOL    HW117732   1.143   5.962   2.812
 5611SOL    HW217733   1.216   5.837   2.886
 5612SOL     OW17734   3.555   2.044   6.597
 5612SOL    HW117735   3.524   2.048   6.692
 5612SOL    HW217736   3.565   2.137   6.561
 5613SOL     OW17737   6.176   4.298   3.178
 5613SOL    HW117738   6.178   4.385   3.129
 5613SOL    HW217739   6.156   4.313   3.274
 5614SOL     OW17740   4.444   1.881   4.335
 5614SOL    HW117741   4.428   1.797   4.283
 5614SOL    HW217742   4.455   1.958   4.272
 5615SOL     OW17743   0.429   1.651   4.414
 5615SOL    HW117744   0.341   1.692   4.440
 5615SOL    HW217745   0.435   1.646   4.314
 5616SOL     OW17746   2.475   1.623   5.087
 5616SOL    HW117747   2.462   1.686   5.163
 5616SOL    HW217748   2.388   1.606   5.042
 5617SOL     OW17749   2.901   6.644   5.846
 5617SOL    HW117750   2.819   6.642   5.903
 5617SOL    HW217751   2.968   6.706   5.887
 5618SOL     OW17752   6.985   5.325   4.063
 5618SOL    HW117753   0.018   5.282   3.997
 5618SOL    HW217754   7.023   5.414   4.089
 5619SOL     OW17755   3.026   3.724   5.565
 5619SOL    HW117756   2.952   3.778   5.524
 5619SOL    HW217757   3.086   3.689   5.494
 5620SOL     OW17758   4.492   3.993   0.962
 5620SOL    HW117759   4.426   3.991   0.888
 5620SOL    HW217760   4.577   3.949   0.932
 5621SOL     OW17761   2.290   2.168   0.283
 5621SOL    HW117762   2.283   2.163   0.183
 5621SOL    HW217763   2.295   2.075   0.320
 5622SOL     OW17764   4.677   0.266   6.227
 5622SOL    HW117765   4.611   0.313   6.286
 5622SOL    HW217766   4.663   0.168   6.234
 5623SOL     OW17767   2.924   5.634   5.067
 5623SOL    HW117768   3.000   5.658   5.128
 5623SOL    HW217769   2.873   5.557   5.106
 5624SOL     OW17770   1.148   4.332   3.927
 5624SOL    HW117771   1.239   4.357   3.897
 5624SOL    HW217772   1.145   4.234   3.949
 5625SOL     OW17773   6.239   1.449   4.948
 5625SOL    HW117774   6.335   1.423   4.943
 5625SOL    HW217775   6.197   1.443   4.857
 5626SOL     OW17776   2.656   6.216   4.051
 5626SOL    HW117777   2.732   6.247   3.994
 5626SOL    HW217778   2.647   6.117   4.044
 5627SOL     OW17779   0.764   5.788   6.219
 5627SOL    HW117780   0.811   5.826   6.139
 5627SOL    HW217781   0.790   5.692   6.230
 5628SOL     OW17782   1.202   2.441   0.428
 5628SOL    HW117783   1.178   2.374   0.498
 5628SOL    HW217784   1.243   2.395   0.349
 5629SOL     OW17785   3.464   4.191   3.360
 5629SOL    HW117786   3.418   4.277   3.341
 5629SOL    HW217787   3.497   4.151   3.274
 5630SOL     OW17788   1.737   3.663   0.441
 5630SOL    HW117789   1.723   3.747   0.494
 5630SOL    HW217790   1.789   3.683   0.359
 5631SOL     OW17791   4.465   1.694   0.828
 5631SOL    HW117792   4.543   1.634   0.845
 5631SOL    HW217793   4.496   1.778   0.783
 5632SOL     OW17794   3.007   2.436   6.155
 5632SOL    HW117795   3.087   2.491   6.129
 5632SOL    HW217796   2.979   2.380   6.077
 5633SOL     OW17797   6.040   3.622   4.052
 5633SOL    HW117798   6.090   3.692   4.001
 5633SOL    HW217799   5.955   3.661   4.088
 5634SOL     OW17800   2.309   5.106   4.147
 5634SOL    HW117801   2.316   5.126   4.245
 5634SOL    HW217802   2.394   5.063   4.116
 5635SOL     OW17803   2.209   4.474   5.395
 5635SOL    HW117804   2.188   4.429   5.482
 5635SOL    HW217805   2.279   4.422   5.346
 5636SOL     OW17806   4.262   6.267   4.217
 5636SOL    HW117807   4.291   6.336   4.284
 5636SOL    HW217808   4.273   6.176   4.256
 5637SOL     OW17809   5.238   6.905   3.451
 5637SOL    HW117810   5.235   6.816   3.496
 5637SOL    HW217811   5.157   6.958   3.476
 5638SOL     OW17812   6.257   3.906   1.256
 5638SOL    HW117813   6.312   3.844   1.312
 5638SOL    HW217814   6.160   3.892   1.278
 5639SOL     OW17815   0.722   1.426   1.750
 5639SOL    HW117816   0.713   1.345   1.807
 5639SOL    HW217817   0.750   1.504   1.806
 5640SOL     OW17818   3.329   0.521   3.514
 5640SOL    HW117819   3.274   0.530   3.597
 5640SOL    HW217820   3.297   0.586   3.445
 5641SOL     OW17821   0.990   5.185   5.175
 5641SOL    HW117822   0.992   5.282   5.201
 5641SOL    HW217823   0.934   5.134   5.240
 5642SOL     OW17824   1.614   6.834   5.242
 5642SOL    HW117825   1.525   6.789   5.248
 5642SOL    HW217826   1.615   6.914   5.302
 5643SOL     OW17827   4.462   1.446   5.193
 5643SOL    HW117828   4.412   1.526   5.161
 5643SOL    HW217829   4.416   1.362   5.163
 5644SOL     OW17830   3.471   0.237   5.086
 5644SOL    HW117831   3.496   0.312   5.024
 5644SOL    HW217832   3.509   0.254   5.176
 5645SOL     OW17833   6.282   4.529   3.896
 5645SOL    HW117834   6.329   4.441   3.902
 5645SOL    HW217835   6.192   4.522   3.939
 5646SOL     OW17836   1.609   5.528   3.181
 5646SOL    HW117837   1.696   5.538   3.133
 5646SOL    HW217838   1.626   5.510   3.278
 5647SOL     OW17839   4.846   6.209   1.544
 5647SOL    HW117840   4.799   6.235   1.459
 5647SOL    HW217841   4.942   6.236   1.538
 5648SOL     OW17842   2.298   5.692   2.632
 5648SOL    HW117843   2.200   5.678   2.643
 5648SOL    HW217844   2.331   5.639   2.554
 5649SOL     OW17845   1.065   6.945   4.018
 5649SOL    HW117846   0.989   6.880   4.025
 5649SOL    HW217847   1.141   6.916   4.075
 5650SOL     OW17848   1.285   5.545   1.128
 5650SOL    HW117849   1.363   5.506   1.177
 5650SOL    HW217850   1.224   5.472   1.097
 5651SOL     OW17851   1.849   1.315   0.722
 5651SOL    HW117852   1.796   1.306   0.806
 5651SOL    HW217853   1.945   1.291   0.740
 5652SOL     OW17854   6.166   6.113   1.101
 5652SOL    HW117855   6.181   6.038   1.037
 5652SOL    HW217856   6.193   6.199   1.059
 5653SOL     OW17857   6.526   6.377   6.620
 5653SOL    HW117858   6.486   6.468   6.623
 5653SOL    HW217859   6.596   6.369   6.691
 5654SOL     OW17860   1.001   6.089   4.412
 5654SOL    HW117861   0.963   5.999   4.395
 5654SOL    HW217862   0.981   6.149   4.334
 5655SOL     OW17863   0.497   2.836   3.867
 5655SOL    HW117864   0.511   2.758   3.806
 5655SOL    HW217865   0.399   2.857   3.871
 5656SOL     OW17866   6.723   4.097   6.292
 5656SOL    HW117867   6.722   4.072   6.389
 5656SOL    HW217868   6.806   4.061   6.249
 5657SOL     OW17869   5.646   3.225   6.050
 5657SOL    HW117870   5.743   3.248   6.057
 5657SOL    HW217871   5.625   3.197   5.956
 5658SOL     OW17872   2.672   2.982   6.451
 5658SOL    HW117873   2.648   2.968   6.547
 5658SOL    HW217874   2.606   3.044   6.409
 5659SOL     OW17875   3.774   3.192   6.455
 5659SOL    HW117876   3.731   3.208   6.544
 5659SOL    HW217877   3.706   3.153   6.392
 5660SOL     OW17878   4.795   6.648   5.795
 5660SOL    HW117879   4.872   6.587   5.775
 5660SOL    HW217880   4.785   6.657   5.895
 5661SOL     OW17881   1.970   6.134   4.357
 5661SOL    HW117882   1.880   6.138   4.399
 5661SOL    HW217883   2.037   6.179   4.416
 5662SOL     OW17884   2.892   6.725   2.978
 5662SOL    HW117885   2.937   6.737   3.066
 5662SOL    HW217886   2.945   6.662   2.921
 5663SOL     OW17887   2.668   2.229   0.897
 5663SOL    HW117888   2.620   2.262   0.816
 5663SOL    HW217889   2.705   2.307   0.948
 5664SOL     OW17890   6.958   3.834   4.178
 5664SOL    HW117891   6.941   3.843   4.276
 5664SOL    HW217892   6.884   3.781   4.137
 5665SOL     OW17893   1.155   0.443   0.619
 5665SOL    HW117894   1.121   0.536   0.607
 5665SOL    HW217895   1.087   0.378   0.586
 5666SOL     OW17896   6.498   0.134   3.743
 5666SOL    HW117897   6.410   0.142   3.788
 5666SOL    HW217898   6.541   0.224   3.738
 5667SOL     OW17899   1.363   5.144   4.761
 5667SOL    HW117900   1.358   5.150   4.861
 5667SOL    HW217901   1.458   5.131   4.733
 5668SOL     OW17902   5.723   3.460   3.323
 5668SOL    HW117903   5.736   3.441   3.225
 5668SOL    HW217904   5.677   3.383   3.366
 5669SOL     OW17905   6.514   4.119   0.828
 5669SOL    HW117906   6.511   4.086   0.734
 5669SOL    HW217907   6.579   4.064   0.880
 5670SOL     OW17908   1.412   3.727   3.933
 5670SOL    HW117909   1.335   3.686   3.884
 5670SOL    HW217910   1.497   3.710   3.883
 5671SOL     OW17911   5.915   6.757   5.508
 5671SOL    HW117912   5.910   6.745   5.608
 5671SOL    HW217913   5.858   6.834   5.481
 5672SOL     OW17914   5.223   4.024   6.307
 5672SOL    HW117915   5.226   4.068   6.396
 5672SOL    HW217916   5.312   4.033   6.262
 5673SOL     OW17917   1.767   6.564   1.362
 5673SOL    HW117918   1.734   6.508   1.438
 5673SOL    HW217919   1.698   6.568   1.291
 5674SOL     OW17920   1.537   4.714   4.898
 5674SOL    HW117921   1.635   4.695   4.885
 5674SOL    HW217922   1.487   4.628   4.904
 5675SOL     OW17923   4.511   2.561   6.709
 5675SOL    HW117924   4.558   2.521   6.630
 5675SOL    HW217925   4.537   2.657   6.718
 5676SOL     OW17926   2.573   1.956   2.645
 5676SOL    HW117927   2.669   1.928   2.656
 5676SOL    HW217928   2.538   1.920   2.559
 5677SOL     OW17929   0.664   0.755   0.944
 5677SOL    HW117930   0.578   0.715   0.912
 5677SOL    HW217931   0.681   0.728   1.038
 5678SOL     OW17932   4.075   0.469   2.851
 5678SOL    HW117933   4.151   0.414   2.885
 5678SOL    HW217934   4.056   0.444   2.756
 5679SOL     OW17935   5.923   0.848   4.123
 5679SOL    HW117936   5.840   0.890   4.086
 5679SOL    HW217937   5.904   0.809   4.213
 5680SOL     OW17938   1.672   5.299   6.394
 5680SOL    HW117939   1.577   5.290   6.366
 5680SOL    HW217940   1.726   5.334   6.317
 5681SOL     OW17941   0.706   3.552   1.917
 5681SOL    HW117942   0.789   3.552   1.973
 5681SOL    HW217943   0.636   3.494   1.960
 5682SOL     OW17944   2.365   5.462   4.360
 5682SOL    HW117945   2.398   5.432   4.271
 5682SOL    HW217946   2.407   5.407   4.432
 5683SOL     OW17947   3.686   1.846   6.178
 5683SOL    HW117948   3.726   1.780   6.242
 5683SOL    HW217949   3.601   1.809   6.141
 5684SOL     OW17950   2.419   3.454   5.890
 5684SOL    HW117951   2.484   3.530   5.885
 5684SOL    HW217952   2.408   3.412   5.800
 5685SOL     OW17953   2.674   1.920   3.410
 5685SOL    HW117954   2.627   1.904   3.497
 5685SOL    HW217955   2.750   1.857   3.401
 5686SOL     OW17956   3.139   1.534   4.948
 5686SOL    HW117957   3.212   1.513   4.883
 5686SOL    HW217958   3.089   1.614   4.916
 5687SOL     OW17959   0.805   5.911   5.683
 5687SOL    HW117960   0.856   5.964   5.750
 5687SOL    HW217961   0.864   5.892   5.604
 5688SOL     OW17962   1.730   2.421   2.765
 5688SOL    HW117963   1.670   2.424   2.844
 5688SOL    HW217964   1.803   2.489   2.775
 5689SOL     OW17965   2.408   1.135   1.832
 5689SOL    HW117966   2.461   1.136   1.917
 5689SOL    HW217967   2.469   1.133   1.754
 5690SOL     OW17968   1.164   5.758   0.211
 5690SOL    HW117969   1.085   5.817   0.227
 5690SOL    HW217970   1.209   5.737   0.298
 5691SOL     OW17971   3.737   0.805   1.878
 5691SOL    HW117972   3.783   0.878   1.828
 5691SOL    HW217973   3.737   0.826   1.975
 5692SOL     OW17974   5.256   4.533   0.771
 5692SOL    HW117975   5.247   4.485   0.858
 5692SOL    HW217976   5.245   4.632   0.787
 5693SOL     OW17977   4.632   1.379   1.852
 5693SOL    HW117978   4.617   1.288   1.811
 5693SOL    HW217979   4.716   1.377   1.906
 5694SOL     OW17980   1.253   0.641   2.532
 5694SOL    HW117981   1.324   0.612   2.468
 5694SOL    HW217982   1.264   0.738   2.552
 5695SOL     OW17983   1.802   1.404   3.393
 5695SOL    HW117984   1.806   1.304   3.398
 5695SOL    HW217985   1.877   1.437   3.335
 5696SOL     OW17986   0.711   6.647   4.105
 5696SOL    HW117987   0.668   6.577   4.162
 5696SOL    HW217988   0.670   6.736   4.124
 5697SOL     OW17989   5.796   2.285   2.307
 5697SOL    HW117990   5.841   2.243   2.228
 5697SOL    HW217991   5.727   2.350   2.274
 5698SOL     OW17992   1.887   4.538   4.202
 5698SOL    HW117993   1.961   4.602   4.224
 5698SOL    HW217994   1.869   4.540   4.104
 5699SOL     OW17995   1.350   2.105   2.764
 5699SOL    HW117996   1.256   2.111   2.797
 5699SOL    HW217997   1.373   2.188   2.714
 5700SOL     OW17998   6.199   6.669   3.873
 5700SOL    HW117999   6.189   6.742   3.940
 5700SOL    HW218000   6.154   6.586   3.906
 5701SOL     OW18001   0.494   0.380   1.427
 5701SOL    HW118002   0.398   0.403   1.444
 5701SOL    HW218003   0.536   0.350   1.512
 5702SOL     OW18004   2.180   5.927   3.853
 5702SOL    HW118005   2.103   5.869   3.827
 5702SOL    HW218006   2.158   5.977   3.937
 5703SOL     OW18007   7.008   4.458   6.884
 5703SOL    HW118008   6.942   4.503   6.823
 5703SOL    HW218009   6.997   4.359   6.879
 5704SOL     OW18010   5.040   3.992   3.393
 5704SOL    HW118011   5.124   3.949   3.360
 5704SOL    HW218012   4.982   3.923   3.437
 5705SOL     OW18013   4.940   6.020   6.746
 5705SOL    HW118014   5.037   6.044   6.753
 5705SOL    HW218015   4.911   6.027   6.651
 5706SOL     OW18016   5.227   2.705   2.260
 5706SOL    HW118017   5.160   2.779   2.258
 5706SOL    HW218018   5.292   2.721   2.334
 5707SOL     OW18019   6.337   7.026   0.974
 5707SOL    HW118020   6.418   6.968   0.985
 5707SOL    HW218021   6.335   0.036   0.881
 5708SOL     OW18022   4.882   5.672   2.027
 5708SOL    HW118023   4.896   5.686   1.929
 5708SOL    HW218024   4.921   5.749   2.078
 5709SOL     OW18025   0.428   1.084   2.558
 5709SOL    HW118026   0.433   1.117   2.653
 5709SOL    HW218027   0.412   0.985   2.558
 5710SOL     OW18028   3.395   2.040   0.181
 5710SOL    HW118029   3.404   1.962   0.243
 5710SOL    HW218030   3.476   2.098   0.188
 5711SOL     OW18031   4.894   1.000   1.361
 5711SOL    HW118032   4.865   0.957   1.276
 5711SOL    HW218033   4.911   0.930   1.430
 5712SOL     OW18034   6.098   6.465   0.099
 5712SOL    HW118035   6.015   6.430   0.142
 5712SOL    HW218036   6.165   6.489   0.170
 5713SOL     OW18037   2.817   3.993   1.712
 5713SOL    HW118038   2.718   4.006   1.710
 5713SOL    HW218039   2.839   3.897   1.694
 5714SOL     OW18040   6.644   6.166   1.494
 5714SOL    HW118041   6.706   6.228   1.446
 5714SOL    HW218042   6.697   6.095   1.540
 5715SOL     OW18043   6.895   6.952   2.632
 5715SOL    HW118044   6.958   6.942   2.709
 5715SOL    HW218045   6.869   6.861   2.598
 5716SOL     OW18046   1.160   6.011   5.651
 5716SOL    HW118047   1.254   6.038   5.630
 5716SOL    HW218048   1.120   5.965   5.573
 5717SOL     OW18049   1.610   5.037   0.840
 5717SOL    HW118050   1.687   4.978   0.819
 5717SOL    HW218051   1.537   4.984   0.882
 5718SOL     OW18052   1.348   3.767   0.525
 5718SOL    HW118053   1.269   3.801   0.575
 5718SOL    HW218054   1.368   3.827   0.448
 5719SOL     OW18055   2.569   3.352   0.576
 5719SOL    HW118056   2.511   3.400   0.510
 5719SOL    HW218057   2.640   3.415   0.609
 5720SOL     OW18058   1.522   6.766   4.462
 5720SOL    HW118059   1.529   6.853   4.413
 5720SOL    HW218060   1.450   6.772   4.530
 5721SOL     OW18061   6.115   4.547   1.022
 5721SOL    HW118062   6.040   4.554   0.957
 5721SOL    HW218063   6.117   4.454   1.061
 5722SOL     OW18064   6.368   2.374   5.156
 5722SOL    HW118065   6.331   2.298   5.210
 5722SOL    HW218066   6.384   2.343   5.062
 5723SOL     OW18067   4.468   3.783   0.270
 5723SOL    HW118068   4.521   3.783   0.185
 5723SOL    HW218069   4.483   3.697   0.319
 5724SOL     OW18070   5.961   2.694   4.080
 5724SOL    HW118071   5.886   2.634   4.109
 5724SOL    HW218072   5.979   2.680   3.983
 5725SOL     OW18073   6.689   4.715   4.182
 5725SOL    HW118074   6.726   4.647   4.119
 5725SOL    HW218075   6.717   4.806   4.153
 5726SOL     OW18076   6.757   5.718   4.185
 5726SOL    HW118077   6.807   5.669   4.257
 5726SOL    HW218078   6.812   5.723   4.102
 5727SOL     OW18079   6.224   2.617   4.651
 5727SOL    HW118080   6.130   2.608   4.620
 5727SOL    HW218081   6.227   2.610   4.751
 5728SOL     OW18082   5.027   6.438   5.509
 5728SOL    HW118083   5.008   6.535   5.501
 5728SOL    HW218084   5.043   6.400   5.417
 5729SOL     OW18085   1.550   1.604   6.567
 5729SOL    HW118086   1.638   1.561   6.547
 5729SOL    HW218087   1.476   1.549   6.528
 5730SOL     OW18088   5.870   4.653   6.263
 5730SOL    HW118089   5.925   4.644   6.346
 5730SOL    HW218090   5.841   4.748   6.252
 5731SOL     OW18091   6.878   0.332   2.477
 5731SOL    HW118092   6.914   0.426   2.479
 5731SOL    HW218093   6.948   0.269   2.511
 5732SOL     OW18094   0.426   6.176   3.890
 5732SOL    HW118095   0.442   6.152   3.794
 5732SOL    HW218096   0.369   6.258   3.895
 5733SOL     OW18097   3.586   6.426   5.138
 5733SOL    HW118098   3.652   6.355   5.163
 5733SOL    HW218099   3.572   6.425   5.039
 5734SOL     OW18100   1.323   0.610   5.539
 5734SOL    HW118101   1.336   0.518   5.576
 5734SOL    HW218102   1.228   0.638   5.553
 5735SOL     OW18103   3.623   1.668   0.843
 5735SOL    HW118104   3.586   1.737   0.781
 5735SOL    HW218105   3.653   1.712   0.928
 5736SOL     OW18106   6.908   4.270   0.107
 5736SOL    HW118107   6.960   4.318   0.177
 5736SOL    HW218108   6.879   4.181   0.142
 5737SOL     OW18109   5.561   5.890   0.657
 5737SOL    HW118110   5.646   5.886   0.710
 5737SOL    HW218111   5.487   5.852   0.712
 5738SOL     OW18112   1.936   3.254   5.880
 5738SOL    HW118113   1.885   3.212   5.955
 5738SOL    HW218114   2.021   3.293   5.915
 5739SOL     OW18115   1.756   1.441   6.419
 5739SOL    HW118116   1.848   1.405   6.401
 5739SOL    HW218117   1.715   1.471   6.334
 5740SOL     OW18118   4.393   5.194   0.545
 5740SOL    HW118119   4.304   5.148   0.546
 5740SOL    HW218120   4.426   5.202   0.451
 5741SOL     OW18121   0.048   5.498   4.272
 5741SOL    HW118122   0.146   5.489   4.252
 5741SOL    HW218123   0.013   5.412   4.306
 5742SOL     OW18124   5.245   6.485   2.883
 5742SOL    HW118125   5.277   6.458   2.793
 5742SOL    HW218126   5.241   6.405   2.943
 5743SOL     OW18127   2.467   6.415   5.086
 5743SOL    HW118128   2.508   6.455   5.168
 5743SOL    HW218129   2.493   6.319   5.079
 5744SOL     OW18130   4.828   0.240   1.136
 5744SOL    HW118131   4.900   0.303   1.163
 5744SOL    HW218132   4.744   0.262   1.185
 5745SOL     OW18133   3.859   1.632   4.373
 5745SOL    HW118134   3.915   1.646   4.455
 5745SOL    HW218135   3.802   1.551   4.386
 5746SOL     OW18136   4.638   0.961   0.952
 5746SOL    HW118137   4.602   1.014   1.029
 5746SOL    HW218138   4.563   0.933   0.893
 5747SOL     OW18139   0.059   5.285   2.659
 5747SOL    HW118140   0.055   5.316   2.564
 5747SOL    HW218141   7.025   5.207   2.671
 5748SOL     OW18142   1.759   4.614   1.333
 5748SOL    HW118143   1.765   4.527   1.285
 5748SOL    HW218144   1.667   4.626   1.369
 5749SOL     OW18145   2.642   0.800   4.247
 5749SOL    HW118146   2.683   0.886   4.278
 5749SOL    HW218147   2.574   0.770   4.314
 5750SOL     OW18148   5.724   5.111   4.688
 5750SOL    HW118149   5.820   5.137   4.681
 5750SOL    HW218150   5.670   5.162   4.620
 5751SOL     OW18151   2.600   2.489   4.604
 5751SOL    HW118152   2.568   2.452   4.691
 5751SOL    HW218153   2.691   2.452   4.584
 5752SOL     OW18154   6.068   1.247   6.065
 5752SOL    HW118155   6.101   1.153   6.062
 5752SOL    HW218156   6.015   1.266   5.982
 5753SOL     OW18157   3.276   3.678   6.621
 5753SOL    HW118158   3.185   3.663   6.660
 5753SOL    HW218159   3.313   3.765   6.654
 5754SOL     OW18160   5.523   5.951   1.439
 5754SOL    HW118161   5.580   6.002   1.375
 5754SOL    HW218162   5.578   5.920   1.516
 5755SOL     OW18163   3.034   3.842   6.112
 5755SOL    HW118164   2.974   3.801   6.181
 5755SOL    HW218165   3.124   3.800   6.118
 5756SOL     OW18166   6.999   5.587   3.902
 5756SOL    HW118167   6.938   5.512   3.877
 5756SOL    HW218168   0.062   5.570   3.864
 5757SOL     OW18169   6.558   6.588   2.177
 5757SOL    HW118170   6.541   6.664   2.241
 5757SOL    HW218171   6.646   6.602   2.132
 5758SOL     OW18172   2.861   1.981   4.048
 5758SOL    HW118173   2.867   1.982   4.148
 5758SOL    HW218174   2.795   1.912   4.019
 5759SOL     OW18175   4.939   2.059   6.760
 5759SOL    HW118176   4.879   1.985   6.789
 5759SOL    HW218177   4.888   2.145   6.760
 5760SOL     OW18178   1.749   6.518   2.294
 5760SOL    HW118179   1.702   6.429   2.297
 5760SOL    HW218180   1.722   6.566   2.210
 5761SOL     OW18181   6.211   0.464   5.103
 5761SOL    HW118182   6.159   0.416   5.032
 5761SOL    HW218183   6.254   0.397   5.163
 5762SOL     OW18184   5.198   0.160   0.143
 5762SOL    HW118185   5.260   0.233   0.114
 5762SOL    HW218186   5.251   0.080   0.170
 5763SOL     OW18187   0.962   6.950   0.448
 5763SOL    HW118188   0.885   6.942   0.385
 5763SOL    HW218189   1.033   7.007   0.407
 5764SOL     OW18190   5.700   5.063   5.763
 5764SOL    HW118191   5.640   5.138   5.789
 5764SOL    HW218192   5.773   5.053   5.831
 5765SOL     OW18193   6.388   4.789   6.310
 5765SOL    HW118194   6.454   4.732   6.357
 5765SOL    HW218195   6.419   4.805   6.216
 5766SOL     OW18196   2.638   1.168   1.684
 5766SOL    HW118197   2.651   1.194   1.588
 5766SOL    HW218198   2.665   1.073   1.697
 5767SOL     OW18199   2.084   6.852   0.542
 5767SOL    HW118200   2.024   6.904   0.602
 5767SOL    HW218201   2.042   6.764   0.520
 5768SOL     OW18202   6.923   0.284   2.936
 5768SOL    HW118203   6.854   0.227   2.892
 5768SOL    HW218204   6.883   0.330   3.016
 5769SOL     OW18205   2.885   0.033   3.139
 5769SOL    HW118206   2.870   0.069   3.047
 5769SOL    HW218207   2.976   7.018   3.143
 5770SOL     OW18208   0.094   0.149   0.513
 5770SOL    HW118209   0.099   0.049   0.521
 5770SOL    HW218210   0.085   0.174   0.416
 5771SOL     OW18211   1.547   6.734   1.572
 5771SOL    HW118212   1.484   6.762   1.500
 5771SOL    HW218213   1.528   6.786   1.655
 5772SOL     OW18214   5.735   2.443   0.742
 5772SOL    HW118215   5.650   2.391   0.744
 5772SOL    HW218216   5.808   2.392   0.788
 5773SOL     OW18217   5.653   0.021   3.869
 5773SOL    HW118218   5.688   0.112   3.888
 5773SOL    HW218219   5.717   6.999   3.811
 5774SOL     OW18220   2.371   4.270   3.516
 5774SOL    HW118221   2.394   4.295   3.422
 5774SOL    HW218222   2.430   4.319   3.580
 5775SOL     OW18223   1.372   0.480   0.775
 5775SOL    HW118224   1.458   0.504   0.729
 5775SOL    HW218225   1.295   0.495   0.713
 5776SOL     OW18226   6.401   1.030   6.095
 5776SOL    HW118227   6.358   1.040   6.185
 5776SOL    HW218228   6.495   1.064   6.099
 5777SOL     OW18229   6.090   0.866   4.431
 5777SOL    HW118230   6.075   0.836   4.525
 5777SOL    HW218231   6.016   0.833   4.372
 5778SOL     OW18232   2.401   0.523   2.391
 5778SOL    HW118233   2.379   0.431   2.359
 5778SOL    HW218234   2.370   0.591   2.324
 5779SOL     OW18235   3.327   0.486   0.943
 5779SOL    HW118236   3.254   0.544   0.907
 5779SOL    HW218237   3.316   0.474   1.041
 5780SOL     OW18238   6.287   5.195   1.490
 5780SOL    HW118239   6.370   5.248   1.473
 5780SOL    HW218240   6.309   5.117   1.549
 5781SOL     OW18241   2.320   4.272   4.701
 5781SOL    HW118242   2.409   4.268   4.745
 5781SOL    HW218243   2.272   4.185   4.714
 5782SOL     OW18244   1.637   1.199   1.260
 5782SOL    HW118245   1.558   1.259   1.272
 5782SOL    HW218246   1.701   1.213   1.336
 5783SOL     OW18247   1.390   1.406   0.456
 5783SOL    HW118248   1.479   1.399   0.502
 5783SOL    HW218249   1.323   1.447   0.517
 5784SOL     OW18250   0.580   6.210   0.093
 5784SOL    HW118251   0.509   6.273   0.062
 5784SOL    HW218252   0.542   6.147   0.160
 5785SOL     OW18253   1.123   1.102   1.018
 5785SOL    HW118254   1.160   1.015   1.051
 5785SOL    HW218255   1.177   1.178   1.056
 5786SOL     OW18256   1.400   3.239   1.271
 5786SOL    HW118257   1.438   3.147   1.273
 5786SOL    HW218258   1.306   3.237   1.305
 5787SOL     OW18259   5.814   2.276   4.524
 5787SOL    HW118260   5.850   2.280   4.617
 5787SOL    HW218261   5.881   2.231   4.464
 5788SOL     OW18262   2.975   0.165   1.207
 5788SOL    HW118263   2.926   0.077   1.208
 5788SOL    HW218264   3.072   0.148   1.222
 5789SOL     OW18265   3.927   2.783   6.836
 5789SOL    HW118266   3.982   2.703   6.859
 5789SOL    HW218267   3.977   2.866   6.862
 5790SOL     OW18268   6.591   5.344   4.820
 5790SOL    HW118269   6.602   5.396   4.905
 5790SOL    HW218270   6.678   5.343   4.771
 5791SOL     OW18271   3.069   1.405   2.279
 5791SOL    HW118272   3.141   1.341   2.306
 5791SOL    HW218273   2.991   1.397   2.341
 5792SOL     OW18274   5.168   3.261   3.283
 5792SOL    HW118275   5.180   3.308   3.195
 5792SOL    HW218276   5.170   3.163   3.268
 5793SOL     OW18277   5.929   2.417   5.416
 5793SOL    HW118278   5.856   2.468   5.370
 5793SOL    HW218279   5.939   2.451   5.509
 5794SOL     OW18280   2.991   6.789   6.371
 5794SOL    HW118281   2.991   6.852   6.448
 5794SOL    HW218282   2.955   6.836   6.290
 5795SOL     OW18283   1.028   5.822   1.515
 5795SOL    HW118284   1.089   5.830   1.436
 5795SOL    HW218285   1.075   5.774   1.588
 5796SOL     OW18286   4.775   1.514   6.533
 5796SOL    HW118287   4.826   1.583   6.584
 5796SOL    HW218288   4.717   1.462   6.596
 5797SOL     OW18289   5.644   1.676   0.319
 5797SOL    HW118290   5.596   1.723   0.245
 5797SOL    HW218291   5.610   1.582   0.327
 5798SOL     OW18292   0.441   3.801   4.824
 5798SOL    HW118293   0.405   3.840   4.909
 5798SOL    HW218294   0.447   3.702   4.833
 5799SOL     OW18295   1.200   6.603   2.899
 5799SOL    HW118296   1.139   6.527   2.923
 5799SOL    HW218297   1.158   6.658   2.827
 5800SOL     OW18298   0.432   6.851   0.861
 5800SOL    HW118299   0.379   6.767   0.864
 5800SOL    HW218300   0.455   6.880   0.954
 5801SOL     OW18301   2.453   2.603   2.433
 5801SOL    HW118302   2.538   2.610   2.485
 5801SOL    HW218303   2.470   2.554   2.347
 5802SOL     OW18304   6.528   2.383   3.095
 5802SOL    HW118305   6.604   2.320   3.077
 5802SOL    HW218306   6.485   2.408   3.008
 5803SOL     OW18307   1.655   4.923   4.183
 5803SOL    HW118308   1.748   4.955   4.166
 5803SOL    HW218309   1.641   4.913   4.282
 5804SOL     OW18310   6.373   6.625   3.633
 5804SOL    HW118311   6.316   6.631   3.715
 5804SOL    HW218312   6.398   6.717   3.603
 5805SOL     OW18313   1.605   3.676   1.191
 5805SOL    HW118314   1.589   3.609   1.263
 5805SOL    HW218315   1.618   3.628   1.104
 5806SOL     OW18316   0.674   3.336   3.771
 5806SOL    HW118317   0.584   3.336   3.813
 5806SOL    HW218318   0.670   3.383   3.683
 5807SOL     OW18319   1.445   5.929   1.245
 5807SOL    HW118320   1.436   5.997   1.172
 5807SOL    HW218321   1.442   5.974   1.334
 5808SOL     OW18322   6.275   6.971   4.161
 5808SOL    HW118323   6.363   7.019   4.169
 5808SOL    HW218324   6.248   6.938   4.251
 5809SOL     OW18325   0.606   2.243   5.906
 5809SOL    HW118326   0.562   2.331   5.888
 5809SOL    HW218327   0.537   2.173   5.920
 5810SOL     OW18328   4.522   6.734   5.110
 5810SOL    HW118329   4.541   6.803   5.041
 5810SOL    HW218330   4.577   6.652   5.091
 5811SOL     OW18331   3.114   2.899   6.165
 5811SOL    HW118332   3.088   2.996   6.159
 5811SOL    HW218333   3.078   2.861   6.250
 5812SOL     OW18334   5.917   2.885   0.709
 5812SOL    HW118335   5.853   2.828   0.761
 5812SOL    HW218336   5.900   2.873   0.611
 5813SOL     OW18337   3.908   6.230   1.169
 5813SOL    HW118338   3.951   6.156   1.116
 5813SOL    HW218339   3.809   6.220   1.166
 5814SOL     OW18340   6.510   1.893   2.397
 5814SOL    HW118341   6.459   1.807   2.402
 5814SOL    HW218342   6.476   1.947   2.319
 5815SOL     OW18343   6.342   1.504   3.854
 5815SOL    HW118344   6.331   1.405   3.847
 5815SOL    HW218345   6.334   1.545   3.763
 5816SOL     OW18346   0.427   5.109   2.370
 5816SOL    HW118347   0.469   5.032   2.420
 5816SOL    HW218348   0.367   5.159   2.432
 5817SOL     OW18349   5.580   3.908   5.291
 5817SOL    HW118350   5.528   3.834   5.333
 5817SOL    HW218351   5.674   3.878   5.275
 5818SOL     OW18352   0.951   6.562   4.655
 5818SOL    HW118353   0.859   6.600   4.652
 5818SOL    HW218354   0.969   6.524   4.746
 5819SOL     OW18355   3.131   4.985   0.140
 5819SOL    HW118356   3.198   4.929   0.189
 5819SOL    HW218357   3.179   5.047   0.078
 5820SOL     OW18358   5.409   5.004   2.390
 5820SOL    HW118359   5.324   4.970   2.350
 5820SOL    HW218360   5.401   5.102   2.409
 5821SOL     OW18361   6.907   0.776   1.331
 5821SOL    HW118362   6.991   0.755   1.380
 5821SOL    HW218363   6.837   0.709   1.354
 5822SOL     OW18364   1.535   2.130   2.985
 5822SOL    HW118365   1.470   2.118   2.909
 5822SOL    HW218366   1.490   2.106   3.071
 5823SOL     OW18367   2.446   6.565   3.886
 5823SOL    HW118368   2.497   6.481   3.869
 5823SOL    HW218369   2.504   6.630   3.935
 5824SOL     OW18370   0.515   6.948   2.206
 5824SOL    HW118371   0.482   6.854   2.202
 5824SOL    HW218372   0.600   6.956   2.154
 5825SOL     OW18373   6.618   6.919   4.839
 5825SOL    HW118374   6.543   6.919   4.904
 5825SOL    HW218375   6.703   6.944   4.885
 5826SOL     OW18376   0.367   0.558   5.437
 5826SOL    HW118377   0.345   0.539   5.342
 5826SOL    HW218378   0.386   0.656   5.448
 5827SOL     OW18379   1.409   3.498   5.081
 5827SOL    HW118380   1.350   3.571   5.047
 5827SOL    HW218381   1.400   3.489   5.180
 5828SOL     OW18382   5.286   6.583   3.965
 5828SOL    HW118383   5.216   6.654   3.960
 5828SOL    HW218384   5.329   6.572   3.876
 5829SOL     OW18385   1.652   0.872   4.727
 5829SOL    HW118386   1.669   0.911   4.817
 5829SOL    HW218387   1.713   0.914   4.660
 5830SOL     OW18388   3.573   5.071   5.452
 5830SOL    HW118389   3.579   5.011   5.532
 5830SOL    HW218390   3.638   5.147   5.463
 5831SOL     OW18391   1.049   1.519   5.406
 5831SOL    HW118392   1.148   1.515   5.390
 5831SOL    HW218393   1.026   1.464   5.487
 5832SOL     OW18394   3.411   4.580   1.236
 5832SOL    HW118395   3.351   4.659   1.224
 5832SOL    HW218396   3.415   4.528   1.150
 5833SOL     OW18397   4.103   3.760   5.515
 5833SOL    HW118398   4.181   3.702   5.542
 5833SOL    HW218399   4.054   3.717   5.440
 5834SOL     OW18400   6.597   4.477   6.802
 5834SOL    HW118401   6.684   4.502   6.759
 5834SOL    HW218402   6.522   4.522   6.754
 5835SOL     OW18403   5.329   0.641   2.811
 5835SOL    HW118404   5.273   0.628   2.893
 5835SOL    HW218405   5.347   0.552   2.768
 5836SOL     OW18406   4.338   6.457   2.650
 5836SOL    HW118407   4.240   6.436   2.658
 5836SOL    HW218408   4.368   6.440   2.556
 5837SOL     OW18409   3.734   4.189   0.673
 5837SOL    HW118410   3.779   4.161   0.758
 5837SOL    HW218411   3.803   4.205   0.603
 5838SOL     OW18412   3.033   1.932   1.502
 5838SOL    HW118413   3.128   1.959   1.515
 5838SOL    HW218414   2.987   1.929   1.591
 5839SOL     OW18415   0.915   2.325   2.065
 5839SOL    HW118416   1.004   2.315   2.022
 5839SOL    HW218417   0.909   2.266   2.145
 5840SOL     OW18418   0.533   3.631   2.220
 5840SOL    HW118419   0.490   3.583   2.143
 5840SOL    HW218420   0.604   3.692   2.186
 5841SOL     OW18421   4.487   0.618   1.514
 5841SOL    HW118422   4.455   0.690   1.452
 5841SOL    HW218423   4.419   0.545   1.516
 5842SOL     OW18424   3.645   1.761   0.047
 5842SOL    HW118425   3.741   1.789   0.038
 5842SOL    HW218426   3.586   1.837   0.020
 5843SOL     OW18427   1.725   3.866   0.920
 5843SOL    HW118428   1.647   3.839   0.976
 5843SOL    HW218429   1.769   3.784   0.884
 5844SOL     OW18430   0.569   0.125   4.832
 5844SOL    HW118431   0.516   0.208   4.847
 5844SOL    HW218432   0.655   0.149   4.786
 5845SOL     OW18433   6.948   6.767   1.611
 5845SOL    HW118434   6.960   6.683   1.559
 5845SOL    HW218435   6.947   6.845   1.549
 5846SOL     OW18436   6.694   3.862   5.263
 5846SOL    HW118437   6.662   3.907   5.180
 5846SOL    HW218438   6.621   3.861   5.331
 5847SOL     OW18439   2.483   3.066   1.638
 5847SOL    HW118440   2.412   3.115   1.688
 5847SOL    HW218441   2.464   3.072   1.540
 5848SOL     OW18442   2.388   6.049   3.744
 5848SOL    HW118443   2.324   5.988   3.792
 5848SOL    HW218444   2.466   5.996   3.711
 5849SOL     OW18445   2.129   6.355   5.338
 5849SOL    HW118446   2.035   6.355   5.374
 5849SOL    HW218447   2.129   6.401   5.249
 5850SOL     OW18448   1.243   2.678   2.040
 5850SOL    HW118449   1.279   2.603   1.984
 5850SOL    HW218450   1.151   2.703   2.008
 5851SOL     OW18451   5.832   3.168   4.523
 5851SOL    HW118452   5.877   3.242   4.474
 5851SOL    HW218453   5.755   3.133   4.469
 5852SOL     OW18454   5.041   5.776   3.550
 5852SOL    HW118455   5.105   5.786   3.626
 5852SOL    HW218456   4.988   5.693   3.562
 5853SOL     OW18457   3.695   5.336   5.547
 5853SOL    HW118458   3.617   5.345   5.608
 5853SOL    HW218459   3.774   5.381   5.587
 5854SOL     OW18460   3.465   4.432   5.766
 5854SOL    HW118461   3.373   4.469   5.750
 5854SOL    HW218462   3.527   4.468   5.696
 5855SOL     OW18463   2.053   2.487   3.799
 5855SOL    HW118464   1.988   2.496   3.724
 5855SOL    HW218465   2.075   2.390   3.812
 5856SOL     OW18466   1.669   6.687   2.519
 5856SOL    HW118467   1.706   6.652   2.605
 5856SOL    HW218468   1.706   6.633   2.443
 5857SOL     OW18469   0.272   3.335   5.921
 5857SOL    HW118470   0.210   3.314   5.996
 5857SOL    HW218471   0.254   3.427   5.887
 5858SOL     OW18472   2.320   1.287   3.204
 5858SOL    HW118473   2.272   1.315   3.288
 5858SOL    HW218474   2.293   1.347   3.129
 5859SOL     OW18475   5.824   6.880   1.530
 5859SOL    HW118476   5.917   6.880   1.567
 5859SOL    HW218477   5.812   6.960   1.471
 5860SOL     OW18478   0.552   4.153   3.303
 5860SOL    HW118479   0.512   4.108   3.383
 5860SOL    HW218480   0.607   4.230   3.332
 5861SOL     OW18481   6.091   0.299   4.928
 5861SOL    HW118482   6.005   0.298   4.877
 5861SOL    HW218483   6.168   0.289   4.864
 5862SOL     OW18484   6.761   5.760   2.299
 5862SOL    HW118485   6.808   5.828   2.355
 5862SOL    HW218486   6.745   5.797   2.208
 5863SOL     OW18487   2.661   0.755   4.654
 5863SOL    HW118488   2.657   0.848   4.691
 5863SOL    HW218489   2.756   0.726   4.644
 5864SOL     OW18490   3.575   3.860   3.535
 5864SOL    HW118491   3.626   3.947   3.537
 5864SOL    HW218492   3.558   3.830   3.629
 5865SOL     OW18493   5.910   1.314   5.795
 5865SOL    HW118494   5.955   1.400   5.822
 5865SOL    HW218495   5.814   1.332   5.776
 5866SOL     OW18496   3.290   3.566   1.411
 5866SOL    HW118497   3.268   3.563   1.509
 5866SOL    HW218498   3.218   3.518   1.360
 5867SOL     OW18499   2.255   2.046   1.404
 5867SOL    HW118500   2.332   1.993   1.370
 5867SOL    HW218501   2.244   2.030   1.503
 5868SOL     OW18502   0.651   1.910   6.051
 5868SOL    HW118503   0.573   1.871   6.102
 5868SOL    HW218504   0.676   1.998   6.091
 5869SOL     OW18505   0.910   4.678   3.675
 5869SOL    HW118506   0.912   4.578   3.679
 5869SOL    HW218507   0.978   4.715   3.738
 5870SOL     OW18508   4.167   4.794   5.460
 5870SOL    HW118509   4.161   4.778   5.362
 5870SOL    HW218510   4.076   4.786   5.501
 5871SOL     OW18511   2.911   3.370   3.558
 5871SOL    HW118512   2.879   3.379   3.464
 5871SOL    HW218513   2.844   3.412   3.619
 5872SOL     OW18514   4.091   6.008   1.374
 5872SOL    HW118515   4.090   6.093   1.428
 5872SOL    HW218516   4.000   5.992   1.336
 5873SOL     OW18517   2.791   5.138   2.649
 5873SOL    HW118518   2.886   5.156   2.674
 5873SOL    HW218519   2.739   5.223   2.652
 5874SOL     OW18520   2.179   4.299   5.056
 5874SOL    HW118521   2.121   4.255   5.125
 5874SOL    HW218522   2.243   4.232   5.019
 5875SOL     OW18523   3.610   2.201   0.153
 5875SOL    HW118524   3.675   2.261   0.200
 5875SOL    HW218525   3.570   2.250   0.076
 5876SOL     OW18526   4.047   3.869   2.402
 5876SOL    HW118527   4.134   3.906   2.369
 5876SOL    HW218528   4.046   3.871   2.502
 5877SOL     OW18529   6.016   6.430   1.087
 5877SOL    HW118530   6.005   6.529   1.079
 5877SOL    HW218531   6.008   6.404   1.184
 5878SOL     OW18532   1.452   5.733   3.374
 5878SOL    HW118533   1.504   5.734   3.288
 5878SOL    HW218534   1.513   5.755   3.450
 5879SOL     OW18535   6.437   3.502   0.091
 5879SOL    HW118536   6.445   3.602   0.098
 5879SOL    HW218537   6.349   3.479   0.050
 5880SOL     OW18538   2.739   5.662   1.253
 5880SOL    HW118539   2.687   5.698   1.330
 5880SOL    HW218540   2.836   5.685   1.265
 5881SOL     OW18541   0.173   4.679   3.556
 5881SOL    HW118542   0.261   4.666   3.600
 5881SOL    HW218543   0.124   4.755   3.599
 5882SOL     OW18544   5.942   0.395   0.936
 5882SOL    HW118545   5.897   0.431   1.017
 5882SOL    HW218546   5.875   0.386   0.862
 5883SOL     OW18547   0.238   2.239   6.512
 5883SOL    HW118548   0.300   2.291   6.453
 5883SOL    HW218549   0.290   2.192   6.583
 5884SOL     OW18550   1.904   1.130   3.559
 5884SOL    HW118551   1.986   1.087   3.522
 5884SOL    HW218552   1.831   1.126   3.491
 5885SOL     OW18553   6.665   6.966   1.382
 5885SOL    HW118554   6.674   0.023   1.329
 5885SOL    HW218555   6.679   6.986   1.479
 5886SOL     OW18556   0.468   2.562   5.074
 5886SOL    HW118557   0.395   2.523   5.018
 5886SOL    HW218558   0.513   2.637   5.024
 5887SOL     OW18559   4.027   1.314   3.755
 5887SOL    HW118560   4.068   1.404   3.738
 5887SOL    HW218561   3.950   1.300   3.693
 5888SOL     OW18562   2.677   6.254   2.835
 5888SOL    HW118563   2.739   6.289   2.906
 5888SOL    HW218564   2.713   6.168   2.800
 5889SOL     OW18565   1.770   6.996   1.626
 5889SOL    HW118566   1.849   6.935   1.618
 5889SOL    HW218567   1.774   0.015   1.714
 5890SOL     OW18568   1.272   0.160   5.340
 5890SOL    HW118569   1.360   0.119   5.360
 5890SOL    HW218570   1.213   0.156   5.422
 5891SOL     OW18571   4.269   3.433   6.453
 5891SOL    HW118572   4.232   3.342   6.465
 5891SOL    HW218573   4.320   3.437   6.367
 5892SOL     OW18574   1.156   6.264   1.848
 5892SOL    HW118575   1.194   6.357   1.840
 5892SOL    HW218576   1.123   6.235   1.758
 5893SOL     OW18577   1.257   3.539   3.457
 5893SOL    HW118578   1.347   3.511   3.421
 5893SOL    HW218579   1.185   3.502   3.399
 5894SOL     OW18580   1.144   5.044   3.209
 5894SOL    HW118581   1.056   5.091   3.217
 5894SOL    HW218582   1.195   5.081   3.131
 5895SOL     OW18583   5.158   2.392   4.445
 5895SOL    HW118584   5.126   2.378   4.539
 5895SOL    HW218585   5.202   2.482   4.438
 5896SOL     OW18586   3.982   1.999   0.297
 5896SOL    HW118587   4.031   1.918   0.329
 5896SOL    HW218588   3.893   2.004   0.342
 5897SOL     OW18589   3.768   6.985   1.979
 5897SOL    HW118590   3.737   6.921   1.909
 5897SOL    HW218591   3.864   7.008   1.964
 5898SOL     OW18592   1.999   0.309   2.771
 5898SOL    HW118593   2.067   0.298   2.699
 5898SOL    HW218594   2.014   0.396   2.818
 5899SOL     OW18595   5.316   0.155   5.277
 5899SOL    HW118596   5.291   0.232   5.218
 5899SOL    HW218597   5.240   0.090   5.281
 5900SOL     OW18598   4.369   5.352   3.691
 5900SOL    HW118599   4.386   5.301   3.775
 5900SOL    HW218600   4.343   5.288   3.618
 5901SOL     OW18601   2.213   0.476   6.299
 5901SOL    HW118602   2.228   0.467   6.201
 5901SOL    HW218603   2.294   0.518   6.342
 5902SOL     OW18604   0.029   2.152   0.470
 5902SOL    HW118605   0.086   2.221   0.515
 5902SOL    HW218606   6.962   2.165   0.496
 5903SOL     OW18607   5.618   4.014   0.803
 5903SOL    HW118608   5.614   4.109   0.834
 5903SOL    HW218609   5.705   3.998   0.757
 5904SOL     OW18610   0.218   3.716   2.551
 5904SOL    HW118611   0.151   3.672   2.609
 5904SOL    HW218612   0.279   3.647   2.511
 5905SOL     OW18613   5.876   6.153   2.794
 5905SOL    HW118614   5.922   6.174   2.881
 5905SOL    HW218615   5.793   6.208   2.787
 5906SOL     OW18616   5.447   0.764   4.182
 5906SOL    HW118617   5.468   0.804   4.272
 5906SOL    HW218618   5.377   0.694   4.193
 5907SOL     OW18619   1.497   6.168   2.004
 5907SOL    HW118620   1.408   6.121   2.007
 5907SOL    HW218621   1.559   6.127   2.070
 5908SOL     OW18622   0.791   2.468   5.831
 5908SOL    HW118623   0.727   2.505   5.764
 5908SOL    HW218624   0.746   2.397   5.885
 5909SOL     OW18625   0.869   5.187   0.685
 5909SOL    HW118626   0.782   5.158   0.647
 5909SOL    HW218627   0.944   5.145   0.634
 5910SOL     OW18628   0.707   2.706   3.313
 5910SOL    HW118629   0.800   2.742   3.310
 5910SOL    HW218630   0.646   2.773   3.355
 5911SOL     OW18631   6.840   5.568   6.688
 5911SOL    HW118632   6.770   5.615   6.634
 5911SOL    HW218633   6.796   5.513   6.759
 5912SOL     OW18634   6.343   1.438   5.511
 5912SOL    HW118635   6.249   1.427   5.479
 5912SOL    HW218636   6.343   1.445   5.611
 5913SOL     OW18637   5.191   2.769   0.155
 5913SOL    HW118638   5.273   2.728   0.115
 5913SOL    HW218639   5.141   2.820   0.085
 5914SOL     OW18640   1.069   6.657   6.522
 5914SOL    HW118641   1.133   6.705   6.461
 5914SOL    HW218642   0.978   6.656   6.480
 5915SOL     OW18643   3.411   6.160   0.004
 5915SOL    HW118644   3.458   6.163   6.944
 5915SOL    HW218645   3.443   6.236   0.061
 5916SOL     OW18646   0.150   6.962   2.236
 5916SOL    HW118647   0.127   0.029   2.217
 5916SOL    HW218648   0.086   6.902   2.188
 5917SOL     OW18649   2.886   3.889   5.897
 5917SOL    HW118650   2.938   3.960   5.849
 5917SOL    HW218651   2.936   3.862   5.979
 5918SOL     OW18652   2.028   5.618   6.281
 5918SOL    HW118653   2.122   5.587   6.289
 5918SOL    HW218654   2.026   5.712   6.247
 5919SOL     OW18655   2.895   3.624   3.085
 5919SOL    HW118656   2.811   3.677   3.094
 5919SOL    HW218657   2.967   3.681   3.045
 5920SOL     OW18658   5.237   1.339   6.258
 5920SOL    HW118659   5.176   1.414   6.284
 5920SOL    HW218660   5.286   1.364   6.174
 5921SOL     OW18661   3.776   5.172   6.748
 5921SOL    HW118662   3.805   5.146   6.656
 5921SOL    HW218663   3.729   5.095   6.791
 5922SOL     OW18664   6.486   3.618   3.979
 5922SOL    HW118665   6.414   3.617   4.048
 5922SOL    HW218666   6.444   3.628   3.888
 5923SOL     OW18667   0.122   0.648   1.466
 5923SOL    HW118668   0.176   0.645   1.550
 5923SOL    HW218669   0.184   0.643   1.387
 5924SOL     OW18670   5.963   6.650   3.148
 5924SOL    HW118671   6.055   6.632   3.184
 5924SOL    HW218672   5.938   6.745   3.166
 5925SOL     OW18673   4.252   6.050   1.891
 5925SOL    HW118674   4.186   6.008   1.829
 5925SOL    HW218675   4.229   6.025   1.985
 5926SOL     OW18676   4.550   4.406   2.574
 5926SOL    HW118677   4.571   4.309   2.581
 5926SOL    HW218678   4.525   4.428   2.479
 5927SOL     OW18679   0.973   3.586   2.026
 5927SOL    HW118680   1.021   3.503   1.996
 5927SOL    HW218681   0.995   3.606   2.121
 5928SOL     OW18682   3.913   6.920   1.688
 5928SOL    HW118683   3.832   6.873   1.722
 5928SOL    HW218684   3.958   6.863   1.619
 5929SOL     OW18685   6.086   1.247   5.569
 5929SOL    HW118686   6.083   1.337   5.526
 5929SOL    HW218687   6.044   1.252   5.659
 5930SOL     OW18688   0.493   2.720   2.486
 5930SOL    HW118689   0.489   2.682   2.393
 5930SOL    HW218690   0.411   2.695   2.536
 5931SOL     OW18691   6.122   5.961   2.497
 5931SOL    HW118692   6.211   5.981   2.539
 5931SOL    HW218693   6.066   6.044   2.497
 5932SOL     OW18694   3.477   0.003   6.557
 5932SOL    HW118695   3.433   6.943   6.578
 5932SOL    HW218696   3.487   0.056   6.641
 5933SOL     OW18697   6.730   5.258   4.130
 5933SOL    HW118698   6.826   5.279   4.113
 5933SOL    HW218699   6.691   5.328   4.190
 5934SOL     OW18700   3.489   3.246   5.767
 5934SOL    HW118701   3.431   3.328   5.763
 5934SOL    HW218702   3.452   3.182   5.835
 5935SOL     OW18703   0.668   6.458   5.195
 5935SOL    HW118704   0.673   6.399   5.114
 5935SOL    HW218705   0.573   6.470   5.222
 5936SOL     OW18706   3.005   3.676   2.556
 5936SOL    HW118707   2.974   3.638   2.469
 5936SOL    HW218708   2.994   3.608   2.629
 5937SOL     OW18709   6.342   3.094   2.350
 5937SOL    HW118710   6.278   3.160   2.310
 5937SOL    HW218711   6.419   3.080   2.288
 5938SOL     OW18712   5.881   5.724   4.825
 5938SOL    HW118713   5.945   5.783   4.774
 5938SOL    HW218714   5.834   5.663   4.762
 5939SOL     OW18715   3.161   6.061   4.388
 5939SOL    HW118716   3.236   5.999   4.364
 5939SOL    HW218717   3.123   6.036   4.477
 5940SOL     OW18718   4.089   5.077   3.486
 5940SOL    HW118719   4.079   4.980   3.507
 5940SOL    HW218720   4.185   5.103   3.493
 5941SOL     OW18721   5.851   2.648   3.489
 5941SOL    HW118722   5.863   2.748   3.490
 5941SOL    HW218723   5.779   2.623   3.554
 5942SOL     OW18724   5.539   3.199   6.521
 5942SOL    HW118725   5.557   3.233   6.614
 5942SOL    HW218726   5.610   3.133   6.496
 5943SOL     OW18727   3.852   3.586   6.720
 5943SOL    HW118728   3.864   3.491   6.692
 5943SOL    HW218729   3.805   3.589   6.808
 5944SOL     OW18730   0.730   2.719   0.181
 5944SOL    HW118731   0.708   2.672   0.096
 5944SOL    HW218732   0.807   2.673   0.225
 5945SOL     OW18733   0.304   6.061   5.380
 5945SOL    HW118734   0.395   6.021   5.383
 5945SOL    HW218735   0.286   6.108   5.467
 5946SOL     OW18736   3.017   4.419   0.148
 5946SOL    HW118737   3.018   4.319   0.137
 5946SOL    HW218738   3.110   4.454   0.136
 5947SOL     OW18739   2.981   3.377   3.959
 5947SOL    HW118740   2.917   3.452   3.939
 5947SOL    HW218741   2.984   3.362   4.058
 5948SOL     OW18742   4.384   4.779   2.313
 5948SOL    HW118743   4.412   4.861   2.264
 5948SOL    HW218744   4.292   4.753   2.285
 5949SOL     OW18745   4.651   5.819   0.758
 5949SOL    HW118746   4.659   5.767   0.673
 5949SOL    HW218747   4.687   5.911   0.744
 5950SOL     OW18748   4.807   2.541   5.358
 5950SOL    HW118749   4.802   2.629   5.310
 5950SOL    HW218750   4.780   2.468   5.296
 5951SOL     OW18751   0.885   5.799   4.760
 5951SOL    HW118752   0.947   5.744   4.704
 5951SOL    HW218753   0.804   5.744   4.783
 5952SOL     OW18754   4.332   5.306   3.142
 5952SOL    HW118755   4.318   5.207   3.144
 5952SOL    HW218756   4.254   5.351   3.187
 5953SOL     OW18757   6.742   4.525   5.007
 5953SOL    HW118758   6.721   4.438   4.963
 5953SOL    HW218759   6.831   4.521   5.051
 5954SOL     OW18760   0.240   5.616   5.737
 5954SOL    HW118761   0.241   5.576   5.646
 5954SOL    HW218762   0.150   5.598   5.779
 5955SOL     OW18763   4.573   5.378   1.408
 5955SOL    HW118764   4.587   5.383   1.310
 5955SOL    HW218765   4.655   5.342   1.453
 5956SOL     OW18766   5.679   1.465   3.893
 5956SOL    HW118767   5.610   1.520   3.846
 5956SOL    HW218768   5.770   1.506   3.877
 5957SOL     OW18769   2.670   1.788   3.963
 5957SOL    HW118770   2.733   1.735   3.908
 5957SOL    HW218771   2.598   1.729   3.999
 5958SOL     OW18772   4.516   0.630   3.130
 5958SOL    HW118773   4.555   0.559   3.071
 5958SOL    HW218774   4.439   0.674   3.084
 5959SOL     OW18775   4.287   2.561   5.573
 5959SOL    HW118776   4.351   2.552   5.497
 5959SOL    HW218777   4.247   2.653   5.573
 5960SOL     OW18778   2.884   6.575   3.942
 5960SOL    HW118779   2.928   6.633   3.874
 5960SOL    HW218780   2.952   6.543   4.008
 5961SOL     OW18781   4.354   1.258   1.789
 5961SOL    HW118782   4.269   1.244   1.841
 5961SOL    HW218783   4.361   1.355   1.764
 5962SOL     OW18784   5.304   5.914   6.036
 5962SOL    HW118785   5.256   6.000   6.053
 5962SOL    HW218786   5.336   5.876   6.123
 5963SOL     OW18787   3.288   3.445   6.909
 5963SOL    HW118788   3.334   3.408   6.829
 5963SOL    HW218789   3.356   3.463   6.981
 5964SOL     OW18790   2.687   0.153   4.062
 5964SOL    HW118791   2.643   0.141   3.973
 5964SOL    HW218792   2.737   0.239   4.064
 5965SOL     OW18793   1.510   0.455   7.027
 5965SOL    HW118794   1.545   0.411   0.082
 5965SOL    HW218795   1.559   0.420   6.948
 5966SOL     OW18796   1.240   6.991   6.074
 5966SOL    HW118797   1.152   0.002   6.099
 5966SOL    HW218798   1.298   0.034   6.033
 5967SOL     OW18799   2.234   0.519   5.547
 5967SOL    HW118800   2.228   0.452   5.621
 5967SOL    HW218801   2.143   0.533   5.508
 5968SOL     OW18802   5.775   2.868   0.429
 5968SOL    HW118803   5.758   2.958   0.389
 5968SOL    HW218804   5.779   2.799   0.356
 5969SOL     OW18805   5.195   1.583   6.383
 5969SOL    HW118806   5.095   1.587   6.392
 5969SOL    HW218807   5.222   1.623   6.296
 5970SOL     OW18808   0.369   4.475   0.697
 5970SOL    HW118809   0.378   4.512   0.789
 5970SOL    HW218810   0.460   4.464   0.656
 5971SOL     OW18811   6.456   0.149   1.512
 5971SOL    HW118812   6.367   0.113   1.539
 5971SOL    HW218813   6.524   0.124   1.581
 5972SOL     OW18814   5.182   5.741   6.298
 5972SOL    HW118815   5.263   5.683   6.287
 5972SOL    HW218816   5.182   5.781   6.390
 5973SOL     OW18817   1.378   3.087   2.898
 5973SOL    HW118818   1.306   3.018   2.902
 5973SOL    HW218819   1.454   3.059   2.957
 5974SOL     OW18820   5.116   0.543   0.337
 5974SOL    HW118821   5.200   0.507   0.378
 5974SOL    HW218822   5.137   0.623   0.281
 5975SOL     OW18823   4.056   6.100   0.970
 5975SOL    HW118824   4.073   6.006   0.939
 5975SOL    HW218825   4.111   6.163   0.916
 5976SOL     OW18826   3.411   3.152   5.465
 5976SOL    HW118827   3.465   3.230   5.499
 5976SOL    HW218828   3.471   3.072   5.457
 5977SOL     OW18829   0.582   5.826   0.316
 5977SOL    HW118830   0.665   5.776   0.338
 5977SOL    HW218831   0.583   5.915   0.361
 5978SOL     OW18832   3.638   5.520   1.108
 5978SOL    HW118833   3.720   5.463   1.120
 5978SOL    HW218834   3.612   5.559   1.196
 5979SOL     OW18835   6.628   0.768   2.024
 5979SOL    HW118836   6.680   0.852   2.043
 5979SOL    HW218837   6.543   0.792   1.976
 5980SOL     OW18838   3.321   2.913   2.062
 5980SOL    HW118839   3.384   2.868   1.999
 5980SOL    HW218840   3.358   2.911   2.154
 5981SOL     OW18841   4.864   1.652   0.445
 5981SOL    HW118842   4.947   1.699   0.476
 5981SOL    HW218843   4.807   1.717   0.393
 5982SOL     OW18844   6.102   2.200   2.646
 5982SOL    HW118845   6.143   2.135   2.582
 5982SOL    HW218846   6.011   2.226   2.613
 5983SOL     OW18847   1.292   0.813   4.092
 5983SOL    HW118848   1.239   0.892   4.060
 5983SOL    HW218849   1.243   0.768   4.167
 5984SOL     OW18850   5.614   6.602   3.667
 5984SOL    HW118851   5.669   6.519   3.666
 5984SOL    HW218852   5.645   6.665   3.596
 5985SOL     OW18853   6.334   2.543   3.800
 5985SOL    HW118854   6.305   2.639   3.805
 5985SOL    HW218855   6.434   2.539   3.801
 5986SOL     OW18856   3.943   4.389   6.169
 5986SOL    HW118857   3.879   4.431   6.106
 5986SOL    HW218858   4.034   4.385   6.127
 5987SOL     OW18859   5.467   0.557   4.818
 5987SOL    HW118860   5.523   0.510   4.886
 5987SOL    HW218861   5.444   0.494   4.745
 5988SOL     OW18862   3.763   0.925   6.710
 5988SOL    HW118863   3.786   1.022   6.708
 5988SOL    HW218864   3.664   0.913   6.699
 5989SOL     OW18865   1.469   5.522   5.356
 5989SOL    HW118866   1.484   5.620   5.369
 5989SOL    HW218867   1.557   5.475   5.353
 5990SOL     OW18868   4.087   4.057   0.740
 5990SOL    HW118869   4.052   4.082   0.831
 5990SOL    HW218870   4.029   4.097   0.670
 5991SOL     OW18871   4.226   6.147   6.933
 5991SOL    HW118872   4.213   6.216   6.862
 5991SOL    HW218873   4.293   6.079   6.901
 5992SOL     OW18874   3.417   6.775   1.958
 5992SOL    HW118875   3.396   6.677   1.967
 5992SOL    HW218876   3.412   6.818   2.048
 5993SOL     OW18877   5.467   4.208   6.328
 5993SOL    HW118878   5.453   4.210   6.229
 5993SOL    HW218879   5.486   4.300   6.361
 5994SOL     OW18880   6.854   2.817   1.251
 5994SOL    HW118881   6.845   2.719   1.269
 5994SOL    HW218882   6.766   2.862   1.268
 5995SOL     OW18883   4.720   2.729   1.888
 5995SOL    HW118884   4.648   2.661   1.907
 5995SOL    HW218885   4.696   2.816   1.931
 5996SOL     OW18886   1.661   5.774   1.609
 5996SOL    HW118887   1.568   5.741   1.595
 5996SOL    HW218888   1.683   5.841   1.538
 5997SOL     OW18889   0.752   6.632   3.302
 5997SOL    HW118890   0.813   6.652   3.378
 5997SOL    HW218891   0.743   6.714   3.245
 5998SOL     OW18892   5.992   0.766   1.757
 5998SOL    HW118893   5.907   0.758   1.705
 5998SOL    HW218894   6.044   0.681   1.751
 5999SOL     OW18895   2.621   3.482   0.920
 5999SOL    HW118896   2.598   3.534   1.002
 5999SOL    HW218897   2.551   3.497   0.850
 6000SOL     OW18898   0.597   6.073   0.400
 6000SOL    HW118899   0.549   6.161   0.405
 6000SOL    HW218900   0.694   6.086   0.421
 6001SOL     OW18901   5.675   4.975   6.897
 6001SOL    HW118902   5.675   5.032   6.815
 6001SOL    HW218903   5.581   4.962   6.928
 6002SOL     OW18904   6.865   6.851   5.713
 6002SOL    HW118905   6.775   6.838   5.755
 6002SOL    HW218906   6.926   6.896   5.778
 6003SOL     OW18907   5.824   2.551   4.435
 6003SOL    HW118908   5.809   2.620   4.505
 6003SOL    HW218909   5.800   2.460   4.472
 6004SOL     OW18910   6.311   2.255   3.898
 6004SOL    HW118911   6.317   2.347   3.857
 6004SOL    HW218912   6.327   2.187   3.827
 6005SOL     OW18913   5.594   4.774   5.031
 6005SOL    HW118914   5.675   4.804   4.980
 6005SOL    HW218915   5.612   4.782   5.129
 6006SOL     OW18916   3.073   0.076   5.232
 6006SOL    HW118917   3.119   0.020   5.163
 6006SOL    HW218918   3.102   0.172   5.222
 6007SOL     OW18919   0.116   3.070   6.362
 6007SOL    HW118920   0.046   3.076   6.433
 6007SOL    HW218921   0.075   3.090   6.273
 6008SOL     OW18922   2.090   4.824   5.008
 6008SOL    HW118923   2.053   4.806   5.099
 6008SOL    HW218924   2.151   4.903   5.011
 6009SOL     OW18925   4.427   5.642   3.384
 6009SOL    HW118926   4.339   5.684   3.404
 6009SOL    HW218927   4.499   5.687   3.436
 6010SOL     OW18928   0.574   4.412   3.651
 6010SOL    HW118929   0.620   4.365   3.727
 6010SOL    HW218930   0.633   4.410   3.570
 6011SOL     OW18931   4.817   3.072   2.639
 6011SOL    HW118932   4.821   3.098   2.736
 6011SOL    HW218933   4.858   3.144   2.583
 6012SOL     OW18934   6.400   0.481   0.097
 6012SOL    HW118935   6.490   0.443   0.077
 6012SOL    HW218936   6.333   0.442   0.034
 6013SOL     OW18937   4.496   1.170   2.760
 6013SOL    HW118938   4.588   1.160   2.723
 6013SOL    HW218939   4.480   1.266   2.785
 6014SOL     OW18940   3.559   4.067   4.461
 6014SOL    HW118941   3.476   4.017   4.486
 6014SOL    HW218942   3.543   4.117   4.376
 6015SOL     OW18943   6.352   3.615   4.454
 6015SOL    HW118944   6.294   3.586   4.531
 6015SOL    HW218945   6.444   3.578   4.465
 6016SOL     OW18946   5.405   1.977   5.478
 6016SOL    HW118947   5.315   1.937   5.463
 6016SOL    HW218948   5.448   1.934   5.557
 6017SOL     OW18949   6.928   4.844   5.079
 6017SOL    HW118950   6.857   4.913   5.093
 6017SOL    HW218951   6.888   4.752   5.089
 6018SOL     OW18952   2.945   1.350   4.855
 6018SOL    HW118953   2.935   1.437   4.904
 6018SOL    HW218954   3.029   1.305   4.884
 6019SOL     OW18955   0.677   3.359   5.285
 6019SOL    HW118956   0.622   3.351   5.368
 6019SOL    HW218957   0.751   3.293   5.287
 6020SOL     OW18958   0.949   5.403   0.829
 6020SOL    HW118959   1.044   5.422   0.803
 6020SOL    HW218960   0.910   5.337   0.766
 6021SOL     OW18961   4.724   0.231   3.120
 6021SOL    HW118962   4.687   0.299   3.182
 6021SOL    HW218963   4.675   0.235   3.033
 6022SOL     OW18964   6.877   1.628   3.260
 6022SOL    HW118965   6.810   1.633   3.185
 6022SOL    HW218966   6.838   1.576   3.336
 6023SOL     OW18967   5.508   0.280   1.485
 6023SOL    HW118968   5.492   0.247   1.392
 6023SOL    HW218969   5.517   0.202   1.546
 6024SOL     OW18970   0.667   4.559   0.821
 6024SOL    HW118971   0.654   4.542   0.723
 6024SOL    HW218972   0.679   4.472   0.869
 6025SOL     OW18973   3.704   1.405   3.835
 6025SOL    HW118974   3.774   1.475   3.842
 6025SOL    HW218975   3.631   1.437   3.774
 6026SOL     OW18976   0.025   5.522   4.908
 6026SOL    HW118977   6.980   5.544   4.972
 6026SOL    HW218978   0.111   5.560   4.940
 6027SOL     OW18979   0.135   3.335   6.177
 6027SOL    HW118980   0.193   3.305   6.252
 6027SOL    HW218981   0.154   3.431   6.156
 6028SOL     OW18982   5.217   4.772   0.907
 6028SOL    HW118983   5.163   4.842   0.861
 6028SOL    HW218984   5.193   4.770   1.004
 6029SOL     OW18985   2.666   0.128   3.785
 6029SOL    HW118986   2.648   0.030   3.774
 6029SOL    HW218987   2.623   0.179   3.711
 6030SOL     OW18988   5.296   3.719   4.787
 6030SOL    HW118989   5.374   3.719   4.724
 6030SOL    HW218990   5.240   3.638   4.771
 6031SOL     OW18991   1.760   5.934   4.094
 6031SOL    HW118992   1.700   6.005   4.130
 6031SOL    HW218993   1.726   5.844   4.122
 6032SOL     OW18994   2.757   5.093   3.003
 6032SOL    HW118995   2.707   5.010   2.976
 6032SOL    HW218996   2.694   5.171   3.003
 6033SOL     OW18997   2.253   2.880   2.620
 6033SOL    HW118998   2.242   2.782   2.606
 6033SOL    HW218999   2.226   2.905   2.713
 6034SOL     OW19000   0.797   0.186   6.242
 6034SOL    HW119001   0.750   0.273   6.256
 6034SOL    HW219002   0.851   0.164   6.323
 6035SOL     OW19003   1.179   0.290   2.639
 6035SOL    HW119004   1.184   0.216   2.707
 6035SOL    HW219005   1.084   0.320   2.630
 6036SOL     OW19006   5.977   5.014   1.464
 6036SOL    HW119007   5.981   5.114   1.463
 6036SOL    HW219008   5.911   4.985   1.534
 6037SOL     OW19009   3.661   0.324   0.545
 6037SOL    HW119010   3.573   0.370   0.547
 6037SOL    HW219011   3.682   0.288   0.636
 6038SOL     OW19012   1.226   2.565   6.677
 6038SOL    HW119013   1.216   2.642   6.615
 6038SOL    HW219014   1.136   2.533   6.705
 6039SOL     OW19015   4.065   3.831   3.389
 6039SOL    HW119016   3.994   3.882   3.438
 6039SOL    HW219017   4.130   3.793   3.455
 6040SOL     OW19018   2.053   1.305   0.126
 6040SOL    HW119019   2.072   1.364   0.205
 6040SOL    HW219020   2.054   1.359   0.042
 6041SOL     OW19021   3.438   2.341   5.312
 6041SOL    HW119022   3.459   2.248   5.341
 6041SOL    HW219023   3.358   2.340   5.252
 6042SOL     OW19024   3.790   6.697   3.076
 6042SOL    HW119025   3.761   6.741   3.161
 6042SOL    HW219026   3.768   6.756   2.999
 6043SOL     OW19027   1.339   0.531   4.331
 6043SOL    HW119028   1.430   0.567   4.312
 6043SOL    HW219029   1.346   0.436   4.361
 6044SOL     OW19030   2.597   2.025   2.212
 6044SOL    HW119031   2.501   2.052   2.216
 6044SOL    HW219032   2.654   2.105   2.233
 6045SOL     OW19033   5.386   3.233   3.896
 6045SOL    HW119034   5.333   3.151   3.873
 6045SOL    HW219035   5.478   3.206   3.923
 6046SOL     OW19036   3.359   3.011   0.713
 6046SOL    HW119037   3.455   2.994   0.736
 6046SOL    HW219038   3.328   3.094   0.760
 6047SOL     OW19039   5.448   2.353   1.203
 6047SOL    HW119040   5.429   2.309   1.116
 6047SOL    HW219041   5.443   2.285   1.277
 6048SOL     OW19042   5.057   5.680   5.077
 6048SOL    HW119043   5.065   5.767   5.028
 6048SOL    HW219044   5.081   5.693   5.173
 6049SOL     OW19045   5.290   4.859   6.162
 6049SOL    HW119046   5.199   4.833   6.194
 6049SOL    HW219047   5.284   4.941   6.106
 6050SOL     OW19048   2.419   5.413   1.043
 6050SOL    HW119049   2.434   5.438   0.948
 6050SOL    HW219050   2.494   5.355   1.075
 6051SOL     OW19051   2.098   6.358   2.855
 6051SOL    HW119052   2.020   6.405   2.814
 6051SOL    HW219053   2.183   6.394   2.816
 6052SOL     OW19054   5.502   1.185   1.747
 6052SOL    HW119055   5.547   1.272   1.769
 6052SOL    HW219056   5.403   1.196   1.756
 6053SOL     OW19057   4.125   0.838   6.267
 6053SOL    HW119058   4.032   0.809   6.244
 6053SOL    HW219059   4.140   0.932   6.234
 6054SOL     OW19060   3.313   4.402   0.617
 6054SOL    HW119061   3.299   4.454   0.533
 6054SOL    HW219062   3.265   4.446   0.692
 6055SOL     OW19063   3.604   5.846   5.943
 6055SOL    HW119064   3.649   5.807   6.024
 6055SOL    HW219065   3.641   5.803   5.861
 6056SOL     OW19066   5.129   3.149   5.087
 6056SOL    HW119067   5.052   3.210   5.069
 6056SOL    HW219068   5.215   3.198   5.068
 6057SOL     OW19069   5.761   0.340   2.163
 6057SOL    HW119070   5.834   0.396   2.125
 6057SOL    HW219071   5.791   0.244   2.166
 6058SOL     OW19072   5.562   3.880   0.401
 6058SOL    HW119073   5.631   3.896   0.330
 6058SOL    HW219074   5.603   3.833   0.478
 6059SOL     OW19075   5.421   4.636   5.435
 6059SOL    HW119076   5.430   4.547   5.391
 6059SOL    HW219077   5.450   4.628   5.531
 6060SOL     OW19078   2.536   3.303   6.971
 6060SOL    HW119079   2.580   3.244   6.904
 6060SOL    HW219080   2.574   3.395   6.964
 6061SOL     OW19081   4.844   4.446   0.849
 6061SOL    HW119082   4.919   4.478   0.791
 6061SOL    HW219083   4.808   4.360   0.812
 6062SOL     OW19084   2.356   1.446   6.897
 6062SOL    HW119085   2.334   1.363   6.949
 6062SOL    HW219086   2.384   1.518   6.959
 6063SOL     OW19087   3.458   3.964   5.951
 6063SOL    HW119088   3.380   4.005   5.997
 6063SOL    HW219089   3.479   4.015   5.867
 6064SOL     OW19090   0.992   0.607   1.359
 6064SOL    HW119091   1.062   0.560   1.306
 6064SOL    HW219092   1.029   0.694   1.394
 6065SOL     OW19093   0.280   5.755   1.790
 6065SOL    HW119094   0.333   5.822   1.738
 6065SOL    HW219095   0.185   5.785   1.797
 6066SOL     OW19096   5.804   0.646   4.938
 6066SOL    HW119097   5.742   0.720   4.964
 6066SOL    HW219098   5.888   0.654   4.991
 6067SOL     OW19099   4.923   1.338   5.342
 6067SOL    HW119100   4.942   1.273   5.416
 6067SOL    HW219101   4.825   1.357   5.337
 6068SOL     OW19102   4.917   2.313   4.215
 6068SOL    HW119103   4.851   2.278   4.148
 6068SOL    HW219104   4.971   2.237   4.251
 6069SOL     OW19105   6.732   4.085   5.449
 6069SOL    HW119106   6.678   4.162   5.416
 6069SOL    HW219107   6.748   4.021   5.373
 6070SOL     OW19108   3.552   2.872   1.277
 6070SOL    HW119109   3.575   2.797   1.339
 6070SOL    HW219110   3.484   2.931   1.321
 6071SOL     OW19111   0.960   5.803   4.372
 6071SOL    HW119112   0.862   5.794   4.386
 6071SOL    HW219113   1.009   5.771   4.453
 6072SOL     OW19114   0.407   0.769   1.887
 6072SOL    HW119115   0.501   0.783   1.854
 6072SOL    HW219116   0.399   0.803   1.980
 6073SOL     OW19117   5.217   2.894   0.843
 6073SOL    HW119118   5.254   2.972   0.792
 6073SOL    HW219119   5.142   2.925   0.901
 6074SOL     OW19120   2.054   6.547   2.050
 6074SOL    HW119121   2.136   6.563   1.994
 6074SOL    HW219122   1.989   6.491   1.999
 6075SOL     OW19123   4.395   0.143   5.164
 6075SOL    HW119124   4.375   0.195   5.246
 6075SOL    HW219125   4.321   0.155   5.097
 6076SOL     OW19126   2.252   5.422   3.535
 6076SOL    HW119127   2.275   5.487   3.607
 6076SOL    HW219128   2.335   5.380   3.500
 6077SOL     OW19129   6.243   6.360   0.979
 6077SOL    HW119130   6.162   6.389   1.029
 6077SOL    HW219131   6.276   6.435   0.921
 6078SOL     OW19132   4.335   4.737   0.547
 6078SOL    HW119133   4.369   4.773   0.460
 6078SOL    HW219134   4.237   4.717   0.539
 6079SOL     OW19135   5.058   4.730   6.311
 6079SOL    HW119136   5.051   4.640   6.354
 6079SOL    HW219137   4.968   4.773   6.308
 6080SOL     OW19138   0.442   5.216   1.201
 6080SOL    HW119139   0.460   5.174   1.290
 6080SOL    HW219140   0.346   5.201   1.176
 6081SOL     OW19141   6.869   2.891   5.096
 6081SOL    HW119142   6.790   2.950   5.080
 6081SOL    HW219143   6.841   2.795   5.085
 6082SOL     OW19144   3.558   6.929   2.472
 6082SOL    HW119145   3.632   6.862   2.478
 6082SOL    HW219146   3.595   7.021   2.485
 6083SOL     OW19147   5.351   5.344   0.623
 6083SOL    HW119148   5.425   5.283   0.653
 6083SOL    HW219149   5.385   5.438   0.620
 6084SOL     OW19150   1.003   6.345   2.337
 6084SOL    HW119151   0.905   6.333   2.358
 6084SOL    HW219152   1.032   6.276   2.272
 6085SOL     OW19153   6.667   5.947   6.698
 6085SOL    HW119154   6.617   5.862   6.714
 6085SOL    HW219155   6.606   6.015   6.657
 6086SOL     OW19156   2.677   2.264   5.856
 6086SOL    HW119157   2.618   2.184   5.864
 6086SOL    HW219158   2.624   2.341   5.821
 6087SOL     OW19159   3.747   5.845   1.015
 6087SOL    HW119160   3.720   5.925   0.962
 6087SOL    HW219161   3.792   5.875   1.100
 6088SOL     OW19162   5.083   6.639   4.974
 6088SOL    HW119163   5.101   6.736   4.988
 6088SOL    HW219164   4.995   6.627   4.927
 6089SOL     OW19165   6.241   2.451   3.510
 6089SOL    HW119166   6.275   2.492   3.595
 6089SOL    HW219167   6.259   2.514   3.434
 6090SOL     OW19168   2.413   5.063   4.717
 6090SOL    HW119169   2.363   5.137   4.763
 6090SOL    HW219170   2.423   4.986   4.781
 6091SOL     OW19171   2.987   1.516   0.430
 6091SOL    HW119172   3.029   1.448   0.372
 6091SOL    HW219173   3.042   1.529   0.513
 6092SOL     OW19174   4.423   1.011   1.896
 6092SOL    HW119175   4.422   1.103   1.859
 6092SOL    HW219176   4.471   1.010   1.983
 6093SOL     OW19177   2.440   2.240   1.897
 6093SOL    HW119178   2.456   2.151   1.939
 6093SOL    HW219179   2.515   2.302   1.919
 6094SOL     OW19180   1.720   6.291   3.279
 6094SOL    HW119181   1.702   6.223   3.351
 6094SOL    HW219182   1.804   6.341   3.301
 6095SOL     OW19183   4.679   4.659   6.431
 6095SOL    HW119184   4.719   4.662   6.522
 6095SOL    HW219185   4.722   4.729   6.373
 6096SOL     OW19186   5.941   0.117   2.174
 6096SOL    HW119187   6.026   0.139   2.126
 6096SOL    HW219188   5.962   0.066   2.257
 6097SOL     OW19189   1.583   5.109   2.131
 6097SOL    HW119190   1.528   5.157   2.062
 6097SOL    HW219191   1.599   5.015   2.102
 6098SOL     OW19192   6.424   1.412   6.206
 6098SOL    HW119193   6.433   1.360   6.291
 6098SOL    HW219194   6.506   1.467   6.191
 6099SOL     OW19195   5.158   5.746   5.417
 6099SOL    HW119196   5.075   5.792   5.388
 6099SOL    HW219197   5.232   5.813   5.426
 6100SOL     OW19198   0.629   6.403   2.035
 6100SOL    HW119199   0.532   6.387   2.016
 6100SOL    HW219200   0.669   6.320   2.074
 6101SOL     OW19201   6.750   3.006   2.878
 6101SOL    HW119202   6.675   3.007   2.812
 6101SOL    HW219203   6.820   2.940   2.848
 6102SOL     OW19204   4.403   5.763   2.636
 6102SOL    HW119205   4.442   5.834   2.696
 6102SOL    HW219206   4.340   5.806   2.571
 6103SOL     OW19207   0.184   0.451   1.185
 6103SOL    HW119208   0.131   0.453   1.269
 6103SOL    HW219209   0.235   0.537   1.175
 6104SOL     OW19210   6.360   6.845   5.237
 6104SOL    HW119211   6.285   6.801   5.287
 6104SOL    HW219212   6.345   6.833   5.139
 6105SOL     OW19213   1.560   5.295   5.735
 6105SOL    HW119214   1.559   5.213   5.792
 6105SOL    HW219215   1.579   5.269   5.640
 6106SOL     OW19216   1.258   4.852   0.194
 6106SOL    HW119217   1.306   4.800   0.123
 6106SOL    HW219218   1.257   4.949   0.170
 6107SOL     OW19219   4.731   5.588   4.774
 6107SOL    HW119220   4.731   5.591   4.874
 6107SOL    HW219221   4.681   5.667   4.738
 6108SOL     OW19222   2.224   2.428   3.321
 6108SOL    HW119223   2.214   2.329   3.315
 6108SOL    HW219224   2.213   2.458   3.416
 6109SOL     OW19225   5.623   0.830   5.007
 6109SOL    HW119226   5.678   0.900   5.052
 6109SOL    HW219227   5.533   0.867   4.987
 6110SOL     OW19228   2.413   2.805   0.705
 6110SOL    HW119229   2.428   2.892   0.659
 6110SOL    HW219230   2.319   2.775   0.693
 6111SOL     OW19231   1.184   3.199   2.312
 6111SOL    HW119232   1.243   3.256   2.368
 6111SOL    HW219233   1.177   3.108   2.351
 6112SOL     OW19234   4.699   0.438   2.593
 6112SOL    HW119235   4.607   0.477   2.589
 6112SOL    HW219236   4.765   0.503   2.555
 6113SOL     OW19237   2.808   2.583   6.698
 6113SOL    HW119238   2.791   2.550   6.791
 6113SOL    HW219239   2.758   2.526   6.633
 6114SOL     OW19240   4.910   3.560   2.553
 6114SOL    HW119241   4.915   3.599   2.461
 6114SOL    HW219242   4.831   3.598   2.602
 6115SOL     OW19243   6.537   0.968   5.029
 6115SOL    HW119244   6.455   1.018   4.999
 6115SOL    HW219245   6.587   0.936   4.949
 6116SOL     OW19246   3.976   1.669   5.754
 6116SOL    HW119247   3.938   1.713   5.834
 6116SOL    HW219248   4.076   1.679   5.755
 6117SOL     OW19249   1.752   2.251   3.123
 6117SOL    HW119250   1.683   2.199   3.072
 6117SOL    HW219251   1.842   2.207   3.110
 6118SOL     OW19252   6.025   1.288   1.396
 6118SOL    HW119253   6.010   1.248   1.306
 6118SOL    HW219254   6.094   1.235   1.445
 6119SOL     OW19255   1.580   3.422   0.380
 6119SOL    HW119256   1.662   3.479   0.369
 6119SOL    HW219257   1.521   3.463   0.450
 6120SOL     OW19258   1.703   6.183   5.366
 6120SOL    HW119259   1.779   6.127   5.333
 6120SOL    HW219260   1.696   6.174   5.465
 6121SOL     OW19261   1.025   3.853   5.798
 6121SOL    HW119262   1.001   3.832   5.703
 6121SOL    HW219263   0.964   3.925   5.833
 6122SOL     OW19264   4.730   5.589   6.632
 6122SOL    HW119265   4.780   5.659   6.682
 6122SOL    HW219266   4.634   5.615   6.623
 6123SOL     OW19267   4.849   6.865   5.614
 6123SOL    HW119268   4.830   6.807   5.693
 6123SOL    HW219269   4.780   6.937   5.608
 6124SOL     OW19270   0.532   6.427   5.996
 6124SOL    HW119271   0.628   6.399   5.988
 6124SOL    HW219272   0.482   6.397   5.915
 6125SOL     OW19273   2.259   4.047   6.723
 6125SOL    HW119274   2.338   4.067   6.781
 6125SOL    HW219275   2.198   4.127   6.721
 6126SOL     OW19276   0.499   1.467   4.888
 6126SOL    HW119277   0.514   1.475   4.987
 6126SOL    HW219278   0.408   1.428   4.872
 6127SOL     OW19279   4.070   0.017   1.941
 6127SOL    HW119280   4.104   7.017   2.031
 6127SOL    HW219281   4.105   6.984   1.871
 6128SOL     OW19282   5.372   5.272   0.361
 6128SOL    HW119283   5.344   5.364   0.334
 6128SOL    HW219284   5.380   5.267   0.461
 6129SOL     OW19285   1.027   3.854   3.604
 6129SOL    HW119286   0.993   3.865   3.697
 6129SOL    HW219287   1.017   3.940   3.555
 6130SOL     OW19288   5.482   2.602   2.990
 6130SOL    HW119289   5.559   2.592   2.927
 6130SOL    HW219290   5.480   2.696   3.025
 6131SOL     OW19291   0.850   1.406   3.397
 6131SOL    HW119292   0.874   1.353   3.478
 6131SOL    HW219293   0.865   1.350   3.315
 6132SOL     OW19294   3.953   1.836   6.679
 6132SOL    HW119295   3.965   1.739   6.658
 6132SOL    HW219296   3.925   1.885   6.596
 6133SOL     OW19297   1.943   3.110   3.172
 6133SOL    HW119298   1.936   3.196   3.121
 6133SOL    HW219299   1.914   3.035   3.114
 6134SOL     OW19300   4.324   6.702   0.159
 6134SOL    HW119301   4.423   6.692   0.167
 6134SOL    HW219302   4.287   6.733   0.246
 6135SOL     OW19303   0.301   5.430   0.960
 6135SOL    HW119304   0.334   5.336   0.960
 6135SOL    HW219305   0.334   5.476   1.043
 6136SOL     OW19306   1.448   2.557   1.657
 6136SOL    HW119307   1.371   2.593   1.604
 6136SOL    HW219308   1.481   2.628   1.719
 6137SOL     OW19309   0.728   4.115   2.353
 6137SOL    HW119310   0.698   4.180   2.282
 6137SOL    HW219311   0.778   4.040   2.311
 6138SOL     OW19312   3.929   6.946   3.445
 6138SOL    HW119313   3.957   0.003   3.489
 6138SOL    HW219314   3.939   6.955   3.346
 6139SOL     OW19315   0.867   6.529   5.644
 6139SOL    HW119316   0.857   6.430   5.637
 6139SOL    HW219317   0.836   6.572   5.559
 6140SOL     OW19318   0.609   0.456   2.475
 6140SOL    HW119319   0.639   0.361   2.475
 6140SOL    HW219320   0.605   0.490   2.381
 6141SOL     OW19321   0.074   0.151   6.171
 6141SOL    HW119322   0.142   0.215   6.135
 6141SOL    HW219323   7.011   0.191   6.161
 6142SOL     OW19324   0.723   5.887   6.494
 6142SOL    HW119325   0.739   5.845   6.405
 6142SOL    HW219326   0.716   5.986   6.484
 6143SOL     OW19327   0.215   4.325   1.076
 6143SOL    HW119328   0.233   4.245   1.020
 6143SOL    HW219329   0.116   4.332   1.094
 6144SOL     OW19330   5.073   5.191   3.672
 6144SOL    HW119331   5.102   5.285   3.690
 6144SOL    HW219332   4.996   5.192   3.609
 6145SOL     OW19333   5.334   4.926   4.001
 6145SOL    HW119334   5.280   4.934   3.917
 6145SOL    HW219335   5.280   4.960   4.079
 6146SOL     OW19336   3.657   6.048   3.367
 6146SOL    HW119337   3.666   6.002   3.279
 6146SOL    HW219338   3.630   6.143   3.353
 6147SOL     OW19339   1.993   2.136   5.049
 6147SOL    HW119340   1.980   2.139   5.148
 6147SOL    HW219341   1.906   2.158   5.004
 6148SOL     OW19342   4.084   5.984   5.791
 6148SOL    HW119343   4.127   5.983   5.700
 6148SOL    HW219344   4.035   5.898   5.805
 6149SOL     OW19345   2.387   0.056   1.684
 6149SOL    HW119346   2.397   0.072   1.586
 6149SOL    HW219347   2.475   0.071   1.730
 6150SOL     OW19348   6.076   3.753   0.008
 6150SOL    HW119349   6.136   3.718   6.964
 6150SOL    HW219350   6.054   3.849   7.017
 6151SOL     OW19351   5.595   5.178   4.928
 6151SOL    HW119352   5.621   5.157   4.834
 6151SOL    HW219353   5.514   5.124   4.953
 6152SOL     OW19354   0.516   5.220   4.762
 6152SOL    HW119355   0.423   5.205   4.795
 6152SOL    HW219356   0.563   5.132   4.756
 6153SOL     OW19357   5.366   5.042   1.191
 6153SOL    HW119358   5.404   4.958   1.153
 6153SOL    HW219359   5.401   5.056   1.284
 6154SOL     OW19360   5.622   3.104   2.803
 6154SOL    HW119361   5.589   3.197   2.816
 6154SOL    HW219362   5.718   3.098   2.832
 6155SOL     OW19363   2.945   1.183   2.848
 6155SOL    HW119364   2.956   1.218   2.756
 6155SOL    HW219365   3.013   1.223   2.909
 6156SOL     OW19366   4.300   5.330   1.327
 6156SOL    HW119367   4.235   5.354   1.399
 6156SOL    HW219368   4.393   5.332   1.364
 6157SOL     OW19369   0.789   2.189   3.169
 6157SOL    HW119370   0.784   2.257   3.096
 6157SOL    HW219371   0.778   2.235   3.257
 6158SOL     OW19372   3.754   2.403   0.257
 6158SOL    HW119373   3.819   2.449   0.317
 6158SOL    HW219374   3.702   2.471   0.206
 6159SOL     OW19375   4.723   2.443   0.758
 6159SOL    HW119376   4.639   2.389   0.751
 6159SOL    HW219377   4.731   2.479   0.851
 6160SOL     OW19378   6.400   6.618   6.585
 6160SOL    HW119379   6.461   6.695   6.567
 6160SOL    HW219380   6.306   6.650   6.589
 6161SOL     OW19381   5.412   1.115   0.181
 6161SOL    HW119382   5.502   1.072   0.194
 6161SOL    HW219383   5.375   1.143   0.269
 6162SOL     OW19384   5.976   6.233   3.806
 6162SOL    HW119385   5.983   6.134   3.798
 6162SOL    HW219386   6.014   6.276   3.724
 6163SOL     OW19387   5.450   5.580   2.356
 6163SOL    HW119388   5.492   5.522   2.426
 6163SOL    HW219389   5.351   5.574   2.363
 6164SOL     OW19390   3.590   4.214   5.028
 6164SOL    HW119391   3.680   4.180   5.000
 6164SOL    HW219392   3.591   4.232   5.127
 6165SOL     OW19393   4.167   1.854   6.068
 6165SOL    HW119394   4.162   1.782   6.138
 6165SOL    HW219395   4.084   1.853   6.013
 6166SOL     OW19396   5.867   1.669   0.509
 6166SOL    HW119397   5.812   1.665   0.426
 6166SOL    HW219398   5.830   1.739   0.570
 6167SOL     OW19399   0.776   4.649   3.262
 6167SOL    HW119400   0.856   4.666   3.319
 6167SOL    HW219401   0.731   4.736   3.240
 6168SOL     OW19402   0.419   3.111   3.165
 6168SOL    HW119403   0.498   3.094   3.224
 6168SOL    HW219404   0.374   3.196   3.193
 6169SOL     OW19405   1.289   1.712   7.025
 6169SOL    HW119406   1.338   1.796   0.020
 6169SOL    HW219407   1.247   1.675   0.079
 6170SOL     OW19408   3.303   4.398   5.364
 6170SOL    HW119409   3.322   4.312   5.317
 6170SOL    HW219410   3.358   4.471   5.323
 6171SOL     OW19411   1.383   3.431   1.077
 6171SOL    HW119412   1.353   3.518   1.117
 6171SOL    HW219413   1.385   3.360   1.147
 6172SOL     OW19414   1.129   0.787   2.971
 6172SOL    HW119415   1.135   0.886   2.983
 6172SOL    HW219416   1.046   0.753   3.014
 6173SOL     OW19417   6.797   4.720   2.441
 6173SOL    HW119418   6.776   4.818   2.444
 6173SOL    HW219419   6.845   4.694   2.525
 6174SOL     OW19420   6.204   5.169   2.993
 6174SOL    HW119421   6.200   5.069   2.989
 6174SOL    HW219422   6.114   5.204   3.022
 6175SOL     OW19423   5.093   0.307   3.847
 6175SOL    HW119424   5.185   0.309   3.886
 6175SOL    HW219425   5.078   0.220   3.800
 6176SOL     OW19426   6.579   2.990   0.468
 6176SOL    HW119427   6.672   3.028   0.474
 6176SOL    HW219428   6.527   3.040   0.398
 6177SOL     OW19429   6.191   1.471   1.115
 6177SOL    HW119430   6.215   1.444   1.022
 6177SOL    HW219431   6.231   1.407   1.180
 6178SOL     OW19432   4.614   5.190   2.075
 6178SOL    HW119433   4.599   5.288   2.087
 6178SOL    HW219434   4.708   5.174   2.043
 6179SOL     OW19435   6.657   4.607   4.433
 6179SOL    HW119436   6.663   4.662   4.350
 6179SOL    HW219437   6.747   4.569   4.455
 6180SOL     OW19438   3.500   6.356   6.330
 6180SOL    HW119439   3.582   6.315   6.371
 6180SOL    HW219440   3.477   6.306   6.247
 6181SOL     OW19441   4.547   6.514   1.188
 6181SOL    HW119442   4.532   6.585   1.257
 6181SOL    HW219443   4.498   6.431   1.213
 6182SOL     OW19444   5.355   3.463   5.326
 6182SOL    HW119445   5.415   3.384   5.319
 6182SOL    HW219446   5.289   3.448   5.400
 6183SOL     OW19447   2.856   0.060   2.850
 6183SOL    HW119448   2.803   7.004   2.853
 6183SOL    HW219449   2.953   0.040   2.865
 6184SOL     OW19450   2.124   0.019   6.101
 6184SOL    HW119451   2.058   0.084   6.139
 6184SOL    HW219452   2.111   6.958   6.144
 6185SOL     OW19453   0.938   5.043   6.311
 6185SOL    HW119454   1.009   5.088   6.258
 6185SOL    HW219455   0.880   5.112   6.355
 6186SOL     OW19456   5.841   0.092   4.571
 6186SOL    HW119457   5.853   0.150   4.652
 6186SOL    HW219458   5.771   0.132   4.511
 6187SOL     OW19459   4.423   4.567   4.457
 6187SOL    HW119460   4.385   4.584   4.547
 6187SOL    HW219461   4.456   4.653   4.417
 6188SOL     OW19462   2.109   6.601   0.951
 6188SOL    HW119463   2.071   6.579   1.041
 6188SOL    HW219464   2.101   6.522   0.891
 6189SOL     OW19465   4.552   4.429   4.104
 6189SOL    HW119466   4.568   4.526   4.086
 6189SOL    HW219467   4.557   4.412   4.202
 6190SOL     OW19468   6.422   3.458   6.405
 6190SOL    HW119469   6.376   3.503   6.328
 6190SOL    HW219470   6.459   3.528   6.466
 6191SOL     OW19471   4.414   3.074   0.302
 6191SOL    HW119472   4.460   2.993   0.338
 6191SOL    HW219473   4.321   3.079   0.339
 6192SOL     OW19474   2.950   3.186   0.156
 6192SOL    HW119475   3.002   3.225   0.080
 6192SOL    HW219476   2.949   3.251   0.232
 6193SOL     OW19477   5.155   1.150   2.702
 6193SOL    HW119478   5.157   1.050   2.696
 6193SOL    HW219479   5.098   1.186   2.628
 6194SOL     OW19480   1.097   6.592   6.981
 6194SOL    HW119481   1.087   6.661   0.025
 6194SOL    HW219482   1.194   6.569   6.972
 6195SOL     OW19483   3.689   5.729   5.689
 6195SOL    HW119484   3.647   5.648   5.732
 6195SOL    HW219485   3.682   5.722   5.590
 6196SOL     OW19486   5.831   2.200   1.201
 6196SOL    HW119487   5.890   2.130   1.242
 6196SOL    HW219488   5.778   2.160   1.126
 6197SOL     OW19489   4.123   3.976   0.324
 6197SOL    HW119490   4.158   4.020   0.241
 6197SOL    HW219491   4.184   3.997   0.400
 6198SOL     OW19492   3.147   5.200   2.390
 6198SOL    HW119493   3.163   5.102   2.401
 6198SOL    HW219494   3.235   5.247   2.379
 6199SOL     OW19495   0.757   0.008   0.974
 6199SOL    HW119496   0.789   0.103   0.978
 6199SOL    HW219497   0.770   7.001   0.881
 6200SOL     OW19498   1.989   0.564   5.438
 6200SOL    HW119499   1.977   0.661   5.417
 6200SOL    HW219500   1.961   0.509   5.359
 6201SOL     OW19501   1.831   3.929   5.486
 6201SOL    HW119502   1.926   3.922   5.516
 6201SOL    HW219503   1.809   3.849   5.430
 6202SOL     OW19504   4.219   1.986   1.397
 6202SOL    HW119505   4.163   1.922   1.451
 6202SOL    HW219506   4.203   2.079   1.429
 6203SOL     OW19507   5.700   6.598   3.200
 6203SOL    HW119508   5.797   6.614   3.182
 6203SOL    HW219509   5.652   6.581   3.113
 6204SOL     OW19510   0.586   4.992   5.138
 6204SOL    HW119511   0.598   5.091   5.134
 6204SOL    HW219512   0.536   4.967   5.220
 6205SOL     OW19513   5.613   6.359   0.334
 6205SOL    HW119514   5.636   6.262   0.338
 6205SOL    HW219515   5.619   6.392   0.240
 6206SOL     OW19516   6.185   0.629   2.713
 6206SOL    HW119517   6.151   0.574   2.789
 6206SOL    HW219518   6.237   0.707   2.748
 6207SOL     OW19519   1.607   4.155   4.319
 6207SOL    HW119520   1.581   4.117   4.230
 6207SOL    HW219521   1.582   4.091   4.392
 6208SOL     OW19522   6.326   1.593   6.727
 6208SOL    HW119523   6.305   1.652   6.650
 6208SOL    HW219524   6.334   1.648   6.810
 6209SOL     OW19525   4.603   5.679   6.966
 6209SOL    HW119526   4.523   5.654   6.911
 6209SOL    HW219527   4.673   5.719   6.906
 6210SOL     OW19528   5.956   4.695   3.709
 6210SOL    HW119529   5.919   4.637   3.781
 6210SOL    HW219530   5.974   4.786   3.746
 6211SOL     OW19531   2.887   6.539   4.393
 6211SOL    HW119532   2.800   6.502   4.361
 6211SOL    HW219533   2.886   6.639   4.386
 6212SOL     OW19534   2.266   5.185   3.163
 6212SOL    HW119535   2.202   5.157   3.234
 6212SOL    HW219536   2.310   5.104   3.125
 6213SOL     OW19537   4.947   0.300   6.900
 6213SOL    HW119538   4.853   0.320   6.872
 6213SOL    HW219539   4.964   0.341   6.989
 6214SOL     OW19540   4.298   4.646   3.332
 6214SOL    HW119541   4.346   4.567   3.370
 6214SOL    HW219542   4.223   4.615   3.274
 6215SOL     OW19543   3.996   2.227   6.961
 6215SOL    HW119544   4.014   2.319   6.993
 6215SOL    HW219545   3.926   2.229   6.889
 6216SOL     OW19546   6.398   2.197   2.230
 6216SOL    HW119547   6.497   2.183   2.230
 6216SOL    HW219548   6.376   2.282   2.276
 6217SOL     OW19549   0.130   2.656   2.918
 6217SOL    HW119550   0.066   2.633   2.991
 6217SOL    HW219551   0.088   2.721   2.855
 6218SOL     OW19552   3.012   5.089   5.395
 6218SOL    HW119553   3.104   5.073   5.431
 6218SOL    HW219554   3.017   5.107   5.297
 6219SOL     OW19555   1.242   2.229   4.411
 6219SOL    HW119556   1.304   2.269   4.478
 6219SOL    HW219557   1.169   2.179   4.457
 6220SOL     OW19558   1.611   3.134   5.263
 6220SOL    HW119559   1.660   3.204   5.209
 6220SOL    HW219560   1.644   3.136   5.357
 6221SOL     OW19561   6.253   5.784   6.756
 6221SOL    HW119562   6.325   5.823   6.813
 6221SOL    HW219563   6.281   5.787   6.660
 6222SOL     OW19564   1.181   6.255   1.120
 6222SOL    HW119565   1.185   6.269   1.219
 6222SOL    HW219566   1.140   6.167   1.101
 6223SOL     OW19567   0.211   4.692   4.794
 6223SOL    HW119568   0.265   4.668   4.874
 6223SOL    HW219569   0.180   4.787   4.802
 6224SOL     OW19570   2.635   2.361   6.221
 6224SOL    HW119571   2.632   2.345   6.122
 6224SOL    HW219572   2.657   2.275   6.267
 6225SOL     OW19573   3.166   3.252   1.395
 6225SOL    HW119574   3.081   3.270   1.444
 6225SOL    HW219575   3.167   3.302   1.309
 6226SOL     OW19576   5.569   1.798   5.116
 6226SOL    HW119577   5.632   1.871   5.091
 6226SOL    HW219578   5.481   1.813   5.071
 6227SOL     OW19579   3.598   5.508   5.879
 6227SOL    HW119580   3.551   5.440   5.823
 6227SOL    HW219581   3.542   5.529   5.960
 6228SOL     OW19582   0.410   2.750   2.823
 6228SOL    HW119583   0.486   2.685   2.830
 6228SOL    HW219584   0.427   2.828   2.882
 6229SOL     OW19585   0.658   2.918   2.594
 6229SOL    HW119586   0.612   2.994   2.639
 6229SOL    HW219587   0.590   2.856   2.555
 6230SOL     OW19588   1.433   1.256   3.921
 6230SOL    HW119589   1.338   1.284   3.934
 6230SOL    HW219590   1.445   1.163   3.956
 6231SOL     OW19591   6.841   4.812   1.550
 6231SOL    HW119592   6.928   4.766   1.537
 6231SOL    HW219593   6.781   4.755   1.607
 6232SOL     OW19594   5.967   1.655   1.043
 6232SOL    HW119595   5.903   1.672   1.118
 6232SOL    HW219596   6.038   1.593   1.073
 6233SOL     OW19597   6.055   0.819   0.138
 6233SOL    HW119598   6.074   0.760   0.060
 6233SOL    HW219599   6.023   0.908   0.106
 6234SOL     OW19600   6.686   1.664   5.743
 6234SOL    HW119601   6.653   1.590   5.803
 6234SOL    HW219602   6.613   1.731   5.730
 6235SOL     OW19603   1.429   0.190   1.814
 6235SOL    HW119604   1.397   0.218   1.723
 6235SOL    HW219605   1.403   0.260   1.881
 6236SOL     OW19606   0.724   4.237   0.694
 6236SOL    HW119607   0.803   4.178   0.716
 6236SOL    HW219608   0.731   4.268   0.600
 6237SOL     OW19609   3.520   6.000   6.436
 6237SOL    HW119610   3.607   6.043   6.459
 6237SOL    HW219611   3.445   6.065   6.452
 6238SOL     OW19612   3.792   4.870   3.193
 6238SOL    HW119613   3.810   4.965   3.168
 6238SOL    HW219614   3.708   4.866   3.248
 6239SOL     OW19615   3.290   6.171   1.966
 6239SOL    HW119616   3.377   6.188   2.012
 6239SOL    HW219617   3.294   6.207   1.873
 6240SOL     OW19618   2.986   3.000   6.732
 6240SOL    HW119619   2.948   2.970   6.645
 6240SOL    HW219620   2.952   2.941   6.806
 6241SOL     OW19621   3.142   7.003   1.530
 6241SOL    HW119622   3.208   0.048   1.545
 6241SOL    HW219623   3.182   6.934   1.469
 6242SOL     OW19624   5.438   0.803   3.715
 6242SOL    HW119625   5.476   0.893   3.696
 6242SOL    HW219626   5.377   0.808   3.795
 6243SOL     OW19627   5.915   6.557   3.750
 6243SOL    HW119628   5.983   6.629   3.764
 6243SOL    HW219629   5.957   6.481   3.700
 6244SOL     OW19630   1.148   2.368   2.320
 6244SOL    HW119631   1.129   2.342   2.225
 6244SOL    HW219632   1.220   2.310   2.357
 6245SOL     OW19633   1.838   4.146   0.328
 6245SOL    HW119634   1.906   4.199   0.276
 6245SOL    HW219635   1.834   4.180   0.422
 6246SOL     OW19636   2.008   2.812   5.729
 6246SOL    HW119637   2.071   2.857   5.791
 6246SOL    HW219638   1.980   2.876   5.657
 6247SOL     OW19639   1.327   6.777   3.726
 6247SOL    HW119640   1.235   6.809   3.748
 6247SOL    HW219641   1.388   6.856   3.716
 6248SOL     OW19642   2.762   4.232   0.534
 6248SOL    HW119643   2.721   4.174   0.605
 6248SOL    HW219644   2.742   4.327   0.554
 6249SOL     OW19645   0.609   4.111   0.368
 6249SOL    HW119646   0.653   4.201   0.375
 6249SOL    HW219647   0.566   4.102   0.279
 6250SOL     OW19648   0.114   5.873   0.424
 6250SOL    HW119649   0.072   5.954   0.465
 6250SOL    HW219650   0.046   5.825   0.368
 6251SOL     OW19651   3.777   5.696   0.044
 6251SOL    HW119652   3.705   5.646   0.093
 6251SOL    HW219653   3.853   5.715   0.107
 6252SOL     OW19654   1.430   6.764   6.078
 6252SOL    HW119655   1.373   6.845   6.061
 6252SOL    HW219656   1.374   6.691   6.118
 6253SOL     OW19657   2.225   3.911   2.494
 6253SOL    HW119658   2.171   3.846   2.439
 6253SOL    HW219659   2.286   3.963   2.434
 6254SOL     OW19660   4.880   0.961   0.348
 6254SOL    HW119661   4.802   0.951   0.410
 6254SOL    HW219662   4.889   1.057   0.321
 6255SOL     OW19663   2.676   0.586   1.225
 6255SOL    HW119664   2.733   0.586   1.143
 6255SOL    HW219665   2.608   0.659   1.219
 6256SOL     OW19666   3.326   5.331   3.033
 6256SOL    HW119667   3.299   5.322   3.129
 6256SOL    HW219668   3.332   5.240   2.991
 6257SOL     OW19669   4.980   2.539   0.799
 6257SOL    HW119670   4.886   2.541   0.763
 6257SOL    HW219671   5.040   2.593   0.739
 6258SOL     OW19672   4.453   0.118   3.690
 6258SOL    HW119673   4.457   0.170   3.775
 6258SOL    HW219674   4.545   0.107   3.653
 6259SOL     OW19675   3.004   2.540   0.856
 6259SOL    HW119676   2.951   2.625   0.858
 6259SOL    HW219677   3.070   2.541   0.931
 6260SOL     OW19678   2.902   5.506   0.237
 6260SOL    HW119679   2.871   5.502   0.332
 6260SOL    HW219680   2.981   5.446   0.225
 6261SOL     OW19681   3.912   0.214   6.873
 6261SOL    HW119682   3.845   0.232   6.801
 6261SOL    HW219683   3.884   0.260   6.958
 6262SOL     OW19684   1.366   4.819   0.929
 6262SOL    HW119685   1.319   4.839   0.843
 6262SOL    HW219686   1.359   4.721   0.949
 6263SOL     OW19687   0.168   0.541   5.634
 6263SOL    HW119688   0.114   0.475   5.581
 6263SOL    HW219689   0.252   0.562   5.584
 6264SOL     OW19690   1.085   0.339   1.541
 6264SOL    HW119691   1.086   0.306   1.447
 6264SOL    HW219692   1.130   0.273   1.600
 6265SOL     OW19693   2.895   4.512   0.595
 6265SOL    HW119694   2.902   4.597   0.647
 6265SOL    HW219695   2.908   4.434   0.657
 6266SOL     OW19696   3.836   0.548   4.607
 6266SOL    HW119697   3.928   0.514   4.625
 6266SOL    HW219698   3.795   0.496   4.533
 6267SOL     OW19699   2.587   0.619   6.746
 6267SOL    HW119700   2.534   0.703   6.738
 6267SOL    HW219701   2.683   0.642   6.762
 6268SOL     OW19702   3.546   6.314   2.957
 6268SOL    HW119703   3.587   6.358   3.037
 6268SOL    HW219704   3.452   6.286   2.978
 6269SOL     OW19705   6.548   5.329   1.511
 6269SOL    HW119706   6.608   5.250   1.518
 6269SOL    HW219707   6.564   5.390   1.589
 6270SOL     OW19708   1.648   0.409   5.530
 6270SOL    HW119709   1.652   0.309   5.534
 6270SOL    HW219710   1.718   0.448   5.590
 6271SOL     OW19711   5.581   2.773   5.872
 6271SOL    HW119712   5.506   2.746   5.934
 6271SOL    HW219713   5.543   2.798   5.783
 6272SOL     OW19714   0.865   2.460   6.461
 6272SOL    HW119715   0.900   2.464   6.555
 6272SOL    HW219716   0.881   2.369   6.423
 6273SOL     OW19717   2.152   0.060   2.963
 6273SOL    HW119718   2.243   0.046   2.926
 6273SOL    HW219719   2.087   0.001   2.915
 6274SOL     OW19720   2.197   5.384   6.166
 6274SOL    HW119721   2.158   5.306   6.215
 6274SOL    HW219722   2.296   5.374   6.161
 6275SOL     OW19723   1.992   5.940   4.681
 6275SOL    HW119724   1.948   5.878   4.616
 6275SOL    HW219725   2.080   5.971   4.644
 6276SOL     OW19726   2.085   5.021   3.312
 6276SOL    HW119727   2.074   4.923   3.330
 6276SOL    HW219728   2.018   5.072   3.366
 6277SOL     OW19729   5.523   3.530   1.836
 6277SOL    HW119730   5.547   3.450   1.891
 6277SOL    HW219731   5.603   3.561   1.784
 6278SOL     OW19732   4.891   0.076   4.501
 6278SOL    HW119733   4.907   0.164   4.457
 6278SOL    HW219734   4.793   0.066   4.522
 6279SOL     OW19735   3.443   1.004   6.716
 6279SOL    HW119736   3.473   0.931   6.656
 6279SOL    HW219737   3.442   0.972   6.810
 6280SOL     OW19738   1.123   2.350   5.128
 6280SOL    HW119739   1.105   2.367   5.225
 6280SOL    HW219740   1.215   2.312   5.118
 6281SOL     OW19741   1.890   4.862   3.929
 6281SOL    HW119742   1.884   4.880   3.831
 6281SOL    HW219743   1.983   4.833   3.952
 6282SOL     OW19744   1.319   0.318   4.817
 6282SOL    HW119745   1.229   0.297   4.779
 6282SOL    HW219746   1.345   0.246   4.882
 6283SOL     OW19747   6.791   3.320   5.949
 6283SOL    HW119748   6.838   3.303   5.862
 6283SOL    HW219749   6.829   3.261   6.020
 6284SOL     OW19750   2.147   5.592   4.602
 6284SOL    HW119751   2.137   5.639   4.690
 6284SOL    HW219752   2.067   5.612   4.545
 6285SOL     OW19753   0.818   2.839   3.762
 6285SOL    HW119754   0.806   2.775   3.686
 6285SOL    HW219755   0.752   2.913   3.754
 6286SOL     OW19756   6.672   1.786   3.953
 6286SOL    HW119757   6.614   1.848   3.901
 6286SOL    HW219758   6.741   1.745   3.892
 6287SOL     OW19759   3.670   4.924   3.816
 6287SOL    HW119760   3.577   4.898   3.839
 6287SOL    HW219761   3.669   4.984   3.735
 6288SOL     OW19762   5.556   4.826   2.897
 6288SOL    HW119763   5.501   4.804   2.816
 6288SOL    HW219764   5.638   4.769   2.898
 6289SOL     OW19765   1.272   4.960   2.191
 6289SOL    HW119766   1.347   5.024   2.208
 6289SOL    HW219767   1.188   4.997   2.230
 6290SOL     OW19768   6.035   3.364   4.147
 6290SOL    HW119769   6.081   3.449   4.121
 6290SOL    HW219770   5.976   3.382   4.226
 6291SOL     OW19771   3.486   2.935   4.413
 6291SOL    HW119772   3.552   2.895   4.476
 6291SOL    HW219773   3.504   3.033   4.403
 6292SOL     OW19774   1.540   2.011   3.677
 6292SOL    HW119775   1.589   2.005   3.764
 6292SOL    HW219776   1.443   2.026   3.694
 6293SOL     OW19777   3.614   0.780   0.291
 6293SOL    HW119778   3.681   0.725   0.341
 6293SOL    HW219779   3.525   0.774   0.337
 6294SOL     OW19780   3.844   4.910   4.057
 6294SOL    HW119781   3.928   4.857   4.045
 6294SOL    HW219782   3.812   4.943   3.968
 6295SOL     OW19783   5.577   5.044   5.540
 6295SOL    HW119784   5.630   5.067   5.621
 6295SOL    HW219785   5.479   5.045   5.562
 6296SOL     OW19786   0.120   6.887   4.916
 6296SOL    HW119787   0.075   6.887   4.827
 6296SOL    HW219788   0.061   6.930   4.984
 6297SOL     OW19789   4.552   6.994   4.985
 6297SOL    HW119790   4.498   0.036   5.031
 6297SOL    HW219791   4.575   7.025   4.892
 6298SOL     OW19792   1.230   2.468   5.953
 6298SOL    HW119793   1.191   2.542   5.898
 6298SOL    HW219794   1.316   2.498   5.994
 6299SOL     OW19795   5.221   1.397   0.455
 6299SOL    HW119796   5.227   1.369   0.551
 6299SOL    HW219797   5.164   1.331   0.405
 6300SOL     OW19798   5.153   0.373   6.711
 6300SOL    HW119799   5.143   0.291   6.655
 6300SOL    HW219800   5.081   0.375   6.780
 6301SOL     OW19801   3.103   0.636   0.804
 6301SOL    HW119802   3.033   0.659   0.871
 6301SOL    HW219803   3.064   0.644   0.712
 6302SOL     OW19804   1.822   1.611   4.016
 6302SOL    HW119805   1.737   1.561   4.030
 6302SOL    HW219806   1.845   1.611   3.918
 6303SOL     OW19807   2.100   1.040   4.620
 6303SOL    HW119808   2.038   1.067   4.694
 6303SOL    HW219809   2.151   1.120   4.588
 6304SOL     OW19810   2.522   1.104   1.162
 6304SOL    HW119811   2.618   1.126   1.149
 6304SOL    HW219812   2.504   1.012   1.127
 6305SOL     OW19813   6.120   0.018   1.839
 6305SOL    HW119814   6.195   6.981   1.853
 6305SOL    HW219815   6.134   0.098   1.897
 6306SOL     OW19816   1.043   3.582   4.351
 6306SOL    HW119817   0.970   3.647   4.330
 6306SOL    HW219818   1.132   3.626   4.336
 6307SOL     OW19819   4.134   4.537   5.972
 6307SOL    HW119820   4.183   4.455   6.002
 6307SOL    HW219821   4.175   4.617   6.015
 6308SOL     OW19822   1.758   1.740   4.869
 6308SOL    HW119823   1.793   1.674   4.803
 6308SOL    HW219824   1.768   1.832   4.832
 6309SOL     OW19825   5.092   4.020   4.358
 6309SOL    HW119826   5.081   4.056   4.451
 6309SOL    HW219827   5.189   4.002   4.341
 6310SOL     OW19828   2.210   5.626   3.299
 6310SOL    HW119829   2.274   5.625   3.377
 6310SOL    HW219830   2.194   5.720   3.269
 6311SOL     OW19831   5.147   0.328   5.435
 6311SOL    HW119832   5.214   0.254   5.436
 6311SOL    HW219833   5.149   0.376   5.522
 6312SOL     OW19834   5.960   5.026   5.946
 6312SOL    HW119835   6.055   4.999   5.962
 6312SOL    HW219836   5.936   5.102   6.005
 6313SOL     OW19837   1.297   6.222   3.393
 6313SOL    HW119838   1.356   6.303   3.390
 6313SOL    HW219839   1.346   6.147   3.437
 6314SOL     OW19840   4.297   6.529   1.433
 6314SOL    HW119841   4.264   6.498   1.523
 6314SOL    HW219842   4.370   6.468   1.403
 6315SOL     OW19843   3.579   3.096   6.226
 6315SOL    HW119844   3.623   3.045   6.152
 6315SOL    HW219845   3.508   3.039   6.268
 6316SOL     OW19846   4.553   1.945   6.616
 6316SOL    HW119847   4.496   1.863   6.618
 6316SOL    HW219848   4.614   1.945   6.695
 6317SOL     OW19849   5.115   5.490   2.650
 6317SOL    HW119850   5.030   5.460   2.606
 6317SOL    HW219851   5.098   5.514   2.745
 6318SOL     OW19852   2.815   2.311   4.544
 6318SOL    HW119853   2.883   2.305   4.471
 6318SOL    HW219854   2.853   2.272   4.628
 6319SOL     OW19855   0.069   2.117   3.991
 6319SOL    HW119856   7.002   2.087   3.997
 6319SOL    HW219857   0.088   2.182   4.065
 6320SOL     OW19858   5.851   5.430   4.936
 6320SOL    HW119859   5.752   5.429   4.916
 6320SOL    HW219860   5.866   5.462   5.029
 6321SOL     OW19861   3.384   4.193   0.989
 6321SOL    HW119862   3.468   4.204   1.041
 6321SOL    HW219863   3.314   4.256   1.023
 6322SOL     OW19864   1.870   2.254   6.797
 6322SOL    HW119865   1.943   2.224   6.859
 6322SOL    HW219866   1.807   2.178   6.782
 6323SOL     OW19867   3.074   2.563   1.472
 6323SOL    HW119868   2.983   2.565   1.513
 6323SOL    HW219869   3.122   2.480   1.499
 6324SOL     OW19870   5.102   6.954   6.338
 6324SOL    HW119871   5.039   6.962   6.260
 6324SOL    HW219872   5.076   7.021   6.408
 6325SOL     OW19873   2.084   2.152   2.543
 6325SOL    HW119874   2.101   2.221   2.473
 6325SOL    HW219875   1.995   2.168   2.585
 6326SOL     OW19876   5.063   5.632   1.406
 6326SOL    HW119877   5.060   5.706   1.473
 6326SOL    HW219878   5.137   5.569   1.429
 6327SOL     OW19879   0.174   0.599   4.957
 6327SOL    HW119880   0.176   0.694   4.986
 6327SOL    HW219881   0.239   0.586   4.882
 6328SOL     OW19882   1.690   4.074   0.732
 6328SOL    HW119883   1.718   4.019   0.810
 6328SOL    HW219884   1.703   4.021   0.648
 6329SOL     OW19885   2.462   2.566   3.297
 6329SOL    HW119886   2.445   2.656   3.339
 6329SOL    HW219887   2.380   2.509   3.307
 6330SOL     OW19888   4.523   1.367   1.115
 6330SOL    HW119889   4.615   1.348   1.081
 6330SOL    HW219890   4.529   1.409   1.206
 6331SOL     OW19891   6.384   2.118   0.235
 6331SOL    HW119892   6.296   2.150   0.201
 6331SOL    HW219893   6.426   2.058   0.167
 6332SOL     OW19894   6.604   3.786   1.970
 6332SOL    HW119895   6.688   3.741   1.939
 6332SOL    HW219896   6.621   3.884   1.979
 6333SOL     OW19897   4.129   5.481   4.897
 6333SOL    HW119898   4.221   5.446   4.913
 6333SOL    HW219899   4.134   5.561   4.838
 6334SOL     OW19900   3.271   6.968   1.788
 6334SOL    HW119901   3.320   6.891   1.828
 6334SOL    HW219902   3.322   0.024   1.805
 6335SOL     OW19903   4.774   1.462   0.179
 6335SOL    HW119904   4.727   1.467   0.091
 6335SOL    HW219905   4.707   1.469   0.253
 6336SOL     OW19906   0.509   1.646   6.366
 6336SOL    HW119907   0.588   1.643   6.427
 6336SOL    HW219908   0.439   1.582   6.399
 6337SOL     OW19909   5.086   4.674   6.005
 6337SOL    HW119910   5.148   4.649   5.931
 6337SOL    HW219911   5.120   4.636   6.092
 6338SOL     OW19912   3.470   2.093   3.232
 6338SOL    HW119913   3.465   2.193   3.234
 6338SOL    HW219914   3.499   2.059   3.322
 6339SOL     OW19915   1.311   2.910   2.664
 6339SOL    HW119916   1.322   2.810   2.661
 6339SOL    HW219917   1.386   2.950   2.716
 6340SOL     OW19918   1.736   4.811   2.737
 6340SOL    HW119919   1.796   4.813   2.657
 6340SOL    HW219920   1.671   4.735   2.728
 6341SOL     OW19921   0.560   4.439   4.118
 6341SOL    HW119922   0.523   4.346   4.115
 6341SOL    HW219923   0.599   4.462   4.029
 6342SOL     OW19924   2.525   1.839   1.660
 6342SOL    HW119925   2.601   1.801   1.713
 6342SOL    HW219926   2.439   1.805   1.696
 6343SOL     OW19927   5.060   2.305   6.717
 6343SOL    HW119928   5.059   2.208   6.742
 6343SOL    HW219929   4.997   2.320   6.640
 6344SOL     OW19930   5.482   3.425   4.799
 6344SOL    HW119931   5.453   3.521   4.797
 6344SOL    HW219932   5.581   3.421   4.807
 6345SOL     OW19933   4.818   1.952   2.159
 6345SOL    HW119934   4.893   1.945   2.093
 6345SOL    HW219935   4.751   2.018   2.126
 6346SOL     OW19936   6.915   4.651   3.767
 6346SOL    HW119937   6.973   4.714   3.715
 6346SOL    HW219938   6.887   4.575   3.709
 6347SOL     OW19939   1.637   0.061   1.922
 6347SOL    HW119940   1.563   0.112   1.878
 6347SOL    HW219941   1.705   0.125   1.958
 6348SOL     OW19942   1.543   3.814   5.253
 6348SOL    HW119943   1.551   3.897   5.307
 6348SOL    HW219944   1.468   3.758   5.289
 6349SOL     OW19945   3.473   0.019   1.201
 6349SOL    HW119946   3.567   0.048   1.181
 6349SOL    HW219947   3.460   0.014   1.300
 6350SOL     OW19948   2.872   4.752   4.188
 6350SOL    HW119949   2.801   4.725   4.254
 6350SOL    HW219950   2.940   4.810   4.235
 6351SOL     OW19951   6.421   3.446   3.320
 6351SOL    HW119952   6.432   3.392   3.237
 6351SOL    HW219953   6.336   3.418   3.367
 6352SOL     OW19954   2.750   5.229   4.761
 6352SOL    HW119955   2.815   5.228   4.837
 6352SOL    HW219956   2.664   5.186   4.790
 6353SOL     OW19957   6.997   0.988   6.131
 6353SOL    HW119958   0.005   0.921   6.065
 6353SOL    HW219959   6.932   0.943   6.192
 6354SOL     OW19960   1.893   6.735   3.274
 6354SOL    HW119961   1.936   6.786   3.348
 6354SOL    HW219962   1.871   6.797   3.199
 6355SOL     OW19963   1.038   5.375   5.918
 6355SOL    HW119964   0.962   5.438   5.931
 6355SOL    HW219965   1.051   5.320   6.001
 6356SOL     OW19966   3.468   4.989   2.687
 6356SOL    HW119967   3.530   4.973   2.609
 6356SOL    HW219968   3.510   4.954   2.770
 6357SOL     OW19969   5.155   3.070   2.400
 6357SOL    HW119970   5.104   3.084   2.485
 6357SOL    HW219971   5.183   3.159   2.363
 6358SOL     OW19972   1.396   2.201   6.294
 6358SOL    HW119973   1.486   2.157   6.292
 6358SOL    HW219974   1.402   2.288   6.343
 6359SOL     OW19975   6.221   6.753   5.659
 6359SOL    HW119976   6.186   6.835   5.615
 6359SOL    HW219977   6.321   6.751   5.652
 6360SOL     OW19978   1.807   3.897   4.361
 6360SOL    HW119979   1.707   3.889   4.361
 6360SOL    HW219980   1.842   3.880   4.453
 6361SOL     OW19981   5.970   0.192   0.532
 6361SOL    HW119982   6.002   0.279   0.570
 6361SOL    HW219983   6.009   0.179   0.441
 6362SOL     OW19984   6.702   5.672   0.103
 6362SOL    HW119985   6.712   5.573   0.089
 6362SOL    HW219986   6.778   5.720   0.059
 6363SOL     OW19987   2.298   4.203   2.996
 6363SOL    HW119988   2.274   4.162   3.084
 6363SOL    HW219989   2.325   4.131   2.932
 6364SOL     OW19990   3.235   1.169   5.781
 6364SOL    HW119991   3.143   1.204   5.763
 6364SOL    HW219992   3.299   1.213   5.718
 6365SOL     OW19993   5.491   6.845   4.176
 6365SOL    HW119994   5.484   6.869   4.273
 6365SOL    HW219995   5.579   6.876   4.140
 6366SOL     OW19996   1.114   5.509   6.559
 6366SOL    HW119997   1.075   5.540   6.646
 6366SOL    HW219998   1.078   5.566   6.485
 6367SOL     OW19999   3.768   0.401   4.339
 6367SOL    HW120000   3.708   0.348   4.398
 6367SOL    HW220001   3.863   0.378   4.358
 6368SOL     OW20002   3.513   6.296   3.356
 6368SOL    HW120003   3.502   6.388   3.392
 6368SOL    HW220004   3.424   6.257   3.335
 6369SOL     OW20005   2.017   4.712   4.528
 6369SOL    HW120006   1.983   4.780   4.593
 6369SOL    HW220007   2.101   4.745   4.486
 6370SOL     OW20008   0.726   3.453   2.610
 6370SOL    HW120009   0.697   3.543   2.643
 6370SOL    HW220010   0.794   3.415   2.673
 6371SOL     OW20011   5.125   3.601   4.176
 6371SOL    HW120012   5.185   3.523   4.156
 6371SOL    HW220013   5.063   3.616   4.099
 6372SOL     OW20014   3.495   0.273   1.797
 6372SOL    HW120015   3.575   0.253   1.739
 6372SOL    HW220016   3.417   0.295   1.739
 6373SOL     OW20017   5.278   4.511   3.427
 6373SOL    HW120018   5.193   4.461   3.443
 6373SOL    HW220019   5.265   4.607   3.447
 6374SOL     OW20020   3.292   4.102   4.738
 6374SOL    HW120021   3.388   4.081   4.720
 6374SOL    HW220022   3.274   4.098   4.836
 6375SOL     OW20023   6.871   1.779   4.134
 6375SOL    HW120024   6.797   1.772   4.067
 6375SOL    HW220025   6.893   1.688   4.169
 6376SOL     OW20026   6.327   2.791   5.572
 6376SOL    HW120027   6.392   2.720   5.544
 6376SOL    HW220028   6.244   2.784   5.518
 6377SOL     OW20029   6.435   1.859   5.397
 6377SOL    HW120030   6.510   1.884   5.459
 6377SOL    HW220031   6.445   1.764   5.369
 6378SOL     OW20032   4.851   5.177   3.524
 6378SOL    HW120033   4.758   5.212   3.515
 6378SOL    HW220034   4.907   5.209   3.448
 6379SOL     OW20035   2.239   3.978   4.032
 6379SOL    HW120036   2.231   3.938   4.124
 6379SOL    HW220037   2.175   4.054   4.023
 6380SOL     OW20038   0.727   1.243   6.285
 6380SOL    HW120039   0.808   1.203   6.328
 6380SOL    HW220040   0.650   1.180   6.297
 6381SOL     OW20041   4.150   3.190   1.949
 6381SOL    HW120042   4.078   3.125   1.973
 6381SOL    HW220043   4.199   3.158   1.868
 6382SOL     OW20044   1.041   2.589   0.056
 6382SOL    HW120045   1.028   2.594   0.155
 6382SOL    HW220046   1.022   2.496   0.025
 6383SOL     OW20047   2.046   2.136   2.982
 6383SOL    HW120048   2.054   2.220   2.928
 6383SOL    HW220049   2.077   2.058   2.927
 6384SOL     OW20050   5.229   3.997   1.483
 6384SOL    HW120051   5.245   3.899   1.489
 6384SOL    HW220052   5.134   4.017   1.506
 6385SOL     OW20053   6.565   5.012   4.318
 6385SOL    HW120054   6.555   4.957   4.401
 6385SOL    HW220055   6.558   4.952   4.238
 6386SOL     OW20056   2.200   4.329   6.449
 6386SOL    HW120057   2.245   4.241   6.431
 6386SOL    HW220058   2.269   4.397   6.473
 6387SOL     OW20059   0.794   1.229   6.719
 6387SOL    HW120060   0.882   1.272   6.700
 6387SOL    HW220061   0.799   1.132   6.696
 6388SOL     OW20062   4.101   5.098   1.328
 6388SOL    HW120063   4.075   5.002   1.323
 6388SOL    HW220064   4.200   5.106   1.331
 6389SOL     OW20065   0.686   6.160   2.185
 6389SOL    HW120066   0.728   6.188   2.271
 6389SOL    HW220067   0.733   6.079   2.149
 6390SOL     OW20068   1.164   2.475   4.708
 6390SOL    HW120069   1.096   2.411   4.743
 6390SOL    HW220070   1.173   2.552   4.772
 6391SOL     OW20071   3.049   0.051   5.772
 6391SOL    HW120072   2.949   0.056   5.772
 6391SOL    HW220073   3.084   0.079   5.683
 6392SOL     OW20074   2.507   0.225   3.577
 6392SOL    HW120075   2.439   0.172   3.527
 6392SOL    HW220076   2.588   0.238   3.519
 6393SOL     OW20077   5.704   6.826   1.243
 6393SOL    HW120078   5.703   6.925   1.249
 6393SOL    HW220079   5.673   6.798   1.152
 6394SOL     OW20080   2.539   4.596   1.090
 6394SOL    HW120081   2.510   4.545   1.171
 6394SOL    HW220082   2.477   4.673   1.075
 6395SOL     OW20083   6.540   3.107   2.145
 6395SOL    HW120084   6.522   3.198   2.107
 6395SOL    HW220085   6.610   3.114   2.216
 6396SOL     OW20086   5.629   2.856   6.861
 6396SOL    HW120087   5.677   2.884   6.778
 6396SOL    HW220088   5.652   2.761   6.883
 6397SOL     OW20089   5.783   2.689   6.191
 6397SOL    HW120090   5.798   2.774   6.140
 6397SOL    HW220091   5.690   2.688   6.227
 6398SOL     OW20092   3.204   0.953   0.723
 6398SOL    HW120093   3.273   0.990   0.660
 6398SOL    HW220094   3.115   0.952   0.678
 6399SOL     OW20095   1.392   5.047   6.805
 6399SOL    HW120096   1.418   5.137   6.771
 6399SOL    HW220097   1.306   5.018   6.761
 6400SOL     OW20098   2.416   6.218   2.814
 6400SOL    HW120099   2.379   6.166   2.891
 6400SOL    HW220100   2.512   6.239   2.832
 6401SOL     OW20101   0.285   4.633   3.276
 6401SOL    HW120102   0.287   4.537   3.249
 6401SOL    HW220103   0.241   4.642   3.366
 6402SOL     OW20104   4.139   1.154   3.280
 6402SOL    HW120105   4.159   1.153   3.182
 6402SOL    HW220106   4.060   1.096   3.298
 6403SOL     OW20107   6.981   5.883   6.395
 6403SOL    HW120108   7.008   5.797   6.353
 6403SOL    HW220109   6.955   5.948   6.325
 6404SOL     OW20110   4.197   1.359   3.044
 6404SOL    HW120111   4.162   1.266   3.028
 6404SOL    HW220112   4.132   1.408   3.103
 6405SOL     OW20113   2.104   0.920   3.384
 6405SOL    HW120114   2.139   0.960   3.468
 6405SOL    HW220115   2.126   0.979   3.306
 6406SOL     OW20116   1.479   2.672   3.721
 6406SOL    HW120117   1.508   2.742   3.786
 6406SOL    HW220118   1.543   2.669   3.645
 6407SOL     OW20119   3.267   0.046   3.409
 6407SOL    HW120120   3.295   0.068   3.315
 6407SOL    HW220121   3.181   0.092   3.430
 6408SOL     OW20122   6.121   2.240   0.121
 6408SOL    HW120123   6.063   2.187   0.184
 6408SOL    HW220124   6.071   2.255   0.035
 6409SOL     OW20125   0.421   4.927   3.164
 6409SOL    HW120126   0.479   4.966   3.235
 6409SOL    HW220127   0.405   4.995   3.093
 6410SOL     OW20128   2.101   1.439   0.359
 6410SOL    HW120129   2.160   1.401   0.430
 6410SOL    HW220130   2.005   1.424   0.384
 6411SOL     OW20131   0.054   2.493   3.298
 6411SOL    HW120132   0.053   2.588   3.330
 6411SOL    HW220133   0.005   2.436   3.364
 6412SOL     OW20134   0.115   2.841   5.172
 6412SOL    HW120135   0.018   2.853   5.155
 6412SOL    HW220136   0.161   2.814   5.087
 6413SOL     OW20137   4.211   4.708   3.012
 6413SOL    HW120138   4.303   4.678   3.036
 6413SOL    HW220139   4.200   4.706   2.912
 6414SOL     OW20140   5.851   0.637   1.421
 6414SOL    HW120141   5.950   0.639   1.430
 6414SOL    HW220142   5.810   0.612   1.509
 6415SOL     OW20143   2.056   2.372   2.785
 6415SOL    HW120144   2.017   2.440   2.848
 6415SOL    HW220145   2.150   2.397   2.763
 6416SOL     OW20146   1.388   1.204   6.476
 6416SOL    HW120147   1.320   1.278   6.482
 6416SOL    HW220148   1.464   1.234   6.419
 6417SOL     OW20149   0.208   4.387   1.884
 6417SOL    HW120150   0.254   4.448   1.948
 6417SOL    HW220151   0.247   4.295   1.891
 6418SOL     OW20152   5.013   4.459   1.884
 6418SOL    HW120153   5.074   4.436   1.808
 6418SOL    HW220154   4.928   4.406   1.876
 6419SOL     OW20155   2.365   4.675   2.892
 6419SOL    HW120156   2.348   4.687   2.794
 6419SOL    HW220157   2.283   4.701   2.943
 6420SOL     OW20158   2.955   3.618   5.800
 6420SOL    HW120159   2.925   3.692   5.860
 6420SOL    HW220160   2.993   3.656   5.716
 6421SOL     OW20161   5.633   1.296   2.073
 6421SOL    HW120162   5.584   1.368   2.024
 6421SOL    HW220163   5.731   1.301   2.051
 6422SOL     OW20164   0.111   0.518   4.395
 6422SOL    HW120165   0.208   0.503   4.377
 6422SOL    HW220166   0.079   0.453   4.464
 6423SOL     OW20167   4.688   5.246   2.628
 6423SOL    HW120168   4.688   5.224   2.725
 6423SOL    HW220169   4.755   5.319   2.610
 6424SOL     OW20170   6.693   6.234   5.536
 6424SOL    HW120171   6.684   6.280   5.448
 6424SOL    HW220172   6.703   6.302   5.608
 6425SOL     OW20173   6.360   5.625   3.162
 6425SOL    HW120174   6.286   5.632   3.094
 6425SOL    HW220175   6.394   5.531   3.164
 6426SOL     OW20176   0.649   5.044   3.325
 6426SOL    HW120177   0.702   5.126   3.346
 6426SOL    HW220178   0.691   4.965   3.369
 6427SOL     OW20179   2.225   3.443   6.378
 6427SOL    HW120180   2.132   3.407   6.368
 6427SOL    HW220181   2.239   3.475   6.471
 6428SOL     OW20182   6.664   3.131   6.928
 6428SOL    HW120183   6.660   3.032   6.926
 6428SOL    HW220184   6.622   3.165   7.012
 6429SOL     OW20185   0.890   1.960   5.692
 6429SOL    HW120186   0.934   1.871   5.679
 6429SOL    HW220187   0.793   1.947   5.711
 6430SOL     OW20188   5.288   0.985   2.293
 6430SOL    HW120189   5.307   0.955   2.199
 6430SOL    HW220190   5.269   1.084   2.293
 6431SOL     OW20191   5.410   6.497   3.287
 6431SOL    HW120192   5.463   6.468   3.207
 6431SOL    HW220193   5.421   6.595   3.300
 6432SOL     OW20194   4.608   3.759   0.008
 6432SOL    HW120195   4.612   3.846   6.988
 6432SOL    HW220196   4.584   3.686   6.972
 6433SOL     OW20197   3.763   4.487   0.718
 6433SOL    HW120198   3.748   4.390   0.698
 6433SOL    HW220199   3.709   4.514   0.798
 6434SOL     OW20200   1.844   3.709   0.182
 6434SOL    HW120201   1.785   3.744   0.109
 6434SOL    HW220202   1.915   3.777   0.203
 6435SOL     OW20203   4.229   6.307   6.665
 6435SOL    HW120204   4.152   6.330   6.724
 6435SOL    HW220205   4.210   6.337   6.572
 6436SOL     OW20206   2.174   3.051   3.318
 6436SOL    HW120207   2.222   3.122   3.369
 6436SOL    HW220208   2.088   3.088   3.283
 6437SOL     OW20209   2.295   0.750   1.140
 6437SOL    HW120210   2.357   0.780   1.212
 6437SOL    HW220211   2.205   0.790   1.155
 6438SOL     OW20212   0.572   4.716   6.353
 6438SOL    HW120213   0.643   4.745   6.417
 6438SOL    HW220214   0.494   4.778   6.359
 6439SOL     OW20215   6.427   0.592   1.687
 6439SOL    HW120216   6.487   0.537   1.745
 6439SOL    HW220217   6.422   0.685   1.723
 6440SOL     OW20218   2.260   1.879   1.076
 6440SOL    HW120219   2.341   1.895   1.020
 6440SOL    HW220220   2.184   1.851   1.017
 6441SOL     OW20221   0.951   6.849   2.297
 6441SOL    HW120222   0.890   6.895   2.362
 6441SOL    HW220223   0.897   6.813   2.222
 6442SOL     OW20224   2.664   1.123   3.594
 6442SOL    HW120225   2.762   1.135   3.611
 6442SOL    HW220226   2.628   1.051   3.653
 6443SOL     OW20227   4.205   2.576   6.463
 6443SOL    HW120228   4.295   2.584   6.420
 6443SOL    HW220229   4.188   2.480   6.486
 6444SOL     OW20230   0.226   2.796   3.968
 6444SOL    HW120231   0.178   2.710   3.984
 6444SOL    HW220232   0.262   2.831   4.055
 6445SOL     OW20233   5.020   3.036   5.862
 6445SOL    HW120234   5.009   2.957   5.802
 6445SOL    HW220235   4.985   3.118   5.817
 6446SOL     OW20236   1.215   1.024   6.328
 6446SOL    HW120237   1.284   1.086   6.367
 6446SOL    HW220238   1.222   1.025   6.229
 6447SOL     OW20239   0.208   5.607   2.556
 6447SOL    HW120240   0.280   5.671   2.529
 6447SOL    HW220241   0.179   5.627   2.649
 6448SOL     OW20242   4.765   4.461   2.737
 6448SOL    HW120243   4.710   4.506   2.667
 6448SOL    HW220244   4.720   4.377   2.766
 6449SOL     OW20245   2.595   4.615   0.341
 6449SOL    HW120246   2.685   4.570   0.346
 6449SOL    HW220247   2.605   4.706   0.303
 6450SOL     OW20248   0.360   3.526   1.461
 6450SOL    HW120249   0.414   3.470   1.524
 6450SOL    HW220250   0.267   3.489   1.455
 6451SOL     OW20251   2.652   6.670   5.181
 6451SOL    HW120252   2.556   6.699   5.172
 6451SOL    HW220253   2.711   6.751   5.183
 6452SOL     OW20254   3.429   6.221   4.867
 6452SOL    HW120255   3.412   6.277   4.786
 6452SOL    HW220256   3.499   6.152   4.846
 6453SOL     OW20257   1.344   6.683   0.139
 6453SOL    HW120258   1.360   6.762   0.080
 6453SOL    HW220259   1.358   6.709   0.235
 6454SOL     OW20260   3.292   1.243   2.909
 6454SOL    HW120261   3.380   1.280   2.879
 6454SOL    HW220262   3.238   1.315   2.953
 6455SOL     OW20263   0.271   1.990   4.249
 6455SOL    HW120264   0.214   1.910   4.266
 6455SOL    HW220265   0.295   2.033   4.336
 6456SOL     OW20266   1.835   0.947   3.739
 6456SOL    HW120267   1.864   1.004   3.662
 6456SOL    HW220268   1.758   0.889   3.711
 6457SOL     OW20269   5.315   1.422   1.218
 6457SOL    HW120270   5.266   1.498   1.175
 6457SOL    HW220271   5.335   1.446   1.313
 6458SOL     OW20272   0.770   6.946   3.467
 6458SOL    HW120273   0.852   6.923   3.520
 6458SOL    HW220274   0.785   6.922   3.371
 6459SOL     OW20275   5.995   4.957   0.427
 6459SOL    HW120276   6.065   4.973   0.497
 6459SOL    HW220277   5.930   4.889   0.460
 6460SOL     OW20278   4.482   5.427   5.599
 6460SOL    HW120279   4.490   5.525   5.615
 6460SOL    HW220280   4.409   5.409   5.534
 6461SOL     OW20281   2.761   4.871   5.122
 6461SOL    HW120282   2.851   4.870   5.079
 6461SOL    HW220283   2.723   4.779   5.123
 6462SOL     OW20284   2.453   2.666   4.986
 6462SOL    HW120285   2.461   2.760   5.020
 6462SOL    HW220286   2.462   2.665   4.887
 6463SOL     OW20287   1.360   3.598   0.067
 6463SOL    HW120288   1.276   3.647   0.045
 6463SOL    HW220289   1.438   3.651   0.035
 6464SOL     OW20290   1.050   5.594   4.609
 6464SOL    HW120291   1.026   5.532   4.534
 6464SOL    HW220292   1.040   5.547   4.696
 6465SOL     OW20293   6.110   2.432   3.998
 6465SOL    HW120294   6.089   2.496   3.924
 6465SOL    HW220295   6.192   2.380   3.974
 6466SOL     OW20296   1.040   1.369   6.814
 6466SOL    HW120297   0.962   1.393   6.871
 6466SOL    HW220298   1.113   1.435   6.829
 6467SOL     OW20299   3.052   0.806   0.028
 6467SOL    HW120300   3.088   0.897   0.048
 6467SOL    HW220301   3.101   0.768   6.978
 6468SOL     OW20302   4.229   6.567   1.953
 6468SOL    HW120303   4.166   6.580   2.030
 6468SOL    HW220304   4.271   6.477   1.959
 6469SOL     OW20305   4.487   0.926   5.439
 6469SOL    HW120306   4.442   1.011   5.466
 6469SOL    HW220307   4.501   0.869   5.521
 6470SOL     OW20308   5.863   5.715   6.499
 6470SOL    HW120309   5.906   5.712   6.409
 6470SOL    HW220310   5.933   5.708   6.570
 6471SOL     OW20311   6.416   6.285   5.835
 6471SOL    HW120312   6.357   6.236   5.900
 6471SOL    HW220313   6.358   6.334   5.769
 6472SOL     OW20314   0.559   4.106   1.116
 6472SOL    HW120315   0.467   4.067   1.114
 6472SOL    HW220316   0.566   4.181   1.050
 6473SOL     OW20317   1.940   1.766   4.418
 6473SOL    HW120318   1.948   1.837   4.488
 6473SOL    HW220319   1.844   1.745   4.401
 6474SOL     OW20320   2.125   3.898   5.914
 6474SOL    HW120321   2.096   3.907   6.009
 6474SOL    HW220322   2.049   3.859   5.860
 6475SOL     OW20323   6.736   5.175   4.460
 6475SOL    HW120324   6.660   5.149   4.401
 6475SOL    HW220325   6.794   5.096   4.478
 6476SOL     OW20326   4.308   3.739   1.335
 6476SOL    HW120327   4.368   3.706   1.408
 6476SOL    HW220328   4.294   3.666   1.268
 6477SOL     OW20329   6.756   5.022   0.983
 6477SOL    HW120330   6.740   4.982   1.073
 6477SOL    HW220331   6.672   5.065   0.950
 6478SOL     OW20332   3.770   5.830   2.407
 6478SOL    HW120333   3.706   5.895   2.365
 6478SOL    HW220334   3.854   5.827   2.353
 6479SOL     OW20335   3.897   5.740   3.493
 6479SOL    HW120336   3.816   5.690   3.463
 6479SOL    HW220337   3.877   5.786   3.580
 6480SOL     OW20338   3.011   2.364   5.482
 6480SOL    HW120339   2.993   2.274   5.522
 6480SOL    HW220340   2.951   2.432   5.526
 6481SOL     OW20341   3.350   2.085   2.304
 6481SOL    HW120342   3.319   2.063   2.211
 6481SOL    HW220343   3.275   2.127   2.355
 6482SOL     OW20344   0.482   0.893   6.255
 6482SOL    HW120345   0.426   0.811   6.242
 6482SOL    HW220346   0.559   0.871   6.314
 6483SOL     OW20347   2.525   5.725   1.901
 6483SOL    HW120348   2.499   5.630   1.883
 6483SOL    HW220349   2.486   5.754   1.988
 6484SOL     OW20350   4.124   1.005   2.761
 6484SOL    HW120351   4.103   0.920   2.809
 6484SOL    HW220352   4.071   1.009   2.675
 6485SOL     OW20353   1.882   3.916   2.806
 6485SOL    HW120354   1.913   3.987   2.868
 6485SOL    HW220355   1.888   3.948   2.712
 6486SOL     OW20356   1.720   4.307   4.768
 6486SOL    HW120357   1.703   4.386   4.827
 6486SOL    HW220358   1.635   4.254   4.758
 6487SOL     OW20359   6.620   5.735   4.821
 6487SOL    HW120360   6.572   5.661   4.870
 6487SOL    HW220361   6.553   5.794   4.776
 6488SOL     OW20362   3.020   5.971   5.584
 6488SOL    HW120363   2.994   5.976   5.488
 6488SOL    HW220364   3.035   5.875   5.610
 6489SOL     OW20365   2.695   3.148   6.802
 6489SOL    HW120366   2.724   3.075   6.863
 6489SOL    HW220367   2.774   3.180   6.749
 6490SOL     OW20368   4.184   1.887   6.460
 6490SOL    HW120369   4.128   1.969   6.453
 6490SOL    HW220370   4.204   1.868   6.557
 6491SOL     OW20371   4.568   1.198   6.531
 6491SOL    HW120372   4.501   1.161   6.467
 6491SOL    HW220373   4.636   1.128   6.552
 6492SOL     OW20374   5.690   5.917   0.044
 6492SOL    HW120375   5.618   5.920   7.003
 6492SOL    HW220376   5.723   5.823   0.053
 6493SOL     OW20377   1.472   5.513   4.473
 6493SOL    HW120378   1.423   5.517   4.561
 6493SOL    HW220379   1.413   5.549   4.401
 6494SOL     OW20380   0.377   1.181   3.145
 6494SOL    HW120381   0.295   1.179   3.202
 6494SOL    HW220382   0.406   1.087   3.125
 6495SOL     OW20383   4.657   6.395   4.365
 6495SOL    HW120384   4.716   6.475   4.377
 6495SOL    HW220385   4.633   6.357   4.454
 6496SOL     OW20386   0.355   7.028   1.942
 6496SOL    HW120387   0.260   7.008   1.916
 6496SOL    HW220388   0.355   0.060   2.022
 6497SOL     OW20389   2.420   3.751   0.213
 6497SOL    HW120390   2.372   3.737   0.126
 6497SOL    HW220391   2.494   3.685   0.221
 6498SOL     OW20392   2.338   4.265   4.018
 6498SOL    HW120393   2.335   4.253   4.118
 6498SOL    HW220394   2.357   4.176   3.975
 6499SOL     OW20395   5.506   2.146   5.184
 6499SOL    HW120396   5.499   2.236   5.141
 6499SOL    HW220397   5.433   2.087   5.150
 6500SOL     OW20398   6.883   5.121   3.648
 6500SOL    HW120399   6.876   5.158   3.556
 6500SOL    HW220400   6.796   5.076   3.673
 6501SOL     OW20401   6.972   2.597   6.912
 6501SOL    HW120402   6.898   2.571   6.973
 6501SOL    HW220403   6.949   2.571   6.818
 6502SOL     OW20404   6.291   4.062   2.176
 6502SOL    HW120405   6.236   4.143   2.196
 6502SOL    HW220406   6.314   4.060   2.079
 6503SOL     OW20407   5.481   0.297   4.124
 6503SOL    HW120408   5.572   0.300   4.082
 6503SOL    HW220409   5.485   0.244   4.209
 6504SOL     OW20410   4.729   6.478   6.127
 6504SOL    HW120411   4.821   6.509   6.103
 6504SOL    HW220412   4.663   6.552   6.112
 6505SOL     OW20413   5.652   4.862   1.391
 6505SOL    HW120414   5.615   4.775   1.424
 6505SOL    HW220415   5.730   4.844   1.330
 6506SOL     OW20416   6.929   3.561   1.521
 6506SOL    HW120417   6.910   3.487   1.586
 6506SOL    HW220418   6.916   3.527   1.427
 6507SOL     OW20419   1.246   5.431   5.508
 6507SOL    HW120420   1.323   5.479   5.465
 6507SOL    HW220421   1.193   5.495   5.563
 6508SOL     OW20422   2.538   1.606   3.663
 6508SOL    HW120423   2.545   1.607   3.564
 6508SOL    HW220424   2.587   1.526   3.699
 6509SOL     OW20425   2.738   2.359   3.806
 6509SOL    HW120426   2.790   2.320   3.883
 6509SOL    HW220427   2.756   2.307   3.723
 6510SOL     OW20428   6.910   4.888   6.840
 6510SOL    HW120429   6.905   4.913   6.937
 6510SOL    HW220430   7.000   4.849   6.820
 6511SOL     OW20431   5.388   0.814   4.884
 6511SOL    HW120432   5.419   0.721   4.864
 6511SOL    HW220433   5.326   0.845   4.811
 6512SOL     OW20434   5.269   0.571   2.042
 6512SOL    HW120435   5.368   0.581   2.041
 6512SOL    HW220436   5.226   0.661   2.041
 6513SOL     OW20437   3.305   5.250   3.299
 6513SOL    HW120438   3.279   5.154   3.289
 6513SOL    HW220439   3.224   5.305   3.320
 6514SOL     OW20440   5.855   6.885   3.172
 6514SOL    HW120441   5.884   6.936   3.091
 6514SOL    HW220442   5.777   6.931   3.214
 6515SOL     OW20443   0.907   5.328   4.017
 6515SOL    HW120444   0.966   5.370   4.086
 6515SOL    HW220445   0.882   5.235   4.046
 6516SOL     OW20446   0.499   3.084   1.134
 6516SOL    HW120447   0.496   3.184   1.128
 6516SOL    HW220448   0.417   3.046   1.090
 6517SOL     OW20449   6.460   1.145   0.822
 6517SOL    HW120450   6.404   1.220   0.855
 6517SOL    HW220451   6.489   1.089   0.899
 6518SOL     OW20452   0.329   6.951   6.949
 6518SOL    HW120453   0.237   6.991   6.948
 6518SOL    HW220454   0.338   6.889   7.027
 6519SOL     OW20455   2.587   1.883   3.673
 6519SOL    HW120456   2.517   1.926   3.731
 6519SOL    HW220457   2.566   1.785   3.664
 6520SOL     OW20458   6.071   5.515   2.499
 6520SOL    HW120459   6.140   5.448   2.474
 6520SOL    HW220460   6.028   5.487   2.585
 6521SOL     OW20461   1.198   1.944   4.152
 6521SOL    HW120462   1.105   1.976   4.169
 6521SOL    HW220463   1.246   2.010   4.093
 6522SOL     OW20464   3.470   4.072   0.030
 6522SOL    HW120465   3.558   4.027   0.010
 6522SOL    HW220466   3.487   4.167   0.055
 6523SOL     OW20467   3.239   0.677   6.887
 6523SOL    HW120468   3.315   0.741   6.895
 6523SOL    HW220469   3.271   0.591   6.847
 6524SOL     OW20470   3.211   3.176   2.929
 6524SOL    HW120471   3.250   3.244   2.991
 6524SOL    HW220472   3.243   3.193   2.836
 6525SOL     OW20473   1.790   3.266   2.880
 6525SOL    HW120474   1.845   3.340   2.840
 6525SOL    HW220475   1.745   3.299   2.963
 6526SOL     OW20476   1.508   0.018   5.429
 6526SOL    HW120477   1.575   0.079   5.471
 6526SOL    HW220478   1.461   6.994   5.500
 6527SOL     OW20479   1.043   1.710   4.440
 6527SOL    HW120480   1.021   1.684   4.346
 6527SOL    HW220481   0.965   1.759   4.480
 6528SOL     OW20482   6.922   0.946   3.546
 6528SOL    HW120483   6.973   1.005   3.608
 6528SOL    HW220484   6.918   0.854   3.584
 6529SOL     OW20485   7.001   1.394   3.147
 6529SOL    HW120486   6.977   1.481   3.192
 6529SOL    HW220487   6.974   1.318   3.206
 6530SOL     OW20488   6.646   3.358   1.345
 6530SOL    HW120489   6.696   3.412   1.277
 6530SOL    HW220490   6.573   3.414   1.385
 6531SOL     OW20491   5.603   3.754   4.813
 6531SOL    HW120492   5.660   3.687   4.766
 6531SOL    HW220493   5.660   3.807   4.877
 6532SOL     OW20494   6.375   0.757   7.011
 6532SOL    HW120495   6.374   0.755   6.911
 6532SOL    HW220496   6.364   0.664   0.018
 6533SOL     OW20497   4.715   6.207   1.290
 6533SOL    HW120498   4.750   6.300   1.278
 6533SOL    HW220499   4.694   6.167   1.200
 6534SOL     OW20500   2.926   4.426   1.375
 6534SOL    HW120501   2.834   4.400   1.344
 6534SOL    HW220502   2.979   4.344   1.397
 6535SOL     OW20503   6.955   3.367   3.979
 6535SOL    HW120504   6.954   3.388   4.076
 6535SOL    HW220505   6.864   3.381   3.941
 6536SOL     OW20506   0.035   2.530   5.894
 6536SOL    HW120507   0.118   2.522   5.950
 6536SOL    HW220508   7.027   2.623   5.901
 6537SOL     OW20509   5.955   5.354   0.123
 6537SOL    HW120510   5.896   5.284   0.084
 6537SOL    HW220511   6.016   5.312   0.190
 6538SOL     OW20512   3.755   4.511   0.188
 6538SOL    HW120513   3.699   4.547   0.262
 6538SOL    HW220514   3.842   4.561   0.184
 6539SOL     OW20515   3.105   1.188   6.293
 6539SOL    HW120516   3.155   1.141   6.365
 6539SOL    HW220517   3.131   1.151   6.204
 6540SOL     OW20518   4.842   1.795   5.262
 6540SOL    HW120519   4.802   1.760   5.177
 6540SOL    HW220520   4.854   1.719   5.327
 6541SOL     OW20521   3.913   1.827   5.089
 6541SOL    HW120522   3.996   1.774   5.101
 6541SOL    HW220523   3.935   1.914   5.044
 6542SOL     OW20524   6.721   5.011   3.383
 6542SOL    HW120525   6.817   5.036   3.381
 6542SOL    HW220526   6.673   5.064   3.453
 6543SOL     OW20527   6.463   3.791   0.018
 6543SOL    HW120528   6.484   3.845   6.965
 6543SOL    HW220529   6.486   3.843   0.101
 6544SOL     OW20530   0.507   5.849   2.918
 6544SOL    HW120531   0.512   5.881   3.013
 6544SOL    HW220532   0.434   5.898   2.870
 6545SOL     OW20533   5.615   2.050   6.575
 6545SOL    HW120534   5.619   1.970   6.515
 6545SOL    HW220535   5.537   2.108   6.549
 6546SOL     OW20536   4.766   4.238   6.588
 6546SOL    HW120537   4.669   4.263   6.577
 6546SOL    HW220538   4.784   4.217   6.684
 6547SOL     OW20539   4.877   1.459   5.833
 6547SOL    HW120540   4.926   1.473   5.747
 6547SOL    HW220541   4.822   1.375   5.827
 6548SOL     OW20542   1.091   3.651   0.062
 6548SOL    HW120543   1.016   3.667   0.126
 6548SOL    HW220544   1.112   3.554   0.059
 6549SOL     OW20545   4.127   1.454   0.599
 6549SOL    HW120546   4.082   1.489   0.517
 6549SOL    HW220547   4.195   1.521   0.630
 6550SOL     OW20548   0.091   6.590   3.369
 6550SOL    HW120549   0.030   6.653   3.418
 6550SOL    HW220550   0.178   6.635   3.350
 6551SOL     OW20551   1.889   4.137   1.874
 6551SOL    HW120552   1.943   4.111   1.793
 6551SOL    HW220553   1.826   4.063   1.897
 6552SOL     OW20554   2.385   6.692   5.186
 6552SOL    HW120555   2.340   6.697   5.275
 6552SOL    HW220556   2.339   6.753   5.121
 6553SOL     OW20557   0.613   1.567   2.431
 6553SOL    HW120558   0.527   1.528   2.398
 6553SOL    HW220559   0.634   1.531   2.522
 6554SOL     OW20560   6.285   1.482   5.795
 6554SOL    HW120561   6.192   1.496   5.829
 6554SOL    HW220562   6.323   1.399   5.835
 6555SOL     OW20563   1.211   2.007   1.602
 6555SOL    HW120564   1.286   1.980   1.662
 6555SOL    HW220565   1.153   1.928   1.584
 6556SOL     OW20566   4.643   4.727   5.067
 6556SOL    HW120567   4.731   4.681   5.058
 6556SOL    HW220568   4.657   4.817   5.107
 6557SOL     OW20569   5.030   5.382   1.062
 6557SOL    HW120570   4.971   5.436   1.123
 6557SOL    HW220571   5.061   5.300   1.109
 6558SOL     OW20572   5.938   5.845   0.827
 6558SOL    HW120573   5.933   5.861   0.926
 6558SOL    HW220574   5.858   5.793   0.798
 6559SOL     OW20575   6.714   4.033   6.565
 6559SOL    HW120576   6.688   4.083   6.648
 6559SOL    HW220577   6.776   3.959   6.589
 6560SOL     OW20578   3.596   3.172   1.494
 6560SOL    HW120579   3.567   3.256   1.448
 6560SOL    HW220580   3.526   3.102   1.484
 6561SOL     OW20581   3.659   3.873   2.518
 6561SOL    HW120582   3.691   3.854   2.610
 6561SOL    HW220583   3.568   3.913   2.521
 6562SOL     OW20584   5.689   4.534   6.986
 6562SOL    HW120585   5.677   4.613   6.926
 6562SOL    HW220586   5.603   4.484   6.995
 6563SOL     OW20587   0.354   6.370   7.011
 6563SOL    HW120588   0.429   6.417   6.965
 6563SOL    HW220589   0.315   6.430   0.053
 6564SOL     OW20590   6.898   4.253   2.260
 6564SOL    HW120591   6.814   4.203   2.237
 6564SOL    HW220592   6.881   4.351   2.255
 6565SOL     OW20593   5.864   2.347   4.007
 6565SOL    HW120594   5.796   2.410   4.044
 6565SOL    HW220595   5.954   2.390   4.011
 6566SOL     OW20596   3.099   6.816   0.806
 6566SOL    HW120597   3.112   6.721   0.779
 6566SOL    HW220598   3.188   6.860   0.816
 6567SOL     OW20599   3.970   2.271   1.289
 6567SOL    HW120600   3.897   2.210   1.319
 6567SOL    HW220601   3.940   2.321   1.208
 6568SOL     OW20602   4.959   5.468   2.887
 6568SOL    HW120603   4.954   5.368   2.890
 6568SOL    HW220604   4.870   5.506   2.863
 6569SOL     OW20605   3.693   3.799   0.591
 6569SOL    HW120606   3.696   3.829   0.686
 6569SOL    HW220607   3.739   3.711   0.583
 6570SOL     OW20608   4.421   6.887   2.009
 6570SOL    HW120609   4.361   6.869   1.930
 6570SOL    HW220610   4.505   6.929   1.977
 6571SOL     OW20611   2.923   6.346   2.170
 6571SOL    HW120612   2.969   6.335   2.082
 6571SOL    HW220613   2.950   6.432   2.212
 6572SOL     OW20614   6.610   5.274   5.426
 6572SOL    HW120615   6.634   5.228   5.512
 6572SOL    HW220616   6.685   5.335   5.399
 6573SOL     OW20617   2.674   1.301   2.907
 6573SOL    HW120618   2.614   1.313   2.828
 6573SOL    HW220619   2.758   1.254   2.878
 6574SOL     OW20620   3.104   5.897   2.229
 6574SOL    HW120621   3.039   5.962   2.191
 6574SOL    HW220622   3.054   5.823   2.276
 6575SOL     OW20623   1.136   1.740   1.717
 6575SOL    HW120624   1.069   1.676   1.679
 6575SOL    HW220625   1.214   1.690   1.753
 6576SOL     OW20626   1.364   6.918   6.688
 6576SOL    HW120627   1.397   6.864   6.611
 6576SOL    HW220628   1.433   6.987   6.712
 6577SOL     OW20629   0.220   1.711   3.451
 6577SOL    HW120630   0.304   1.659   3.466
 6577SOL    HW220631   0.218   1.790   3.512
 6578SOL     OW20632   0.503   4.449   2.726
 6578SOL    HW120633   0.407   4.425   2.737
 6578SOL    HW220634   0.542   4.399   2.649
 6579SOL     OW20635   0.220   3.989   4.684
 6579SOL    HW120636   0.192   4.084   4.691
 6579SOL    HW220637   0.279   3.965   4.761
 6580SOL     OW20638   6.994   1.420   1.236
 6580SOL    HW120639   6.980   1.359   1.314
 6580SOL    HW220640   6.906   1.437   1.191
 6581SOL     OW20641   3.245   1.043   6.513
 6581SOL    HW120642   3.267   0.950   6.485
 6581SOL    HW220643   3.303   1.068   6.591
 6582SOL     OW20644   1.534   0.592   1.851
 6582SOL    HW120645   1.622   0.552   1.823
 6582SOL    HW220646   1.479   0.522   1.897
 6583SOL     OW20647   4.027   0.178   5.345
 6583SOL    HW120648   4.000   0.182   5.249
 6583SOL    HW220649   3.952   0.141   5.400
 6584SOL     OW20650   5.227   1.588   0.250
 6584SOL    HW120651   5.204   1.552   0.340
 6584SOL    HW220652   5.290   1.665   0.260
 6585SOL     OW20653   6.766   0.939   0.426
 6585SOL    HW120654   6.752   0.914   0.522
 6585SOL    HW220655   6.682   0.921   0.375
 6586SOL     OW20656   6.361   2.347   6.109
 6586SOL    HW120657   6.360   2.340   6.010
 6586SOL    HW220658   6.268   2.339   6.144
 6587SOL     OW20659   2.899   5.500   4.127
 6587SOL    HW120660   2.923   5.405   4.106
 6587SOL    HW220661   2.973   5.560   4.099
 6588SOL     OW20662   1.721   3.966   1.956
 6588SOL    HW120663   1.754   3.872   1.948
 6588SOL    HW220664   1.621   3.966   1.953
 6589SOL     OW20665   4.709   0.503   6.517
 6589SOL    HW120666   4.658   0.547   6.443
 6589SOL    HW220667   4.665   0.416   6.540
 6590SOL     OW20668   0.953   1.258   6.073
 6590SOL    HW120669   0.913   1.321   6.007
 6590SOL    HW220670   0.889   1.244   6.149
 6591SOL     OW20671   4.655   6.187   2.465
 6591SOL    HW120672   4.680   6.272   2.420
 6591SOL    HW220673   4.643   6.203   2.563
 6592SOL     OW20674   5.972   6.581   4.074
 6592SOL    HW120675   6.028   6.664   4.074
 6592SOL    HW220676   5.896   6.593   4.010
 6593SOL     OW20677   2.437   2.233   3.497
 6593SOL    HW120678   2.372   2.309   3.490
 6593SOL    HW220679   2.415   2.177   3.577
 6594SOL     OW20680   4.096   1.758   0.364
 6594SOL    HW120681   4.043   1.705   0.430
 6594SOL    HW220682   4.119   1.701   0.286
 6595SOL     OW20683   0.566   3.513   0.891
 6595SOL    HW120684   0.663   3.499   0.873
 6595SOL    HW220685   0.524   3.561   0.814
 6596SOL     OW20686   3.519   6.704   4.805
 6596SOL    HW120687   3.518   6.755   4.892
 6596SOL    HW220688   3.463   6.753   4.738
 6597SOL     OW20689   1.274   6.160   3.089
 6597SOL    HW120690   1.282   6.079   3.148
 6597SOL    HW220691   1.346   6.225   3.112
 6598SOL     OW20692   0.892   0.115   4.397
 6598SOL    HW120693   0.829   0.094   4.322
 6598SOL    HW220694   0.934   0.031   4.430
 6599SOL     OW20695   3.428   5.700   5.381
 6599SOL    HW120696   3.409   5.794   5.409
 6599SOL    HW220697   3.382   5.636   5.444
 6600SOL     OW20698   4.562   5.321   5.869
 6600SOL    HW120699   4.552   5.365   5.780
 6600SOL    HW220700   4.472   5.300   5.907
 6601SOL     OW20701   0.957   0.849   0.161
 6601SOL    HW120702   0.910   0.877   0.244
 6601SOL    HW220703   0.911   0.888   0.081
 6602SOL     OW20704   6.617   1.393   1.765
 6602SOL    HW120705   6.639   1.328   1.692
 6602SOL    HW220706   6.591   1.343   1.847
 6603SOL     OW20707   0.675   2.874   4.177
 6603SOL    HW120708   0.761   2.826   4.197
 6603SOL    HW220709   0.645   2.851   4.085
 6604SOL     OW20710   2.053   6.388   0.751
 6604SOL    HW120711   2.106   6.312   0.790
 6604SOL    HW220712   2.085   6.405   0.657
 6605SOL     OW20713   5.422   4.584   0.575
 6605SOL    HW120714   5.371   4.571   0.660
 6605SOL    HW220715   5.504   4.526   0.576
 6606SOL     OW20716   5.403   0.027   2.226
 6606SOL    HW120717   5.341   0.098   2.260
 6606SOL    HW220718   5.489   0.031   2.277
 6607SOL     OW20719   1.397   2.151   1.162
 6607SOL    HW120720   1.372   2.066   1.208
 6607SOL    HW220721   1.354   2.228   1.209
 6608SOL     OW20722   5.178   5.220   1.699
 6608SOL    HW120723   5.097   5.177   1.739
 6608SOL    HW220724   5.210   5.166   1.622
 6609SOL     OW20725   4.476   1.049   6.281
 6609SOL    HW120726   4.451   0.954   6.297
 6609SOL    HW220727   4.574   1.055   6.259
 6610SOL     OW20728   2.363   1.234   6.171
 6610SOL    HW120729   2.396   1.140   6.181
 6610SOL    HW220730   2.345   1.273   6.261
 6611SOL     OW20731   6.374   2.574   3.252
 6611SOL    HW120732   6.336   2.651   3.200
 6611SOL    HW220733   6.413   2.507   3.189
 6612SOL     OW20734   0.349   2.781   6.724
 6612SOL    HW120735   0.296   2.798   6.807
 6612SOL    HW220736   0.345   2.683   6.701
 6613SOL     OW20737   5.545   5.666   4.296
 6613SOL    HW120738   5.602   5.584   4.283
 6613SOL    HW220739   5.583   5.741   4.242
 6614SOL     OW20740   5.196   6.112   6.713
 6614SOL    HW120741   5.183   6.181   6.784
 6614SOL    HW220742   5.263   6.045   6.743
 6615SOL     OW20743   1.275   4.786   3.827
 6615SOL    HW120744   1.342   4.824   3.891
 6615SOL    HW220745   1.265   4.847   3.749
 6616SOL     OW20746   4.153   1.157   6.456
 6616SOL    HW120747   4.222   1.106   6.405
 6616SOL    HW220748   4.165   1.141   6.554
 6617SOL     OW20749   3.303   6.206   2.963
 6617SOL    HW120750   3.262   6.165   3.044
 6617SOL    HW220751   3.234   6.208   2.890
 6618SOL     OW20752   1.255   3.147   3.210
 6618SOL    HW120753   1.328   3.208   3.179
 6618SOL    HW220754   1.193   3.197   3.270
 6619SOL     OW20755   0.021   6.846   4.340
 6619SOL    HW120756   6.969   6.802   4.300
 6619SOL    HW220757   0.019   6.835   4.440
 6620SOL     OW20758   2.474   2.756   5.291
 6620SOL    HW120759   2.483   2.838   5.235
 6620SOL    HW220760   2.563   2.712   5.300
 6621SOL     OW20761   2.261   3.292   0.084
 6621SOL    HW120762   2.337   3.263   0.027
 6621SOL    HW220763   2.240   3.221   0.151
 6622SOL     OW20764   5.868   6.134   1.503
 6622SOL    HW120765   5.797   6.122   1.573
 6622SOL    HW220766   5.942   6.190   1.540
 6623SOL     OW20767   2.560   3.618   1.156
 6623SOL    HW120768   2.650   3.661   1.162
 6623SOL    HW220769   2.490   3.684   1.182
 6624SOL     OW20770   1.854   0.497   4.072
 6624SOL    HW120771   1.905   0.492   4.158
 6624SOL    HW220772   1.806   0.584   4.066
 6625SOL     OW20773   5.094   1.946   6.008
 6625SOL    HW120774   5.145   1.943   5.922
 6625SOL    HW220775   5.071   2.040   6.031
 6626SOL     OW20776   3.855   4.888   4.670
 6626SOL    HW120777   3.810   4.919   4.754
 6626SOL    HW220778   3.828   4.946   4.593
 6627SOL     OW20779   2.570   0.725   6.059
 6627SOL    HW120780   2.525   0.803   6.103
 6627SOL    HW220781   2.553   0.642   6.112
 6628SOL     OW20782   4.420   4.928   4.280
 6628SOL    HW120783   4.498   4.946   4.340
 6628SOL    HW220784   4.343   4.894   4.334
 6629SOL     OW20785   2.527   5.623   6.685
 6629SOL    HW120786   2.568   5.642   6.775
 6629SOL    HW220787   2.562   5.536   6.651
 6630SOL     OW20788   3.601   1.767   1.624
 6630SOL    HW120789   3.536   1.758   1.699
 6630SOL    HW220790   3.569   1.837   1.560
 6631SOL     OW20791   4.107   0.358   2.270
 6631SOL    HW120792   4.133   0.448   2.236
 6631SOL    HW220793   4.009   0.356   2.286
 6632SOL     OW20794   0.481   0.361   1.914
 6632SOL    HW120795   0.576   0.330   1.906
 6632SOL    HW220796   0.437   0.315   1.991
 6633SOL     OW20797   1.213   4.702   5.738
 6633SOL    HW120798   1.215   4.763   5.818
 6633SOL    HW220799   1.204   4.756   5.655
 6634SOL     OW20800   5.988   2.693   5.179
 6634SOL    HW120801   6.051   2.739   5.243
 6634SOL    HW220802   6.013   2.596   5.172
 6635SOL     OW20803   4.012   5.263   3.284
 6635SOL    HW120804   4.060   5.198   3.343
 6635SOL    HW220805   4.065   5.348   3.279
 6636SOL     OW20806   3.343   1.950   6.198
 6636SOL    HW120807   3.389   1.908   6.277
 6636SOL    HW220808   3.325   2.046   6.219
 6637SOL     OW20809   1.640   0.398   6.281
 6637SOL    HW120810   1.664   0.301   6.292
 6637SOL    HW220811   1.701   0.439   6.212
 6638SOL     OW20812   3.909   4.721   5.268
 6638SOL    HW120813   3.868   4.811   5.257
 6638SOL    HW220814   4.008   4.729   5.271
 6639SOL     OW20815   5.809   5.680   0.034
 6639SOL    HW120816   5.756   5.616   7.007
 6639SOL    HW220817   5.906   5.669   0.013
 6640SOL     OW20818   0.027   2.237   5.229
 6640SOL    HW120819   0.027   2.229   5.129
 6640SOL    HW220820   0.066   2.153   5.269
 6641SOL     OW20821   2.178   2.449   6.841
 6641SOL    HW120822   2.140   2.472   6.931
 6641SOL    HW220823   2.145   2.515   6.773
 6642SOL     OW20824   2.412   5.651   0.349
 6642SOL    HW120825   2.405   5.715   0.426
 6642SOL    HW220826   2.483   5.682   0.286
 6643SOL     OW20827   6.407   4.489   6.616
 6643SOL    HW120828   6.320   4.523   6.651
 6643SOL    HW220829   6.395   4.395   6.583
 6644SOL     OW20830   2.847   4.835   1.864
 6644SOL    HW120831   2.915   4.811   1.794
 6644SOL    HW220832   2.859   4.777   1.944
 6645SOL     OW20833   0.053   5.006   0.368
 6645SOL    HW120834   7.021   5.081   0.340
 6645SOL    HW220835   0.141   5.015   0.321
 6646SOL     OW20836   3.781   6.369   4.660
 6646SOL    HW120837   3.813   6.278   4.632
 6646SOL    HW220838   3.825   6.439   4.604
 6647SOL     OW20839   3.923   1.110   2.094
 6647SOL    HW120840   3.980   1.129   2.014
 6647SOL    HW220841   3.953   1.167   2.171
 6648SOL     OW20842   3.531   5.866   2.060
 6648SOL    HW120843   3.591   5.858   1.980
 6648SOL    HW220844   3.443   5.823   2.040
 6649SOL     OW20845   4.958   1.680   0.149
 6649SOL    HW120846   5.045   1.661   0.195
 6649SOL    HW220847   4.889   1.613   0.179
 6650SOL     OW20848   4.151   1.175   5.419
 6650SOL    HW120849   4.184   1.148   5.328
 6650SOL    HW220850   4.074   1.238   5.408
 6651SOL     OW20851   2.150   1.626   6.735
 6651SOL    HW120852   2.235   1.599   6.780
 6651SOL    HW220853   2.140   1.725   6.740
 6652SOL     OW20854   6.782   5.121   0.482
 6652SOL    HW120855   6.815   5.160   0.396
 6652SOL    HW220856   6.687   5.148   0.497
 6653SOL     OW20857   3.374   3.155   2.694
 6653SOL    HW120858   3.470   3.160   2.723
 6653SOL    HW220859   3.357   3.223   2.624
 6654SOL     OW20860   1.980   3.192   0.977
 6654SOL    HW120861   2.065   3.150   0.946
 6654SOL    HW220862   1.906   3.168   0.914
 6655SOL     OW20863   3.280   6.865   1.370
 6655SOL    HW120864   3.376   6.835   1.370
 6655SOL    HW220865   3.245   6.865   1.277
 6656SOL     OW20866   6.183   1.753   2.195
 6656SOL    HW120867   6.185   1.755   2.096
 6656SOL    HW220868   6.089   1.749   2.228
 6657SOL     OW20869   4.838   6.064   6.505
 6657SOL    HW120870   4.910   6.077   6.437
 6657SOL    HW220871   4.770   6.000   6.469
 6658SOL     OW20872   5.939   1.689   4.940
 6658SOL    HW120873   5.950   1.776   4.891
 6658SOL    HW220874   5.934   1.615   4.874
 6659SOL     OW20875   2.151   2.210   0.882
 6659SOL    HW120876   2.119   2.270   0.808
 6659SOL    HW220877   2.228   2.156   0.850
 6660SOL     OW20878   0.490   6.102   0.902
 6660SOL    HW120879   0.481   6.186   0.954
 6660SOL    HW220880   0.400   6.062   0.886
 6661SOL     OW20881   0.402   5.844   4.002
 6661SOL    HW120882   0.439   5.815   4.090
 6661SOL    HW220883   0.367   5.938   4.009
 6662SOL     OW20884   1.215   0.512   6.815
 6662SOL    HW120885   1.176   0.447   6.749
 6662SOL    HW220886   1.293   0.559   6.773
 6663SOL     OW20887   6.910   5.085   2.640
 6663SOL    HW120888   6.827   5.075   2.585
 6663SOL    HW220889   6.887   5.075   2.737
 6664SOL     OW20890   1.610   6.738   0.904
 6664SOL    HW120891   1.661   6.765   0.822
 6664SOL    HW220892   1.525   6.789   0.909
 6665SOL     OW20893   2.203   0.537   3.422
 6665SOL    HW120894   2.195   0.438   3.432
 6665SOL    HW220895   2.183   0.581   3.510
 6666SOL     OW20896   5.631   1.192   6.365
 6666SOL    HW120897   5.546   1.228   6.402
 6666SOL    HW220898   5.611   1.121   6.298
 6667SOL     OW20899   0.189   5.048   5.393
 6667SOL    HW120900   0.132   5.023   5.471
 6667SOL    HW220901   0.164   5.140   5.361
 6668SOL     OW20902   6.319   6.046   1.894
 6668SOL    HW120903   6.271   5.966   1.857
 6668SOL    HW220904   6.415   6.043   1.865
 6669SOL     OW20905   2.163   3.008   3.961
 6669SOL    HW120906   2.185   3.004   4.059
 6669SOL    HW220907   2.146   3.103   3.935
 6670SOL     OW20908   3.662   2.688   5.855
 6670SOL    HW120909   3.639   2.745   5.776
 6670SOL    HW220910   3.602   2.608   5.857
 6671SOL     OW20911   4.995   5.849   1.182
 6671SOL    HW120912   5.000   5.786   1.259
 6671SOL    HW220913   4.920   5.822   1.122
 6672SOL     OW20914   0.980   1.865   5.141
 6672SOL    HW120915   1.017   1.840   5.051
 6672SOL    HW220916   0.934   1.786   5.181
 6673SOL     OW20917   5.094   6.392   3.351
 6673SOL    HW120918   5.059   6.336   3.276
 6673SOL    HW220919   5.180   6.435   3.323
 6674SOL     OW20920   0.783   5.255   6.455
 6674SOL    HW120921   0.706   5.231   6.515
 6674SOL    HW220922   0.750   5.312   6.379
 6675SOL     OW20923   4.229   4.060   1.731
 6675SOL    HW120924   4.149   4.108   1.697
 6675SOL    HW220925   4.288   4.124   1.781
 6676SOL     OW20926   0.388   4.351   5.436
 6676SOL    HW120927   0.321   4.411   5.481
 6676SOL    HW220928   0.444   4.405   5.374
 6677SOL     OW20929   0.971   2.328   0.007
 6677SOL    HW120930   1.049   2.268   7.016
 6677SOL    HW220931   0.909   2.283   0.072
 6678SOL     OW20932   2.327   2.327   0.506
 6678SOL    HW120933   2.334   2.271   0.424
 6678SOL    HW220934   2.419   2.343   0.544
 6679SOL     OW20935   2.868   1.665   4.169
 6679SOL    HW120936   2.828   1.733   4.108
 6679SOL    HW220937   2.837   1.682   4.263
 6680SOL     OW20938   4.248   6.698   6.468
 6680SOL    HW120939   4.304   6.689   6.385
 6680SOL    HW220940   4.182   6.772   6.456
 6681SOL     OW20941   4.804   4.980   0.290
 6681SOL    HW120942   4.836   5.030   0.371
 6681SOL    HW220943   4.879   4.926   0.253
 6682SOL     OW20944   1.342   4.091   2.093
 6682SOL    HW120945   1.386   4.003   2.081
 6682SOL    HW220946   1.249   4.078   2.127
 6683SOL     OW20947   4.753   2.798   5.933
 6683SOL    HW120948   4.658   2.781   5.907
 6683SOL    HW220949   4.807   2.819   5.851
 6684SOL     OW20950   1.776   6.748   0.684
 6684SOL    HW120951   1.822   6.680   0.628
 6684SOL    HW220952   1.778   6.837   0.638
 6685SOL     OW20953   5.566   3.087   5.143
 6685SOL    HW120954   5.636   3.045   5.085
 6685SOL    HW220955   5.595   3.085   5.238
 6686SOL     OW20956   5.162   5.779   3.821
 6686SOL    HW120957   5.205   5.690   3.811
 6686SOL    HW220958   5.230   5.851   3.805
 6687SOL     OW20959   0.164   2.085   1.092
 6687SOL    HW120960   0.264   2.088   1.081
 6687SOL    HW220961   0.139   2.118   1.183
 6688SOL     OW20962   6.780   4.276   1.895
 6688SOL    HW120963   6.831   4.190   1.887
 6688SOL    HW220964   6.843   4.351   1.912
 6689SOL     OW20965   4.219   3.064   0.546
 6689SOL    HW120966   4.197   2.968   0.526
 6689SOL    HW220967   4.174   3.123   0.479
 6690SOL     OW20968   2.385   0.875   1.948
 6690SOL    HW120969   2.334   0.957   1.920
 6690SOL    HW220970   2.404   0.819   1.868
 6691SOL     OW20971   3.178   5.951   1.856
 6691SOL    HW120972   3.225   6.028   1.900
 6691SOL    HW220973   3.080   5.969   1.854
 6692SOL     OW20974   2.810   4.667   5.391
 6692SOL    HW120975   2.853   4.629   5.309
 6692SOL    HW220976   2.872   4.733   5.433
 6693SOL     OW20977   4.477   3.441   5.947
 6693SOL    HW120978   4.440   3.427   6.039
 6693SOL    HW220979   4.576   3.428   5.948
 6694SOL     OW20980   4.936   6.409   0.134
 6694SOL    HW120981   4.930   6.468   0.215
 6694SOL    HW220982   4.940   6.466   0.052
 6695SOL     OW20983   2.277   2.266   5.704
 6695SOL    HW120984   2.356   2.298   5.652
 6695SOL    HW220985   2.208   2.339   5.707
 6696SOL     OW20986   1.820   2.034   0.133
 6696SOL    HW120987   1.807   2.094   0.213
 6696SOL    HW220988   1.807   1.939   0.161
 6697SOL     OW20989   4.819   2.512   3.318
 6697SOL    HW120990   4.833   2.417   3.346
 6697SOL    HW220991   4.723   2.537   3.333
 6698SOL     OW20992   3.225   2.990   0.482
 6698SOL    HW120993   3.128   2.988   0.502
 6698SOL    HW220994   3.277   2.984   0.567
 6699SOL     OW20995   3.324   4.946   6.861
 6699SOL    HW120996   3.377   4.950   6.776
 6699SOL    HW220997   3.274   5.032   6.873
 6700SOL     OW20998   0.091   6.371   1.026
 6700SOL    HW120999   0.130   6.328   0.945
 6700SOL    HW221000   0.162   6.423   1.074
 6701SOL     OW21001   5.506   3.087   1.462
 6701SOL    HW121002   5.523   3.102   1.559
 6701SOL    HW221003   5.575   3.026   1.424
 6702SOL     OW21004   2.552   2.731   0.406
 6702SOL    HW121005   2.547   2.633   0.428
 6702SOL    HW221006   2.485   2.781   0.462
 6703SOL     OW21007   6.503   1.720   6.895
 6703SOL    HW121008   6.425   1.771   6.932
 6703SOL    HW221009   6.520   1.639   6.951
 6704SOL     OW21010   4.207   2.302   2.852
 6704SOL    HW121011   4.214   2.215   2.901
 6704SOL    HW221012   4.224   2.378   2.915
 6705SOL     OW21013   0.105   2.089   1.804
 6705SOL    HW121014   0.070   2.174   1.844
 6705SOL    HW221015   0.186   2.110   1.748
 6706SOL     OW21016   1.239   3.919   0.792
 6706SOL    HW121017   1.295   3.997   0.766
 6706SOL    HW221018   1.238   3.911   0.892
 6707SOL     OW21019   0.129   5.391   4.655
 6707SOL    HW121020   0.131   5.291   4.653
 6707SOL    HW221021   0.120   5.422   4.749
 6708SOL     OW21022   1.628   5.311   2.421
 6708SOL    HW121023   1.692   5.302   2.344
 6708SOL    HW221024   1.619   5.223   2.467
 6709SOL     OW21025   3.119   5.485   2.064
 6709SOL    HW121026   3.202   5.540   2.054
 6709SOL    HW221027   3.135   5.411   2.128
 6710SOL     OW21028   2.772   1.828   6.052
 6710SOL    HW121029   2.818   1.751   6.008
 6710SOL    HW221030   2.812   1.843   6.142
 6711SOL     OW21031   5.309   4.665   6.584
 6711SOL    HW121032   5.292   4.566   6.584
 6711SOL    HW221033   5.264   4.706   6.663
 6712SOL     OW21034   4.435   5.273   0.288
 6712SOL    HW121035   4.463   5.182   0.256
 6712SOL    HW221036   4.515   5.329   0.304
 6713SOL     OW21037   1.942   2.091   1.394
 6713SOL    HW121038   2.041   2.104   1.380
 6713SOL    HW221039   1.894   2.110   1.308
 6714SOL     OW21040   5.346   0.556   6.070
 6714SOL    HW121041   5.404   0.557   5.988
 6714SOL    HW221042   5.375   0.628   6.133
 6715SOL     OW21043   0.091   0.534   6.943
 6715SOL    HW121044   7.020   0.527   6.936
 6715SOL    HW221045   0.133   0.479   6.871
 6716SOL     OW21046   0.955   5.690   2.126
 6716SOL    HW121047   0.916   5.689   2.218
 6716SOL    HW221048   0.939   5.601   2.083
 6717SOL     OW21049   4.305   2.628   0.963
 6717SOL    HW121050   4.221   2.619   1.017
 6717SOL    HW221051   4.327   2.725   0.952
 6718SOL     OW21052   3.814   6.527   6.375
 6718SOL    HW121053   3.837   6.490   6.464
 6718SOL    HW221054   3.813   6.454   6.307
 6719SOL     OW21055   0.299   0.253   6.061
 6719SOL    HW121056   0.345   0.170   6.092
 6719SOL    HW221057   0.367   0.325   6.046
 6720SOL     OW21058   1.606   6.260   2.379
 6720SOL    HW121059   1.507   6.273   2.371
 6720SOL    HW221060   1.636   6.291   2.469
 6721SOL     OW21061   5.977   6.695   4.541
 6721SOL    HW121062   5.946   6.757   4.613
 6721SOL    HW221063   6.025   6.618   4.583
 6722SOL     OW21064   5.610   2.964   1.013
 6722SOL    HW121065   5.702   2.998   1.029
 6722SOL    HW221066   5.547   3.041   1.006
 6723SOL     OW21067   2.162   6.940   3.199
 6723SOL    HW121068   2.174   6.993   3.282
 6723SOL    HW221069   2.160   7.001   3.120
 6724SOL     OW21070   1.291   3.804   5.825
 6724SOL    HW121071   1.291   3.727   5.761
 6724SOL    HW221072   1.197   3.831   5.846
 6725SOL     OW21073   0.662   4.215   2.117
 6725SOL    HW121074   0.680   4.137   2.057
 6725SOL    HW221075   0.661   4.299   2.063
 6726SOL     OW21076   0.645   1.974   4.388
 6726SOL    HW121077   0.633   1.905   4.317
 6726SOL    HW221078   0.555   2.011   4.413
 6727SOL     OW21079   6.418   3.905   5.717
 6727SOL    HW121080   6.454   3.995   5.693
 6727SOL    HW221081   6.469   3.869   5.795
 6728SOL     OW21082   4.516   1.399   4.417
 6728SOL    HW121083   4.521   1.445   4.329
 6728SOL    HW221084   4.577   1.444   4.482
 6729SOL     OW21085   6.623   1.506   2.208
 6729SOL    HW121086   6.537   1.496   2.258
 6729SOL    HW221087   6.648   1.603   2.204
 6730SOL     OW21088   1.792   6.289   6.557
 6730SOL    HW121089   1.844   6.220   6.506
 6730SOL    HW221090   1.751   6.353   6.492
 6731SOL     OW21091   2.108   4.547   1.088
 6731SOL    HW121092   2.133   4.623   1.148
 6731SOL    HW221093   2.159   4.556   1.002
 6732SOL     OW21094   3.768   5.536   6.422
 6732SOL    HW121095   3.867   5.527   6.428
 6732SOL    HW221096   3.739   5.615   6.477
 6733SOL     OW21097   4.158   5.164   6.639
 6733SOL    HW121098   4.190   5.074   6.607
 6733SOL    HW221099   4.168   5.169   6.738
 6734SOL     OW21100   0.529   3.267   5.867
 6734SOL    HW121101   0.523   3.211   5.785
 6734SOL    HW221102   0.444   3.318   5.880
 6735SOL     OW21103   0.705   5.588   4.730
 6735SOL    HW121104   0.723   5.498   4.771
 6735SOL    HW221105   0.685   5.576   4.632
 6736SOL     OW21106   2.176   3.459   0.323
 6736SOL    HW121107   2.084   3.449   0.286
 6736SOL    HW221108   2.178   3.537   0.386
 6737SOL     OW21109   1.761   2.429   1.003
 6737SOL    HW121110   1.661   2.427   0.995
 6737SOL    HW221111   1.795   2.515   0.963
 6738SOL     OW21112   1.936   2.937   1.944
 6738SOL    HW121113   2.027   2.912   1.977
 6738SOL    HW221114   1.944   2.986   1.857
 6739SOL     OW21115   2.711   5.095   5.941
 6739SOL    HW121116   2.741   5.017   5.995
 6739SOL    HW221117   2.677   5.063   5.852
 6740SOL     OW21118   1.847   1.567   4.681
 6740SOL    HW121119   1.818   1.477   4.715
 6740SOL    HW221120   1.919   1.554   4.612
 6741SOL     OW21121   4.282   1.480   6.300
 6741SOL    HW121122   4.348   1.415   6.263
 6741SOL    HW221123   4.287   1.479   6.400
 6742SOL     OW21124   0.322   5.706   3.117
 6742SOL    HW121125   0.313   5.607   3.112
 6742SOL    HW221126   0.385   5.738   3.046
 6743SOL     OW21127   4.226   4.411   6.872
 6743SOL    HW121128   4.168   4.429   6.792
 6743SOL    HW221129   4.298   4.480   6.877
 6744SOL     OW21130   4.645   5.596   5.880
 6744SOL    HW121131   4.627   5.669   5.945
 6744SOL    HW221132   4.604   5.511   5.913
 6745SOL     OW21133   1.064   5.735   2.623
 6745SOL    HW121134   1.125   5.775   2.690
 6745SOL    HW221135   0.975   5.780   2.628
 6746SOL     OW21136   0.426   0.924   3.028
 6746SOL    HW121137   0.349   0.868   3.059
 6746SOL    HW221138   0.458   0.890   2.940
 6747SOL     OW21139   5.144   6.106   4.685
 6747SOL    HW121140   5.225   6.063   4.724
 6747SOL    HW221141   5.158   6.119   4.586
 6748SOL     OW21142   1.428   0.423   2.780
 6748SOL    HW121143   1.361   0.374   2.724
 6748SOL    HW221144   1.518   0.381   2.769
 6749SOL     OW21145   2.840   6.689   6.750
 6749SOL    HW121146   2.891   6.607   6.776
 6749SOL    HW221147   2.896   6.770   6.769
 6750SOL     OW21148   3.826   1.950   4.593
 6750SOL    HW121149   3.782   1.879   4.649
 6750SOL    HW221150   3.756   2.003   4.546
 6751SOL     OW21151   3.552   1.880   4.075
 6751SOL    HW121152   3.638   1.882   4.126
 6751SOL    HW221153   3.566   1.833   3.988
 6752SOL     OW21154   6.118   3.227   2.245
 6752SOL    HW121155   6.158   3.166   2.176
 6752SOL    HW221156   6.070   3.302   2.198
 6753SOL     OW21157   4.493   1.677   6.563
 6753SOL    HW121158   4.556   1.604   6.536
 6753SOL    HW221159   4.405   1.637   6.588
 6754SOL     OW21160   6.412   2.257   5.525
 6754SOL    HW121161   6.400   2.195   5.448
 6754SOL    HW221162   6.340   2.243   5.592
 6755SOL     OW21163   5.256   1.749   3.964
 6755SOL    HW121164   5.194   1.813   3.918
 6755SOL    HW221165   5.222   1.731   4.057
 6756SOL     OW21166   4.650   4.418   4.435
 6756SOL    HW121167   4.557   4.456   4.439
 6756SOL    HW221168   4.688   4.412   4.527
 6757SOL     OW21169   4.693   6.050   0.560
 6757SOL    HW121170   4.745   6.133   0.541
 6757SOL    HW221171   4.722   5.978   0.497
 6758SOL     OW21172   5.167   3.752   2.189
 6758SOL    HW121173   5.223   3.683   2.144
 6758SOL    HW221174   5.161   3.833   2.131
 6759SOL     OW21175   0.802   4.502   4.274
 6759SOL    HW121176   0.714   4.469   4.239
 6759SOL    HW221177   0.870   4.501   4.201
 6760SOL     OW21178   6.270   4.899   4.616
 6760SOL    HW121179   6.204   4.951   4.670
 6760SOL    HW221180   6.288   4.812   4.662
 6761SOL     OW21181   5.526   2.370   5.905
 6761SOL    HW121182   5.548   2.331   5.815
 6761SOL    HW221183   5.611   2.395   5.951
 6762SOL     OW21184   7.003   5.485   3.004
 6762SOL    HW121185   0.015   5.397   2.979
 6762SOL    HW221186   6.994   5.490   3.104
 6763SOL     OW21187   6.249   6.156   4.300
 6763SOL    HW121188   6.346   6.153   4.277
 6763SOL    HW221189   6.205   6.230   4.250
 6764SOL     OW21190   2.942   3.897   6.585
 6764SOL    HW121191   3.019   3.919   6.524
 6764SOL    HW221192   2.971   3.830   6.653
 6765SOL     OW21193   6.357   4.941   3.683
 6765SOL    HW121194   6.291   4.883   3.635
 6765SOL    HW221195   6.398   5.005   3.618
 6766SOL     OW21196   2.666   0.044   5.937
 6766SOL    HW121197   2.704   0.062   5.846
 6766SOL    HW221198   2.610   6.989   5.934
 6767SOL     OW21199   0.277   2.967   1.013
 6767SOL    HW121200   0.197   2.912   1.039
 6767SOL    HW221201   0.298   2.951   0.916
 6768SOL     OW21202   0.794   0.579   3.497
 6768SOL    HW121203   0.743   0.643   3.555
 6768SOL    HW221204   0.736   0.501   3.474
 6769SOL     OW21205   3.105   1.730   5.335
 6769SOL    HW121206   3.154   1.766   5.414
 6769SOL    HW221207   3.030   1.793   5.311
 6770SOL     OW21208   0.078   2.509   4.609
 6770SOL    HW121209   0.005   2.566   4.572
 6770SOL    HW221210   0.141   2.565   4.663
 6771SOL     OW21211   3.873   2.171   3.606
 6771SOL    HW121212   3.849   2.182   3.510
 6771SOL    HW221213   3.798   2.124   3.654
 6772SOL     OW21214   5.422   2.146   2.308
 6772SOL    HW121215   5.364   2.226   2.295
 6772SOL    HW221216   5.479   2.159   2.390
 6773SOL     OW21217   6.822   6.750   1.265
 6773SOL    HW121218   6.812   6.838   1.312
 6773SOL    HW221219   6.907   6.751   1.212
 6774SOL     OW21220   1.811   1.769   5.391
 6774SOL    HW121221   1.850   1.688   5.348
 6774SOL    HW221222   1.884   1.829   5.423
 6775SOL     OW21223   1.382   1.809   3.532
 6775SOL    HW121224   1.449   1.882   3.546
 6775SOL    HW221225   1.351   1.810   3.437
 6776SOL     OW21226   3.721   3.862   1.287
 6776SOL    HW121227   3.754   3.917   1.364
 6776SOL    HW221228   3.624   3.881   1.271
 6777SOL     OW21229   4.213   5.430   1.097
 6777SOL    HW121230   4.275   5.419   1.019
 6777SOL    HW221231   4.257   5.393   1.179
 6778SOL     OW21232   5.283   3.624   2.514
 6778SOL    HW121233   5.203   3.683   2.510
 6778SOL    HW221234   5.256   3.532   2.543
 6779SOL     OW21235   6.124   4.308   6.156
 6779SOL    HW121236   6.081   4.328   6.244
 6779SOL    HW221237   6.085   4.224   6.118
 6780SOL     OW21238   2.453   2.685   3.034
 6780SOL    HW121239   2.386   2.752   3.066
 6780SOL    HW221240   2.471   2.619   3.106
 6781SOL     OW21241   6.524   1.034   3.967
 6781SOL    HW121242   6.577   1.016   4.050
 6781SOL    HW221243   6.430   1.058   3.992
 6782SOL     OW21244   7.008   1.269   3.523
 6782SOL    HW121245   6.958   1.247   3.607
 6782SOL    HW221246   6.953   1.245   3.444
 6783SOL     OW21247   1.530   4.471   5.179
 6783SOL    HW121248   1.486   4.486   5.091
 6783SOL    HW221249   1.561   4.376   5.185
 6784SOL     OW21250   2.254   3.218   1.771
 6784SOL    HW121251   2.236   3.162   1.852
 6784SOL    HW221252   2.288   3.308   1.801
 6785SOL     OW21253   5.465   4.556   5.077
 6785SOL    HW121254   5.410   4.526   5.000
 6785SOL    HW221255   5.495   4.650   5.063
 6786SOL     OW21256   6.295   3.001   0.840
 6786SOL    HW121257   6.256   3.056   0.913
 6786SOL    HW221258   6.246   2.914   0.833
 6787SOL     OW21259   3.497   2.471   0.795
 6787SOL    HW121260   3.416   2.529   0.797
 6787SOL    HW221261   3.571   2.516   0.845
 6788SOL     OW21262   1.097   4.120   2.997
 6788SOL    HW121263   1.000   4.136   3.016
 6788SOL    HW221264   1.107   4.070   2.911
 6789SOL     OW21265   6.446   4.130   4.480
 6789SOL    HW121266   6.386   4.050   4.482
 6789SOL    HW221267   6.491   4.141   4.569
 6790SOL     OW21268   0.813   4.968   6.058
 6790SOL    HW121269   0.884   4.978   5.989
 6790SOL    HW221270   0.854   4.946   6.146
 6791SOL     OW21271   4.321   1.437   3.919
 6791SOL    HW121272   4.314   1.533   3.892
 6791SOL    HW221273   4.368   1.386   3.847
 6792SOL     OW21274   4.156   0.104   5.042
 6792SOL    HW121275   4.069   0.144   5.073
 6792SOL    HW221276   4.149   0.004   5.045
 6793SOL     OW21277   2.749   2.516   6.959
 6793SOL    HW121278   2.699   2.551   0.011
 6793SOL    HW221279   2.718   2.423   6.939
 6794SOL     OW21280   4.569   1.509   5.891
 6794SOL    HW121281   4.647   1.563   5.862
 6794SOL    HW221282   4.525   1.553   5.970
 6795SOL     OW21283   1.400   0.639   1.239
 6795SOL    HW121284   1.405   0.594   1.328
 6795SOL    HW221285   1.452   0.724   1.241
 6796SOL     OW21286   6.545   1.036   2.173
 6796SOL    HW121287   6.521   1.109   2.110
 6796SOL    HW221288   6.464   1.008   2.225
 6797SOL     OW21289   6.767   2.366   2.064
 6797SOL    HW121290   6.675   2.392   2.033
 6797SOL    HW221291   6.806   2.441   2.118
 6798SOL     OW21292   5.072   0.539   1.656
 6798SOL    HW121293   5.143   0.600   1.691
 6798SOL    HW221294   5.054   0.467   1.723
 6799SOL     OW21295   5.802   6.930   3.639
 6799SOL    HW121296   5.888   6.959   3.596
 6799SOL    HW221297   5.772   6.845   3.597
 6800SOL     OW21298   1.134   0.839   1.395
 6800SOL    HW121299   1.159   0.841   1.299
 6800SOL    HW221300   1.201   0.891   1.448
 6801SOL     OW21301   1.309   6.187   4.769
 6801SOL    HW121302   1.296   6.286   4.767
 6801SOL    HW221303   1.243   6.143   4.708
 6802SOL     OW21304   3.025   6.187   1.612
 6802SOL    HW121305   3.055   6.114   1.551
 6802SOL    HW221306   3.100   6.211   1.674
 6803SOL     OW21307   4.949   4.583   0.322
 6803SOL    HW121308   4.947   4.491   0.282
 6803SOL    HW221309   5.017   4.586   0.395
 6804SOL     OW21310   2.593   4.860   2.979
 6804SOL    HW121311   2.543   4.776   3.000
 6804SOL    HW221312   2.593   4.875   2.880
 6805SOL     OW21313   0.169   5.119   5.858
 6805SOL    HW121314   0.250   5.084   5.904
 6805SOL    HW221315   0.088   5.097   5.912
 6806SOL     OW21316   6.886   0.718   3.684
 6806SOL    HW121317   6.888   0.618   3.685
 6806SOL    HW221318   6.837   0.752   3.764
 6807SOL     OW21319   3.511   4.120   4.003
 6807SOL    HW121320   3.506   4.176   4.086
 6807SOL    HW221321   3.462   4.035   4.016
 6808SOL     OW21322   4.708   1.058   5.186
 6808SOL    HW121323   4.743   1.138   5.234
 6808SOL    HW221324   4.647   1.006   5.247
 6809SOL     OW21325   5.784   4.719   1.911
 6809SOL    HW121326   5.771   4.734   2.009
 6809SOL    HW221327   5.804   4.623   1.894
 6810SOL     OW21328   3.326   1.070   3.387
 6810SOL    HW121329   3.373   0.998   3.437
 6810SOL    HW221330   3.271   1.029   3.314
 6811SOL     OW21331   6.373   1.648   2.372
 6811SOL    HW121332   6.319   1.570   2.402
 6811SOL    HW221333   6.320   1.703   2.308
 6812SOL     OW21334   3.427   3.740   5.707
 6812SOL    HW121335   3.388   3.653   5.737
 6812SOL    HW221336   3.420   3.808   5.780
 6813SOL     OW21337   5.371   3.301   1.340
 6813SOL    HW121338   5.355   3.301   1.242
 6813SOL    HW221339   5.390   3.208   1.371
 6814SOL     OW21340   3.939   1.349   6.456
 6814SOL    HW121341   3.843   1.322   6.449
 6814SOL    HW221342   3.997   1.268   6.449
 6815SOL     OW21343   1.785   5.123   6.590
 6815SOL    HW121344   1.714   5.182   6.550
 6815SOL    HW221345   1.870   5.134   6.539
 6816SOL     OW21346   6.894   1.823   4.470
 6816SOL    HW121347   6.798   1.820   4.443
 6816SOL    HW221348   6.920   1.738   4.515
 6817SOL     OW21349   3.046   2.248   2.916
 6817SOL    HW121350   2.982   2.313   2.958
 6817SOL    HW221351   2.997   2.164   2.892
 6818SOL     OW21352   1.980   6.256   5.812
 6818SOL    HW121353   1.984   6.353   5.834
 6818SOL    HW221354   1.896   6.238   5.759
 6819SOL     OW21355   5.019   5.187   2.811
 6819SOL    HW121356   5.011   5.137   2.724
 6819SOL    HW221357   5.102   5.158   2.859
 6820SOL     OW21358   1.830   6.746   1.567
 6820SOL    HW121359   1.827   6.675   1.496
 6820SOL    HW221360   1.742   6.794   1.569
 6821SOL     OW21361   4.397   2.540   5.322
 6821SOL    HW121362   4.488   2.533   5.283
 6821SOL    HW221363   4.365   2.635   5.317
 6822SOL     OW21364   6.949   3.187   6.154
 6822SOL    HW121365   7.003   3.116   6.109
 6822SOL    HW221366   6.999   3.273   6.153
 6823SOL     OW21367   5.589   3.378   6.988
 6823SOL    HW121368   5.627   3.287   7.004
 6823SOL    HW221369   5.613   3.438   0.037
 6824SOL     OW21370   1.642   1.523   6.816
 6824SOL    HW121371   1.576   1.567   6.754
 6824SOL    HW221372   1.735   1.536   6.781
 6825SOL     OW21373   6.830   6.295   1.335
 6825SOL    HW121374   6.809   6.207   1.291
 6825SOL    HW221375   6.928   6.312   1.331
 6826SOL     OW21376   0.908   3.365   3.134
 6826SOL    HW121377   0.856   3.448   3.114
 6826SOL    HW221378   1.005   3.383   3.120
 6827SOL     OW21379   4.490   5.642   5.388
 6827SOL    HW121380   4.569   5.583   5.402
 6827SOL    HW221381   4.422   5.595   5.331
 6828SOL     OW21382   3.762   1.438   2.950
 6828SOL    HW121383   3.801   1.377   3.020
 6828SOL    HW221384   3.722   1.518   2.995
 6829SOL     OW21385   5.121   6.946   4.842
 6829SOL    HW121386   5.117   6.937   4.941
 6829SOL    HW221387   5.124   0.015   4.818
 6830SOL     OW21388   5.727   0.848   3.116
 6830SOL    HW121389   5.664   0.796   3.059
 6830SOL    HW221390   5.678   0.919   3.166
 6831SOL     OW21391   1.304   1.427   5.362
 6831SOL    HW121392   1.358   1.359   5.312
 6831SOL    HW221393   1.310   1.408   5.460
 6832SOL     OW21394   2.874   1.896   0.656
 6832SOL    HW121395   2.843   1.904   0.751
 6832SOL    HW221396   2.960   1.946   0.645
 6833SOL     OW21397   2.978   5.625   6.191
 6833SOL    HW121398   2.996   5.718   6.158
 6833SOL    HW221399   3.002   5.559   6.120
 6834SOL     OW21400   4.902   0.415   0.727
 6834SOL    HW121401   4.982   0.365   0.760
 6834SOL    HW221402   4.881   0.386   0.633
 6835SOL     OW21403   3.585   2.119   4.476
 6835SOL    HW121404   3.530   2.117   4.392
 6835SOL    HW221405   3.525   2.137   4.554
 6836SOL     OW21406   1.965   4.526   6.298
 6836SOL    HW121407   1.955   4.430   6.270
 6836SOL    HW221408   1.938   4.585   6.222
 6837SOL     OW21409   1.362   0.391   1.998
 6837SOL    HW121410   1.432   0.371   2.067
 6837SOL    HW221411   1.277   0.418   2.043
 6838SOL     OW21412   2.577   4.534   5.191
 6838SOL    HW121413   2.640   4.561   5.118
 6838SOL    HW221414   2.492   4.499   5.151
 6839SOL     OW21415   5.428   1.752   4.375
 6839SOL    HW121416   5.434   1.705   4.463
 6839SOL    HW221417   5.489   1.832   4.376
 6840SOL     OW21418   2.546   6.655   4.896
 6840SOL    HW121419   2.485   6.603   4.954
 6840SOL    HW221420   2.641   6.631   4.916
 6841SOL     OW21421   4.019   5.598   1.653
 6841SOL    HW121422   4.064   5.594   1.742
 6841SOL    HW221423   4.079   5.645   1.588
 6842SOL     OW21424   0.305   3.346   6.969
 6842SOL    HW121425   0.386   3.374   7.021
 6842SOL    HW221426   0.294   3.406   6.890
 6843SOL     OW21427   4.613   2.143   2.084
 6843SOL    HW121428   4.598   2.216   2.151
 6843SOL    HW221429   4.525   2.107   2.053
 6844SOL     OW21430   4.357   5.247   4.876
 6844SOL    HW121431   4.322   5.195   4.798
 6844SOL    HW221432   4.453   5.271   4.859
 6845SOL     OW21433   4.409   4.539   3.020
 6845SOL    HW121434   4.489   4.488   3.050
 6845SOL    HW221435   4.406   4.540   2.920
 6846SOL     OW21436   3.466   3.287   1.965
 6846SOL    HW121437   3.542   3.230   1.937
 6846SOL    HW221438   3.490   3.384   1.953
 6847SOL     OW21439   4.840   3.286   1.884
 6847SOL    HW121440   4.868   3.318   1.793
 6847SOL    HW221441   4.799   3.195   1.876
 6848SOL     OW21442   0.566   5.083   4.352
 6848SOL    HW121443   0.636   5.136   4.304
 6848SOL    HW221444   0.604   4.994   4.378
 6849SOL     OW21445   3.825   5.396   4.063
 6849SOL    HW121446   3.768   5.460   4.011
 6849SOL    HW221447   3.767   5.336   4.118
 6850SOL     OW21448   6.000   1.878   3.432
 6850SOL    HW121449   5.963   1.812   3.368
 6850SOL    HW221450   6.075   1.837   3.483
 6851SOL     OW21451   0.638   4.979   5.672
 6851SOL    HW121452   0.652   5.060   5.614
 6851SOL    HW221453   0.725   4.933   5.687
 6852SOL     OW21454   0.726   4.024   1.935
 6852SOL    HW121455   0.755   4.101   1.878
 6852SOL    HW221456   0.745   3.938   1.887
 6853SOL     OW21457   0.679   5.620   5.742
 6853SOL    HW121458   0.705   5.524   5.725
 6853SOL    HW221459   0.749   5.680   5.703
 6854SOL     OW21460   6.548   1.856   5.968
 6854SOL    HW121461   6.635   1.830   6.009
 6854SOL    HW221462   6.507   1.931   6.021
 6855SOL     OW21463   3.855   6.829   2.763
 6855SOL    HW121464   3.912   6.818   2.681
 6855SOL    HW221465   3.871   6.919   2.803
 6856SOL     OW21466   6.451   4.261   5.025
 6856SOL    HW121467   6.522   4.325   5.056
 6856SOL    HW221468   6.489   4.168   5.022
 6857SOL     OW21469   3.203   1.593   6.352
 6857SOL    HW121470   3.185   1.682   6.310
 6857SOL    HW221471   3.244   1.532   6.284
 6858SOL     OW21472   4.129   3.366   4.133
 6858SOL    HW121473   4.217   3.407   4.156
 6858SOL    HW221474   4.094   3.315   4.211
 6859SOL     OW21475   2.310   6.994   0.436
 6859SOL    HW121476   2.381   7.005   0.504
 6859SOL    HW221477   2.246   6.922   0.465
 6860SOL     OW21478   5.868   4.838   1.653
 6860SOL    HW121479   5.906   4.776   1.585
 6860SOL    HW221480   5.830   4.786   1.729
 6861SOL     OW21481   5.745   5.288   0.503
 6861SOL    HW121482   5.693   5.218   0.551
 6861SOL    HW221483   5.813   5.328   0.564
 6862SOL     OW21484   2.465   4.817   4.827
 6862SOL    HW121485   2.372   4.800   4.795
 6862SOL    HW221486   2.513   4.730   4.839
 6863SOL     OW21487   6.216   1.395   4.684
 6863SOL    HW121488   6.171   1.344   4.610
 6863SOL    HW221489   6.311   1.413   4.658
 6864SOL     OW21490   3.350   5.610   3.528
 6864SOL    HW121491   3.297   5.665   3.463
 6864SOL    HW221492   3.288   5.551   3.579
 6865SOL     OW21493   6.175   4.277   4.266
 6865SOL    HW121494   6.198   4.243   4.357
 6865SOL    HW221495   6.259   4.282   4.211
 6866SOL     OW21496   6.739   4.008   2.310
 6866SOL    HW121497   6.735   4.017   2.409
 6866SOL    HW221498   6.657   3.960   2.278
 6867SOL     OW21499   1.587   3.863   1.554
 6867SOL    HW121500   1.540   3.941   1.596
 6867SOL    HW221501   1.661   3.833   1.614
 6868SOL     OW21502   1.725   6.151   4.468
 6868SOL    HW121503   1.747   6.100   4.551
 6868SOL    HW221504   1.655   6.219   4.487
 6869SOL     OW21505   5.828   3.099   4.984
 6869SOL    HW121506   5.814   3.172   5.051
 6869SOL    HW221507   5.923   3.098   4.955
 6870SOL     OW21508   5.606   3.856   3.195
 6870SOL    HW121509   5.678   3.920   3.218
 6870SOL    HW221510   5.605   3.781   3.261
 6871SOL     OW21511   6.086   4.697   1.995
 6871SOL    HW121512   6.139   4.667   1.915
 6871SOL    HW221513   5.988   4.682   1.977
 6872SOL     OW21514   1.618   3.445   0.961
 6872SOL    HW121515   1.625   3.393   0.876
 6872SOL    HW221516   1.527   3.431   1.001
 6873SOL     OW21517   6.117   2.885   6.113
 6873SOL    HW121518   6.019   2.902   6.121
 6873SOL    HW221519   6.138   2.860   6.019
 6874SOL     OW21520   0.198   3.788   4.211
 6874SOL    HW121521   0.225   3.694   4.189
 6874SOL    HW221522   0.098   3.796   4.210
 6875SOL     OW21523   1.447   1.676   3.090
 6875SOL    HW121524   1.451   1.581   3.123
 6875SOL    HW221525   1.407   1.734   3.162
 6876SOL     OW21526   3.394   5.726   6.575
 6876SOL    HW121527   3.364   5.633   6.554
 6876SOL    HW221528   3.446   5.763   6.498
 6877SOL     OW21529   2.194   4.538   0.006
 6877SOL    HW121530   2.178   4.604   0.079
 6877SOL    HW221531   2.181   4.582   6.945
 6878SOL     OW21532   2.340   2.013   6.297
 6878SOL    HW121533   2.398   1.958   6.238
 6878SOL    HW221534   2.348   2.109   6.272
 6879SOL     OW21535   0.004   1.741   0.188
 6879SOL    HW121536   6.963   1.796   0.235
 6879SOL    HW221537   0.068   1.704   0.254
 6880SOL     OW21538   2.164   3.887   5.225
 6880SOL    HW121539   2.251   3.934   5.210
 6880SOL    HW221540   2.182   3.799   5.271
 6881SOL     OW21541   6.931   4.423   1.511
 6881SOL    HW121542   6.929   4.323   1.499
 6881SOL    HW221543   7.011   4.448   1.564
 6882SOL     OW21544   2.075   0.532   5.133
 6882SOL    HW121545   2.048   0.587   5.054
 6882SOL    HW221546   1.994   0.497   5.180
 6883SOL     OW21547   3.304   7.016   0.732
 6883SOL    HW121548   3.287   0.086   0.728
 6883SOL    HW221549   3.273   6.973   0.647
 6884SOL     OW21550   2.312   4.489   4.217
 6884SOL    HW121551   2.357   4.463   4.303
 6884SOL    HW221552   2.381   4.505   4.147
 6885SOL     OW21553   3.182   5.976   3.407
 6885SOL    HW121554   3.123   5.900   3.433
 6885SOL    HW221555   3.275   5.942   3.394
 6886SOL     OW21556   5.349   1.406   2.012
 6886SOL    HW121557   5.342   1.503   1.990
 6886SOL    HW221558   5.298   1.352   1.944
 6887SOL     OW21559   5.293   0.152   4.699
 6887SOL    HW121560   5.357   0.170   4.774
 6887SOL    HW221561   5.341   0.110   4.622
 6888SOL     OW21562   5.978   0.202   5.396
 6888SOL    HW121563   5.993   0.301   5.391
 6888SOL    HW221564   6.066   0.154   5.392
 6889SOL     OW21565   0.939   2.614   5.677
 6889SOL    HW121566   1.038   2.607   5.670
 6889SOL    HW221567   0.902   2.532   5.720
 6890SOL     OW21568   2.108   0.202   0.653
 6890SOL    HW121569   2.015   0.234   0.675
 6890SOL    HW221570   2.110   0.169   0.559
 6891SOL     OW21571   2.115   3.375   4.676
 6891SOL    HW121572   2.055   3.433   4.732
 6891SOL    HW221573   2.108   3.402   4.580
 6892SOL     OW21574   4.066   0.211   3.942
 6892SOL    HW121575   3.967   0.223   3.955
 6892SOL    HW221576   4.093   0.121   3.978
 6893SOL     OW21577   5.463   5.840   2.477
 6893SOL    HW121578   5.447   5.748   2.442
 6893SOL    HW221579   5.562   5.858   2.481
 6894SOL     OW21580   6.460   5.505   0.591
 6894SOL    HW121581   6.485   5.602   0.595
 6894SOL    HW221582   6.448   5.470   0.684
 6895SOL     OW21583   2.908   4.408   6.853
 6895SOL    HW121584   2.915   4.332   6.917
 6895SOL    HW221585   2.815   4.413   6.818
 6896SOL     OW21586   3.932   0.471   3.733
 6896SOL    HW121587   3.865   0.502   3.666
 6896SOL    HW221588   3.960   0.377   3.711
 6897SOL     OW21589   2.419   3.334   0.321
 6897SOL    HW121590   2.432   3.237   0.301
 6897SOL    HW221591   2.325   3.361   0.301
 6898SOL     OW21592   4.455   1.418   2.050
 6898SOL    HW121593   4.412   1.506   2.028
 6898SOL    HW221594   4.529   1.401   1.984
 6899SOL     OW21595   5.324   6.833   6.463
 6899SOL    HW121596   5.242   6.874   6.423
 6899SOL    HW221597   5.404   6.857   6.408
 6900SOL     OW21598   5.938   0.658   5.804
 6900SOL    HW121599   5.875   0.591   5.843
 6900SOL    HW221600   5.920   0.748   5.843
 6901SOL     OW21601   7.020   0.015   6.383
 6901SOL    HW121602   0.033   0.057   6.464
 6901SOL    HW221603   0.037   0.050   6.301
 6902SOL     OW21604   0.694   6.685   0.457
 6902SOL    HW121605   0.794   6.684   0.451
 6902SOL    HW221606   0.665   6.740   0.535
 6903SOL     OW21607   3.769   3.276   0.316
 6903SOL    HW121608   3.673   3.260   0.294
 6903SOL    HW221609   3.778   3.354   0.378
 6904SOL     OW21610   6.657   1.294   3.584
 6904SOL    HW121611   6.713   1.272   3.663
 6904SOL    HW221612   6.560   1.296   3.610
 6905SOL     OW21613   5.855   6.624   0.343
 6905SOL    HW121614   5.896   6.706   0.383
 6905SOL    HW221615   5.817   6.567   0.416
 6906SOL     OW21616   3.472   1.252   4.634
 6906SOL    HW121617   3.405   1.231   4.562
 6906SOL    HW221618   3.543   1.182   4.634
 6907SOL     OW21619   3.904   1.972   0.595
 6907SOL    HW121620   3.839   1.899   0.612
 6907SOL    HW221621   3.860   2.061   0.610
 6908SOL     OW21622   1.297   0.006   5.679
 6908SOL    HW121623   1.265   6.964   5.742
 6908SOL    HW221624   1.283   0.096   5.719
 6909SOL     OW21625   4.280   4.853   0.985
 6909SOL    HW121626   4.329   4.806   0.911
 6909SOL    HW221627   4.247   4.941   0.952
 6910SOL     OW21628   6.278   1.469   2.849
 6910SOL    HW121629   6.290   1.543   2.915
 6910SOL    HW221630   6.340   1.394   2.872
 6911SOL     OW21631   4.178   0.249   3.710
 6911SOL    HW121632   4.143   0.207   3.793
 6911SOL    HW221633   4.269   0.212   3.690
 6912SOL     OW21634   5.095   4.948   1.268
 6912SOL    HW121635   5.112   4.854   1.237
 6912SOL    HW221636   5.135   4.960   1.359
 6913SOL     OW21637   5.374   4.107   5.118
 6913SOL    HW121638   5.455   4.133   5.172
 6913SOL    HW221639   5.293   4.113   5.175
 6914SOL     OW21640   5.656   5.428   6.860
 6914SOL    HW121641   5.637   5.493   6.786
 6914SOL    HW221642   5.612   5.459   6.944
 6915SOL     OW21643   0.272   4.753   2.309
 6915SOL    HW121644   0.320   4.830   2.351
 6915SOL    HW221645   0.317   4.667   2.335
 6916SOL     OW21646   6.658   4.191   6.763
 6916SOL    HW121647   6.648   4.289   6.742
 6916SOL    HW221648   6.577   4.159   6.812
 6917SOL     OW21649   4.668   5.335   6.742
 6917SOL    HW121650   4.576   5.338   6.702
 6917SOL    HW221651   4.709   5.426   6.739
 6918SOL     OW21652   0.376   4.224   4.031
 6918SOL    HW121653   0.301   4.287   4.050
 6918SOL    HW221654   0.343   4.150   3.973
 6919SOL     OW21655   1.885   5.334   2.595
 6919SOL    HW121656   1.803   5.345   2.539
 6919SOL    HW221657   1.866   5.367   2.687
 6920SOL     OW21658   5.314   5.042   5.626
 6920SOL    HW121659   5.228   4.996   5.649
 6920SOL    HW221660   5.304   5.140   5.641
 6921SOL     OW21661   5.861   5.749   3.534
 6921SOL    HW121662   5.945   5.785   3.494
 6921SOL    HW221663   5.838   5.662   3.492
 6922SOL     OW21664   1.901   6.194   0.106
 6922SOL    HW121665   1.831   6.215   0.038
 6922SOL    HW221666   1.899   6.263   0.179
 6923SOL     OW21667   4.680   6.824   4.200
 6923SOL    HW121668   4.721   6.805   4.110
 6923SOL    HW221669   4.741   6.789   4.271
 6924SOL     OW21670   0.630   3.798   0.401
 6924SOL    HW121671   0.714   3.761   0.440
 6924SOL    HW221672   0.647   3.888   0.362
 6925SOL     OW21673   3.866   6.264   3.941
 6925SOL    HW121674   3.901   6.170   3.943
 6925SOL    HW221675   3.940   6.328   3.961
 6926SOL     OW21676   3.702   3.857   3.116
 6926SOL    HW121677   3.640   3.935   3.123
 6926SOL    HW221678   3.664   3.790   3.052
 6927SOL     OW21679   5.176   3.452   5.520
 6927SOL    HW121680   5.096   3.478   5.573
 6927SOL    HW221681   5.185   3.352   5.519
 6928SOL     OW21682   4.581   0.291   6.544
 6928SOL    HW121683   4.482   0.299   6.558
 6928SOL    HW221684   4.607   0.194   6.550
 6929SOL     OW21685   4.308   6.327   0.084
 6929SOL    HW121686   4.266   6.254   0.031
 6929SOL    HW221687   4.394   6.354   0.040
 6930SOL     OW21688   0.137   6.731   1.835
 6930SOL    HW121689   0.123   6.821   1.876
 6930SOL    HW221690   0.084   6.724   1.751
 6931SOL     OW21691   0.946   0.548   1.890
 6931SOL    HW121692   0.914   0.570   1.797
 6931SOL    HW221693   0.984   0.630   1.932
 6932SOL     OW21694   3.122   1.125   0.189
 6932SOL    HW121695   3.180   1.082   0.120
 6932SOL    HW221696   3.066   1.196   0.146
 6933SOL     OW21697   3.172   5.482   4.984
 6933SOL    HW121698   3.090   5.537   4.968
 6933SOL    HW221699   3.253   5.540   4.976
 6934SOL     OW21700   5.486   3.442   6.469
 6934SOL    HW121701   5.417   3.470   6.535
 6934SOL    HW221702   5.526   3.355   6.496
 6935SOL     OW21703   4.419   6.243   3.069
 6935SOL    HW121704   4.394   6.217   2.976
 6935SOL    HW221705   4.431   6.161   3.125
 6936SOL     OW21706   6.842   1.900   2.782
 6936SOL    HW121707   6.910   1.947   2.726
 6936SOL    HW221708   6.787   1.839   2.725
 6937SOL     OW21709   5.229   6.562   6.808
 6937SOL    HW121710   5.203   6.505   6.730
 6937SOL    HW221711   5.298   6.628   6.779
 6938SOL     OW21712   5.130   3.768   5.254
 6938SOL    HW121713   5.086   3.679   5.250
 6938SOL    HW221714   5.178   3.785   5.168
 6939SOL     OW21715   0.304   5.036   2.709
 6939SOL    HW121716   0.366   4.957   2.718
 6939SOL    HW221717   0.226   5.009   2.653
 6940SOL     OW21718   4.343   1.082   0.870
 6940SOL    HW121719   4.401   1.012   0.828
 6940SOL    HW221720   4.248   1.065   0.845
 6941SOL     OW21721   4.115   3.495   1.664
 6941SOL    HW121722   4.132   3.593   1.654
 6941SOL    HW221723   4.198   3.444   1.645
 6942SOL     OW21724   0.050   3.076   1.257
 6942SOL    HW121725   0.041   3.048   1.161
 6942SOL    HW221726   6.994   3.120   1.287
 6943SOL     OW21727   5.177   6.615   6.392
 6943SOL    HW121728   5.254   6.583   6.336
 6943SOL    HW221729   5.204   6.698   6.440
 6944SOL     OW21730   1.212   5.500   5.041
 6944SOL    HW121731   1.196   5.499   4.942
 6944SOL    HW221732   1.278   5.571   5.063
 6945SOL     OW21733   6.304   3.151   6.990
 6945SOL    HW121734   6.389   3.204   6.995
 6945SOL    HW221735   6.251   3.181   6.910
 6946SOL     OW21736   6.214   5.298   2.453
 6946SOL    HW121737   6.242   5.257   2.540
 6946SOL    HW221738   6.136   5.248   2.416
 6947SOL     OW21739   3.988   6.793   3.976
 6947SOL    HW121740   3.921   6.832   4.040
 6947SOL    HW221741   3.954   6.802   3.883
 6948SOL     OW21742   5.312   0.385   0.486
 6948SOL    HW121743   5.338   0.443   0.563
 6948SOL    HW221744   5.306   0.290   0.517
 6949SOL     OW21745   5.328   6.218   2.995
 6949SOL    HW121746   5.408   6.212   3.054
 6949SOL    HW221747   5.346   6.168   2.910
 6950SOL     OW21748   2.729   0.429   2.891
 6950SOL    HW121749   2.743   0.486   2.971
 6950SOL    HW221750   2.800   0.448   2.823
 6951SOL     OW21751   6.148   6.499   6.038
 6951SOL    HW121752   6.240   6.500   6.078
 6951SOL    HW221753   6.155   6.512   5.940
 6952SOL     OW21754   7.003   5.087   3.342
 6952SOL    HW121755   0.054   5.109   3.399
 6952SOL    HW221756   7.015   5.125   3.251
 6953SOL     OW21757   5.437   0.545   5.817
 6953SOL    HW121758   5.525   0.517   5.855
 6953SOL    HW221759   5.380   0.464   5.802
 6954SOL     OW21760   1.099   3.914   3.949
 6954SOL    HW121761   1.111   3.870   4.038
 6954SOL    HW221762   1.182   3.966   3.926
 6955SOL     OW21763   6.800   0.267   1.866
 6955SOL    HW121764   6.897   0.278   1.891
 6955SOL    HW221765   6.786   0.305   1.774
 6956SOL     OW21766   4.399   6.115   2.418
 6956SOL    HW121767   4.373   6.209   2.395
 6956SOL    HW221768   4.497   6.112   2.438
 6957SOL     OW21769   0.039   4.715   1.436
 6957SOL    HW121770   0.006   4.731   1.343
 6957SOL    HW221771   0.127   4.668   1.433
 6958SOL     OW21772   2.713   2.809   6.226
 6958SOL    HW121773   2.713   2.887   6.289
 6958SOL    HW221774   2.755   2.730   6.270
 6959SOL     OW21775   1.903   1.058   4.816
 6959SOL    HW121776   1.900   1.005   4.901
 6959SOL    HW221777   1.860   1.147   4.831
 6960SOL     OW21778   0.782   5.378   0.350
 6960SOL    HW121779   0.872   5.335   0.340
 6960SOL    HW221780   0.730   5.331   0.422
 6961SOL     OW21781   0.636   2.248   3.921
 6961SOL    HW121782   0.579   2.237   3.840
 6961SOL    HW221783   0.599   2.192   3.995
 6962SOL     OW21784   5.663   5.246   3.092
 6962SOL    HW121785   5.610   5.331   3.090
 6962SOL    HW221786   5.622   5.181   3.029
 6963SOL     OW21787   0.186   5.880   1.441
 6963SOL    HW121788   0.170   5.781   1.444
 6963SOL    HW221789   0.189   5.910   1.345
 6964SOL     OW21790   5.108   5.008   5.337
 6964SOL    HW121791   5.205   5.002   5.313
 6964SOL    HW221792   5.075   4.917   5.364
 6965SOL     OW21793   0.197   3.680   6.538
 6965SOL    HW121794   0.276   3.636   6.495
 6965SOL    HW221795   0.214   3.778   6.548
 6966SOL     OW21796   5.698   2.552   2.801
 6966SOL    HW121797   5.764   2.614   2.759
 6966SOL    HW221798   5.684   2.473   2.741
 6967SOL     OW21799   1.311   1.672   5.247
 6967SOL    HW121800   1.391   1.680   5.307
 6967SOL    HW221801   1.278   1.578   5.250
 6968SOL     OW21802   3.691   6.584   0.835
 6968SOL    HW121803   3.654   6.604   0.926
 6968SOL    HW221804   3.618   6.548   0.777
 6969SOL     OW21805   4.059   1.834   1.584
 6969SOL    HW121806   3.977   1.834   1.641
 6969SOL    HW221807   4.048   1.769   1.509
 6970SOL     OW21808   3.963   4.186   0.515
 6970SOL    HW121809   4.051   4.218   0.480
 6970SOL    HW221810   3.904   4.160   0.439
 6971SOL     OW21811   6.606   3.452   2.426
 6971SOL    HW121812   6.518   3.496   2.412
 6971SOL    HW221813   6.605   3.402   2.513
 6972SOL     OW21814   5.726   4.696   4.407
 6972SOL    HW121815   5.685   4.666   4.493
 6972SOL    HW221816   5.678   4.777   4.373
 6973SOL     OW21817   1.478   4.577   4.501
 6973SOL    HW121818   1.428   4.661   4.522
 6973SOL    HW221819   1.577   4.597   4.499
 6974SOL     OW21820   3.777   3.232   3.588
 6974SOL    HW121821   3.862   3.284   3.583
 6974SOL    HW221822   3.707   3.276   3.532
 6975SOL     OW21823   3.071   6.401   5.840
 6975SOL    HW121824   3.074   6.357   5.750
 6975SOL    HW221825   3.050   6.498   5.829
 6976SOL     OW21826   3.726   4.466   6.713
 6976SOL    HW121827   3.677   4.424   6.790
 6976SOL    HW221828   3.703   4.418   6.628
 6977SOL     OW21829   5.443   2.182   1.427
 6977SOL    HW121830   5.530   2.163   1.472
 6977SOL    HW221831   5.379   2.221   1.493
 6978SOL     OW21832   6.210   0.948   1.722
 6978SOL    HW121833   6.115   0.918   1.714
 6978SOL    HW221834   6.268   0.870   1.745
 6979SOL     OW21835   1.666   5.483   1.995
 6979SOL    HW121836   1.656   5.453   2.090
 6979SOL    HW221837   1.756   5.526   1.984
 6980SOL     OW21838   2.049   0.921   3.889
 6980SOL    HW121839   1.972   0.908   3.827
 6980SOL    HW221840   2.066   1.018   3.903
 6981SOL     OW21841   2.673   3.893   6.694
 6981SOL    HW121842   2.763   3.906   6.651
 6981SOL    HW221843   2.671   3.938   6.783
 6982SOL     OW21844   1.592   1.454   4.009
 6982SOL    HW121845   1.566   1.358   3.995
 6982SOL    HW221846   1.550   1.511   3.939
 6983SOL     OW21847   0.195   1.733   3.748
 6983SOL    HW121848   0.158   1.739   3.840
 6983SOL    HW221849   0.240   1.645   3.736
 6984SOL     OW21850   2.815   1.894   5.552
 6984SOL    HW121851   2.779   1.801   5.545
 6984SOL    HW221852   2.873   1.912   5.473
 6985SOL     OW21853   3.490   5.255   2.518
 6985SOL    HW121854   3.481   5.261   2.617
 6985SOL    HW221855   3.469   5.162   2.487
 6986SOL     OW21856   2.294   5.934   5.647
 6986SOL    HW121857   2.259   5.997   5.578
 6986SOL    HW221858   2.345   5.985   5.716
 6987SOL     OW21859   0.394   1.660   6.107
 6987SOL    HW121860   0.299   1.630   6.114
 6987SOL    HW221861   0.440   1.647   6.195
 6988SOL     OW21862   6.276   0.882   5.133
 6988SOL    HW121863   6.339   0.816   5.091
 6988SOL    HW221864   6.326   0.937   5.200
 6989SOL     OW21865   0.942   2.480   3.277
 6989SOL    HW121866   0.987   2.532   3.350
 6989SOL    HW221867   0.869   2.536   3.236
 6990SOL     OW21868   5.360   1.830   0.323
 6990SOL    HW121869   5.359   1.873   0.413
 6990SOL    HW221870   5.276   1.852   0.274
 6991SOL     OW21871   2.595   4.584   4.844
 6991SOL    HW121872   2.522   4.547   4.902
 6991SOL    HW221873   2.683   4.571   4.890
 6992SOL     OW21874   5.506   5.727   5.078
 6992SOL    HW121875   5.516   5.666   5.000
 6992SOL    HW221876   5.470   5.677   5.156
 6993SOL     OW21877   5.847   6.571   2.919
 6993SOL    HW121878   5.897   6.600   3.000
 6993SOL    HW221879   5.911   6.545   2.847
 6994SOL     OW21880   0.462   3.524   4.843
 6994SOL    HW121881   0.479   3.496   4.937
 6994SOL    HW221882   0.520   3.471   4.781
 6995SOL     OW21883   6.353   5.233   4.631
 6995SOL    HW121884   6.437   5.247   4.684
 6995SOL    HW221885   6.304   5.153   4.666
 6996SOL     OW21886   2.497   1.144   4.956
 6996SOL    HW121887   2.443   1.167   5.037
 6996SOL    HW221888   2.492   1.045   4.940
 6997SOL     OW21889   4.789   6.245   5.631
 6997SOL    HW121890   4.756   6.277   5.719
 6997SOL    HW221891   4.885   6.273   5.619
 6998SOL     OW21892   1.309   2.369   1.328
 6998SOL    HW121893   1.346   2.349   1.419
 6998SOL    HW221894   1.354   2.450   1.291
 6999SOL     OW21895   2.714   1.599   6.778
 6999SOL    HW121896   2.678   1.509   6.803
 6999SOL    HW221897   2.811   1.591   6.756
 7000SOL     OW21898   0.299   6.292   2.637
 7000SOL    HW121899   0.361   6.262   2.708
 7000SOL    HW221900   0.319   6.244   2.552
 7001SOL     OW21901   2.762   2.610   5.542
 7001SOL    HW121902   2.677   2.656   5.567
 7001SOL    HW221903   2.756   2.576   5.449
 7002SOL     OW21904   2.318   4.744   3.188
 7002SOL    HW121905   2.379   4.680   3.142
 7002SOL    HW221906   2.317   4.831   3.140
 7003SOL     OW21907   2.911   6.940   6.862
 7003SOL    HW121908   2.845   6.976   6.797
 7003SOL    HW221909   2.884   6.966   6.955
 7004SOL     OW21910   2.081   4.993   1.738
 7004SOL    HW121911   2.151   5.016   1.805
 7004SOL    HW221912   1.991   5.020   1.773
 7005SOL     OW21913   0.183   5.738   5.284
 7005SOL    HW121914   0.098   5.759   5.236
 7005SOL    HW221915   0.196   5.804   5.358
 7006SOL     OW21916   5.374   5.077   5.021
 7006SOL    HW121917   5.325   5.156   5.058
 7006SOL    HW221918   5.393   5.012   5.095
 7007SOL     OW21919   5.403   6.979   3.255
 7007SOL    HW121920   5.486   6.956   3.306
 7007SOL    HW221921   5.323   6.943   3.302
 7008SOL     OW21922   2.540   5.023   4.089
 7008SOL    HW121923   2.608   5.068   4.147
 7008SOL    HW221924   2.555   4.924   4.090
 7009SOL     OW21925   6.528   5.065   2.094
 7009SOL    HW121926   6.573   5.154   2.095
 7009SOL    HW221927   6.455   5.063   2.163
 7010SOL     OW21928   4.675   4.667   6.101
 7010SOL    HW121929   4.617   4.618   6.165
 7010SOL    HW221930   4.771   4.653   6.124
 7011SOL     OW21931   1.332   0.279   6.176
 7011SOL    HW121932   1.367   0.372   6.166
 7011SOL    HW221933   1.242   0.282   6.218
 7012SOL     OW21934   1.715   0.726   1.997
 7012SOL    HW121935   1.640   0.704   1.935
 7012SOL    HW221936   1.701   0.817   2.035
 7013SOL     OW21937   0.447   6.570   0.513
 7013SOL    HW121938   0.388   6.649   0.498
 7013SOL    HW221939   0.540   6.593   0.484
 7014SOL     OW21940   4.715   4.086   1.432
 7014SOL    HW121941   4.660   4.114   1.354
 7014SOL    HW221942   4.676   4.123   1.516
 7015SOL     OW21943   5.575   3.872   2.227
 7015SOL    HW121944   5.514   3.800   2.261
 7015SOL    HW221945   5.617   3.919   2.304
 7016SOL     OW21946   3.410   5.014   2.417
 7016SOL    HW121947   3.325   4.975   2.452
 7016SOL    HW221948   3.426   4.982   2.324
 7017SOL     OW21949   2.335   0.424   1.974
 7017SOL    HW121950   2.361   0.515   1.941
 7017SOL    HW221951   2.274   0.381   1.908
 7018SOL     OW21952   6.806   4.340   4.771
 7018SOL    HW121953   6.741   4.397   4.720
 7018SOL    HW221954   6.890   4.392   4.788
 7019SOL     OW21955   2.966   4.524   6.315
 7019SOL    HW121956   2.883   4.565   6.353
 7019SOL    HW221957   2.970   4.543   6.217
 7020SOL     OW21958   5.788   6.470   0.093
 7020SOL    HW121959   5.825   6.377   0.090
 7020SOL    HW221960   5.827   6.519   0.171
 7021SOL     OW21961   2.790   0.974   5.695
 7021SOL    HW121962   2.811   0.876   5.700
 7021SOL    HW221963   2.874   1.027   5.705
 7022SOL     OW21964   4.896   4.334   0.490
 7022SOL    HW121965   4.859   4.243   0.509
 7022SOL    HW221966   4.951   4.330   0.406
 7023SOL     OW21967   0.110   2.126   3.350
 7023SOL    HW121968   0.167   2.119   3.268
 7023SOL    HW221969   0.054   2.044   3.359
 7024SOL     OW21970   1.452   5.813   5.993
 7024SOL    HW121971   1.397   5.812   6.077
 7024SOL    HW221972   1.546   5.787   6.015
 7025SOL     OW21973   3.873   1.619   0.151
 7025SOL    HW121974   3.846   1.537   0.100
 7025SOL    HW221975   3.886   1.595   0.247
 7026SOL     OW21976   2.643   1.294   1.926
 7026SOL    HW121977   2.642   1.248   1.838
 7026SOL    HW221978   2.730   1.342   1.937
 7027SOL     OW21979   3.153   5.643   2.613
 7027SOL    HW121980   3.115   5.728   2.651
 7027SOL    HW221981   3.176   5.581   2.688
 7028SOL     OW21982   5.444   6.198   4.313
 7028SOL    HW121983   5.476   6.185   4.219
 7028SOL    HW221984   5.458   6.293   4.340
 7029SOL     OW21985   3.729   6.904   0.043
 7029SOL    HW121986   3.779   6.979   0.088
 7029SOL    HW221987   3.788   6.863   7.000
 7030SOL     OW21988   0.049   2.847   5.758
 7030SOL    HW121989   6.989   2.848   5.711
 7030SOL    HW221990   0.098   2.932   5.738
 7031SOL     OW21991   2.194   6.043   3.489
 7031SOL    HW121992   2.251   6.067   3.568
 7031SOL    HW221993   2.103   6.081   3.500
 7032SOL     OW21994   3.851   6.881   3.718
 7032SOL    HW121995   3.751   6.877   3.724
 7032SOL    HW221996   3.878   6.894   3.623
 7033SOL     OW21997   6.577   1.658   4.182
 7033SOL    HW121998   6.489   1.700   4.162
 7033SOL    HW221999   6.645   1.688   4.115
 7034SOL     OW22000   5.843   0.750   3.431
 7034SOL    HW122001   5.778   0.825   3.437
 7034SOL    HW222002   5.930   0.785   3.396
 7035SOL     OW22003   1.007   6.568   2.193
 7035SOL    HW122004   1.028   6.645   2.253
 7035SOL    HW222005   1.022   6.483   2.242
 7036SOL     OW22006   6.404   6.388   1.778
 7036SOL    HW122007   6.390   6.344   1.690
 7036SOL    HW222008   6.319   6.390   1.830
 7037SOL     OW22009   6.988   6.753   6.330
 7037SOL    HW122010   7.020   6.838   6.372
 7037SOL    HW222011   6.941   6.775   6.245
 7038SOL     OW22012   2.001   3.690   4.564
 7038SOL    HW122013   1.974   3.669   4.658
 7038SOL    HW222014   2.022   3.788   4.556
 7039SOL     OW22015   3.031   6.704   0.122
 7039SOL    HW122016   3.074   6.620   0.152
 7039SOL    HW222017   3.067   6.730   0.032
 7040SOL     OW22018   4.340   2.595   5.928
 7040SOL    HW122019   4.387   2.569   6.013
 7040SOL    HW222020   4.408   2.627   5.862
 7041SOL     OW22021   0.890   2.037   3.525
 7041SOL    HW122022   0.801   2.041   3.569
 7041SOL    HW222023   0.903   1.946   3.483
 7042SOL     OW22024   5.223   5.186   6.656
 7042SOL    HW122025   5.213   5.235   6.743
 7042SOL    HW222026   5.168   5.102   6.660
 7043SOL     OW22027   2.333   2.535   2.810
 7043SOL    HW122028   2.364   2.609   2.871
 7043SOL    HW222029   2.412   2.480   2.782
 7044SOL     OW22030   4.667   4.209   2.884
 7044SOL    HW122031   4.631   4.282   2.942
 7044SOL    HW222032   4.670   4.124   2.936
 7045SOL     OW22033   4.486   6.454   1.759
 7045SOL    HW122034   4.404   6.411   1.798
 7045SOL    HW222035   4.477   6.553   1.764
 7046SOL     OW22036   3.383   2.092   3.599
 7046SOL    HW122037   3.323   2.089   3.519
 7046SOL    HW222038   3.328   2.106   3.681
 7047SOL     OW22039   1.278   2.495   3.083
 7047SOL    HW122040   1.289   2.556   3.162
 7047SOL    HW222041   1.241   2.546   3.006
 7048SOL     OW22042   0.604   6.125   1.309
 7048SOL    HW122043   0.702   6.120   1.291
 7048SOL    HW222044   0.564   6.034   1.307
 7049SOL     OW22045   2.513   0.559   0.653
 7049SOL    HW122046   2.431   0.553   0.710
 7049SOL    HW222047   2.501   0.631   0.585
 7050SOL     OW22048   3.737   3.728   4.085
 7050SOL    HW122049   3.756   3.822   4.057
 7050SOL    HW222050   3.813   3.669   4.055
 7051SOL     OW22051   0.409   0.613   0.933
 7051SOL    HW122052   0.413   0.535   0.871
 7051SOL    HW222053   0.452   0.588   1.020
 7052SOL     OW22054   5.888   2.813   4.546
 7052SOL    HW122055   5.972   2.805   4.494
 7052SOL    HW222056   5.909   2.843   4.639
 7053SOL     OW22057   0.504   3.080   5.673
 7053SOL    HW122058   0.527   3.011   5.605
 7053SOL    HW222059   0.477   3.035   5.758
 7054SOL     OW22060   1.170   6.321   1.401
 7054SOL    HW122061   1.125   6.257   1.463
 7054SOL    HW222062   1.248   6.363   1.447
 7055SOL     OW22063   3.948   6.608   5.126
 7055SOL    HW122064   3.945   6.603   5.026
 7055SOL    HW222065   4.003   6.532   5.161
 7056SOL     OW22066   5.578   4.956   3.611
 7056SOL    HW122067   5.586   4.930   3.707
 7056SOL    HW222068   5.648   5.025   3.589
 7057SOL     OW22069   0.902   4.550   4.533
 7057SOL    HW122070   0.919   4.467   4.586
 7057SOL    HW222071   0.847   4.528   4.453
 7058SOL     OW22072   6.841   5.753   5.511
 7058SOL    HW122073   6.815   5.663   5.477
 7058SOL    HW222074   6.828   5.821   5.439
 7059SOL     OW22075   0.216   0.061   2.919
 7059SOL    HW122076   0.146   0.055   2.991
 7059SOL    HW222077   0.273   7.007   2.921
 7060SOL     OW22078   3.251   0.238   1.230
 7060SOL    HW122079   3.324   0.181   1.191
 7060SOL    HW222080   3.292   0.312   1.283
 7061SOL     OW22081   0.390   1.927   3.775
 7061SOL    HW122082   0.303   1.883   3.752
 7061SOL    HW222083   0.379   2.026   3.773
 7062SOL     OW22084   5.652   1.571   6.057
 7062SOL    HW122085   5.673   1.667   6.076
 7062SOL    HW222086   5.555   1.554   6.076
 7063SOL     OW22087   1.399   6.716   0.428
 7063SOL    HW122088   1.411   6.813   0.449
 7063SOL    HW222089   1.319   6.681   0.476
 7064SOL     OW22090   4.191   2.412   1.692
 7064SOL    HW122091   4.093   2.430   1.679
 7064SOL    HW222092   4.242   2.497   1.680
 7065SOL     OW22093   4.344   3.971   1.216
 7065SOL    HW122094   4.353   3.882   1.261
 7065SOL    HW222095   4.403   3.973   1.135
 7066SOL     OW22096   3.837   0.751   0.859
 7066SOL    HW122097   3.797   0.841   0.842
 7066SOL    HW222098   3.887   0.753   0.946
 7067SOL     OW22099   1.609   2.427   5.153
 7067SOL    HW122100   1.688   2.461   5.102
 7067SOL    HW222101   1.531   2.488   5.141
 7068SOL     OW22102   0.702   3.862   3.573
 7068SOL    HW122103   0.770   3.882   3.502
 7068SOL    HW222104   0.744   3.871   3.663
 7069SOL     OW22105   6.504   2.689   4.683
 7069SOL    HW122106   6.407   2.686   4.657
 7069SOL    HW222107   6.560   2.694   4.600
 7070SOL     OW22108   6.843   6.361   5.203
 7070SOL    HW122109   6.848   6.439   5.141
 7070SOL    HW222110   6.755   6.362   5.251
 7071SOL     OW22111   0.621   6.605   5.747
 7071SOL    HW122112   0.642   6.589   5.651
 7071SOL    HW222113   0.673   6.540   5.804
 7072SOL     OW22114   6.625   6.820   5.857
 7072SOL    HW122115   6.619   6.744   5.920
 7072SOL    HW222116   6.546   6.880   5.870
 7073SOL     OW22117   6.324   0.747   4.345
 7073SOL    HW122118   6.231   0.766   4.378
 7073SOL    HW222119   6.367   0.833   4.316
 7074SOL     OW22120   3.709   3.116   1.939
 7074SOL    HW122121   3.715   3.162   1.851
 7074SOL    HW222122   3.795   3.070   1.960
 7075SOL     OW22123   0.886   6.414   4.416
 7075SOL    HW122124   0.938   6.417   4.330
 7075SOL    HW222125   0.943   6.450   4.490
 7076SOL     OW22126   4.382   2.716   0.232
 7076SOL    HW122127   4.375   2.740   0.135
 7076SOL    HW222128   4.290   2.704   0.270
 7077SOL     OW22129   1.980   5.292   5.560
 7077SOL    HW122130   1.969   5.275   5.658
 7077SOL    HW222131   2.066   5.253   5.529
 7078SOL     OW22132   6.384   0.416   1.474
 7078SOL    HW122133   6.416   0.478   1.545
 7078SOL    HW222134   6.447   0.338   1.467
 7079SOL     OW22135   0.120   6.269   5.547
 7079SOL    HW122136   0.103   6.252   5.450
 7079SOL    HW222137   0.041   6.237   5.600
 7080SOL     OW22138   4.147   2.298   3.993
 7080SOL    HW122139   4.188   2.317   4.081
 7080SOL    HW222140   4.054   2.263   4.006
 7081SOL     OW22141   3.423   0.684   5.612
 7081SOL    HW122142   3.348   0.713   5.671
 7081SOL    HW222143   3.394   0.690   5.516
 7082SOL     OW22144   5.586   6.256   0.052
 7082SOL    HW122145   5.493   6.283   0.030
 7082SOL    HW222146   5.608   6.170   0.007
 7083SOL     OW22147   3.201   1.199   6.747
 7083SOL    HW122148   3.121   1.255   6.768
 7083SOL    HW222149   3.273   1.256   6.706
 7084SOL     OW22150   0.201   6.779   5.458
 7084SOL    HW122151   0.249   6.736   5.535
 7084SOL    HW222152   0.132   6.716   5.422
 7085SOL     OW22153   1.901   0.848   2.907
 7085SOL    HW122154   1.833   0.825   2.977
 7085SOL    HW222155   1.991   0.859   2.948
 7086SOL     OW22156   5.155   1.678   6.070
 7086SOL    HW122157   5.112   1.761   6.035
 7086SOL    HW222158   5.085   1.612   6.095
 7087SOL     OW22159   6.128   4.344   3.468
 7087SOL    HW122160   6.053   4.345   3.535
 7087SOL    HW222161   6.214   4.369   3.514
 7088SOL     OW22162   4.789   2.968   3.869
 7088SOL    HW122163   4.759   2.880   3.906
 7088SOL    HW222164   4.815   3.029   3.944
 7089SOL     OW22165   3.281   2.549   6.126
 7089SOL    HW122166   3.360   2.594   6.167
 7089SOL    HW222167   3.243   2.607   6.054
 7090SOL     OW22168   2.702   1.440   6.429
 7090SOL    HW122169   2.610   1.469   6.453
 7090SOL    HW222170   2.745   1.507   6.369
 7091SOL     OW22171   0.331   2.110   6.904
 7091SOL    HW122172   0.314   2.061   6.989
 7091SOL    HW222173   0.336   2.046   6.828
 7092SOL     OW22174   4.431   2.607   6.335
 7092SOL    HW122175   4.503   2.587   6.401
 7092SOL    HW222176   4.452   2.562   6.248
 7093SOL     OW22177   3.020   3.931   4.482
 7093SOL    HW122178   2.992   3.835   4.475
 7093SOL    HW222179   3.026   3.957   4.578
 7094SOL     OW22180   1.005   6.245   5.690
 7094SOL    HW122181   1.044   6.170   5.637
 7094SOL    HW222182   0.906   6.245   5.681
 7095SOL     OW22183   2.769   2.788   0.559
 7095SOL    HW122184   2.699   2.793   0.487
 7095SOL    HW222185   2.732   2.740   0.638
 7096SOL     OW22186   5.982   0.805   3.718
 7096SOL    HW122187   5.940   0.886   3.759
 7096SOL    HW222188   6.062   0.833   3.665
 7097SOL     OW22189   6.554   0.448   1.899
 7097SOL    HW122190   6.623   0.378   1.915
 7097SOL    HW222191   6.552   0.512   1.976
 7098SOL     OW22192   1.199   6.315   4.438
 7098SOL    HW122193   1.132   6.243   4.455
 7098SOL    HW222194   1.194   6.344   4.342
 7099SOL     OW22195   2.138   0.350   4.336
 7099SOL    HW122196   2.187   0.377   4.419
 7099SOL    HW222197   2.060   0.411   4.322
 7100SOL     OW22198   5.557   3.229   0.952
 7100SOL    HW122199   5.611   3.301   0.910
 7100SOL    HW222200   5.471   3.267   0.986
 7101SOL     OW22201   2.267   6.904   4.555
 7101SOL    HW122202   2.211   6.986   4.566
 7101SOL    HW222203   2.313   6.882   4.641
 7102SOL     OW22204   4.410   0.616   1.143
 7102SOL    HW122205   4.484   0.671   1.182
 7102SOL    HW222206   4.328   0.626   1.199
 7103SOL     OW22207   4.189   5.657   0.089
 7103SOL    HW122208   4.175   5.755   0.105
 7103SOL    HW222209   4.105   5.607   0.113
 7104SOL     OW22210   1.303   3.201   4.505
 7104SOL    HW122211   1.308   3.106   4.474
 7104SOL    HW222212   1.235   3.251   4.450
 7105SOL     OW22213   3.098   2.674   5.575
 7105SOL    HW122214   3.184   2.712   5.609
 7105SOL    HW222215   3.032   2.669   5.650
 7106SOL     OW22216   3.191   3.052   3.356
 7106SOL    HW122217   3.198   2.999   3.271
 7106SOL    HW222218   3.258   3.019   3.422
 7107SOL     OW22219   2.676   0.969   0.706
 7107SOL    HW122220   2.675   0.875   0.741
 7107SOL    HW222221   2.705   0.968   0.610
 7108SOL     OW22222   4.021   6.251   1.475
 7108SOL    HW122223   4.035   6.330   1.535
 7108SOL    HW222224   3.979   6.281   1.389
 7109SOL     OW22225   3.484   0.149   6.817
 7109SOL    HW122226   3.517   0.066   6.863
 7109SOL    HW222227   3.534   0.228   6.853
 7110SOL     OW22228   4.921   5.418   3.885
 7110SOL    HW122229   4.917   5.518   3.889
 7110SOL    HW222230   5.013   5.389   3.861
 7111SOL     OW22231   1.636   2.415   4.315
 7111SOL    HW122232   1.686   2.333   4.344
 7111SOL    HW222233   1.544   2.389   4.284
 7112SOL     OW22234   1.953   5.414   3.562
 7112SOL    HW122235   2.049   5.420   3.533
 7112SOL    HW222236   1.903   5.492   3.526
 7113SOL     OW22237   3.047   4.116   5.490
 7113SOL    HW122238   3.002   4.054   5.425
 7113SOL    HW222239   3.030   4.210   5.462
 7114SOL     OW22240   3.850   6.966   2.247
 7114SOL    HW122241   3.816   6.954   2.153
 7114SOL    HW222242   3.948   6.947   2.249
 7115SOL     OW22243   4.990   2.750   1.919
 7115SOL    HW122244   4.890   2.750   1.914
 7115SOL    HW222245   5.024   2.843   1.903
 7116SOL     OW22246   5.575   3.123   3.398
 7116SOL    HW122247   5.654   3.146   3.341
 7116SOL    HW222248   5.600   3.134   3.495
 7117SOL     OW22249   0.310   0.054   4.609
 7117SOL    HW122250   0.293   0.068   4.706
 7117SOL    HW222251   0.322   6.984   4.591
 7118SOL     OW22252   3.808   3.744   1.061
 7118SOL    HW122253   3.787   3.809   1.134
 7118SOL    HW222254   3.756   3.660   1.075
 7119SOL     OW22255   4.957   1.540   3.406
 7119SOL    HW122256   4.884   1.602   3.434
 7119SOL    HW222257   5.041   1.592   3.388
 7120SOL     OW22258   3.993   1.770   3.144
 7120SOL    HW122259   4.063   1.757   3.074
 7120SOL    HW222260   3.902   1.761   3.102
 7121SOL     OW22261   2.999   0.421   2.387
 7121SOL    HW122262   2.916   0.434   2.441
 7121SOL    HW222263   3.011   0.323   2.369
 7122SOL     OW22264   6.513   1.234   6.402
 7122SOL    HW122265   6.482   1.284   6.483
 7122SOL    HW222266   6.602   1.192   6.420
 7123SOL     OW22267   3.197   4.755   1.354
 7123SOL    HW122268   3.227   4.693   1.426
 7123SOL    HW222269   3.105   4.729   1.324
 7124SOL     OW22270   0.724   3.427   0.360
 7124SOL    HW122271   0.791   3.354   0.346
 7124SOL    HW222272   0.636   3.387   0.385
 7125SOL     OW22273   6.741   6.566   1.463
 7125SOL    HW122274   6.744   6.649   1.408
 7125SOL    HW222275   6.699   6.493   1.408
 7126SOL     OW22276   2.929   4.911   6.658
 7126SOL    HW122277   3.011   4.855   6.656
 7126SOL    HW222278   2.872   4.890   6.578
 7127SOL     OW22279   2.905   5.937   4.317
 7127SOL    HW122280   2.998   5.969   4.337
 7127SOL    HW222281   2.903   5.837   4.321
 7128SOL     OW22282   2.535   5.297   0.254
 7128SOL    HW122283   2.553   5.268   0.348
 7128SOL    HW222284   2.620   5.327   0.211
 7129SOL     OW22285   3.351   0.685   0.699
 7129SOL    HW122286   3.263   0.678   0.746
 7129SOL    HW222287   3.425   0.677   0.766
 7130SOL     OW22288   3.006   4.847   4.961
 7130SOL    HW122289   2.931   4.829   4.898
 7130SOL    HW222290   3.092   4.852   4.911
 7131SOL     OW22291   2.690   1.452   0.502
 7131SOL    HW122292   2.758   1.504   0.554
 7131SOL    HW222293   2.726   1.431   0.411
 7132SOL     OW22294   3.153   4.307   1.114
 7132SOL    HW122295   3.067   4.256   1.122
 7132SOL    HW222296   3.159   4.373   1.189
 7133SOL     OW22297   4.933   4.910   3.783
 7133SOL    HW122298   4.933   4.990   3.722
 7133SOL    HW222299   5.005   4.920   3.851
 7134SOL     OW22300   6.363   5.677   2.580
 7134SOL    HW122301   6.328   5.629   2.500
 7134SOL    HW222302   6.463   5.675   2.577
 7135SOL     OW22303   1.951   1.860   3.175
 7135SOL    HW122304   1.998   1.876   3.088
 7135SOL    HW222305   1.853   1.872   3.162
 7136SOL     OW22306   1.853   2.640   0.896
 7136SOL    HW122307   1.814   2.694   0.822
 7136SOL    HW222308   1.903   2.700   0.958
 7137SOL     OW22309   5.298   0.765   5.764
 7137SOL    HW122310   5.254   0.753   5.674
 7137SOL    HW222311   5.345   0.680   5.789
 7138SOL     OW22312   2.515   2.443   0.708
 7138SOL    HW122313   2.600   2.488   0.735
 7138SOL    HW222314   2.444   2.463   0.775
 7139SOL     OW22315   4.946   3.225   2.248
 7139SOL    HW122316   4.911   3.312   2.214
 7139SOL    HW222317   4.947   3.158   2.173
 7140SOL     OW22318   6.585   3.370   4.885
 7140SOL    HW122319   6.573   3.447   4.947
 7140SOL    HW222320   6.676   3.331   4.898
 7141SOL     OW22321   3.565   6.453   0.641
 7141SOL    HW122322   3.471   6.487   0.642
 7141SOL    HW222323   3.568   6.361   0.681
 7142SOL     OW22324   4.821   6.457   3.204
 7142SOL    HW122325   4.889   6.511   3.154
 7142SOL    HW222326   4.734   6.505   3.205
 7143SOL     OW22327   1.303   2.666   6.377
 7143SOL    HW122328   1.388   2.718   6.391
 7143SOL    HW222329   1.225   2.729   6.374
 7144SOL     OW22330   1.766   1.671   3.524
 7144SOL    HW122331   1.717   1.748   3.483
 7144SOL    HW222332   1.790   1.606   3.452
 7145SOL     OW22333   4.302   6.455   5.907
 7145SOL    HW122334   4.247   6.498   5.836
 7145SOL    HW222335   4.275   6.359   5.916
 7146SOL     OW22336   1.936   0.347   6.871
 7146SOL    HW122337   1.958   0.280   6.801
 7146SOL    HW222338   1.987   0.431   6.855
 7147SOL     OW22339   6.311   6.333   3.091
 7147SOL    HW122340   6.323   6.389   3.173
 7147SOL    HW222341   6.350   6.242   3.107
 7148SOL     OW22342   6.899   5.778   1.690
 7148SOL    HW122343   6.831   5.776   1.763
 7148SOL    HW222344   6.928   5.685   1.668
 7149SOL     OW22345   6.551   6.763   3.138
 7149SOL    HW122346   6.643   6.728   3.152
 7149SOL    HW222347   6.535   6.841   3.199
 7150SOL     OW22348   4.707   2.493   1.686
 7150SOL    HW122349   4.700   2.524   1.781
 7150SOL    HW222350   4.669   2.402   1.678
 7151SOL     OW22351   0.641   5.691   1.064
 7151SOL    HW122352   0.690   5.613   1.027
 7151SOL    HW222353   0.582   5.731   0.994
 7152SOL     OW22354   0.838   2.529   5.291
 7152SOL    HW122355   0.753   2.537   5.343
 7152SOL    HW222356   0.851   2.612   5.236
 7153SOL     OW22357   3.897   6.044   3.577
 7153SOL    HW122358   3.843   6.114   3.624
 7153SOL    HW222359   3.844   6.008   3.500
 7154SOL     OW22360   3.790   6.988   4.570
 7154SOL    HW122361   3.733   6.953   4.497
 7154SOL    HW222362   3.805   6.917   4.638
 7155SOL     OW22363   2.223   5.933   1.481
 7155SOL    HW122364   2.245   6.025   1.449
 7155SOL    HW222365   2.305   5.876   1.477
 7156SOL     OW22366   0.584   4.802   4.419
 7156SOL    HW122367   0.576   4.785   4.320
 7156SOL    HW222368   0.530   4.735   4.469
 7157SOL     OW22369   6.359   4.626   0.954
 7157SOL    HW122370   6.265   4.594   0.964
 7157SOL    HW222371   6.400   4.641   1.044
 7158SOL     OW22372   0.637   6.774   2.860
 7158SOL    HW122373   0.706   6.722   2.912
 7158SOL    HW222374   0.547   6.731   2.872
 7159SOL     OW22375   0.229   4.424   2.746
 7159SOL    HW122376   0.206   4.337   2.790
 7159SOL    HW222377   0.159   4.492   2.768
 7160SOL     OW22378   6.576   7.002   3.281
 7160SOL    HW122379   6.552   0.035   3.356
 7160SOL    HW222380   6.655   0.010   3.232
 7161SOL     OW22381   3.317   4.141   5.289
 7161SOL    HW122382   3.231   4.141   5.341
 7161SOL    HW222383   3.391   4.107   5.346
 7162SOL     OW22384   2.952   6.303   6.201
 7162SOL    HW122385   3.034   6.356   6.221
 7162SOL    HW222386   2.902   6.346   6.126
 7163SOL     OW22387   3.109   6.651   3.748
 7163SOL    HW122388   3.111   6.745   3.716
 7163SOL    HW222389   3.118   6.589   3.670
 7164SOL     OW22390   2.211   1.709   3.293
 7164SOL    HW122391   2.208   1.807   3.311
 7164SOL    HW222392   2.175   1.690   3.202
 7165SOL     OW22393   6.116   0.923   1.276
 7165SOL    HW122394   6.208   0.961   1.284
 7165SOL    HW222395   6.117   0.850   1.207
 7166SOL     OW22396   5.090   3.548   0.610
 7166SOL    HW122397   5.042   3.479   0.555
 7166SOL    HW222398   5.074   3.639   0.571
 7167SOL     OW22399   5.325   3.844   5.066
 7167SOL    HW122400   5.363   3.934   5.086
 7167SOL    HW222401   5.340   3.823   4.969
 7168SOL     OW22402   0.995   2.317   3.651
 7168SOL    HW122403   1.072   2.254   3.647
 7168SOL    HW222404   0.957   2.317   3.744
 7169SOL     OW22405   0.744   3.199   5.013
 7169SOL    HW122406   0.833   3.245   5.012
 7169SOL    HW222407   0.751   3.113   4.962
 7170SOL     OW22408   4.435   5.967   3.834
 7170SOL    HW122409   4.393   5.877   3.848
 7170SOL    HW222410   4.402   6.031   3.903
 7171SOL     OW22411   5.660   3.802   6.259
 7171SOL    HW122412   5.671   3.831   6.164
 7171SOL    HW222413   5.575   3.750   6.268
 7172SOL     OW22414   1.377   0.371   5.623
 7172SOL    HW122415   1.475   0.389   5.621
 7172SOL    HW222416   1.354   0.319   5.706
 7173SOL     OW22417   0.054   5.022   5.623
 7173SOL    HW122418   0.081   4.938   5.671
 7173SOL    HW222419   0.042   5.096   5.690
 7174SOL     OW22420   1.027   5.256   6.572
 7174SOL    HW122421   0.954   5.253   6.503
 7174SOL    HW222422   1.073   5.345   6.569
 7175SOL     OW22423   5.633   3.699   0.619
 7175SOL    HW122424   5.582   3.693   0.705
 7175SOL    HW222425   5.719   3.649   0.628
 7176SOL     OW22426   0.328   5.366   2.612
 7176SOL    HW122427   0.244   5.313   2.622
 7176SOL    HW222428   0.305   5.461   2.590
 7177SOL     OW22429   2.500   0.172   4.270
 7177SOL    HW122430   2.566   0.167   4.195
 7177SOL    HW222431   2.437   0.247   4.253
 7178SOL     OW22432   2.725   3.018   5.694
 7178SOL    HW122433   2.735   2.997   5.597
 7178SOL    HW222434   2.683   3.109   5.705
 7179SOL     OW22435   1.408   3.349   4.845
 7179SOL    HW122436   1.392   3.408   4.924
 7179SOL    HW222437   1.418   3.254   4.875
 7180SOL     OW22438   1.422   5.211   6.252
 7180SOL    HW122439   1.376   5.286   6.204
 7180SOL    HW222440   1.472   5.155   6.186
 7181SOL     OW22441   2.933   6.591   0.516
 7181SOL    HW122442   2.936   6.587   0.616
 7181SOL    HW222443   3.026   6.594   0.479
 7182SOL     OW22444   2.110   3.259   5.615
 7182SOL    HW122445   2.058   3.290   5.535
 7182SOL    HW222446   2.048   3.220   5.682
 7183SOL     OW22447   1.804   5.215   1.273
 7183SOL    HW122448   1.856   5.296   1.247
 7183SOL    HW222449   1.861   5.154   1.327
 7184SOL     OW22450   0.839   0.121   3.205
 7184SOL    HW122451   0.935   0.136   3.230
 7184SOL    HW222452   0.790   0.079   3.281
 7185SOL     OW22453   5.006   1.593   5.371
 7185SOL    HW122454   5.094   1.577   5.328
 7185SOL    HW222455   4.954   1.508   5.373
 7186SOL     OW22456   7.000   0.016   5.870
 7186SOL    HW122457   6.974   0.085   5.938
 7186SOL    HW222458   0.069   0.023   5.850
 7187SOL     OW22459   2.133   4.861   0.906
 7187SOL    HW122460   2.111   4.844   1.002
 7187SOL    HW222461   2.103   4.952   0.879
 7188SOL     OW22462   5.137   6.671   0.497
 7188SOL    HW122463   5.074   6.727   0.443
 7188SOL    HW222464   5.173   6.597   0.441
 7189SOL     OW22465   6.125   1.360   6.636
 7189SOL    HW122466   6.065   1.431   6.598
 7189SOL    HW222467   6.207   1.403   6.673
 7190SOL     OW22468   5.292   3.291   3.000
 7190SOL    HW122469   5.368   3.243   3.043
 7190SOL    HW222470   5.252   3.234   2.929
 7191SOL     OW22471   0.401   4.490   2.355
 7191SOL    HW122472   0.483   4.491   2.413
 7191SOL    HW222473   0.398   4.404   2.304
 7192SOL     OW22474   1.906   5.522   5.087
 7192SOL    HW122475   1.988   5.476   5.121
 7192SOL    HW222476   1.851   5.458   5.035
 7193SOL     OW22477   2.704   1.881   3.006
 7193SOL    HW122478   2.627   1.936   3.040
 7193SOL    HW222479   2.674   1.827   2.928
 7194SOL     OW22480   2.740   2.435   1.075
 7194SOL    HW122481   2.697   2.407   1.162
 7194SOL    HW222482   2.704   2.524   1.048
 7195SOL     OW22483   0.348   5.342   6.506
 7195SOL    HW122484   0.383   5.283   6.579
 7195SOL    HW222485   0.318   5.429   6.546
 7196SOL     OW22486   3.268   3.960   2.281
 7196SOL    HW122487   3.355   3.955   2.232
 7196SOL    HW222488   3.198   3.996   2.219
 7197SOL     OW22489   6.806   2.482   6.215
 7197SOL    HW122490   6.895   2.526   6.229
 7197SOL    HW222491   6.770   2.452   6.303
 7198SOL     OW22492   1.161   0.924   5.521
 7198SOL    HW122493   1.080   0.932   5.462
 7198SOL    HW222494   1.185   1.014   5.558
 7199SOL     OW22495   2.313   0.723   2.207
 7199SOL    HW122496   2.323   0.804   2.150
 7199SOL    HW222497   2.222   0.683   2.194
 7200SOL     OW22498   2.482   1.047   0.190
 7200SOL    HW122499   2.461   0.957   0.150
 7200SOL    HW222500   2.570   1.079   0.154
 7201SOL     OW22501   1.683   5.742   3.545
 7201SOL    HW122502   1.779   5.766   3.533
 7201SOL    HW222503   1.664   5.730   3.642
 7202SOL     OW22504   4.182   0.033   6.116
 7202SOL    HW122505   4.167   6.979   6.061
 7202SOL    HW222506   4.280   0.052   6.124
 7203SOL     OW22507   6.941   1.178   0.769
 7203SOL    HW122508   7.028   1.146   0.805
 7203SOL    HW222509   6.895   1.236   0.837
 7204SOL     OW22510   5.897   6.832   4.796
 7204SOL    HW122511   5.967   6.781   4.846
 7204SOL    HW222512   5.894   6.926   4.830
 7205SOL     OW22513   1.944   5.835   3.071
 7205SOL    HW122514   2.005   5.863   3.144
 7205SOL    HW222515   1.972   5.878   2.985
 7206SOL     OW22516   2.027   0.371   1.718
 7206SOL    HW122517   2.012   0.344   1.623
 7206SOL    HW222518   2.117   0.337   1.748
 7207SOL     OW22519   3.426   6.547   1.315
 7207SOL    HW122520   3.394   6.586   1.229
 7207SOL    HW222521   3.395   6.452   1.321
 7208SOL     OW22522   4.253   6.383   4.490
 7208SOL    HW122523   4.314   6.434   4.550
 7208SOL    HW222524   4.204   6.314   4.543
 7209SOL     OW22525   2.902   3.574   2.815
 7209SOL    HW122526   2.910   3.674   2.810
 7209SOL    HW222527   2.930   3.542   2.905
 7210SOL     OW22528   4.633   6.904   3.698
 7210SOL    HW122529   4.700   6.838   3.731
 7210SOL    HW222530   4.585   6.867   3.618
 7211SOL     OW22531   2.154   5.710   3.613
 7211SOL    HW122532   2.173   5.799   3.572
 7211SOL    HW222533   2.233   5.681   3.667
 7212SOL     OW22534   0.862   6.251   3.113
 7212SOL    HW122535   0.923   6.259   3.192
 7212SOL    HW222536   0.816   6.162   3.114
 7213SOL     OW22537   5.746   0.354   6.197
 7213SOL    HW122538   5.753   0.429   6.263
 7213SOL    HW222539   5.811   0.282   6.222
 7214SOL     OW22540   2.003   5.742   4.087
 7214SOL    HW122541   1.990   5.822   4.146
 7214SOL    HW222542   2.085   5.692   4.116
 7215SOL     OW22543   0.380   3.382   3.911
 7215SOL    HW122544   0.393   3.283   3.918
 7215SOL    HW222545   0.286   3.400   3.881
 7216SOL     OW22546   2.218   5.924   6.652
 7216SOL    HW122547   2.251   5.887   6.738
 7216SOL    HW222548   2.139   5.871   6.620
 7217SOL     OW22549   2.156   4.250   1.846
 7217SOL    HW122550   2.219   4.282   1.775
 7217SOL    HW222551   2.070   4.300   1.839
 7218SOL     OW22552   4.453   2.883   5.329
 7218SOL    HW122553   4.357   2.912   5.324
 7218SOL    HW222554   4.493   2.911   5.416
 7219SOL     OW22555   5.282   5.560   3.700
 7219SOL    HW122556   5.269   5.498   3.777
 7219SOL    HW222557   5.230   5.527   3.621
 7220SOL     OW22558   0.300   5.561   4.143
 7220SOL    HW122559   0.243   5.602   4.072
 7220SOL    HW222560   0.354   5.632   4.188
 7221SOL     OW22561   5.382   4.983   5.287
 7221SOL    HW122562   5.417   4.900   5.331
 7221SOL    HW222563   5.403   5.062   5.345
 7222SOL     OW22564   6.109   6.690   0.635
 7222SOL    HW122565   6.207   6.691   0.652
 7222SOL    HW222566   6.065   6.623   0.695
 7223SOL     OW22567   2.945   1.880   1.788
 7223SOL    HW122568   3.040   1.908   1.778
 7223SOL    HW222569   2.889   1.960   1.810
 7224SOL     OW22570   5.919   1.954   4.782
 7224SOL    HW122571   5.991   2.000   4.731
 7224SOL    HW222572   5.867   1.895   4.720
 7225SOL     OW22573   1.562   5.999   6.407
 7225SOL    HW122574   1.643   5.945   6.428
 7225SOL    HW222575   1.530   6.045   6.490
 7226SOL     OW22576   0.955   0.297   0.247
 7226SOL    HW122577   0.901   0.305   0.163
 7226SOL    HW222578   0.977   0.388   0.281
 7227SOL     OW22579   0.946   1.980   1.134
 7227SOL    HW122580   0.862   1.957   1.084
 7227SOL    HW222581   0.940   2.073   1.168
 7228SOL     OW22582   0.009   0.895   2.098
 7228SOL    HW122583   0.087   0.955   2.083
 7228SOL    HW222584   0.016   0.815   2.039
 7229SOL     OW22585   1.364   0.904   3.773
 7229SOL    HW122586   1.392   0.967   3.701
 7229SOL    HW222587   1.412   0.926   3.858
 7230SOL     OW22588   4.646   5.800   5.120
 7230SOL    HW122589   4.592   5.816   5.202
 7230SOL    HW222590   4.692   5.885   5.093
 7231SOL     OW22591   4.792   0.166   0.186
 7231SOL    HW122592   4.852   0.241   0.156
 7231SOL    HW222593   4.838   0.079   0.169
 7232SOL     OW22594   3.549   4.937   3.373
 7232SOL    HW122595   3.583   5.016   3.424
 7232SOL    HW222596   3.457   4.914   3.404
 7233SOL     OW22597   0.484   2.819   4.837
 7233SOL    HW122598   0.392   2.801   4.873
 7233SOL    HW222599   0.479   2.848   4.742
 7234SOL     OW22600   5.897   2.442   2.978
 7234SOL    HW122601   5.813   2.437   2.923
 7234SOL    HW222602   5.887   2.514   3.047
 7235SOL     OW22603   6.182   4.549   3.050
 7235SOL    HW122604   6.259   4.578   3.107
 7235SOL    HW222605   6.097   4.566   3.099
 7236SOL     OW22606   2.834   1.922   2.701
 7236SOL    HW122607   2.861   1.901   2.795
 7236SOL    HW222608   2.912   1.908   2.640
 7237SOL     OW22609   6.640   6.636   5.240
 7237SOL    HW122610   6.572   6.693   5.194
 7237SOL    HW222611   6.597   6.552   5.272
 7238SOL     OW22612   2.192   2.323   1.149
 7238SOL    HW122613   2.254   2.247   1.165
 7238SOL    HW222614   2.144   2.308   1.062
 7239SOL     OW22615   2.893   1.938   3.733
 7239SOL    HW122616   2.924   1.903   3.821
 7239SOL    HW222617   2.801   1.903   3.713
 7240SOL     OW22618   2.509   4.387   6.833
 7240SOL    HW122619   2.441   4.314   6.827
 7240SOL    HW222620   2.553   4.385   6.922
 7241SOL     OW22621   2.971   0.352   6.421
 7241SOL    HW122622   3.053   0.298   6.403
 7241SOL    HW222623   2.983   0.444   6.382
 7242SOL     OW22624   6.294   4.384   6.900
 7242SOL    HW122625   6.347   4.459   6.938
 7242SOL    HW222626   6.315   4.300   6.950
 7243SOL     OW22627   0.615   4.503   6.843
 7243SOL    HW122628   0.578   4.459   6.761
 7243SOL    HW222629   0.706   4.538   6.825
 7244SOL     OW22630   4.344   0.401   1.452
 7244SOL    HW122631   4.297   0.401   1.364
 7244SOL    HW222632   4.277   0.394   1.526
 7245SOL     OW22633   0.727   2.423   4.937
 7245SOL    HW122634   0.634   2.392   4.917
 7245SOL    HW222635   0.742   2.423   5.036
 7246SOL     OW22636   6.537   6.613   4.538
 7246SOL    HW122637   6.493   6.542   4.592
 7246SOL    HW222638   6.617   6.575   4.491
 7247SOL     OW22639   2.682   6.862   2.876
 7247SOL    HW122640   2.595   6.855   2.925
 7247SOL    HW222641   2.752   6.808   2.923
 7248SOL     OW22642   3.242   1.347   3.730
 7248SOL    HW122643   3.282   1.323   3.642
 7248SOL    HW222644   3.307   1.325   3.803
 7249SOL     OW22645   5.945   5.003   2.092
 7249SOL    HW122646   5.989   4.918   2.119
 7249SOL    HW222647   5.851   5.004   2.125
 7250SOL     OW22648   2.511   4.776   6.381
 7250SOL    HW122649   2.565   4.838   6.438
 7250SOL    HW222650   2.569   4.701   6.349
 7251SOL     OW22651   0.065   6.549   5.418
 7251SOL    HW122652   0.058   6.460   5.372
 7251SOL    HW222653   7.028   6.613   5.378
 7252SOL     OW22654   3.425   3.091   4.658
 7252SOL    HW122655   3.338   3.046   4.676
 7252SOL    HW222656   3.477   3.097   4.743
 7253SOL     OW22657   1.591   6.371   0.396
 7253SOL    HW122658   1.540   6.368   0.310
 7253SOL    HW222659   1.670   6.310   0.390
 7254SOL     OW22660   3.634   5.543   5.031
 7254SOL    HW122661   3.649   5.445   5.020
 7254SOL    HW222662   3.602   5.561   5.123
 7255SOL     OW22663   3.507   3.823   1.892
 7255SOL    HW122664   3.527   3.891   1.962
 7255SOL    HW222665   3.417   3.783   1.909
 7256SOL     OW22666   4.711   4.808   4.782
 7256SOL    HW122667   4.676   4.753   4.858
 7256SOL    HW222668   4.720   4.903   4.811
 7257SOL     OW22669   5.798   3.140   3.271
 7257SOL    HW122670   5.818   3.218   3.212
 7257SOL    HW222671   5.880   3.084   3.284
 7258SOL     OW22672   4.223   0.212   4.539
 7258SOL    HW122673   4.201   0.240   4.633
 7258SOL    HW222674   4.158   0.141   4.510
 7259SOL     OW22675   2.959   4.069   0.904
 7259SOL    HW122676   3.055   4.081   0.881
 7259SOL    HW222677   2.943   4.101   0.998
 7260SOL     OW22678   3.360   1.541   3.124
 7260SOL    HW122679   3.285   1.607   3.118
 7260SOL    HW222680   3.344   1.479   3.201
 7261SOL     OW22681   2.667   2.873   1.714
 7261SOL    HW122682   2.589   2.928   1.683
 7261SOL    HW222683   2.635   2.784   1.746
 7262SOL     OW22684   6.116   2.441   4.320
 7262SOL    HW122685   6.123   2.539   4.340
 7262SOL    HW222686   6.133   2.426   4.223
 7263SOL     OW22687   1.258   5.446   1.831
 7263SOL    HW122688   1.307   5.391   1.763
 7263SOL    HW222689   1.202   5.386   1.889
 7264SOL     OW22690   7.022   1.667   6.759
 7264SOL    HW122691   0.046   1.607   6.699
 7264SOL    HW222692   0.011   1.762   6.734
 7265SOL     OW22693   5.651   5.103   6.104
 7265SOL    HW122694   5.669   5.024   6.163
 7265SOL    HW222695   5.737   5.144   6.074
 7266SOL     OW22696   3.957   0.551   1.094
 7266SOL    HW122697   3.977   0.466   1.046
 7266SOL    HW222698   3.859   0.571   1.086
 7267SOL     OW22699   6.325   4.657   5.220
 7267SOL    HW122700   6.390   4.683   5.149
 7267SOL    HW222701   6.238   4.632   5.178
 7268SOL     OW22702   4.090   5.007   2.940
 7268SOL    HW122703   4.136   4.937   2.886
 7268SOL    HW222704   4.144   5.027   3.022
 7269SOL     OW22705   0.653   5.862   1.478
 7269SOL    HW122706   0.671   5.820   1.567
 7269SOL    HW222707   0.740   5.887   1.436
 7270SOL     OW22708   2.421   1.966   3.249
 7270SOL    HW122709   2.483   1.963   3.327
 7270SOL    HW222710   2.469   2.000   3.168
 7271SOL     OW22711   0.389   4.184   3.070
 7271SOL    HW122712   0.438   4.201   2.985
 7271SOL    HW222713   0.453   4.153   3.140
 7272SOL     OW22714   5.437   2.894   3.067
 7272SOL    HW122715   5.461   2.988   3.042
 7272SOL    HW222716   5.385   2.852   2.992
 7273SOL     OW22717   5.640   4.125   1.678
 7273SOL    HW122718   5.681   4.181   1.606
 7273SOL    HW222719   5.542   4.144   1.684
 7274SOL     OW22720   6.804   5.537   6.267
 7274SOL    HW122721   6.793   5.501   6.174
 7274SOL    HW222722   6.901   5.538   6.290
 7275SOL     OW22723   6.428   0.651   0.316
 7275SOL    HW122724   6.435   0.751   0.325
 7275SOL    HW222725   6.424   0.627   0.219
 7276SOL     OW22726   2.835   1.462   3.397
 7276SOL    HW122727   2.741   1.445   3.369
 7276SOL    HW222728   2.848   1.561   3.410
 7277SOL     OW22729   4.626   1.259   5.743
 7277SOL    HW122730   4.560   1.185   5.731
 7277SOL    HW222731   4.581   1.337   5.785
 7278SOL     OW22732   3.901   1.885   3.378
 7278SOL    HW122733   3.957   1.937   3.443
 7278SOL    HW222734   3.951   1.873   3.293
 7279SOL     OW22735   4.228   4.327   0.760
 7279SOL    HW122736   4.317   4.361   0.788
 7279SOL    HW222737   4.217   4.232   0.790
 7280SOL     OW22738   5.326   2.437   5.230
 7280SOL    HW122739   5.382   2.470   5.306
 7280SOL    HW222740   5.315   2.510   5.163
 7281SOL     OW22741   3.287   0.150   0.477
 7281SOL    HW122742   3.209   0.194   0.521
 7281SOL    HW222743   3.362   0.215   0.468
 7282SOL     OW22744   6.654   5.489   1.683
 7282SOL    HW122745   6.739   5.474   1.632
 7282SOL    HW222746   6.671   5.551   1.759
 7283SOL     OW22747   2.945   6.610   2.264
 7283SOL    HW122748   2.921   6.687   2.205
 7283SOL    HW222749   2.912   6.627   2.357
 7284SOL     OW22750   6.627   2.569   3.970
 7284SOL    HW122751   6.608   2.665   3.947
 7284SOL    HW222752   6.663   2.522   3.889
 7285SOL     OW22753   4.937   2.817   1.353
 7285SOL    HW122754   4.939   2.908   1.395
 7285SOL    HW222755   5.016   2.765   1.385
 7286SOL     OW22756   0.548   1.286   0.572
 7286SOL    HW122757   0.611   1.230   0.517
 7286SOL    HW222758   0.475   1.228   0.608
 7287SOL     OW22759   0.048   2.593   4.043
 7287SOL    HW122760   7.021   2.571   3.962
 7287SOL    HW222761   7.018   2.632   4.114
 7288SOL     OW22762   2.781   2.367   2.949
 7288SOL    HW122763   2.704   2.411   2.902
 7288SOL    HW222764   2.765   2.366   3.047
 7289SOL     OW22765   5.263   2.821   1.754
 7289SOL    HW122766   5.268   2.760   1.833
 7289SOL    HW222767   5.232   2.769   1.674
 7290SOL     OW22768   4.334   0.486   6.002
 7290SOL    HW122769   4.243   0.476   5.961
 7290SOL    HW222770   4.341   0.577   6.043
 7291SOL     OW22771   3.096   0.097   0.009
 7291SOL    HW122772   3.103   0.092   0.109
 7291SOL    HW222773   3.042   0.177   7.012
 7292SOL     OW22774   1.756   7.021   3.483
 7292SOL    HW122775   1.720   0.084   3.503
 7292SOL    HW222776   1.813   7.024   3.401
 7293SOL     OW22777   1.048   1.310   5.578
 7293SOL    HW122778   1.128   1.262   5.616
 7293SOL    HW222779   0.998   1.249   5.518
 7294SOL     OW22780   3.058   4.702   1.724
 7294SOL    HW122781   2.989   4.645   1.769
 7294SOL    HW222782   3.130   4.644   1.687
 7295SOL     OW22783   6.189   4.802   1.564
 7295SOL    HW122784   6.110   4.857   1.538
 7295SOL    HW222785   6.272   4.857   1.556
 7296SOL     OW22786   3.320   5.155   2.802
 7296SOL    HW122787   3.368   5.088   2.745
 7296SOL    HW222788   3.358   5.246   2.785
 7297SOL     OW22789   3.050   6.314   1.940
 7297SOL    HW122790   3.053   6.328   1.841
 7297SOL    HW222791   3.139   6.281   1.971
 7298SOL     OW22792   4.725   6.459   6.407
 7298SOL    HW122793   4.625   6.456   6.409
 7298SOL    HW222794   4.756   6.468   6.312
 7299SOL     OW22795   1.115   2.945   6.990
 7299SOL    HW122796   1.165   2.860   6.975
 7299SOL    HW222797   1.041   2.952   6.923
 7300SOL     OW22798   0.904   4.915   2.051
 7300SOL    HW122799   0.816   4.912   2.097
 7300SOL    HW222800   0.912   4.999   1.998
 7301SOL     OW22801   6.658   0.729   5.814
 7301SOL    HW122802   6.592   0.731   5.889
 7301SOL    HW222803   6.611   0.746   5.727
 7302SOL     OW22804   5.851   2.935   6.078
 7302SOL    HW122805   5.837   2.936   5.979
 7302SOL    HW222806   5.850   3.028   6.113
 7303SOL     OW22807   3.251   1.477   0.587
 7303SOL    HW122808   3.340   1.489   0.543
 7303SOL    HW222809   3.208   1.394   0.551
 7304SOL     OW22810   2.461   5.431   2.052
 7304SOL    HW122811   2.368   5.432   2.088
 7304SOL    HW222812   2.459   5.445   1.953
 7305SOL     OW22813   5.701   2.245   0.015
 7305SOL    HW122814   5.632   2.249   6.971
 7305SOL    HW222815   5.655   2.243   0.105
 7306SOL     OW22816   3.656   1.873   1.069
 7306SOL    HW122817   3.743   1.910   1.101
 7306SOL    HW222818   3.592   1.948   1.055
 7307SOL     OW22819   3.537   6.497   1.801
 7307SOL    HW122820   3.489   6.549   1.731
 7307SOL    HW222821   3.493   6.513   1.890
 7308SOL     OW22822   6.155   1.148   2.072
 7308SOL    HW122823   6.130   1.055   2.046
 7308SOL    HW222824   6.249   1.167   2.044
 7309SOL     OW22825   2.575   5.942   2.970
 7309SOL    HW122826   2.516   5.925   3.049
 7309SOL    HW222827   2.537   5.898   2.889
 7310SOL     OW22828   1.626   3.169   0.227
 7310SOL    HW122829   1.627   3.212   0.318
 7310SOL    HW222830   1.711   3.119   0.213
 7311SOL     OW22831   1.010   0.557   0.308
 7311SOL    HW122832   1.071   0.593   0.238
 7311SOL    HW222833   1.035   0.596   0.397
 7312SOL     OW22834   0.107   1.942   5.213
 7312SOL    HW122835   0.181   1.944   5.147
 7312SOL    HW222836   0.080   1.847   5.230
 7313SOL     OW22837   2.722   0.893   1.053
 7313SOL    HW122838   2.739   0.980   1.007
 7313SOL    HW222839   2.809   0.854   1.082
 7314SOL     OW22840   0.185   4.125   7.002
 7314SOL    HW122841   0.257   4.077   6.952
 7314SOL    HW222842   0.205   4.223   7.005
 7315SOL     OW22843   6.512   5.392   2.529
 7315SOL    HW122844   6.420   5.382   2.490
 7315SOL    HW222845   6.551   5.479   2.498
 7316SOL     OW22846   3.264   2.251   6.139
 7316SOL    HW122847   3.272   2.342   6.099
 7316SOL    HW222848   3.178   2.209   6.110
 7317SOL     OW22849   3.385   1.664   1.776
 7317SOL    HW122850   3.392   1.574   1.818
 7317SOL    HW222851   3.299   1.671   1.726
 7318SOL     OW22852   3.758   6.728   2.375
 7318SOL    HW122853   3.712   6.764   2.294
 7318SOL    HW222854   3.849   6.769   2.381
 7319SOL     OW22855   0.015   3.861   6.815
 7319SOL    HW122856   7.008   3.871   6.722
 7319SOL    HW222857   0.103   3.906   6.823
 7320SOL     OW22858   0.157   4.058   1.320
 7320SOL    HW122859   0.240   4.081   1.371
 7320SOL    HW222860   0.089   4.130   1.333
 7321SOL     OW22861   1.907   6.247   6.282
 7321SOL    HW122862   1.944   6.339   6.298
 7321SOL    HW222863   1.981   6.180   6.290
 7322SOL     OW22864   0.996   1.447   3.059
 7322SOL    HW122865   0.919   1.509   3.042
 7322SOL    HW222866   1.024   1.455   3.155
 7323SOL     OW22867   2.088   1.182   1.826
 7323SOL    HW122868   2.185   1.166   1.845
 7323SOL    HW222869   2.075   1.276   1.794
 7324SOL     OW22870   5.786   4.332   2.601
 7324SOL    HW122871   5.735   4.276   2.667
 7324SOL    HW222872   5.723   4.391   2.551
 7325SOL     OW22873   3.656   0.714   5.769
 7325SOL    HW122874   3.719   0.756   5.703
 7325SOL    HW222875   3.566   0.704   5.728
 7326SOL     OW22876   3.316   0.569   6.256
 7326SOL    HW122877   3.258   0.530   6.184
 7326SOL    HW222878   3.406   0.525   6.254
 7327SOL     OW22879   5.758   3.586   2.957
 7327SOL    HW122880   5.658   3.590   2.965
 7327SOL    HW222881   5.798   3.662   3.009
 7328SOL     OW22882   3.854   5.387   6.040
 7328SOL    HW122883   3.779   5.450   6.018
 7328SOL    HW222884   3.839   5.349   6.131
 7329SOL     OW22885   1.441   2.817   6.659
 7329SOL    HW122886   1.466   2.755   6.733
 7329SOL    HW222887   1.343   2.808   6.640
 7330SOL     OW22888   2.985   3.013   1.278
 7330SOL    HW122889   3.021   3.091   1.329
 7330SOL    HW222890   2.925   2.959   1.337
 7331SOL     OW22891   5.079   0.378   1.899
 7331SOL    HW122892   5.000   0.439   1.911
 7331SOL    HW222893   5.156   0.413   1.953
 7332SOL     OW22894   4.258   4.069   0.095
 7332SOL    HW122895   4.326   4.142   0.098
 7332SOL    HW222896   4.186   4.093   0.030
 7333SOL     OW22897   6.094   3.154   3.134
 7333SOL    HW122898   6.123   3.231   3.076
 7333SOL    HW222899   6.096   3.070   3.080
 7334SOL     OW22900   2.719   6.589   6.081
 7334SOL    HW122901   2.754   6.668   6.132
 7334SOL    HW222902   2.747   6.505   6.127
 7335SOL     OW22903   6.670   3.846   2.951
 7335SOL    HW122904   6.667   3.752   2.983
 7335SOL    HW222905   6.677   3.847   2.851
 7336SOL     OW22906   1.703   6.108   0.917
 7336SOL    HW122907   1.747   6.024   0.886
 7336SOL    HW222908   1.699   6.174   0.842
 7337SOL     OW22909   3.617   2.637   1.768
 7337SOL    HW122910   3.596   2.699   1.844
 7337SOL    HW222911   3.629   2.544   1.804
 7338SOL     OW22912   5.408   2.756   1.185
 7338SOL    HW122913   5.380   2.756   1.089
 7338SOL    HW222914   5.479   2.826   1.199
 7339SOL     OW22915   0.079   6.436   4.868
 7339SOL    HW122916   0.027   6.357   4.900
 7339SOL    HW222917   0.174   6.428   4.899
 7340SOL     OW22918   3.502   1.292   0.263
 7340SOL    HW122919   3.585   1.241   0.286
 7340SOL    HW222920   3.509   1.326   0.169
 7341SOL     OW22921   0.624   4.807   3.747
 7341SOL    HW122922   0.636   4.882   3.813
 7341SOL    HW222923   0.667   4.832   3.661
 7342SOL     OW22924   6.593   0.646   0.568
 7342SOL    HW122925   6.560   0.719   0.627
 7342SOL    HW222926   6.540   0.644   0.483
 7343SOL     OW22927   6.120   3.964   1.844
 7343SOL    HW122928   6.106   3.914   1.929
 7343SOL    HW222929   6.044   4.028   1.830
 7344SOL     OW22930   1.508   6.714   6.560
 7344SOL    HW122931   1.556   6.733   6.645
 7344SOL    HW222932   1.564   6.744   6.482
 7345SOL     OW22933   4.274   4.733   5.802
 7345SOL    HW122934   4.335   4.758   5.876
 7345SOL    HW222935   4.238   4.641   5.818
 7346SOL     OW22936   3.267   4.389   1.358
 7346SOL    HW122937   3.354   4.412   1.314
 7346SOL    HW222938   3.280   4.381   1.456
 7347SOL     OW22939   6.100   2.477   2.165
 7347SOL    HW122940   6.094   2.543   2.090
 7347SOL    HW222941   6.051   2.393   2.139
 7348SOL     OW22942   1.217   3.287   3.878
 7348SOL    HW122943   1.294   3.273   3.941
 7348SOL    HW222944   1.133   3.256   3.921
 7349SOL     OW22945   3.291   2.045   1.500
 7349SOL    HW122946   3.387   2.036   1.527
 7349SOL    HW222947   3.283   2.032   1.401
 7350SOL     OW22948   0.260   2.468   3.611
 7350SOL    HW122949   0.284   2.461   3.707
 7350SOL    HW222950   0.182   2.407   3.592
 7351SOL     OW22951   4.086   4.722   6.742
 7351SOL    HW122952   4.148   4.786   6.695
 7351SOL    HW222953   4.115   4.628   6.723
 7352SOL     OW22954   1.646   1.472   2.916
 7352SOL    HW122955   1.631   1.434   3.007
 7352SOL    HW222956   1.660   1.398   2.850
 7353SOL     OW22957   6.822   1.951   5.309
 7353SOL    HW122958   6.852   2.001   5.228
 7353SOL    HW222959   6.887   1.966   5.383
 7354SOL     OW22960   6.415   1.295   5.945
 7354SOL    HW122961   6.473   1.216   5.966
 7354SOL    HW222962   6.372   1.328   6.029
 7355SOL     OW22963   1.918   6.006   1.349
 7355SOL    HW122964   1.840   5.944   1.345
 7355SOL    HW222965   1.910   6.065   1.430
 7356SOL     OW22966   5.741   2.595   6.529
 7356SOL    HW122967   5.766   2.527   6.598
 7356SOL    HW222968   5.805   2.672   6.534
 7357SOL     OW22969   4.839   0.877   1.108
 7357SOL    HW122970   4.763   0.922   1.061
 7357SOL    HW222971   4.910   0.853   1.041
 7358SOL     OW22972   3.459   1.836   3.117
 7358SOL    HW122973   3.453   1.933   3.141
 7358SOL    HW222974   3.368   1.794   3.128
 7359SOL     OW22975   3.331   2.674   1.752
 7359SOL    HW122976   3.322   2.726   1.667
 7359SOL    HW222977   3.426   2.673   1.781
 7360SOL     OW22978   1.507   2.817   4.939
 7360SOL    HW122979   1.487   2.877   5.017
 7360SOL    HW222980   1.605   2.800   4.935
 7361SOL     OW22981   4.669   0.346   0.901
 7361SOL    HW122982   4.709   0.287   0.971
 7361SOL    HW222983   4.741   0.393   0.851
 7362SOL     OW22984   0.915   0.046   5.202
 7362SOL    HW122985   0.917   0.145   5.217
 7362SOL    HW222986   0.833   0.022   5.150
 7363SOL     OW22987   5.558   2.240   0.271
 7363SOL    HW122988   5.585   2.144   0.282
 7363SOL    HW222989   5.578   2.290   0.355
 7364SOL     OW22990   4.196   6.589   1.196
 7364SOL    HW122991   4.241   6.536   1.125
 7364SOL    HW222992   4.239   6.570   1.284
 7365SOL     OW22993   3.391   6.680   2.441
 7365SOL    HW122994   3.415   6.777   2.445
 7365SOL    HW222995   3.467   6.625   2.476
 7366SOL     OW22996   1.006   5.400   0.106
 7366SOL    HW122997   0.928   5.460   0.121
 7366SOL    HW222998   1.082   5.454   0.069
 7367SOL     OW22999   4.367   4.014   1.490
 7367SOL    HW123000   4.284   4.044   1.536
 7367SOL    HW223001   4.352   4.013   1.391
 7368SOL     OW23002   3.198   3.562   4.531
 7368SOL    HW123003   3.151   3.633   4.584
 7368SOL    HW223004   3.284   3.600   4.495
 7369SOL     OW23005   4.748   3.542   1.327
 7369SOL    HW123006   4.792   3.593   1.253
 7369SOL    HW223007   4.700   3.605   1.388
 7370SOL     OW23008   1.497   0.598   6.653
 7370SOL    HW123009   1.572   0.628   6.595
 7370SOL    HW223010   1.533   0.552   6.735
 7371SOL     OW23011   2.906   5.466   3.690
 7371SOL    HW123012   2.854   5.380   3.691
 7371SOL    HW223013   2.864   5.530   3.754
 7372SOL     OW23014   3.562   6.930   5.463
 7372SOL    HW123015   3.549   6.944   5.561
 7372SOL    HW223016   3.574   6.833   5.444
 7373SOL     OW23017   5.064   1.332   3.264
 7373SOL    HW123018   5.046   1.253   3.324
 7373SOL    HW223019   5.016   1.412   3.299
 7374SOL     OW23020   2.141   2.877   5.136
 7374SOL    HW123021   2.134   2.778   5.152
 7374SOL    HW223022   2.233   2.900   5.105
 7375SOL     OW23023   1.489   1.668   3.861
 7375SOL    HW123024   1.481   1.749   3.919
 7375SOL    HW223025   1.562   1.681   3.794
 7376SOL     OW23026   2.911   2.814   6.926
 7376SOL    HW123027   2.820   2.774   6.944
 7376SOL    HW223028   2.964   2.814   7.010
 7377SOL     OW23029   4.476   5.412   1.898
 7377SOL    HW123030   4.441   5.503   1.919
 7377SOL    HW223031   4.437   5.346   1.962
 7378SOL     OW23032   6.272   2.047   4.450
 7378SOL    HW123033   6.338   2.100   4.398
 7378SOL    HW223034   6.283   1.950   4.429
 7379SOL     OW23035   4.440   0.923   2.898
 7379SOL    HW123036   4.443   1.010   2.847
 7379SOL    HW223037   4.528   0.877   2.891
 7380SOL     OW23038   6.609   3.522   6.057
 7380SOL    HW123039   6.652   3.453   5.999
 7380SOL    HW223040   6.572   3.478   6.139
 7381SOL     OW23041   4.681   2.794   2.514
 7381SOL    HW123042   4.678   2.893   2.510
 7381SOL    HW223043   4.664   2.763   2.608
 7382SOL     OW23044   0.515   4.920   4.744
 7382SOL    HW123045   0.437   4.926   4.807
 7382SOL    HW223046   0.483   4.891   4.654
 7383SOL     OW23047   6.741   6.862   2.313
 7383SOL    HW123048   6.829   6.855   2.266
 7383SOL    HW223049   6.737   6.794   2.387
 7384SOL     OW23050   5.324   0.872   2.056
 7384SOL    HW123051   5.407   0.822   2.080
 7384SOL    HW223052   5.333   0.908   1.963
 7385SOL     OW23053   4.279   5.381   2.122
 7385SOL    HW123054   4.190   5.400   2.079
 7385SOL    HW223055   4.269   5.385   2.222
 7386SOL     OW23056   0.876   2.866   5.518
 7386SOL    HW123057   0.922   2.885   5.431
 7386SOL    HW223058   0.927   2.796   5.568
 7387SOL     OW23059   3.915   6.083   4.203
 7387SOL    HW123060   3.956   6.087   4.112
 7387SOL    HW223061   3.833   6.140   4.206
 7388SOL     OW23062   6.722   6.011   4.238
 7388SOL    HW123063   6.643   6.059   4.200
 7388SOL    HW223064   6.712   5.912   4.224
 7389SOL     OW23065   1.474   4.741   6.717
 7389SOL    HW123066   1.395   4.698   6.673
 7389SOL    HW223067   1.455   4.838   6.734
 7390SOL     OW23068   1.261   1.801   6.430
 7390SOL    HW123069   1.298   1.861   6.359
 7390SOL    HW223070   1.162   1.790   6.416
 7391SOL     OW23071   4.866   4.065   5.732
 7391SOL    HW123072   4.831   3.997   5.668
 7391SOL    HW223073   4.964   4.080   5.715
 7392SOL     OW23074   1.960   6.020   5.972
 7392SOL    HW123075   1.952   6.108   5.925
 7392SOL    HW223076   1.927   5.947   5.912
 7393SOL     OW23077   5.739   5.312   1.599
 7393SOL    HW123078   5.684   5.380   1.646
 7393SOL    HW223079   5.757   5.342   1.505
 7394SOL     OW23080   3.813   3.166   6.056
 7394SOL    HW123081   3.898   3.122   6.084
 7394SOL    HW223082   3.801   3.251   6.106
 7395SOL     OW23083   0.612   0.328   6.492
 7395SOL    HW123084   0.595   0.347   6.588
 7395SOL    HW223085   0.670   0.400   6.453
 7396SOL     OW23086   1.597   0.913   6.511
 7396SOL    HW123087   1.639   0.938   6.424
 7396SOL    HW223088   1.604   0.990   6.575
 7397SOL     OW23089   6.100   4.898   4.393
 7397SOL    HW123090   6.180   4.922   4.449
 7397SOL    HW223091   6.116   4.925   4.299
 7398SOL     OW23092   3.574   5.215   4.173
 7398SOL    HW123093   3.535   5.272   4.100
 7398SOL    HW223094   3.556   5.258   4.261
 7399SOL     OW23095   0.308   3.966   5.679
 7399SOL    HW123096   0.286   3.869   5.692
 7399SOL    HW223097   0.407   3.977   5.668
 7400SOL     OW23098   3.310   4.226   6.847
 7400SOL    HW123099   3.238   4.204   6.782
 7400SOL    HW223100   3.310   4.159   6.922
 7401SOL     OW23101   0.667   1.162   3.624
 7401SOL    HW123102   0.706   1.230   3.687
 7401SOL    HW223103   0.612   1.209   3.554
 7402SOL     OW23104   2.256   7.002   3.905
 7402SOL    HW123105   2.296   6.957   3.825
 7402SOL    HW223106   2.276   6.947   3.986
 7403SOL     OW23107   2.241   2.872   3.119
 7403SOL    HW123108   2.236   2.940   3.192
 7403SOL    HW223109   2.200   2.786   3.150
 7404SOL     OW23110   2.144   0.307   1.187
 7404SOL    HW123111   2.179   0.373   1.253
 7404SOL    HW223112   2.133   0.351   1.097
 7405SOL     OW23113   1.304   4.795   4.290
 7405SOL    HW123114   1.228   4.848   4.328
 7405SOL    HW223115   1.270   4.704   4.265
 7406SOL     OW23116   1.593   3.774   2.709
 7406SOL    HW123117   1.672   3.715   2.691
 7406SOL    HW223118   1.544   3.740   2.789
 7407SOL     OW23119   0.348   6.528   4.515
 7407SOL    HW123120   0.268   6.469   4.503
 7407SOL    HW223121   0.424   6.473   4.551
 7408SOL     OW23122   1.250   4.233   5.635
 7408SOL    HW123123   1.326   4.170   5.623
 7408SOL    HW223124   1.286   4.326   5.645
 7409SOL     OW23125   0.712   0.872   4.767
 7409SOL    HW123126   0.740   0.949   4.826
 7409SOL    HW223127   0.763   0.790   4.793
 7410SOL     OW23128   6.949   4.859   1.180
 7410SOL    HW123129   6.989   4.803   1.107
 7410SOL    HW223130   7.022   4.903   1.231
 7411SOL     OW23131   2.594   0.145   4.556
 7411SOL    HW123132   2.520   0.154   4.489
 7411SOL    HW223133   2.676   0.111   4.510
 7412SOL     OW23134   3.034   1.095   1.158
 7412SOL    HW123135   3.104   1.037   1.116
 7412SOL    HW223136   3.045   1.093   1.257
 7413SOL     OW23137   0.379   4.348   3.429
 7413SOL    HW123138   0.434   4.386   3.503
 7413SOL    HW223139   0.420   4.374   3.341
 7414SOL     OW23140   0.199   0.438   2.616
 7414SOL    HW123141   0.155   0.348   2.629
 7414SOL    HW223142   0.133   0.510   2.640
 7415SOL     OW23143   0.959   3.504   3.559
 7415SOL    HW123144   0.969   3.523   3.656
 7415SOL    HW223145   1.010   3.572   3.506
 7416SOL     OW23146   3.265   1.115   4.049
 7416SOL    HW123147   3.301   1.205   4.025
 7416SOL    HW223148   3.307   1.083   4.133
 7417SOL     OW23149   1.140   6.816   5.877
 7417SOL    HW123150   1.049   6.773   5.877
 7417SOL    HW223151   1.148   6.875   5.958
 7418SOL     OW23152   3.644   4.584   0.960
 7418SOL    HW123153   3.545   4.576   0.969
 7418SOL    HW223154   3.678   4.653   1.024
 7419SOL     OW23155   5.918   1.918   5.373
 7419SOL    HW123156   5.958   1.855   5.307
 7419SOL    HW223157   5.819   1.907   5.375
 7420SOL     OW23158   6.413   6.894   2.621
 7420SOL    HW123159   6.455   6.880   2.711
 7420SOL    HW223160   6.391   6.991   2.610
 7421SOL     OW23161   2.770   2.960   1.098
 7421SOL    HW123162   2.756   3.032   1.031
 7421SOL    HW223163   2.857   2.975   1.146
 7422SOL     OW23164   6.843   3.352   2.380
 7422SOL    HW123165   6.758   3.402   2.392
 7422SOL    HW223166   6.829   3.278   2.313
 7423SOL     OW23167   0.577   4.541   6.144
 7423SOL    HW123168   0.588   4.612   6.214
 7423SOL    HW223169   0.540   4.582   6.061
 7424SOL     OW23170   6.020   1.301   4.065
 7424SOL    HW123171   6.039   1.392   4.028
 7424SOL    HW223172   5.963   1.249   4.001
 7425SOL     OW23173   3.822   4.974   6.968
 7425SOL    HW123174   3.915   4.939   6.959
 7425SOL    HW223175   3.762   4.925   6.905
 7426SOL     OW23176   0.639   2.257   6.619
 7426SOL    HW123177   0.712   2.232   6.682
 7426SOL    HW223178   0.632   2.357   6.615
 7427SOL     OW23179   3.132   5.697   4.573
 7427SOL    HW123180   3.094   5.788   4.588
 7427SOL    HW223181   3.058   5.630   4.569
 7428SOL     OW23182   3.699   1.733   5.649
 7428SOL    HW123183   3.738   1.684   5.727
 7428SOL    HW223184   3.772   1.761   5.588
 7429SOL     OW23185   6.262   6.916   2.946
 7429SOL    HW123186   6.224   6.825   2.932
 7429SOL    HW223187   6.271   6.934   3.044
 7430SOL     OW23188   0.217   4.526   5.541
 7430SOL    HW123189   0.247   4.557   5.631
 7430SOL    HW223190   0.118   4.541   5.532
 7431SOL     OW23191   0.904   3.901   2.277
 7431SOL    HW123192   0.986   3.911   2.221
 7431SOL    HW223193   0.918   3.827   2.343
 7432SOL     OW23194   0.165   6.412   4.054
 7432SOL    HW123195   0.230   6.390   4.125
 7432SOL    HW223196   0.208   6.403   3.964
 7433SOL     OW23197   6.403   4.925   0.867
 7433SOL    HW123198   6.390   4.882   0.956
 7433SOL    HW223199   6.376   4.862   0.795
 7434SOL     OW23200   3.214   1.026   6.981
 7434SOL    HW123201   3.293   0.975   7.017
 7434SOL    HW223202   3.242   1.076   6.899
 7435SOL     OW23203   3.374   6.534   6.519
 7435SOL    HW123204   3.420   6.463   6.465
 7435SOL    HW223205   3.288   6.498   6.556
 7436SOL     OW23206   6.490   2.938   6.582
 7436SOL    HW123207   6.579   2.935   6.628
 7436SOL    HW223208   6.469   2.848   6.544
 7437SOL     OW23209   6.880   5.269   6.938
 7437SOL    HW123210   6.942   5.247   6.862
 7437SOL    HW223211   6.829   5.187   6.964
 7438SOL     OW23212   1.436   3.851   1.335
 7438SOL    HW123213   1.479   3.898   1.257
 7438SOL    HW223214   1.499   3.851   1.412
 7439SOL     OW23215   2.844   6.942   4.168
 7439SOL    HW123216   2.790   7.025   4.150
 7439SOL    HW223217   2.934   6.950   4.124
 7440SOL     OW23218   0.618   3.305   4.771
 7440SOL    HW123219   0.648   3.291   4.866
 7440SOL    HW223220   0.686   3.360   4.723
 7441SOL     OW23221   6.061   6.368   4.201
 7441SOL    HW123222   5.983   6.335   4.254
 7441SOL    HW223223   6.038   6.456   4.159
 7442SOL     OW23224   1.130   0.514   6.488
 7442SOL    HW123225   1.057   0.538   6.553
 7442SOL    HW223226   1.148   0.593   6.429
 7443SOL     OW23227   0.180   1.776   0.628
 7443SOL    HW123228   0.269   1.789   0.672
 7443SOL    HW223229   0.108   1.777   0.698
 7444SOL     OW23230   0.380   3.323   6.317
 7444SOL    HW123231   0.422   3.359   6.234
 7444SOL    HW223232   0.424   3.236   6.341
 7445SOL     OW23233   4.175   1.562   1.445
 7445SOL    HW123234   4.192   1.575   1.543
 7445SOL    HW223235   4.237   1.620   1.393
 7446SOL     OW23236   5.875   4.661   0.125
 7446SOL    HW123237   5.808   4.635   0.056
 7446SOL    HW223238   5.930   4.580   0.150
 7447SOL     OW23239   2.659   4.349   6.155
 7447SOL    HW123240   2.663   4.366   6.056
 7447SOL    HW223241   2.707   4.264   6.177
 7448SOL     OW23242   5.553   6.792   5.539
 7448SOL    HW123243   5.544   6.868   5.476
 7448SOL    HW223244   5.597   6.824   5.624
 7449SOL     OW23245   4.910   2.542   2.388
 7449SOL    HW123246   4.955   2.557   2.300
 7449SOL    HW223247   4.811   2.542   2.376
 7450SOL     OW23248   5.011   2.863   4.338
 7450SOL    HW123249   5.021   2.903   4.247
 7450SOL    HW223250   5.095   2.879   4.391
 7451SOL     OW23251   1.652   0.494   3.323
 7451SOL    HW123252   1.647   0.563   3.395
 7451SOL    HW223253   1.735   0.440   3.333
 7452SOL     OW23254   1.795   0.424   4.688
 7452SOL    HW123255   1.783   0.496   4.756
 7452SOL    HW223256   1.706   0.394   4.655
 7453SOL     OW23257   5.362   6.191   5.029
 7453SOL    HW123258   5.411   6.172   4.945
 7453SOL    HW223259   5.389   6.281   5.064
 7454SOL     OW23260   1.197   2.984   1.307
 7454SOL    HW123261   1.139   3.049   1.258
 7454SOL    HW223262   1.188   2.893   1.266
 7455SOL     OW23263   6.630   1.481   1.461
 7455SOL    HW123264   6.687   1.515   1.536
 7455SOL    HW223265   6.674   1.504   1.373
 7456SOL     OW23266   1.652   2.312   4.730
 7456SOL    HW123267   1.691   2.262   4.652
 7456SOL    HW223268   1.680   2.267   4.815
 7457SOL     OW23269   5.092   0.510   6.096
 7457SOL    HW123270   5.187   0.539   6.086
 7457SOL    HW223271   5.057   0.540   6.184
 7458SOL     OW23272   2.000   6.681   6.694
 7458SOL    HW123273   1.960   6.767   6.725
 7458SOL    HW223274   2.084   6.662   6.745
 7459SOL     OW23275   4.332   0.122   0.359
 7459SOL    HW123276   4.411   0.149   0.305
 7459SOL    HW223277   4.258   0.093   0.298
 7460SOL     OW23278   1.677   5.344   0.259
 7460SOL    HW123279   1.709   5.308   0.347
 7460SOL    HW223280   1.638   5.270   0.205
 7461SOL     OW23281   5.285   1.518   5.367
 7461SOL    HW123282   5.272   1.422   5.392
 7461SOL    HW223283   5.313   1.570   5.447
 7462SOL     OW23284   1.378   2.468   1.937
 7462SOL    HW123285   1.414   2.453   1.845
 7462SOL    HW223286   1.436   2.420   2.003
 7463SOL     OW23287   3.550   3.407   1.383
 7463SOL    HW123288   3.649   3.408   1.399
 7463SOL    HW223289   3.511   3.494   1.414
 7464SOL     OW23290   3.737   6.219   6.511
 7464SOL    HW123291   3.776   6.280   6.580
 7464SOL    HW223292   3.778   6.129   6.519
 7465SOL     OW23293   1.789   6.907   1.233
 7465SOL    HW123294   1.717   6.839   1.224
 7465SOL    HW223295   1.752   6.990   1.275
 7466SOL     OW23296   0.416   0.152   6.460
 7466SOL    HW123297   0.481   0.229   6.461
 7466SOL    HW223298   0.409   0.115   6.368
 7467SOL     OW23299   6.263   2.356   1.204
 7467SOL    HW123300   6.245   2.271   1.154
 7467SOL    HW223301   6.338   2.341   1.269
 7468SOL     OW23302   5.206   2.277   2.482
 7468SOL    HW123303   5.184   2.368   2.518
 7468SOL    HW223304   5.258   2.227   2.551
 7469SOL     OW23305   1.368   6.919   7.001
 7469SOL    HW123306   1.359   6.940   6.904
 7469SOL    HW223307   1.409   6.998   0.020
 7470SOL     OW23308   0.134   2.750   3.356
 7470SOL    HW123309   0.050   2.802   3.371
 7470SOL    HW223310   0.178   2.781   3.272
 7471SOL     OW23311   5.762   6.640   4.344
 7471SOL    HW123312   5.841   6.649   4.405
 7471SOL    HW223313   5.678   6.650   4.397
 7472SOL     OW23314   5.028   6.555   4.154
 7472SOL    HW123315   4.986   6.644   4.173
 7472SOL    HW223316   5.115   6.548   4.203
 7473SOL     OW23317   0.090   4.291   3.311
 7473SOL    HW123318   0.030   4.212   3.301
 7473SOL    HW223319   0.161   4.269   3.379
 7474SOL     OW23320   2.743   1.091   4.762
 7474SOL    HW123321   2.647   1.063   4.750
 7474SOL    HW223322   2.759   1.177   4.714
 7475SOL     OW23323   4.528   1.441   2.750
 7475SOL    HW123324   4.496   1.495   2.672
 7475SOL    HW223325   4.625   1.419   2.738
 7476SOL     OW23326   3.875   6.511   4.429
 7476SOL    HW123327   3.970   6.535   4.408
 7476SOL    HW223328   3.831   6.474   4.346
 7477SOL     OW23329   4.748   0.961   4.045
 7477SOL    HW123330   4.808   0.883   4.061
 7477SOL    HW223331   4.803   1.039   4.013
 7478SOL     OW23332   3.801   4.010   6.471
 7478SOL    HW123333   3.853   4.050   6.395
 7478SOL    HW223334   3.723   3.960   6.435
 7479SOL     OW23335   3.637   1.856   0.576
 7479SOL    HW123336   3.649   1.763   0.542
 7479SOL    HW223337   3.652   1.921   0.501
 7480SOL     OW23338   6.018   5.336   0.996
 7480SOL    HW123339   5.959   5.259   0.969
 7480SOL    HW223340   6.091   5.302   1.055
 7481SOL     OW23341   5.521   5.456   1.703
 7481SOL    HW123342   5.544   5.538   1.756
 7481SOL    HW223343   5.422   5.449   1.693
 7482SOL     OW23344   4.478   1.771   2.300
 7482SOL    HW123345   4.420   1.735   2.226
 7482SOL    HW223346   4.434   1.852   2.339
 7483SOL     OW23347   4.015   2.077   4.957
 7483SOL    HW123348   4.095   2.134   4.935
 7483SOL    HW223349   3.931   2.127   4.936
 7484SOL     OW23350   6.867   6.844   1.853
 7484SOL    HW123351   6.899   6.819   1.762
 7484SOL    HW223352   6.836   6.762   1.902
 7485SOL     OW23353   2.545   6.140   5.055
 7485SOL    HW123354   2.553   6.040   5.051
 7485SOL    HW223355   2.583   6.180   4.972
 7486SOL     OW23356   1.849   6.830   5.413
 7486SOL    HW123357   1.774   6.811   5.350
 7486SOL    HW223358   1.909   6.900   5.374
 7487SOL     OW23359   2.594   6.716   2.637
 7487SOL    HW123360   2.649   6.775   2.696
 7487SOL    HW223361   2.521   6.769   2.595
 7488SOL     OW23362   1.969   6.596   4.903
 7488SOL    HW123363   1.953   6.665   4.833
 7488SOL    HW223364   1.899   6.605   4.974
 7489SOL     OW23365   4.834   2.236   5.097
 7489SOL    HW123366   4.857   2.269   5.006
 7489SOL    HW223367   4.914   2.247   5.157
 7490SOL     OW23368   0.828   1.204   1.099
 7490SOL    HW123369   0.917   1.176   1.064
 7490SOL    HW223370   0.830   1.206   1.199
 7491SOL     OW23371   0.462   5.038   7.002
 7491SOL    HW123372   0.526   5.093   0.027
 7491SOL    HW223373   0.506   4.953   6.975
 7492SOL     OW23374   2.734   1.542   5.089
 7492SOL    HW123375   2.636   1.562   5.083
 7492SOL    HW223376   2.749   1.445   5.067
 7493SOL     OW23377   6.018   4.373   6.461
 7493SOL    HW123378   5.949   4.305   6.487
 7493SOL    HW223379   6.062   4.409   6.543
 7494SOL     OW23380   5.976   0.988   2.583
 7494SOL    HW123381   5.889   0.974   2.630
 7494SOL    HW223382   5.966   1.060   2.514
 7495SOL     OW23383   2.552   1.179   1.423
 7495SOL    HW123384   2.534   1.139   1.333
 7495SOL    HW223385   2.511   1.270   1.427
 7496SOL     OW23386   0.843   4.218   6.290
 7496SOL    HW123387   0.853   4.211   6.191
 7496SOL    HW223388   0.891   4.300   6.322
 7497SOL     OW23389   2.880   4.935   1.223
 7497SOL    HW123390   2.903   4.974   1.313
 7497SOL    HW223391   2.904   4.838   1.222
 7498SOL     OW23392   2.508   1.166   4.173
 7498SOL    HW123393   2.522   1.234   4.101
 7498SOL    HW223394   2.434   1.195   4.234
 7499SOL     OW23395   6.125   0.534   2.982
 7499SOL    HW123396   6.198   0.586   3.025
 7499SOL    HW223397   6.036   0.565   3.017
 7500SOL     OW23398   4.076   6.154   2.869
 7500SOL    HW123399   4.163   6.164   2.823
 7500SOL    HW223400   4.003   6.193   2.813
 7501SOL     OW23401   6.131   4.469   4.605
 7501SOL    HW123402   6.205   4.422   4.654
 7501SOL    HW223403   6.167   4.511   4.522
 7502SOL     OW23404   1.085   1.807   4.868
 7502SOL    HW123405   1.053   1.712   4.862
 7502SOL    HW223406   1.184   1.808   4.881
 7503SOL     OW23407   2.519   1.084   6.814
 7503SOL    HW123408   2.494   0.993   6.781
 7503SOL    HW223409   2.618   1.096   6.803
 7504SOL     OW23410   3.675   6.919   3.307
 7504SOL    HW123411   3.673   7.011   3.346
 7504SOL    HW223412   3.582   6.891   3.283
 7505SOL     OW23413   2.555   0.881   5.325
 7505SOL    HW123414   2.491   0.809   5.298
 7505SOL    HW223415   2.559   0.886   5.425
 7506SOL     OW23416   4.526   0.404   2.952
 7506SOL    HW123417   4.503   0.419   2.856
 7506SOL    HW223418   4.445   0.372   3.001
 7507SOL     OW23419   7.015   6.906   0.513
 7507SOL    HW123420   6.949   6.865   0.450
 7507SOL    HW223421   6.971   6.921   0.602
 7508SOL     OW23422   5.493   6.718   2.452
 7508SOL    HW123423   5.540   6.779   2.517
 7508SOL    HW223424   5.397   6.709   2.480
 7509SOL     OW23425   5.012   4.538   0.638
 7509SOL    HW123426   5.111   4.532   0.653
 7509SOL    HW223427   4.982   4.458   0.586
 7510SOL     OW23428   2.904   3.906   5.376
 7510SOL    HW123429   2.939   3.869   5.290
 7510SOL    HW223430   2.809   3.935   5.364
 7511SOL     OW23431   1.808   0.586   2.697
 7511SOL    HW123432   1.719   0.618   2.728
 7511SOL    HW223433   1.800   0.552   2.603
 7512SOL     OW23434   3.054   4.190   1.371
 7512SOL    HW123435   3.145   4.229   1.361
 7512SOL    HW223436   3.059   4.108   1.428
 7513SOL     OW23437   1.659   2.050   0.575
 7513SOL    HW123438   1.742   2.091   0.537
 7513SOL    HW223439   1.670   2.034   0.673
 7514SOL     OW23440   2.604   5.921   2.256
 7514SOL    HW123441   2.557   5.988   2.198
 7514SOL    HW223442   2.668   5.968   2.316
 7515SOL     OW23443   1.086   6.805   2.704
 7515SOL    HW123444   0.988   6.827   2.705
 7515SOL    HW223445   1.136   6.875   2.653
 7516SOL     OW23446   6.840   5.296   4.674
 7516SOL    HW123447   6.814   5.263   4.584
 7516SOL    HW223448   6.939   5.310   4.677
 7517SOL     OW23449   6.880   3.371   1.712
 7517SOL    HW123450   6.847   3.386   1.805
 7517SOL    HW223451   6.855   3.279   1.683
 7518SOL     OW23452   4.013   5.757   3.862
 7518SOL    HW123453   4.037   5.828   3.796
 7518SOL    HW223454   4.028   5.667   3.820
 7519SOL     OW23455   7.018   6.737   3.569
 7519SOL    HW123456   6.950   6.737   3.642
 7519SOL    HW223457   0.080   6.755   3.607
 7520SOL     OW23458   2.641   0.452   1.806
 7520SOL    HW123459   2.561   0.424   1.859
 7520SOL    HW223460   2.612   0.513   1.732
 7521SOL     OW23461   4.482   4.773   5.323
 7521SOL    HW123462   4.466   4.867   5.294
 7521SOL    HW223463   4.528   4.773   5.412
 7522SOL     OW23464   2.570   0.792   6.473
 7522SOL    HW123465   2.558   0.892   6.467
 7522SOL    HW223466   2.621   0.760   6.393
 7523SOL     OW23467   5.497   1.274   5.601
 7523SOL    HW123468   5.510   1.355   5.659
 7523SOL    HW223469   5.407   1.278   5.559
 7524SOL     OW23470   0.464   2.472   5.821
 7524SOL    HW123471   0.496   2.509   5.733
 7524SOL    HW223472   0.412   2.543   5.869
 7525SOL     OW23473   2.581   7.008   6.373
 7525SOL    HW123474   2.535   0.054   6.422
 7525SOL    HW223475   2.514   6.957   6.319
 7526SOL     OW23476   4.032   3.087   2.636
 7526SOL    HW123477   4.043   3.186   2.642
 7526SOL    HW223478   4.013   3.050   2.727
 7527SOL     OW23479   4.848   4.970   3.011
 7527SOL    HW123480   4.845   4.920   2.924
 7527SOL    HW223481   4.929   4.943   3.063
 7528SOL     OW23482   4.792   2.508   0.223
 7528SOL    HW123483   4.823   2.442   0.292
 7528SOL    HW223484   4.697   2.532   0.241
 7529SOL     OW23485   5.385   1.326   4.125
 7529SOL    HW123486   5.332   1.319   4.041
 7529SOL    HW223487   5.473   1.281   4.112
 7530SOL     OW23488   6.253   3.381   2.669
 7530SOL    HW123489   6.180   3.363   2.603
 7530SOL    HW223490   6.284   3.475   2.660
 7531SOL     OW23491   4.520   2.523   4.228
 7531SOL    HW123492   4.550   2.528   4.323
 7531SOL    HW223493   4.549   2.606   4.180
 7532SOL     OW23494   5.531   5.713   1.830
 7532SOL    HW123495   5.520   5.722   1.929
 7532SOL    HW223496   5.444   5.736   1.785
 7533SOL     OW23497   2.132   1.101   3.182
 7533SOL    HW123498   2.061   1.164   3.151
 7533SOL    HW223499   2.219   1.148   3.187
 7534SOL     OW23500   3.643   6.461   4.855
 7534SOL    HW123501   3.595   6.544   4.829
 7534SOL    HW223502   3.683   6.418   4.774
 7535SOL     OW23503   2.960   1.201   5.657
 7535SOL    HW123504   2.909   1.246   5.583
 7535SOL    HW223505   3.034   1.146   5.618
 7536SOL     OW23506   5.286   5.093   4.712
 7536SOL    HW123507   5.334   5.076   4.798
 7536SOL    HW223508   5.207   5.032   4.705
 7537SOL     OW23509   1.861   4.509   5.176
 7537SOL    HW123510   1.955   4.534   5.201
 7537SOL    HW223511   1.811   4.482   5.258
 7538SOL     OW23512   3.284   3.707   2.412
 7538SOL    HW123513   3.193   3.691   2.451
 7538SOL    HW223514   3.278   3.775   2.339
 7539SOL     OW23515   2.528   2.386   4.850
 7539SOL    HW123516   2.545   2.441   4.931
 7539SOL    HW223517   2.589   2.307   4.850
 7540SOL     OW23518   3.724   1.101   5.967
 7540SOL    HW123519   3.670   1.124   6.048
 7540SOL    HW223520   3.665   1.107   5.886
 7541SOL     OW23521   6.610   3.574   5.061
 7541SOL    HW123522   6.615   3.652   4.998
 7541SOL    HW223523   6.701   3.549   5.092
 7542SOL     OW23524   0.227   6.630   6.514
 7542SOL    HW123525   0.253   6.726   6.503
 7542SOL    HW223526   0.144   6.612   6.461
 7543SOL     OW23527   4.540   1.943   0.746
 7543SOL    HW123528   4.486   2.010   0.696
 7543SOL    HW223529   4.635   1.974   0.751
 7544SOL     OW23530   0.377   2.168   3.464
 7544SOL    HW123531   0.421   2.129   3.383
 7544SOL    HW223532   0.278   2.165   3.452
 7545SOL     OW23533   5.161   6.770   2.838
 7545SOL    HW123534   5.220   6.796   2.761
 7545SOL    HW223535   5.195   6.685   2.879
 7546SOL     OW23536   4.172   0.641   1.257
 7546SOL    HW123537   4.126   0.703   1.320
 7546SOL    HW223538   4.117   0.630   1.174
 7547SOL     OW23539   3.553   6.326   0.250
 7547SOL    HW123540   3.606   6.382   0.314
 7547SOL    HW223541   3.499   6.385   0.190
 7548SOL     OW23542   2.664   1.834   0.449
 7548SOL    HW123543   2.658   1.891   0.367
 7548SOL    HW223544   2.751   1.785   0.450
 7549SOL     OW23545   5.327   1.830   1.702
 7549SOL    HW123546   5.389   1.898   1.740
 7549SOL    HW223547   5.232   1.863   1.710
 7550SOL     OW23548   2.783   5.029   2.399
 7550SOL    HW123549   2.785   5.072   2.488
 7550SOL    HW223550   2.845   5.076   2.337
 7551SOL     OW23551   4.729   4.153   0.075
 7551SOL    HW123552   4.734   4.077   0.140
 7551SOL    HW223553   4.727   4.117   7.010
 7552SOL     OW23554   1.870   5.698   3.842
 7552SOL    HW123555   1.912   5.725   3.929
 7552SOL    HW223556   1.881   5.600   3.829
 7553SOL     OW23557   3.577   4.827   5.909
 7553SOL    HW123558   3.497   4.767   5.901
 7553SOL    HW223559   3.633   4.796   5.986
 7554SOL     OW23560   5.107   1.179   0.889
 7554SOL    HW123561   5.179   1.113   0.868
 7554SOL    HW223562   5.018   1.133   0.887
 7555SOL     OW23563   1.238   5.318   4.528
 7555SOL    HW123564   1.277   5.242   4.581
 7555SOL    HW223565   1.301   5.342   4.455
 7556SOL     OW23566   0.332   2.228   5.744
 7556SOL    HW123567   0.340   2.180   5.831
 7556SOL    HW223568   0.334   2.327   5.760
 7557SOL     OW23569   5.541   3.199   5.794
 7557SOL    HW123570   5.512   3.288   5.759
 7557SOL    HW223571   5.464   3.155   5.841
 7558SOL     OW23572   2.363   2.831   3.857
 7558SOL    HW123573   2.455   2.844   3.893
 7558SOL    HW223574   2.308   2.912   3.875
 7559SOL     OW23575   6.507   5.526   1.317
 7559SOL    HW123576   6.451   5.461   1.266
 7559SOL    HW223577   6.544   5.481   1.398
 7560SOL     OW23578   5.290   6.546   0.067
 7560SOL    HW123579   5.388   6.565   0.068
 7560SOL    HW223580   5.257   6.544   7.001
 7561SOL     OW23581   0.577   3.318   0.085
 7561SOL    HW123582   0.663   3.284   0.048
 7561SOL    HW223583   0.536   3.248   0.145
 7562SOL     OW23584   4.360   6.203   4.745
 7562SOL    HW123585   4.275   6.157   4.771
 7562SOL    HW223586   4.413   6.224   4.828
 7563SOL     OW23587   2.800   0.256   0.401
 7563SOL    HW123588   2.792   0.174   0.345
 7563SOL    HW223589   2.738   0.249   0.480
 7564SOL     OW23590   5.062   1.125   2.979
 7564SOL    HW123591   5.045   1.217   3.012
 7564SOL    HW223592   5.106   1.129   2.889
 7565SOL     OW23593   4.927   4.211   6.365
 7565SOL    HW123594   4.914   4.121   6.325
 7565SOL    HW223595   4.878   4.217   6.452
 7566SOL     OW23596   0.808   4.918   3.548
 7566SOL    HW123597   0.861   4.848   3.597
 7566SOL    HW223598   0.844   5.008   3.568
 7567SOL     OW23599   1.743   2.504   5.487
 7567SOL    HW123600   1.766   2.601   5.491
 7567SOL    HW223601   1.644   2.493   5.486
 7568SOL     OW23602   5.677   5.906   4.168
 7568SOL    HW123603   5.593   5.907   4.114
 7568SOL    HW223604   5.750   5.949   4.115
 7569SOL     OW23605   4.125   5.063   6.231
 7569SOL    HW123606   4.041   5.009   6.223
 7569SOL    HW223607   4.108   5.142   6.291
 7570SOL     OW23608   5.626   4.799   5.299
 7570SOL    HW123609   5.566   4.735   5.348
 7570SOL    HW223610   5.707   4.818   5.355
 7571SOL     OW23611   5.194   4.923   1.990
 7571SOL    HW123612   5.207   4.939   2.088
 7571SOL    HW223613   5.198   4.824   1.972
 7572SOL     OW23614   5.017   0.820   3.668
 7572SOL    HW123615   4.936   0.868   3.635
 7572SOL    HW223616   5.019   0.824   3.768
 7573SOL     OW23617   5.762   5.446   4.390
 7573SOL    HW123618   5.762   5.476   4.295
 7573SOL    HW223619   5.840   5.485   4.438
 7574SOL     OW23620   6.335   1.137   4.907
 7574SOL    HW123621   6.243   1.168   4.931
 7574SOL    HW223622   6.398   1.214   4.911
 7575SOL     OW23623   4.526   0.775   5.691
 7575SOL    HW123624   4.479   0.689   5.670
 7575SOL    HW223625   4.610   0.756   5.741
 7576SOL     OW23626   6.348   5.358   0.087
 7576SOL    HW123627   6.273   5.294   0.073
 7576SOL    HW223628   6.323   5.423   0.159
 7577SOL     OW23629   6.908   0.077   5.195
 7577SOL    HW123630   6.910   0.175   5.214
 7577SOL    HW223631   6.887   0.028   5.279
 7578SOL     OW23632   1.796   6.491   3.631
 7578SOL    HW123633   1.722   6.559   3.631
 7578SOL    HW223634   1.875   6.529   3.679
 7579SOL     OW23635   4.276   1.946   2.448
 7579SOL    HW123636   4.336   2.001   2.506
 7579SOL    HW223637   4.188   1.932   2.494
 7580SOL     OW23638   1.567   3.959   4.059
 7580SOL    HW123639   1.644   3.962   3.996
 7580SOL    HW223640   1.503   3.887   4.031
 7581SOL     OW23641   4.604   0.764   1.233
 7581SOL    HW123642   4.576   0.835   1.297
 7581SOL    HW223643   4.673   0.801   1.171
 7582SOL     OW23644   3.763   1.124   0.326
 7582SOL    HW123645   3.736   1.090   0.236
 7582SOL    HW223646   3.764   1.048   0.391
 7583SOL     OW23647   6.463   3.497   1.877
 7583SOL    HW123648   6.496   3.580   1.923
 7583SOL    HW223649   6.479   3.418   1.937
 7584SOL     OW23650   3.041   6.648   1.226
 7584SOL    HW123651   3.040   6.740   1.266
 7584SOL    HW223652   2.958   6.635   1.171
 7585SOL     OW23653   1.670   2.744   5.923
 7585SOL    HW123654   1.624   2.700   5.846
 7585SOL    HW223655   1.744   2.686   5.956
 7586SOL     OW23656   3.631   0.809   3.197
 7586SOL    HW123657   3.723   0.824   3.160
 7586SOL    HW223658   3.582   0.896   3.200
 7587SOL     OW23659   3.338   1.682   6.672
 7587SOL    HW123660   3.240   1.673   6.683
 7587SOL    HW223661   3.380   1.591   6.664
 7588SOL     OW23662   0.504   3.290   2.226
 7588SOL    HW123663   0.419   3.339   2.244
 7588SOL    HW223664   0.487   3.192   2.230
 7589SOL     OW23665   6.227   6.590   0.377
 7589SOL    HW123666   6.302   6.551   0.431
 7589SOL    HW223667   6.153   6.618   0.439
 7590SOL     OW23668   2.794   1.867   6.353
 7590SOL    HW123669   2.884   1.846   6.390
 7590SOL    HW223670   2.724   1.824   6.410
 7591SOL     OW23671   0.640   5.132   0.516
 7591SOL    HW123672   0.556   5.175   0.483
 7591SOL    HW223673   0.622   5.035   0.535
 7592SOL     OW23674   0.345   4.849   6.459
 7592SOL    HW123675   0.283   4.782   6.419
 7592SOL    HW223676   0.329   4.938   6.416
 7593SOL     OW23677   5.953   2.280   6.925
 7593SOL    HW123678   5.867   2.269   6.975
 7593SOL    HW223679   5.939   2.258   6.829
 7594SOL     OW23680   0.355   4.550   2.047
 7594SOL    HW123681   0.427   4.610   2.013
 7594SOL    HW223682   0.370   4.531   2.144
 7595SOL     OW23683   0.283   2.680   5.913
 7595SOL    HW123684   0.207   2.697   5.850
 7595SOL    HW223685   0.334   2.765   5.927
 7596SOL     OW23686   4.744   5.261   2.953
 7596SOL    HW123687   4.759   5.344   3.006
 7596SOL    HW223688   4.828   5.206   2.952
 7597SOL     OW23689   3.091   5.496   1.798
 7597SOL    HW123690   3.001   5.509   1.758
 7597SOL    HW223691   3.083   5.490   1.898
 7598SOL     OW23692   6.580   1.000   2.941
 7598SOL    HW123693   6.606   1.043   2.855
 7598SOL    HW223694   6.658   1.002   3.004
 7599SOL     OW23695   5.135   0.650   3.486
 7599SOL    HW123696   5.235   0.654   3.488
 7599SOL    HW223697   5.097   0.699   3.564
 7600SOL     OW23698   2.068   0.449   2.446
 7600SOL    HW123699   2.071   0.531   2.503
 7600SOL    HW223700   2.106   0.372   2.496
 7601SOL     OW23701   1.758   5.493   2.780
 7601SOL    HW123702   1.718   5.414   2.827
 7601SOL    HW223703   1.688   5.536   2.723
 7602SOL     OW23704   1.990   3.585   5.640
 7602SOL    HW123705   2.080   3.629   5.643
 7602SOL    HW223706   1.998   3.492   5.678
 7603SOL     OW23707   1.317   5.953   6.300
 7603SOL    HW123708   1.403   5.948   6.351
 7603SOL    HW223709   1.240   5.954   6.364
 7604SOL     OW23710   2.252   5.617   4.158
 7604SOL    HW123711   2.298   5.545   4.107
 7604SOL    HW223712   2.273   5.606   4.256
 7605SOL     OW23713   1.839   6.193   0.489
 7605SOL    HW123714   1.865   6.097   0.500
 7605SOL    HW223715   1.792   6.224   0.572
 7606SOL     OW23716   6.999   2.561   2.409
 7606SOL    HW123717   0.051   2.511   2.441
 7606SOL    HW223718   6.995   2.557   2.310
 7607SOL     OW23719   4.175   6.350   0.313
 7607SOL    HW123720   4.104   6.416   0.288
 7607SOL    HW223721   4.237   6.337   0.236
 7608SOL     OW23722   3.214   3.520   3.783
 7608SOL    HW123723   3.311   3.510   3.803
 7608SOL    HW223724   3.167   3.433   3.799
 7609SOL     OW23725   6.659   4.221   3.247
 7609SOL    HW123726   6.759   4.213   3.242
 7609SOL    HW223727   6.618   4.168   3.172
 7610SOL     OW23728   6.064   0.203   0.270
 7610SOL    HW123729   6.095   0.296   0.253
 7610SOL    HW223730   6.084   0.146   0.190
 7611SOL     OW23731   0.757   1.836   0.047
 7611SOL    HW123732   0.840   1.871   0.090
 7611SOL    HW223733   0.680   1.848   0.109
 7612SOL     OW23734   4.333   1.905   4.576
 7612SOL    HW123735   4.391   1.937   4.650
 7612SOL    HW223736   4.387   1.893   4.493
 7613SOL     OW23737   5.185   2.011   1.989
 7613SOL    HW123738   5.154   2.086   2.047
 7613SOL    HW223739   5.112   1.942   1.982
 7614SOL     OW23740   4.746   2.505   1.409
 7614SOL    HW123741   4.740   2.491   1.508
 7614SOL    HW223742   4.838   2.479   1.378
 7615SOL     OW23743   5.153   4.125   5.943
 7615SOL    HW123744   5.189   4.092   5.856
 7615SOL    HW223745   5.128   4.048   6.001
 7616SOL     OW23746   0.163   4.398   4.041
 7616SOL    HW123747   0.182   4.483   3.991
 7616SOL    HW223748   0.120   4.332   3.979
 7617SOL     OW23749   3.095   5.890   2.707
 7617SOL    HW123750   3.067   5.932   2.621
 7617SOL    HW223751   3.014   5.870   2.762
 7618SOL     OW23752   0.654   2.538   0.010
 7618SOL    HW123753   0.611   2.448   0.014
 7618SOL    HW223754   0.747   2.529   7.002
 7619SOL     OW23755   5.916   3.423   4.389
 7619SOL    HW123756   5.935   3.435   4.486
 7619SOL    HW223757   5.859   3.499   4.356
 7620SOL     OW23758   3.977   5.420   0.201
 7620SOL    HW123759   3.934   5.465   0.280
 7620SOL    HW223760   3.922   5.341   0.174
 7621SOL     OW23761   0.696   1.417   0.806
 7621SOL    HW123762   0.636   1.356   0.754
 7621SOL    HW223763   0.651   1.443   0.891
 7622SOL     OW23764   5.191   4.604   1.676
 7622SOL    HW123765   5.102   4.642   1.701
 7622SOL    HW223766   5.264   4.653   1.724
 7623SOL     OW23767   4.390   4.662   6.522
 7623SOL    HW123768   4.486   4.682   6.502
 7623SOL    HW223769   4.378   4.650   6.620
 7624SOL     OW23770   0.299   2.878   4.431
 7624SOL    HW123771   0.365   2.819   4.478
 7624SOL    HW223772   0.327   2.973   4.440
 7625SOL     OW23773   4.382   0.595   1.780
 7625SOL    HW123774   4.283   0.582   1.775
 7625SOL    HW223775   4.408   0.673   1.724
 7626SOL     OW23776   0.073   6.307   5.261
 7626SOL    HW123777   0.123   6.242   5.204
 7626SOL    HW223778   7.007   6.315   5.230
 7627SOL     OW23779   5.869   3.314   0.144
 7627SOL    HW123780   5.855   3.220   0.173
 7627SOL    HW223781   5.953   3.350   0.185
 7628SOL     OW23782   3.133   0.793   1.407
 7628SOL    HW123783   3.136   0.697   1.434
 7628SOL    HW223784   3.205   0.843   1.456
 7629SOL     OW23785   6.151   6.691   2.848
 7629SOL    HW123786   6.111   6.606   2.883
 7629SOL    HW223787   6.233   6.670   2.795
 7630SOL     OW23788   5.640   6.355   2.011
 7630SOL    HW123789   5.687   6.443   2.013
 7630SOL    HW223790   5.575   6.349   2.086
 7631SOL     OW23791   0.551   1.841   5.488
 7631SOL    HW123792   0.565   1.841   5.587
 7631SOL    HW223793   0.542   1.935   5.456
 7632SOL     OW23794   3.551   2.305   1.621
 7632SOL    HW123795   3.576   2.338   1.530
 7632SOL    HW223796   3.619   2.336   1.688
 7633SOL     OW23797   5.102   2.582   0.322
 7633SOL    HW123798   5.094   2.500   0.266
 7633SOL    HW223799   5.139   2.657   0.267
 7634SOL     OW23800   1.270   0.919   2.007
 7634SOL    HW123801   1.328   0.909   1.926
 7634SOL    HW223802   1.226   1.009   2.006
 7635SOL     OW23803   2.576   5.258   5.266
 7635SOL    HW123804   2.514   5.229   5.192
 7635SOL    HW223805   2.600   5.179   5.322
 7636SOL     OW23806   1.361   1.391   3.306
 7636SOL    HW123807   1.397   1.438   3.386
 7636SOL    HW223808   1.265   1.416   3.292
 7637SOL     OW23809   2.568   6.494   2.410
 7637SOL    HW123810   2.540   6.534   2.498
 7637SOL    HW223811   2.603   6.567   2.351
 7638SOL     OW23812   4.452   5.862   1.839
 7638SOL    HW123813   4.385   5.927   1.872
 7638SOL    HW223814   4.512   5.834   1.914
 7639SOL     OW23815   1.209   2.193   0.552
 7639SOL    HW123816   1.131   2.177   0.613
 7639SOL    HW223817   1.280   2.125   0.570
 7640SOL     OW23818   3.256   2.367   0.446
 7640SOL    HW123819   3.247   2.329   0.354
 7640SOL    HW223820   3.317   2.309   0.501
 7641SOL     OW23821   0.702   4.515   1.428
 7641SOL    HW123822   0.712   4.553   1.336
 7641SOL    HW223823   0.629   4.564   1.476
 7642SOL     OW23824   2.570   1.486   3.071
 7642SOL    HW123825   2.595   1.391   3.055
 7642SOL    HW223826   2.653   1.541   3.081
 7643SOL     OW23827   4.828   2.155   3.992
 7643SOL    HW123828   4.810   2.075   3.935
 7643SOL    HW223829   4.856   2.232   3.934
 7644SOL     OW23830   6.162   1.926   2.549
 7644SOL    HW123831   6.213   1.846   2.581
 7644SOL    HW223832   6.068   1.900   2.529
 7645SOL     OW23833   4.809   4.110   5.985
 7645SOL    HW123834   4.873   4.050   6.034
 7645SOL    HW223835   4.825   4.102   5.887
 7646SOL     OW23836   2.155   2.348   2.305
 7646SOL    HW123837   2.099   2.340   2.222
 7646SOL    HW223838   2.194   2.439   2.310
 7647SOL     OW23839   0.901   2.980   1.257
 7647SOL    HW123840   0.812   2.967   1.300
 7647SOL    HW223841   0.944   2.891   1.240
 7648SOL     OW23842   3.847   2.199   3.971
 7648SOL    HW123843   3.881   2.111   3.938
 7648SOL    HW223844   3.774   2.231   3.912
 7649SOL     OW23845   1.175   0.916   2.611
 7649SOL    HW123846   1.088   0.893   2.567
 7649SOL    HW223847   1.170   0.892   2.708
 7650SOL     OW23848   5.627   3.387   1.446
 7650SOL    HW123849   5.682   3.326   1.503
 7650SOL    HW223850   5.530   3.363   1.455
 7651SOL     OW23851   2.678   7.020   4.767
 7651SOL    HW123852   2.619   0.055   4.716
 7651SOL    HW223853   2.674   6.930   4.723
 7652SOL     OW23854   0.072   4.241   3.824
 7652SOL    HW123855   0.138   4.166   3.815
 7652SOL    HW223856   0.089   4.309   3.752
 7653SOL     OW23857   2.490   1.874   0.919
 7653SOL    HW123858   2.562   1.886   0.988
 7653SOL    HW223859   2.524   1.815   0.845
 7654SOL     OW23860   5.095   3.436   3.487
 7654SOL    HW123861   5.134   3.371   3.422
 7654SOL    HW223862   5.032   3.387   3.549
 7655SOL     OW23863   3.875   0.218   3.504
 7655SOL    HW123864   3.796   0.186   3.452
 7655SOL    HW223865   3.956   0.217   3.445
 7656SOL     OW23866   1.323   5.425   6.133
 7656SOL    HW123867   1.246   5.481   6.104
 7656SOL    HW223868   1.408   5.461   6.094
 7657SOL     OW23869   2.652   2.381   3.207
 7657SOL    HW123870   2.599   2.464   3.225
 7657SOL    HW223871   2.700   2.353   3.289
 7658SOL     OW23872   3.987   6.488   5.564
 7658SOL    HW123873   4.075   6.448   5.538
 7658SOL    HW223874   3.997   6.588   5.572
 7659SOL     OW23875   5.449   5.674   6.580
 7659SOL    HW123876   5.547   5.695   6.586
 7659SOL    HW223877   5.431   5.587   6.625
 7660SOL     OW23878   6.139   5.911   4.156
 7660SOL    HW123879   6.230   5.882   4.187
 7660SOL    HW223880   6.115   5.998   4.198
 7661SOL     OW23881   6.071   2.132   4.997
 7661SOL    HW123882   6.026   2.063   4.940
 7661SOL    HW223883   6.046   2.117   5.093
 7662SOL     OW23884   0.624   2.164   2.801
 7662SOL    HW123885   0.596   2.095   2.868
 7662SOL    HW223886   0.664   2.242   2.848
 7663SOL     OW23887   6.356   0.092   6.592
 7663SOL    HW123888   6.360   0.190   6.576
 7663SOL    HW223889   6.266   0.067   6.628
 7664SOL     OW23890   4.024   1.206   2.348
 7664SOL    HW123891   3.989   1.299   2.336
 7664SOL    HW223892   4.118   1.210   2.380
 7665SOL     OW23893   4.023   0.365   4.362
 7665SOL    HW123894   4.072   0.295   4.413
 7665SOL    HW223895   4.073   0.386   4.278
 7666SOL     OW23896   0.849   6.598   1.070
 7666SOL    HW123897   0.775   6.632   1.013
 7666SOL    HW223898   0.933   6.590   1.015
 7667SOL     OW23899   4.555   6.057   1.629
 7667SOL    HW123900   4.542   5.959   1.610
 7667SOL    HW223901   4.626   6.093   1.569
 7668SOL     OW23902   2.901   4.337   0.834
 7668SOL    HW123903   2.910   4.240   0.856
 7668SOL    HW223904   2.814   4.371   0.868
 7669SOL     OW23905   5.144   1.884   5.459
 7669SOL    HW123906   5.100   1.795   5.466
 7669SOL    HW223907   5.078   1.952   5.426
 7670SOL     OW23908   1.501   5.506   5.903
 7670SOL    HW123909   1.523   5.429   5.844
 7670SOL    HW223910   1.426   5.558   5.862
 7671SOL     OW23911   4.375   0.881   5.014
 7671SOL    HW123912   4.441   0.852   5.083
 7671SOL    HW223913   4.383   0.822   4.933
 7672SOL     OW23914   5.702   6.305   3.790
 7672SOL    HW123915   5.801   6.297   3.777
 7672SOL    HW223916   5.683   6.336   3.883
 7673SOL     OW23917   2.085   5.276   0.273
 7673SOL    HW123918   2.009   5.314   0.326
 7673SOL    HW223919   2.149   5.348   0.248
 7674SOL     OW23920   6.443   2.517   4.178
 7674SOL    HW123921   6.509   2.550   4.110
 7674SOL    HW223922   6.357   2.567   4.168
 7675SOL     OW23923   4.641   1.177   3.118
 7675SOL    HW123924   4.590   1.128   3.189
 7675SOL    HW223925   4.659   1.115   3.041
 7676SOL     OW23926   1.512   2.264   0.380
 7676SOL    HW123927   1.609   2.268   0.353
 7676SOL    HW223928   1.505   2.268   0.479
 7677SOL     OW23929   0.456   3.948   2.056
 7677SOL    HW123930   0.550   3.920   2.075
 7677SOL    HW223931   0.401   3.868   2.034
 7678SOL     OW23932   1.848   1.318   5.988
 7678SOL    HW123933   1.876   1.247   5.924
 7678SOL    HW223934   1.858   1.285   6.082
 7679SOL     OW23935   1.783   6.401   5.214
 7679SOL    HW123936   1.751   6.348   5.293
 7679SOL    HW223937   1.855   6.350   5.167
 7680SOL     OW23938   1.902   2.464   0.169
 7680SOL    HW123939   1.866   2.543   0.219
 7680SOL    HW223940   1.897   2.482   0.070
 7681SOL     OW23941   2.826   6.876   0.213
 7681SOL    HW123942   2.902   6.824   0.175
 7681SOL    HW223943   2.803   6.840   0.303
 7682SOL     OW23944   3.293   0.230   1.616
 7682SOL    HW123945   3.201   0.236   1.653
 7682SOL    HW223946   3.298   0.282   1.530
 7683SOL     OW23947   6.638   1.841   4.399
 7683SOL    HW123948   6.614   1.938   4.387
 7683SOL    HW223949   6.601   1.788   4.322
 7684SOL     OW23950   5.135   2.054   0.583
 7684SOL    HW123951   5.142   2.037   0.681
 7684SOL    HW223952   5.097   2.145   0.567
 7685SOL     OW23953   3.283   3.262   0.274
 7685SOL    HW123954   3.255   3.197   0.344
 7685SOL    HW223955   3.252   3.231   0.185
 7686SOL     OW23956   5.018   0.416   3.502
 7686SOL    HW123957   4.973   0.432   3.590
 7686SOL    HW223958   5.075   0.495   3.480
 7687SOL     OW23959   5.965   5.260   5.696
 7687SOL    HW123960   6.016   5.175   5.706
 7687SOL    HW223961   5.932   5.269   5.602
 7688SOL     OW23962   7.028   0.502   5.959
 7688SOL    HW123963   0.024   0.576   6.021
 7688SOL    HW223964   0.043   0.517   5.870
 7689SOL     OW23965   5.304   5.787   3.267
 7689SOL    HW123966   5.386   5.844   3.278
 7689SOL    HW223967   5.316   5.702   3.320
 7690SOL     OW23968   6.064   4.941   1.203
 7690SOL    HW123969   6.013   4.879   1.144
 7690SOL    HW223970   6.019   4.946   1.293
 7691SOL     OW23971   5.339   2.728   4.338
 7691SOL    HW123972   5.375   2.821   4.329
 7691SOL    HW223973   5.284   2.721   4.421
 7692SOL     OW23974   0.899   6.823   1.397
 7692SOL    HW123975   0.947   6.741   1.428
 7692SOL    HW223976   0.945   6.859   1.316
 7693SOL     OW23977   4.353   6.699   0.803
 7693SOL    HW123978   4.356   6.657   0.894
 7693SOL    HW223979   4.394   6.790   0.806
 7694SOL     OW23980   6.716   4.338   4.172
 7694SOL    HW123981   6.742   4.416   4.115
 7694SOL    HW223982   6.778   4.261   4.154
 7695SOL     OW23983   3.641   0.051   0.461
 7695SOL    HW123984   3.623   0.059   0.362
 7695SOL    HW223985   3.629   0.141   0.504
 7696SOL     OW23986   6.918   1.713   4.925
 7696SOL    HW123987   6.872   1.714   4.836
 7696SOL    HW223988   6.889   1.793   4.978
 7697SOL     OW23989   3.248   0.857   2.562
 7697SOL    HW123990   3.319   0.857   2.491
 7697SOL    HW223991   3.286   0.820   2.647
 7698SOL     OW23992   0.129   2.836   4.648
 7698SOL    HW123993   0.049   2.777   4.636
 7698SOL    HW223994   0.182   2.837   4.564
 7699SOL     OW23995   4.028   5.549   6.511
 7699SOL    HW123996   4.033   5.630   6.570
 7699SOL    HW223997   4.006   5.469   6.567
 7700SOL     OW23998   4.637   6.556   5.428
 7700SOL    HW123999   4.640   6.515   5.519
 7700SOL    HW224000   4.565   6.513   5.374
 7701SOL     OW24001   6.627   1.707   6.663
 7701SOL    HW124002   6.704   1.770   6.650
 7701SOL    HW224003   6.575   1.735   6.743
 7702SOL     OW24004   3.329   6.404   6.012
 7702SOL    HW124005   3.351   6.311   6.044
 7702SOL    HW224006   3.264   6.398   5.937
 7703SOL     OW24007   6.956   1.405   4.720
 7703SOL    HW124008   0.006   1.342   4.720
 7703SOL    HW224009   6.895   1.380   4.795
 7704SOL     OW24010   5.167   4.743   5.451
 7704SOL    HW124011   5.192   4.767   5.545
 7704SOL    HW224012   5.226   4.669   5.419
 7705SOL     OW24013   3.673   5.027   6.203
 7705SOL    HW124014   3.755   4.994   6.157
 7705SOL    HW224015   3.637   5.107   6.155
 7706SOL     OW24016   5.063   1.556   5.627
 7706SOL    HW124017   5.037   1.574   5.532
 7706SOL    HW224018   5.066   1.641   5.678
 7707SOL     OW24019   1.297   6.284   6.394
 7707SOL    HW124020   1.382   6.291   6.341
 7707SOL    HW224021   1.315   6.235   6.479
 7708SOL     OW24022   5.137   6.071   5.160
 7708SOL    HW124023   5.116   6.013   5.081
 7708SOL    HW224024   5.232   6.101   5.156
 7709SOL     OW24025   5.474   3.881   1.980
 7709SOL    HW124026   5.507   3.818   1.910
 7709SOL    HW224027   5.523   3.864   2.065
 7710SOL     OW24028   3.168   0.862   0.992
 7710SOL    HW124029   3.163   0.916   0.908
 7710SOL    HW224030   3.241   0.795   0.984
 7711SOL     OW24031   6.313   6.056   5.311
 7711SOL    HW124032   6.216   6.073   5.296
 7711SOL    HW224033   6.324   5.975   5.369
 7712SOL     OW24034   6.408   3.766   1.483
 7712SOL    HW124035   6.488   3.825   1.472
 7712SOL    HW224036   6.360   3.791   1.566
 7713SOL     OW24037   1.476   4.332   0.082
 7713SOL    HW124038   1.546   4.386   0.130
 7713SOL    HW224039   1.493   4.337   7.012
 7714SOL     OW24040   6.510   5.562   5.015
 7714SOL    HW124041   6.430   5.510   5.042
 7714SOL    HW224042   6.540   5.620   5.091
 7715SOL     OW24043   4.789   1.320   0.958
 7715SOL    HW124044   4.802   1.238   0.903
 7715SOL    HW224045   4.857   1.323   1.031
 7716SOL     OW24046   6.063   3.916   3.772
 7716SOL    HW124047   6.095   3.896   3.680
 7716SOL    HW224048   6.140   3.914   3.835
 7717SOL     OW24049   2.239   0.907   4.820
 7717SOL    HW124050   2.195   0.976   4.762
 7717SOL    HW224051   2.187   0.822   4.816
 7718SOL     OW24052   2.112   1.856   2.954
 7718SOL    HW124053   2.066   1.768   2.944
 7718SOL    HW224054   2.202   1.852   2.910
 7719SOL     OW24055   6.839   4.139   3.842
 7719SOL    HW124056   6.927   4.187   3.844
 7719SOL    HW224057   6.825   4.094   3.930
 7720SOL     OW24058   6.867   7.004   0.069
 7720SOL    HW124059   6.832   6.912   0.054
 7720SOL    HW224060   6.875   7.022   0.167
 7721SOL     OW24061   1.422   4.551   2.735
 7721SOL    HW124062   1.417   4.544   2.635
 7721SOL    HW224063   1.518   4.548   2.764
 7722SOL     OW24064   0.511   5.262   2.153
 7722SOL    HW124065   0.519   5.356   2.188
 7722SOL    HW224066   0.486   5.201   2.228
 7723SOL     OW24067   6.760   3.874   6.956
 7723SOL    HW124068   6.722   3.959   6.920
 7723SOL    HW224069   6.822   3.834   6.888
 7724SOL     OW24070   2.240   4.158   2.081
 7724SOL    HW124071   2.291   4.228   2.133
 7724SOL    HW224072   2.211   4.197   1.994
 7725SOL     OW24073   5.229   2.665   3.446
 7725SOL    HW124074   5.240   2.634   3.351
 7725SOL    HW224075   5.315   2.705   3.478
 7726SOL     OW24076   0.048   5.737   4.396
 7726SOL    HW124077   0.049   5.651   4.344
 7726SOL    HW224078   0.066   5.813   4.334
 7727SOL     OW24079   6.832   1.296   2.959
 7727SOL    HW124080   6.915   1.329   3.004
 7727SOL    HW224081   6.851   1.281   2.862
 7728SOL     OW24082   1.092   4.231   3.447
 7728SOL    HW124083   1.046   4.253   3.533
 7728SOL    HW224084   1.079   4.306   3.382
 7729SOL     OW24085   6.159   3.028   2.044
 7729SOL    HW124086   6.109   3.029   1.958
 7729SOL    HW224087   6.256   3.008   2.027
 7730SOL     OW24088   5.883   5.533   1.754
 7730SOL    HW124089   5.829   5.536   1.838
 7730SOL    HW224090   5.909   5.626   1.728
 7731SOL     OW24091   6.584   1.302   0.629
 7731SOL    HW124092   6.543   1.218   0.664
 7731SOL    HW224093   6.514   1.373   0.621
 7732SOL     OW24094   4.533   5.977   1.116
 7732SOL    HW124095   4.562   6.061   1.069
 7732SOL    HW224096   4.462   5.999   1.182
 7733SOL     OW24097   4.646   6.697   2.431
 7733SOL    HW124098   4.689   6.756   2.499
 7733SOL    HW224099   4.581   6.749   2.377
 7734SOL     OW24100   2.161   4.115   3.611
 7734SOL    HW124101   2.253   4.156   3.614
 7734SOL    HW224102   2.124   4.125   3.518
 7735SOL     OW24103   3.883   6.044   6.245
 7735SOL    HW124104   3.883   6.022   6.343
 7735SOL    HW224105   3.793   6.077   6.219
 7736SOL     OW24106   4.841   4.352   6.864
 7736SOL    HW124107   4.818   4.420   6.934
 7736SOL    HW224108   4.927   4.307   6.888
 7737SOL     OW24109   3.923   0.826   1.344
 7737SOL    HW124110   3.995   0.792   1.405
 7737SOL    HW224111   3.834   0.808   1.385
 7738SOL     OW24112   1.682   5.720   6.958
 7738SOL    HW124113   1.773   5.760   6.949
 7738SOL    HW224114   1.636   5.723   6.869
 7739SOL     OW24115   0.300   1.464   1.862
 7739SOL    HW124116   0.282   1.433   1.768
 7739SOL    HW224117   0.399   1.474   1.874
 7740SOL     OW24118   1.330   0.818   3.326
 7740SOL    HW124119   1.329   0.918   3.338
 7740SOL    HW224120   1.396   0.794   3.255
 7741SOL     OW24121   1.281   6.062   4.125
 7741SOL    HW124122   1.295   6.126   4.050
 7741SOL    HW224123   1.185   6.062   4.152
 7742SOL     OW24124   6.262   2.186   3.445
 7742SOL    HW124125   6.192   2.154   3.381
 7742SOL    HW224126   6.262   2.286   3.448
 7743SOL     OW24127   4.567   2.282   6.366
 7743SOL    HW124128   4.515   2.196   6.370
 7743SOL    HW224129   4.662   2.264   6.390
 7744SOL     OW24130   0.594   6.142   4.080
 7744SOL    HW124131   0.511   6.142   4.024
 7744SOL    HW224132   0.572   6.172   4.172
 7745SOL     OW24133   3.565   1.750   5.889
 7745SOL    HW124134   3.614   1.663   5.893
 7745SOL    HW224135   3.589   1.799   5.806
 7746SOL     OW24136   2.260   6.685   6.813
 7746SOL    HW124137   2.227   6.650   6.900
 7746SOL    HW224138   2.352   6.649   6.795
 7747SOL     OW24139   4.251   6.063   1.166
 7747SOL    HW124140   4.210   6.042   1.255
 7747SOL    HW224141   4.180   6.059   1.096
 7748SOL     OW24142   3.102   4.088   5.767
 7748SOL    HW124143   3.094   4.077   5.668
 7748SOL    HW224144   3.032   4.152   5.799
 7749SOL     OW24145   3.542   3.370   6.222
 7749SOL    HW124146   3.460   3.362   6.165
 7749SOL    HW224147   3.574   3.279   6.248
 7750SOL     OW24148   0.061   6.035   1.642
 7750SOL    HW124149   0.085   6.125   1.606
 7750SOL    HW224150   0.063   5.968   1.568
 7751SOL     OW24151   1.301   1.297   2.493
 7751SOL    HW124152   1.282   1.265   2.586
 7751SOL    HW224153   1.386   1.254   2.461
 7752SOL     OW24154   5.036   0.330   5.188
 7752SOL    HW124155   4.941   0.301   5.200
 7752SOL    HW224156   5.084   0.322   5.275
 7753SOL     OW24157   2.202   1.765   4.694
 7753SOL    HW124158   2.116   1.782   4.742
 7753SOL    HW224159   2.278   1.772   4.758
 7754SOL     OW24160   3.767   6.140   1.484
 7754SOL    HW124161   3.713   6.216   1.449
 7754SOL    HW224162   3.864   6.164   1.482
 7755SOL     OW24163   1.312   3.068   6.078
 7755SOL    HW124164   1.215   3.048   6.091
 7755SOL    HW224165   1.344   3.129   6.151
 7756SOL     OW24166   3.451   6.118   1.594
 7756SOL    HW124167   3.472   6.122   1.496
 7756SOL    HW224168   3.415   6.027   1.616
 7757SOL     OW24169   6.825   4.561   1.294
 7757SOL    HW124170   6.876   4.529   1.374
 7757SOL    HW224171   6.866   4.647   1.261
 7758SOL     OW24172   1.627   6.483   6.400
 7758SOL    HW124173   1.564   6.537   6.456
 7758SOL    HW224174   1.678   6.544   6.339
 7759SOL     OW24175   3.151   2.090   5.792
 7759SOL    HW124176   3.222   2.035   5.836
 7759SOL    HW224177   3.092   2.131   5.861
 7760SOL     OW24178   4.987   2.254   2.028
 7760SOL    HW124179   5.039   2.338   2.015
 7760SOL    HW224180   5.002   2.219   2.120
 7761SOL     OW24181   5.784   6.148   4.620
 7761SOL    HW124182   5.748   6.159   4.712
 7761SOL    HW224183   5.713   6.112   4.559
 7762SOL     OW24184   1.815   0.618   3.530
 7762SOL    HW124185   1.768   0.702   3.557
 7762SOL    HW224186   1.856   0.630   3.440
 7763SOL     OW24187   2.176   6.971   5.395
 7763SOL    HW124188   2.169   6.884   5.443
 7763SOL    HW224189   2.211   0.013   5.457
 7764SOL     OW24190   3.063   4.499   5.808
 7764SOL    HW124191   3.035   4.403   5.800
 7764SOL    HW224192   3.120   4.523   5.730
 7765SOL     OW24193   6.637   3.323   4.431
 7765SOL    HW124194   6.645   3.416   4.466
 7765SOL    HW224195   6.599   3.326   4.338
 7766SOL     OW24196   0.492   4.157   6.843
 7766SOL    HW124197   0.455   4.211   6.768
 7766SOL    HW224198   0.591   4.169   6.848
 7767SOL     OW24199   4.766   6.893   2.588
 7767SOL    HW124200   4.834   6.823   2.611
 7767SOL    HW224201   4.806   6.956   2.521
 7768SOL     OW24202   4.680   4.210   3.340
 7768SOL    HW124203   4.676   4.114   3.311
 7768SOL    HW224204   4.672   4.215   3.440
 7769SOL     OW24205   3.665   1.735   5.158
 7769SOL    HW124206   3.597   1.749   5.086
 7769SOL    HW224207   3.754   1.769   5.126
 7770SOL     OW24208   6.891   3.583   4.647
 7770SOL    HW124209   6.930   3.657   4.701
 7770SOL    HW224210   6.945   3.500   4.661
 7771SOL     OW24211   2.669   2.118   6.326
 7771SOL    HW124212   2.618   2.126   6.412
 7771SOL    HW224213   2.664   2.023   6.293
 7772SOL     OW24214   4.857   1.085   0.821
 7772SOL    HW124215   4.793   1.021   0.864
 7772SOL    HW224216   4.808   1.140   0.754
 7773SOL     OW24217   2.313   5.882   6.057
 7773SOL    HW124218   2.360   5.884   6.146
 7773SOL    HW224219   2.282   5.974   6.034
 7774SOL     OW24220   4.851   2.100   4.474
 7774SOL    HW124221   4.931   2.125   4.419
 7774SOL    HW224222   4.769   2.101   4.416
 7775SOL     OW24223   3.836   0.378   0.069
 7775SOL    HW124224   3.847   0.383   0.168
 7775SOL    HW224225   3.895   0.447   0.025
 7776SOL     OW24226   0.270   6.564   6.091
 7776SOL    HW124227   0.361   6.531   6.063
 7776SOL    HW224228   0.241   6.638   6.030
 7777SOL     OW24229   6.188   5.530   4.974
 7777SOL    HW124230   6.153   5.486   4.891
 7777SOL    HW224231   6.274   5.576   4.953
 7778SOL     OW24232   5.478   4.240   2.348
 7778SOL    HW124233   5.531   4.181   2.286
 7778SOL    HW224234   5.535   4.316   2.377
 7779SOL     OW24235   3.622   0.470   2.974
 7779SOL    HW124236   3.602   0.462   2.876
 7779SOL    HW224237   3.557   0.534   3.016
 7780SOL     OW24238   0.102   6.402   5.892
 7780SOL    HW124239   0.068   6.458   5.968
 7780SOL    HW224240   0.070   6.442   5.806
 7781SOL     OW24241   1.382   3.938   0.321
 7781SOL    HW124242   1.444   3.943   0.243
 7781SOL    HW224243   1.372   4.030   0.361
 7782SOL     OW24244   5.747   4.823   3.310
 7782SOL    HW124245   5.666   4.790   3.260
 7782SOL    HW224246   5.773   4.757   3.380
 7783SOL     OW24247   0.459   7.004   5.712
 7783SOL    HW124248   0.431   6.928   5.654
 7783SOL    HW224249   0.559   7.006   5.718
 7784SOL     OW24250   2.817   2.471   1.639
 7784SOL    HW124251   2.771   2.382   1.638
 7784SOL    HW224252   2.854   2.487   1.731
 7785SOL     OW24253   1.249   6.590   3.550
 7785SOL    HW124254   1.293   6.666   3.599
 7785SOL    HW224255   1.306   6.562   3.474
 7786SOL     OW24256   4.652   1.092   0.031
 7786SOL    HW124257   4.635   0.994   0.040
 7786SOL    HW224258   4.566   1.140   0.018
 7787SOL     OW24259   2.409   2.854   1.007
 7787SOL    HW124260   2.328   2.906   0.978
 7787SOL    HW224261   2.492   2.904   0.982
 7788SOL     OW24262   1.355   6.512   2.144
 7788SOL    HW124263   1.346   6.450   2.222
 7788SOL    HW224264   1.431   6.575   2.160
 7789SOL     OW24265   3.122   0.087   6.279
 7789SOL    HW124266   3.176   0.004   6.262
 7789SOL    HW224267   3.054   0.097   6.206
 7790SOL     OW24268   6.369   4.869   2.578
 7790SOL    HW124269   6.351   4.963   2.605
 7790SOL    HW224270   6.454   4.837   2.620
 7791SOL     OW24271   2.280   5.653   1.695
 7791SOL    HW124272   2.194   5.692   1.727
 7791SOL    HW224273   2.356   5.689   1.749
 7792SOL     OW24274   0.544   0.846   2.786
 7792SOL    HW124275   0.583   0.767   2.833
 7792SOL    HW224276   0.529   0.822   2.690
 7793SOL     OW24277   4.977   0.900   6.359
 7793SOL    HW124278   4.978   0.803   6.381
 7793SOL    HW224279   5.061   0.924   6.309
 7794SOL     OW24280   0.379   5.701   2.066
 7794SOL    HW124281   0.296   5.738   2.107
 7794SOL    HW224282   0.379   5.719   1.967
 7795SOL     OW24283   3.281   5.555   5.563
 7795SOL    HW124284   3.219   5.481   5.537
 7795SOL    HW224285   3.231   5.622   5.618
 7796SOL     OW24286   3.967   3.436   5.895
 7796SOL    HW124287   4.061   3.425   5.927
 7796SOL    HW224288   3.962   3.511   5.829
 7797SOL     OW24289   1.411   5.194   1.307
 7797SOL    HW124290   1.477   5.208   1.381
 7797SOL    HW224291   1.450   5.227   1.221
 7798SOL     OW24292   1.144   1.154   2.032
 7798SOL    HW124293   1.143   1.219   2.108
 7798SOL    HW224294   1.068   1.175   1.970
 7799SOL     OW24295   2.838   6.002   2.898
 7799SOL    HW124296   2.738   6.001   2.905
 7799SOL    HW224297   2.878   5.988   2.989
 7800SOL     OW24298   0.595   5.927   1.929
 7800SOL    HW124299   0.534   5.958   2.002
 7800SOL    HW224300   0.581   5.983   1.848
 7801SOL     OW24301   1.894   1.644   2.846
 7801SOL    HW124302   1.919   1.711   2.776
 7801SOL    HW224303   1.801   1.661   2.878
 7802SOL     OW24304   6.842   4.546   6.686
 7802SOL    HW124305   6.936   4.565   6.658
 7802SOL    HW224306   6.779   4.580   6.616
 7803SOL     OW24307   5.430   2.094   6.961
 7803SOL    HW124308   5.401   2.189   6.958
 7803SOL    HW224309   5.357   2.035   6.927
 7804SOL     OW24310   3.371   1.628   4.259
 7804SOL    HW124311   3.448   1.671   4.306
 7804SOL    HW224312   3.286   1.650   4.307
 7805SOL     OW24313   5.099   3.090   2.022
 7805SOL    HW124314   5.095   3.010   2.081
 7805SOL    HW224315   5.015   3.095   1.967
 7806SOL     OW24316   6.594   2.268   6.255
 7806SOL    HW124317   6.514   2.316   6.218
 7806SOL    HW224318   6.587   2.171   6.233
 7807SOL     OW24319   1.364   4.456   6.058
 7807SOL    HW124320   1.373   4.526   6.129
 7807SOL    HW224321   1.447   4.401   6.054
 7808SOL     OW24322   4.462   4.481   2.345
 7808SOL    HW124323   4.496   4.516   2.258
 7808SOL    HW224324   4.396   4.547   2.383
 7809SOL     OW24325   4.876   5.289   5.001
 7809SOL    HW124326   4.956   5.340   4.969
 7809SOL    HW224327   4.811   5.352   5.044
 7810SOL     OW24328   3.657   0.221   4.557
 7810SOL    HW124329   3.702   0.132   4.571
 7810SOL    HW224330   3.655   0.271   4.643
 7811SOL     OW24331   1.333   5.704   2.889
 7811SOL    HW124332   1.386   5.658   2.818
 7811SOL    HW224333   1.395   5.745   2.956
 7812SOL     OW24334   2.415   3.162   5.381
 7812SOL    HW124335   2.470   3.242   5.405
 7812SOL    HW224336   2.469   3.100   5.324
 7813SOL     OW24337   4.656   2.765   1.348
 7813SOL    HW124338   4.747   2.806   1.343
 7813SOL    HW224339   4.665   2.666   1.350
 7814SOL     OW24340   6.668   3.392   2.723
 7814SOL    HW124341   6.677   3.336   2.805
 7814SOL    HW224342   6.757   3.431   2.700
 7815SOL     OW24343   5.650   2.023   5.370
 7815SOL    HW124344   5.619   2.060   5.283
 7815SOL    HW224345   5.570   2.002   5.427
 7816SOL     OW24346   0.260   1.558   5.824
 7816SOL    HW124347   0.276   1.460   5.822
 7816SOL    HW224348   0.346   1.607   5.811
 7817SOL     OW24349   4.151   3.935   5.734
 7817SOL    HW124350   4.236   3.907   5.780
 7817SOL    HW224351   4.130   3.870   5.661
 7818SOL     OW24352   4.730   1.478   2.422
 7818SOL    HW124353   4.678   1.395   2.399
 7818SOL    HW224354   4.729   1.540   2.344
 7819SOL     OW24355   0.310   3.945   4.418
 7819SOL    HW124356   0.245   3.901   4.355
 7819SOL    HW224357   0.269   3.950   4.509
 7820SOL     OW24358   1.876   1.112   5.609
 7820SOL    HW124359   1.835   1.168   5.537
 7820SOL    HW224360   1.805   1.081   5.672
 7821SOL     OW24361   6.036   5.763   0.590
 7821SOL    HW124362   5.993   5.795   0.675
 7821SOL    HW224363   5.982   5.795   0.512
 7822SOL     OW24364   0.781   1.695   5.999
 7822SOL    HW124365   0.720   1.772   5.986
 7822SOL    HW224366   0.739   1.628   6.061
 7823SOL     OW24367   1.057   4.376   6.336
 7823SOL    HW124368   1.105   4.321   6.267
 7823SOL    HW224369   1.099   4.361   6.425
 7824SOL     OW24370   5.870   0.734   4.362
 7824SOL    HW124371   5.787   0.684   4.339
 7824SOL    HW224372   5.889   0.724   4.460
 7825SOL     OW24373   2.352   2.852   1.840
 7825SOL    HW124374   2.281   2.863   1.771
 7825SOL    HW224375   2.317   2.880   1.929
 7826SOL     OW24376   5.579   1.662   0.044
 7826SOL    HW124377   5.653   1.607   0.081
 7826SOL    HW224378   5.501   1.603   0.024
 7827SOL     OW24379   3.572   4.547   1.454
 7827SOL    HW124380   3.560   4.581   1.548
 7827SOL    HW224381   3.511   4.598   1.393
 7828SOL     OW24382   0.716   5.586   0.694
 7828SOL    HW124383   0.747   5.675   0.660
 7828SOL    HW224384   0.784   5.550   0.758
 7829SOL     OW24385   2.604   3.428   1.503
 7829SOL    HW124386   2.655   3.505   1.464
 7829SOL    HW224387   2.506   3.444   1.492
 7830SOL     OW24388   5.717   3.906   6.020
 7830SOL    HW124389   5.781   3.957   6.079
 7830SOL    HW224390   5.705   3.956   5.934
 7831SOL     OW24391   0.919   4.600   6.699
 7831SOL    HW124392   0.908   4.675   6.633
 7831SOL    HW224393   0.999   4.617   6.756
 7832SOL     OW24394   3.149   1.336   5.153
 7832SOL    HW124395   3.140   1.411   5.088
 7832SOL    HW224396   3.151   1.249   5.104
 7833SOL     OW24397   1.032   0.673   0.539
 7833SOL    HW124398   0.933   0.680   0.547
 7833SOL    HW224399   1.072   0.764   0.528
 7834SOL     OW24400   0.148   1.477   2.363
 7834SOL    HW124401   0.123   1.474   2.267
 7834SOL    HW224402   0.232   1.425   2.378
 7835SOL     OW24403   2.425   2.668   4.715
 7835SOL    HW124404   2.504   2.622   4.675
 7835SOL    HW224405   2.358   2.688   4.643
 7836SOL     OW24406   3.061   0.720   6.678
 7836SOL    HW124407   3.133   0.733   6.747
 7836SOL    HW224408   2.979   0.683   6.722
 7837SOL     OW24409   5.772   6.450   1.696
 7837SOL    HW124410   5.801   6.514   1.624
 7837SOL    HW224411   5.674   6.459   1.711
 7838SOL     OW24412   4.663   6.313   5.894
 7838SOL    HW124413   4.709   6.373   5.960
 7838SOL    HW224414   4.608   6.369   5.832
 7839SOL     OW24415   6.325   4.353   4.742
 7839SOL    HW124416   6.351   4.257   4.744
 7839SOL    HW224417   6.344   4.395   4.831
 7840SOL     OW24418   4.690   2.796   4.103
 7840SOL    HW124419   4.685   2.858   4.181
 7840SOL    HW224420   4.772   2.739   4.112
 7841SOL     OW24421   5.275   2.216   6.295
 7841SOL    HW124422   5.324   2.195   6.210
 7841SOL    HW224423   5.214   2.294   6.280
 7842SOL     OW24424   0.939   1.178   3.533
 7842SOL    HW124425   0.941   1.094   3.587
 7842SOL    HW224426   0.938   1.154   3.436
 7843SOL     OW24427   5.848   4.264   1.499
 7843SOL    HW124428   5.816   4.204   1.426
 7843SOL    HW224429   5.948   4.264   1.500
 7844SOL     OW24430   4.296   0.851   3.934
 7844SOL    HW124431   4.271   0.755   3.924
 7844SOL    HW224432   4.231   0.908   3.884
 7845SOL     OW24433   0.777   0.907   3.872
 7845SOL    HW124434   0.693   0.911   3.819
 7845SOL    HW224435   0.758   0.931   3.967
 7846SOL     OW24436   2.444   0.850   1.323
 7846SOL    HW124437   2.371   0.887   1.380
 7846SOL    HW224438   2.519   0.916   1.317
 7847SOL     OW24439   0.413   1.179   0.990
 7847SOL    HW124440   0.357   1.229   0.923
 7847SOL    HW224441   0.472   1.244   1.039
 7848SOL     OW24442   3.369   4.524   0.937
 7848SOL    HW124443   3.406   4.439   0.900
 7848SOL    HW224444   3.272   4.531   0.913
 7849SOL     OW24445   5.144   3.562   3.728
 7849SOL    HW124446   5.236   3.555   3.766
 7849SOL    HW224447   5.144   3.531   3.633
 7850SOL     OW24448   0.116   0.827   3.903
 7850SOL    HW124449   0.032   0.797   3.948
 7850SOL    HW224450   0.195   0.787   3.949
 7851SOL     OW24451   6.382   6.415   0.526
 7851SOL    HW124452   6.355   6.336   0.582
 7851SOL    HW224453   6.482   6.413   0.513
 7852SOL     OW24454   2.741   6.682   6.472
 7852SOL    HW124455   2.756   6.693   6.570
 7852SOL    HW224456   2.812   6.732   6.422
 7853SOL     OW24457   3.428   1.716   0.225
 7853SOL    HW124458   3.356   1.722   0.156
 7853SOL    HW224459   3.513   1.689   0.182
 7854SOL     OW24460   3.719   3.881   0.857
 7854SOL    HW124461   3.627   3.905   0.888
 7854SOL    HW224462   3.773   3.848   0.935
 7855SOL     OW24463   4.677   5.969   6.272
 7855SOL    HW124464   4.692   6.064   6.243
 7855SOL    HW224465   4.580   5.955   6.292
 7856SOL     OW24466   6.209   4.598   4.355
 7856SOL    HW124467   6.293   4.561   4.316
 7856SOL    HW224468   6.189   4.687   4.314
 7857SOL     OW24469   6.709   2.596   5.992
 7857SOL    HW124470   6.734   2.552   5.906
 7857SOL    HW224471   6.751   2.545   6.068
 7858SOL     OW24472   5.179   4.773   3.541
 7858SOL    HW124473   5.086   4.804   3.523
 7858SOL    HW224474   5.242   4.819   3.478
 7859SOL     OW24475   0.184   3.852   6.156
 7859SOL    HW124476   0.233   3.906   6.088
 7859SOL    HW224477   0.182   3.901   6.243
 7860SOL     OW24478   3.890   6.498   2.891
 7860SOL    HW124479   3.861   6.560   2.963
 7860SOL    HW224480   3.819   6.430   2.875
 7861SOL     OW24481   4.355   5.339   1.641
 7861SOL    HW124482   4.441   5.326   1.591
 7861SOL    HW224483   4.375   5.371   1.733
 7862SOL     OW24484   2.956   4.296   1.743
 7862SOL    HW124485   2.938   4.380   1.794
 7862SOL    HW224486   2.899   4.222   1.779
 7863SOL     OW24487   6.477   5.865   3.193
 7863SOL    HW124488   6.565   5.863   3.147
 7863SOL    HW224489   6.423   5.785   3.166
 7864SOL     OW24490   6.871   6.032   5.732
 7864SOL    HW124491   6.843   6.053   5.638
 7864SOL    HW224492   6.812   6.080   5.796
 7865SOL     OW24493   4.316   6.638   4.121
 7865SOL    HW124494   4.383   6.608   4.053
 7865SOL    HW224495   4.285   6.731   4.098
 7866SOL     OW24496   2.364   1.584   2.362
 7866SOL    HW124497   2.292   1.576   2.294
 7866SOL    HW224498   2.447   1.540   2.328
 7867SOL     OW24499   5.375   5.263   2.451
 7867SOL    HW124500   5.327   5.327   2.391
 7867SOL    HW224501   5.366   5.292   2.546
 7868SOL     OW24502   4.964   6.927   2.171
 7868SOL    HW124503   4.993   6.831   2.169
 7868SOL    HW224504   4.979   6.968   2.082
 7869SOL     OW24505   6.441   3.914   1.030
 7869SOL    HW124506   6.381   3.902   0.952
 7869SOL    HW224507   6.386   3.936   1.111
 7870SOL     OW24508   6.085   5.171   3.358
 7870SOL    HW124509   6.008   5.117   3.322
 7870SOL    HW224510   6.101   5.145   3.453
 7871SOL     OW24511   5.528   4.055   3.440
 7871SOL    HW124512   5.454   4.007   3.391
 7871SOL    HW224513   5.612   4.049   3.386
 7872SOL     OW24514   0.960   4.615   2.118
 7872SOL    HW124515   0.975   4.707   2.154
 7872SOL    HW224516   1.045   4.563   2.121
 7873SOL     OW24517   6.531   0.793   5.582
 7873SOL    HW124518   6.434   0.777   5.559
 7873SOL    HW224519   6.550   0.891   5.579
 7874SOL     OW24520   6.445   1.367   6.641
 7874SOL    HW124521   6.415   1.461   6.657
 7874SOL    HW224522   6.544   1.360   6.655
 7875SOL     OW24523   4.645   3.982   6.864
 7875SOL    HW124524   4.557   3.994   6.818
 7875SOL    HW224525   4.716   3.960   6.796
 7876SOL     OW24526   6.729   0.168   4.702
 7876SOL    HW124527   6.646   0.153   4.755
 7876SOL    HW224528   6.737   0.097   4.631
 7877SOL     OW24529   0.220   2.737   2.624
 7877SOL    HW124530   0.206   2.638   2.634
 7877SOL    HW224531   0.288   2.767   2.691
 7878SOL     OW24532   5.012   4.830   3.164
 7878SOL    HW124533   4.962   4.743   3.158
 7878SOL    HW224534   5.007   4.864   3.257
 7879SOL     OW24535   4.435   5.766   3.028
 7879SOL    HW124536   4.413   5.728   3.118
 7879SOL    HW224537   4.389   5.713   2.957
 7880SOL     OW24538   0.210   6.249   0.804
 7880SOL    HW124539   0.195   6.152   0.822
 7880SOL    HW224540   0.241   6.261   0.710
 7881SOL     OW24541   7.019   3.839   4.736
 7881SOL    HW124542   6.963   3.898   4.794
 7881SOL    HW224543   0.078   3.883   4.717
 7882SOL     OW24544   1.818   2.036   2.487
 7882SOL    HW124545   1.851   2.091   2.564
 7882SOL    HW224546   1.884   2.040   2.413
 7883SOL     OW24547   2.077   0.762   1.354
 7883SOL    HW124548   2.015   0.746   1.431
 7883SOL    HW224549   2.023   0.784   1.273
 7884SOL     OW24550   1.458   4.536   3.226
 7884SOL    HW124551   1.484   4.444   3.196
 7884SOL    HW224552   1.418   4.586   3.148
 7885SOL     OW24553   5.858   5.447   2.903
 7885SOL    HW124554   5.868   5.539   2.940
 7885SOL    HW224555   5.761   5.425   2.895
 7886SOL     OW24556   5.998   3.914   1.365
 7886SOL    HW124557   5.916   3.859   1.353
 7886SOL    HW224558   6.017   3.926   1.463
 7887SOL     OW24559   3.410   2.792   5.241
 7887SOL    HW124560   3.468   2.830   5.313
 7887SOL    HW224561   3.359   2.714   5.277
 7888SOL     OW24562   0.299   1.185   4.346
 7888SOL    HW124563   0.315   1.155   4.252
 7888SOL    HW224564   0.344   1.122   4.409
 7889SOL     OW24565   0.210   5.567   6.564
 7889SOL    HW124566   0.121   5.552   6.523
 7889SOL    HW224567   0.227   5.665   6.574
 7890SOL     OW24568   1.397   2.705   4.035
 7890SOL    HW124569   1.485   2.679   4.074
 7890SOL    HW224570   1.323   2.672   4.094
 7891SOL     OW24571   0.985   2.961   4.157
 7891SOL    HW124572   1.079   2.939   4.132
 7891SOL    HW224573   0.974   2.954   4.257
 7892SOL     OW24574   1.323   2.074   3.894
 7892SOL    HW124575   1.230   2.053   3.865
 7892SOL    HW224576   1.326   2.167   3.932
 7893SOL     OW24577   5.764   6.171   1.753
 7893SOL    HW124578   5.777   6.269   1.741
 7893SOL    HW224579   5.707   6.155   1.834
 7894SOL     OW24580   2.517   1.261   0.591
 7894SOL    HW124581   2.580   1.327   0.550
 7894SOL    HW224582   2.554   1.231   0.679
 7895SOL     OW24583   3.498   6.194   4.591
 7895SOL    HW124584   3.485   6.096   4.601
 7895SOL    HW224585   3.595   6.216   4.587
 7896SOL     OW24586   5.150   3.262   1.512
 7896SOL    HW124587   5.118   3.254   1.418
 7896SOL    HW224588   5.122   3.181   1.563
 7897SOL     OW24589   3.472   3.519   6.678
 7897SOL    HW124590   3.385   3.569   6.679
 7897SOL    HW224591   3.542   3.576   6.635
 7898SOL     OW24592   4.637   0.057   4.165
 7898SOL    HW124593   4.665   6.996   4.200
 7898SOL    HW224594   4.677   0.072   4.075
 7899SOL     OW24595   5.217   6.510   1.868
 7899SOL    HW124596   5.263   6.551   1.946
 7899SOL    HW224597   5.284   6.461   1.812
 7900SOL     OW24598   0.922   3.731   0.719
 7900SOL    HW124599   0.860   3.772   0.786
 7900SOL    HW224600   0.869   3.687   0.647
 7901SOL     OW24601   5.372   1.494   6.028
 7901SOL    HW124602   5.286   1.542   6.045
 7901SOL    HW224603   5.371   1.454   5.937
 7902SOL     OW24604   6.947   6.463   3.203
 7902SOL    HW124605   7.013   6.514   3.259
 7902SOL    HW224606   6.974   6.466   3.107
 7903SOL     OW24607   4.266   1.718   3.856
 7903SOL    HW124608   4.249   1.744   3.952
 7903SOL    HW224609   4.342   1.773   3.820
 7904SOL     OW24610   6.052   6.936   3.477
 7904SOL    HW124611   6.058   0.006   3.462
 7904SOL    HW224612   6.119   6.889   3.419
 7905SOL     OW24613   5.385   0.966   0.556
 7905SOL    HW124614   5.310   0.930   0.500
 7905SOL    HW224615   5.397   1.064   0.536
 7906SOL     OW24616   1.276   5.076   1.014
 7906SOL    HW124617   1.231   5.005   0.959
 7906SOL    HW224618   1.316   5.033   1.095
 7907SOL     OW24619   6.095   0.861   3.055
 7907SOL    HW124620   6.130   0.951   3.026
 7907SOL    HW224621   6.111   0.795   2.982
 7908SOL     OW24622   0.986   2.036   6.632
 7908SOL    HW124623   1.047   1.978   6.686
 7908SOL    HW224624   1.039   2.086   6.564
 7909SOL     OW24625   5.017   4.205   3.213
 7909SOL    HW124626   4.966   4.191   3.128
 7909SOL    HW224627   4.990   4.135   3.279
 7910SOL     OW24628   1.497   2.959   1.259
 7910SOL    HW124629   1.478   2.960   1.161
 7910SOL    HW224630   1.413   2.942   1.309
 7911SOL     OW24631   0.869   3.967   1.541
 7911SOL    HW124632   0.957   3.958   1.588
 7911SOL    HW224633   0.880   4.020   1.457
 7912SOL     OW24634   5.192   4.774   0.450
 7912SOL    HW124635   5.159   4.814   0.536
 7912SOL    HW224636   5.234   4.685   0.469
 7913SOL     OW24637   1.794   4.444   1.026
 7913SOL    HW124638   1.866   4.405   0.969
 7913SOL    HW224639   1.794   4.543   1.016
 7914SOL     OW24640   0.146   4.817   6.830
 7914SOL    HW124641   0.158   4.898   6.888
 7914SOL    HW224642   0.231   4.797   6.782
 7915SOL     OW24643   4.190   1.069   3.027
 7915SOL    HW124644   4.175   1.052   2.930
 7915SOL    HW224645   4.283   1.041   3.052
 7916SOL     OW24646   0.802   0.585   4.794
 7916SOL    HW124647   0.888   0.620   4.832
 7916SOL    HW224648   0.747   0.545   4.867
 7917SOL     OW24649   4.116   2.432   5.954
 7917SOL    HW124650   4.067   2.426   5.867
 7917SOL    HW224651   4.192   2.496   5.945
 7918SOL     OW24652   0.876   1.646   5.244
 7918SOL    HW124653   0.852   1.581   5.171
 7918SOL    HW224654   0.941   1.603   5.306
 7919SOL     OW24655   1.353   5.094   2.513
 7919SOL    HW124656   1.344   5.056   2.605
 7919SOL    HW224657   1.434   5.056   2.469
 7920SOL     OW24658   4.840   1.072   2.170
 7920SOL    HW124659   4.912   1.015   2.129
 7920SOL    HW224660   4.751   1.026   2.158
 7921SOL     OW24661   5.899   0.968   1.479
 7921SOL    HW124662   5.832   0.980   1.406
 7921SOL    HW224663   5.964   0.897   1.454
 7922SOL     OW24664   0.598   6.256   6.733
 7922SOL    HW124665   0.517   6.272   6.677
 7922SOL    HW224666   0.592   6.165   6.775
 7923SOL     OW24667   3.262   2.344   6.964
 7923SOL    HW124668   3.173   2.337   6.919
 7923SOL    HW224669   3.333   2.306   6.905
 7924SOL     OW24670   4.973   6.658   1.236
 7924SOL    HW124671   5.031   6.582   1.265
 7924SOL    HW224672   5.024   6.744   1.243
 7925SOL     OW24673   1.597   6.434   0.941
 7925SOL    HW124674   1.503   6.413   0.968
 7925SOL    HW224675   1.604   6.530   0.915
 7926SOL     OW24676   5.509   1.505   6.617
 7926SOL    HW124677   5.454   1.435   6.571
 7926SOL    HW224678   5.605   1.494   6.594
 7927SOL     OW24679   5.251   0.279   1.662
 7927SOL    HW124680   5.322   0.217   1.694
 7927SOL    HW224681   5.220   0.337   1.738
 7928SOL     OW24682   6.911   1.141   3.296
 7928SOL    HW124683   6.944   1.062   3.346
 7928SOL    HW224684   6.871   1.112   3.209
 7929SOL     OW24685   4.665   3.780   6.308
 7929SOL    HW124686   4.611   3.796   6.225
 7929SOL    HW224687   4.606   3.792   6.388
 7930SOL     OW24688   3.371   5.230   6.164
 7930SOL    HW124689   3.330   5.223   6.255
 7930SOL    HW224690   3.352   5.320   6.125
 7931SOL     OW24691   3.515   2.748   0.534
 7931SOL    HW124692   3.424   2.708   0.521
 7931SOL    HW224693   3.557   2.765   0.444
 7932SOL     OW24694   0.433   4.963   1.432
 7932SOL    HW124695   0.405   4.921   1.346
 7932SOL    HW224696   0.480   4.895   1.489
 7933SOL     OW24697   6.797   0.954   5.841
 7933SOL    HW124698   6.770   1.005   5.922
 7933SOL    HW224699   6.757   0.862   5.845
 7934SOL     OW24700   1.619   4.963   0.417
 7934SOL    HW124701   1.706   4.926   0.384
 7934SOL    HW224702   1.574   4.896   0.476
 7935SOL     OW24703   4.864   4.841   2.759
 7935SOL    HW124704   4.774   4.875   2.731
 7935SOL    HW224705   4.929   4.853   2.684
 7936SOL     OW24706   3.217   5.610   3.233
 7936SOL    HW124707   3.314   5.628   3.214
 7936SOL    HW224708   3.161   5.650   3.160
 7937SOL     OW24709   2.138   5.261   3.776
 7937SOL    HW124710   2.204   5.286   3.705
 7937SOL    HW224711   2.104   5.344   3.820
 7938SOL     OW24712   5.183   6.531   5.213
 7938SOL    HW124713   5.113   6.463   5.237
 7938SOL    HW224714   5.165   6.564   5.120
 7939SOL     OW24715   0.270   1.972   5.681
 7939SOL    HW124716   0.210   2.044   5.646
 7939SOL    HW224717   0.294   1.909   5.608
 7940SOL     OW24718   3.598   1.572   2.380
 7940SOL    HW124719   3.534   1.582   2.304
 7940SOL    HW224720   3.602   1.658   2.432
 7941SOL     OW24721   4.897   6.526   3.467
 7941SOL    HW124722   4.959   6.466   3.416
 7941SOL    HW224723   4.818   6.472   3.498
 7942SOL     OW24724   0.439   2.429   2.951
 7942SOL    HW124725   0.359   2.409   3.007
 7942SOL    HW224726   0.488   2.507   2.989
 7943SOL     OW24727   0.952   4.563   5.583
 7943SOL    HW124728   0.980   4.471   5.557
 7943SOL    HW224729   0.944   4.569   5.683
 7944SOL     OW24730   0.395   2.332   1.532
 7944SOL    HW124731   0.406   2.401   1.603
 7944SOL    HW224732   0.361   2.247   1.573
 7945SOL     OW24733   6.241   5.102   2.712
 7945SOL    HW124734   6.164   5.038   2.714
 7945SOL    HW224735   6.239   5.158   2.794
 7946SOL     OW24736   3.879   0.121   6.141
 7946SOL    HW124737   3.952   0.064   6.181
 7946SOL    HW224738   3.880   0.110   6.041
 7947SOL     OW24739   2.364   1.829   5.294
 7947SOL    HW124740   2.281   1.877   5.265
 7947SOL    HW224741   2.419   1.889   5.351
 7948SOL     OW24742   1.006   4.846   1.287
 7948SOL    HW124743   0.979   4.927   1.235
 7948SOL    HW224744   1.097   4.816   1.256
 7949SOL     OW24745   4.404   3.876   5.834
 7949SOL    HW124746   4.439   3.949   5.892
 7949SOL    HW224747   4.441   3.788   5.864
 7950SOL     OW24748   5.067   6.244   4.944
 7950SOL    HW124749   5.146   6.201   4.988
 7950SOL    HW224750   5.071   6.227   4.845
 7951SOL     OW24751   2.083   4.954   2.713
 7951SOL    HW124752   2.025   4.977   2.635
 7951SOL    HW224753   2.084   5.030   2.778
 7952SOL     OW24754   6.822   3.331   6.882
 7952SOL    HW124755   6.763   3.251   6.893
 7952SOL    HW224756   6.914   3.309   6.915
 7953SOL     OW24757   4.650   2.209   1.805
 7953SOL    HW124758   4.556   2.226   1.776
 7953SOL    HW224759   4.654   2.206   1.904
 7954SOL     OW24760   4.233   3.834   6.361
 7954SOL    HW124761   4.243   3.821   6.263
 7954SOL    HW224762   4.155   3.782   6.394
 7955SOL     OW24763   2.373   1.747   6.467
 7955SOL    HW124764   2.325   1.675   6.417
 7955SOL    HW224765   2.352   1.835   6.426
 7956SOL     OW24766   6.189   1.340   1.874
 7956SOL    HW124767   6.246   1.259   1.863
 7956SOL    HW224768   6.101   1.313   1.914
 7957SOL     OW24769   3.547   0.851   6.023
 7957SOL    HW124770   3.535   0.907   5.941
 7957SOL    HW224771   3.642   0.820   6.029
 7958SOL     OW24772   5.387   4.167   6.061
 7958SOL    HW124773   5.448   4.161   5.982
 7958SOL    HW224774   5.293   4.173   6.029
 7959SOL     OW24775   5.303   0.751   6.494
 7959SOL    HW124776   5.327   0.814   6.568
 7959SOL    HW224777   5.231   0.688   6.526
 7960SOL     OW24778   0.679   1.506   6.171
 7960SOL    HW124779   0.623   1.563   6.231
 7960SOL    HW224780   0.699   1.419   6.217
 7961SOL     OW24781   6.534   0.030   0.706
 7961SOL    HW124782   6.455   0.016   0.646
 7961SOL    HW224783   6.574   0.120   0.688
 7962SOL     OW24784   0.054   1.724   5.803
 7962SOL    HW124785   0.062   1.805   5.861
 7962SOL    HW224786   0.141   1.676   5.800
 7963SOL     OW24787   6.802   5.388   3.758
 7963SOL    HW124788   6.709   5.358   3.735
 7963SOL    HW224789   6.849   5.315   3.808
 7964SOL     OW24790   6.524   2.502   1.982
 7964SOL    HW124791   6.481   2.499   1.892
 7964SOL    HW224792   6.456   2.522   2.052
 7965SOL     OW24793   3.756   2.266   6.432
 7965SOL    HW124794   3.748   2.207   6.352
 7965SOL    HW224795   3.710   2.353   6.416
 7966SOL     OW24796   3.815   3.782   5.960
 7966SOL    HW124797   3.824   3.691   5.919
 7966SOL    HW224798   3.906   3.816   5.984
 7967SOL     OW24799   2.314   5.181   2.154
 7967SOL    HW124800   2.303   5.237   2.236
 7967SOL    HW224801   2.395   5.123   2.164
 7968SOL     OW24802   5.995   2.171   5.259
 7968SOL    HW124803   5.976   2.262   5.296
 7968SOL    HW224804   5.952   2.101   5.315
 7969SOL     OW24805   5.097   6.169   0.306
 7969SOL    HW124806   5.093   6.232   0.384
 7969SOL    HW224807   5.183   6.183   0.257
 7970SOL     OW24808   5.956   2.742   2.890
 7970SOL    HW124809   5.872   2.746   2.943
 7970SOL    HW224810   5.934   2.724   2.794
 7971SOL     OW24811   2.869   0.769   1.663
 7971SOL    HW124812   2.874   0.675   1.628
 7971SOL    HW224813   2.855   0.832   1.587
 7972SOL     OW24814   3.732   3.850   1.680
 7972SOL    HW124815   3.658   3.826   1.617
 7972SOL    HW224816   3.693   3.893   1.762
 7973SOL     OW24817   5.459   4.362   4.650
 7973SOL    HW124818   5.385   4.369   4.583
 7973SOL    HW224819   5.432   4.299   4.723
 7974SOL     OW24820   6.035   0.678   5.074
 7974SOL    HW124821   6.086   0.594   5.089
 7974SOL    HW224822   6.067   0.749   5.136
 7975SOL     OW24823   4.565   0.710   0.562
 7975SOL    HW124824   4.508   0.638   0.601
 7975SOL    HW224825   4.618   0.674   0.486
 7976SOL     OW24826   0.808   6.992   5.660
 7976SOL    HW124827   0.753   6.954   5.586
 7976SOL    HW224828   0.885   6.931   5.680
 7977SOL     OW24829   5.240   6.146   1.868
 7977SOL    HW124830   5.205   6.066   1.820
 7977SOL    HW224831   5.279   6.119   1.956
 7978SOL     OW24832   0.474   3.021   6.407
 7978SOL    HW124833   0.459   3.029   6.505
 7978SOL    HW224834   0.569   3.046   6.386
 7979SOL     OW24835   2.144   4.367   5.624
 7979SOL    HW124836   2.050   4.403   5.623
 7979SOL    HW224837   2.145   4.278   5.670
 7980SOL     OW24838   3.059   5.686   6.454
 7980SOL    HW124839   3.086   5.593   6.480
 7980SOL    HW224840   3.014   5.685   6.365
 7981SOL     OW24841   1.046   5.053   1.762
 7981SOL    HW124842   1.003   4.963   1.769
 7981SOL    HW224843   1.030   5.091   1.671
 7982SOL     OW24844   1.548   1.702   6.089
 7982SOL    HW124845   1.530   1.760   6.169
 7982SOL    HW224846   1.604   1.751   6.024
 7983SOL     OW24847   6.367   1.038   1.303
 7983SOL    HW124848   6.320   1.055   1.389
 7983SOL    HW224849   6.428   1.114   1.282
 7984SOL     OW24850   0.770   1.751   0.751
 7984SOL    HW124851   0.856   1.772   0.704
 7984SOL    HW224852   0.761   1.652   0.759
 7985SOL     OW24853   2.328   2.234   4.395
 7985SOL    HW124854   2.300   2.329   4.412
 7985SOL    HW224855   2.427   2.227   4.403
 7986SOL     OW24856   3.827   0.905   5.420
 7986SOL    HW124857   3.863   0.925   5.329
 7986SOL    HW224858   3.728   0.912   5.420
 7987SOL     OW24859   2.227   3.429   0.853
 7987SOL    HW124860   2.215   3.452   0.950
 7987SOL    HW224861   2.140   3.441   0.805
 7988SOL     OW24862   0.931   1.095   1.802
 7988SOL    HW124863   0.989   1.013   1.801
 7988SOL    HW224864   0.836   1.068   1.784
 7989SOL     OW24865   2.014   3.944   0.250
 7989SOL    HW124866   1.937   4.006   0.266
 7989SOL    HW224867   2.078   3.984   0.185
 7990SOL     OW24868   2.536   5.688   4.383
 7990SOL    HW124869   2.470   5.613   4.372
 7990SOL    HW224870   2.511   5.763   4.321
 7991SOL     OW24871   5.731   1.244   4.530
 7991SOL    HW124872   5.730   1.216   4.434
 7991SOL    HW224873   5.804   1.196   4.578
 7992SOL     OW24874   1.822   0.236   0.096
 7992SOL    HW124875   1.913   0.195   0.108
 7992SOL    HW224876   1.819   0.285   0.009
 7993SOL     OW24877   0.613   0.193   1.246
 7993SOL    HW124878   0.701   0.153   1.271
 7993SOL    HW224879   0.585   0.259   1.317
 7994SOL     OW24880   5.202   0.636   3.061
 7994SOL    HW124881   5.245   0.572   3.125
 7994SOL    HW224882   5.209   0.729   3.097
 7995SOL     OW24883   5.535   4.759   3.176
 7995SOL    HW124884   5.550   4.798   3.085
 7995SOL    HW224885   5.473   4.681   3.169
 7996SOL     OW24886   4.183   6.374   3.996
 7996SOL    HW124887   4.112   6.441   4.022
 7996SOL    HW224888   4.219   6.330   4.079
 7997SOL     OW24889   0.157   1.641   0.385
 7997SOL    HW124890   0.161   1.674   0.479
 7997SOL    HW224891   0.244   1.662   0.339
 7998SOL     OW24892   3.006   6.470   6.797
 7998SOL    HW124893   2.978   6.384   6.839
 7998SOL    HW224894   3.081   6.510   6.849
 7999SOL     OW24895   1.349   1.565   5.966
 7999SOL    HW124896   1.278   1.618   5.919
 7999SOL    HW224897   1.417   1.627   6.004
 8000SOL     OW24898   5.911   0.160   6.244
 8000SOL    HW124899   5.889   0.110   6.160
 8000SOL    HW224900   5.898   0.100   6.323
 8001SOL     OW24901   4.451   6.287   1.529
 8001SOL    HW124902   4.481   6.348   1.602
 8001SOL    HW224903   4.447   6.193   1.564
 8002SOL     OW24904   0.815   1.485   5.623
 8002SOL    HW124905   0.884   1.414   5.611
 8002SOL    HW224906   0.725   1.449   5.597
 8003SOL     OW24907   1.864   6.108   1.613
 8003SOL    HW124908   1.927   6.030   1.612
 8003SOL    HW224909   1.783   6.085   1.667
 8004SOL     OW24910   1.730   3.319   3.334
 8004SOL    HW124911   1.810   3.266   3.363
 8004SOL    HW224912   1.755   3.374   3.254
 8005SOL     OW24913   2.844   0.558   3.152
 8005SOL    HW124914   2.789   0.642   3.152
 8005SOL    HW224915   2.791   0.483   3.191
 8006SOL     OW24916   2.499   5.678   5.467
 8006SOL    HW124917   2.557   5.745   5.513
 8006SOL    HW224918   2.446   5.723   5.395
 8007SOL     OW24919   5.790   2.489   6.001
 8007SOL    HW124920   5.812   2.400   6.041
 8007SOL    HW224921   5.744   2.546   6.070
 8008SOL     OW24922   3.407   5.580   6.908
 8008SOL    HW124923   3.486   5.523   6.885
 8008SOL    HW224924   3.380   5.563   7.003
 8009SOL     OW24925   4.487   1.433   0.304
 8009SOL    HW124926   4.515   1.458   0.396
 8009SOL    HW224927   4.402   1.481   0.281
 8010SOL     OW24928   2.900   2.350   5.223
 8010SOL    HW124929   2.965   2.333   5.150
 8010SOL    HW224930   2.944   2.335   5.312
 8011SOL     OW24931   3.565   2.045   1.584
 8011SOL    HW124932   3.597   2.008   1.671
 8011SOL    HW224933   3.554   2.144   1.592
 8012SOL     OW24934   1.039   3.020   6.103
 8012SOL    HW124935   1.028   2.921   6.117
 8012SOL    HW224936   0.949   3.061   6.085
 8013SOL     OW24937   1.255   3.554   3.750
 8013SOL    HW124938   1.218   3.462   3.768
 8013SOL    HW224939   1.266   3.566   3.651
 8014SOL     OW24940   1.897   0.475   4.349
 8014SOL    HW124941   1.813   0.426   4.371
 8014SOL    HW224942   1.900   0.561   4.401
 8015SOL     OW24943   1.993   0.215   5.820
 8015SOL    HW124944   1.993   0.186   5.915
 8015SOL    HW224945   1.996   0.135   5.760
 8016SOL     OW24946   3.867   1.261   5.350
 8016SOL    HW124947   3.828   1.344   5.309
 8016SOL    HW224948   3.817   1.239   5.434
 8017SOL     OW24949   6.510   6.961   6.776
 8017SOL    HW124950   6.446   6.955   6.700
 8017SOL    HW224951   6.533   0.028   6.793
 8018SOL     OW24952   3.628   2.513   6.412
 8018SOL    HW124953   3.691   2.562   6.472
 8018SOL    HW224954   3.625   2.559   6.323
 8019SOL     OW24955   1.850   3.789   1.294
 8019SOL    HW124956   1.765   3.751   1.258
 8019SOL    HW224957   1.836   3.885   1.316
 8020SOL     OW24958   6.462   0.787   6.000
 8020SOL    HW124959   6.386   0.722   5.999
 8020SOL    HW224960   6.433   0.871   6.046
 8021SOL     OW24961   1.766   2.851   1.250
 8021SOL    HW124962   1.690   2.915   1.240
 8021SOL    HW224963   1.740   2.777   1.311
 8022SOL     OW24964   5.945   0.405   1.664
 8022SOL    HW124965   6.004   0.368   1.592
 8022SOL    HW224966   6.001   0.453   1.731
 8023SOL     OW24967   5.777   4.939   2.475
 8023SOL    HW124968   5.731   4.908   2.392
 8023SOL    HW224969   5.805   4.860   2.529
 8024SOL     OW24970   1.224   5.553   5.781
 8024SOL    HW124971   1.149   5.487   5.788
 8024SOL    HW224972   1.218   5.619   5.855
 8025SOL     OW24973   2.041   5.096   1.104
 8025SOL    HW124974   1.947   5.123   1.123
 8025SOL    HW224975   2.103   5.173   1.122
 8026SOL     OW24976   6.962   4.385   1.126
 8026SOL    HW124977   6.896   4.436   1.182
 8026SOL    HW224978   6.916   4.308   1.083
 8027SOL     OW24979   3.346   6.493   5.348
 8027SOL    HW124980   3.334   6.408   5.297
 8027SOL    HW224981   3.331   6.477   5.446
 8028SOL     OW24982   2.673   5.659   4.694
 8028SOL    HW124983   2.609   5.641   4.768
 8028SOL    HW224984   2.623   5.676   4.610
 8029SOL     OW24985   5.042   2.561   2.122
 8029SOL    HW124986   5.032   2.623   2.044
 8029SOL    HW224987   5.116   2.594   2.182
 8030SOL     OW24988   6.239   5.267   0.497
 8030SOL    HW124989   6.240   5.360   0.533
 8030SOL    HW224990   6.332   5.238   0.478
 8031SOL     OW24991   6.593   6.564   2.662
 8031SOL    HW124992   6.588   6.541   2.759
 8031SOL    HW224993   6.503   6.592   2.630
 8032SOL     OW24994   5.308   3.738   1.609
 8032SOL    HW124995   5.375   3.725   1.536
 8032SOL    HW224996   5.296   3.652   1.659
 8033SOL     OW24997   4.939   3.413   0.389
 8033SOL    HW124998   4.902   3.474   0.319
 8033SOL    HW224999   4.875   3.339   0.407
 8034SOL     OW25000   5.755   0.003   6.048
 8034SOL    HW125001   5.835   6.984   6.012
 8034SOL    HW225002   5.688   6.964   6.078
 8035SOL     OW25003   4.848   1.516   1.999
 8035SOL    HW125004   4.894   1.430   2.022
 8035SOL    HW225005   4.814   1.559   2.082
 8036SOL     OW25006   6.824   3.525   3.530
 8036SOL    HW125007   6.783   3.450   3.582
 8036SOL    HW225008   6.768   3.543   3.449
 8037SOL     OW25009   1.810   3.386   6.739
 8037SOL    HW125010   1.767   3.363   6.827
 8037SOL    HW225011   1.856   3.304   6.703
 8038SOL     OW25012   4.971   6.430   2.329
 8038SOL    HW125013   4.872   6.432   2.337
 8038SOL    HW225014   4.998   6.350   2.274
 8039SOL     OW25015   0.229   2.501   4.907
 8039SOL    HW125016   0.177   2.425   4.946
 8039SOL    HW225017   0.309   2.465   4.858
 8040SOL     OW25018   2.137   6.301   7.021
 8040SOL    HW125019   2.140   6.270   6.926
 8040SOL    HW225020   2.074   6.243   0.044
 8041SOL     OW25021   3.280   0.954   2.925
 8041SOL    HW125022   3.329   0.897   2.859
 8041SOL    HW225023   3.270   1.046   2.888
 8042SOL     OW25024   4.487   4.139   5.449
 8042SOL    HW125025   4.536   4.176   5.528
 8042SOL    HW225026   4.467   4.043   5.465
 8043SOL     OW25027   3.740   4.185   0.308
 8043SOL    HW125028   3.683   4.116   0.352
 8043SOL    HW225029   3.683   4.243   0.250
 8044SOL     OW25030   3.547   3.354   0.637
 8044SOL    HW125031   3.493   3.439   0.640
 8044SOL    HW225032   3.547   3.312   0.727
 8045SOL     OW25033   6.703   2.159   2.764
 8045SOL    HW125034   6.760   2.098   2.819
 8045SOL    HW225035   6.622   2.110   2.733
 8046SOL     OW25036   0.641   4.888   2.092
 8046SOL    HW125037   0.603   4.824   2.025
 8046SOL    HW225038   0.618   4.982   2.065
 8047SOL     OW25039   4.380   6.548   6.675
 8047SOL    HW125040   4.383   6.608   6.595
 8047SOL    HW225041   4.313   6.475   6.660
 8048SOL     OW25042   3.187   2.775   6.772
 8048SOL    HW125043   3.095   2.741   6.795
 8048SOL    HW225044   3.255   2.725   6.825
 8049SOL     OW25045   0.801   6.620   6.974
 8049SOL    HW125046   0.849   6.614   0.033
 8049SOL    HW225047   0.859   6.667   6.907
 8050SOL     OW25048   2.113   3.171   4.359
 8050SOL    HW125049   2.124   3.270   4.361
 8050SOL    HW225050   2.134   3.133   4.449
 8051SOL     OW25051   4.586   5.832   4.697
 8051SOL    HW125052   4.496   5.861   4.728
 8051SOL    HW225053   4.578   5.786   4.609
 8052SOL     OW25054   2.433   2.127   1.629
 8052SOL    HW125055   2.467   2.035   1.645
 8052SOL    HW225056   2.435   2.179   1.714
 8053SOL     OW25057   3.143   2.874   5.190
 8053SOL    HW125058   3.237   2.852   5.215
 8053SOL    HW225059   3.134   2.974   5.181
 8054SOL     OW25060   6.335   3.992   4.746
 8054SOL    HW125061   6.326   3.957   4.653
 8054SOL    HW225062   6.254   3.966   4.799
 8055SOL     OW25063   0.002   0.979   5.689
 8055SOL    HW125064   6.945   0.986   5.741
 8055SOL    HW225065   7.009   0.958   5.594
 8056SOL     OW25066   3.421   6.844   3.483
 8056SOL    HW125067   3.364   6.770   3.447
 8056SOL    HW225068   3.386   6.932   3.450
 8057SOL     OW25069   2.858   2.191   2.630
 8057SOL    HW125070   2.814   2.108   2.664
 8057SOL    HW225071   2.957   2.177   2.626
 8058SOL     OW25072   3.352   6.516   2.853
 8058SOL    HW125073   3.360   6.513   2.753
 8058SOL    HW225074   3.432   6.472   2.894
 8059SOL     OW25075   3.202   0.800   5.738
 8059SOL    HW125076   3.188   0.816   5.835
 8059SOL    HW225077   3.195   0.886   5.688
 8060SOL     OW25078   0.258   2.025   6.310
 8060SOL    HW125079   0.277   1.935   6.350
 8060SOL    HW225080   0.293   2.097   6.369
 8061SOL     OW25081   0.453   0.525   2.679
 8061SOL    HW125082   0.533   0.498   2.626
 8061SOL    HW225083   0.372   0.477   2.644
 8062SOL     OW25084   3.936   5.619   5.226
 8062SOL    HW125085   3.853   5.627   5.281
 8062SOL    HW225086   3.918   5.557   5.149
 8063SOL     OW25087   2.748   1.049   3.333
 8063SOL    HW125088   2.694   1.080   3.411
 8063SOL    HW225089   2.695   1.060   3.249
 8064SOL     OW25090   6.045   2.585   0.273
 8064SOL    HW125091   6.120   2.537   0.229
 8064SOL    HW225092   6.073   2.616   0.364
 8065SOL     OW25093   3.287   6.507   4.143
 8065SOL    HW125094   3.279   6.600   4.179
 8065SOL    HW225095   3.357   6.457   4.194
 8066SOL     OW25096   6.391   0.091   4.656
 8066SOL    HW125097   6.305   0.045   4.676
 8066SOL    HW225098   6.459   0.023   4.629
 8067SOL     OW25099   4.666   2.309   3.642
 8067SOL    HW125100   4.615   2.242   3.696
 8067SOL    HW225101   4.712   2.263   3.566
 8068SOL     OW25102   0.381   4.623   0.909
 8068SOL    HW125103   0.477   4.635   0.882
 8068SOL    HW225104   0.377   4.600   1.006
 8069SOL     OW25105   2.267   5.049   1.912
 8069SOL    HW125106   2.307   4.970   1.959
 8069SOL    HW225107   2.256   5.124   1.977
 8070SOL     OW25108   4.156   2.840   0.390
 8070SOL    HW125109   4.109   2.811   0.307
 8070SOL    HW225110   4.107   2.807   0.470
 8071SOL     OW25111   3.284   6.437   4.955
 8071SOL    HW125112   3.231   6.468   4.877
 8071SOL    HW225113   3.339   6.358   4.929
 8072SOL     OW25114   3.085   2.039   0.718
 8072SOL    HW125115   3.055   2.074   0.629
 8072SOL    HW225116   3.080   2.112   0.786
 8073SOL     OW25117   2.707   5.525   5.223
 8073SOL    HW125118   2.663   5.438   5.204
 8073SOL    HW225119   2.660   5.598   5.172
 8074SOL     OW25120   2.784   1.205   1.126
 8074SOL    HW125121   2.795   1.301   1.154
 8074SOL    HW225122   2.866   1.154   1.153
 8075SOL     OW25123   0.319   0.265   0.102
 8075SOL    HW125124   0.373   0.248   0.020
 8075SOL    HW225125   0.381   0.285   0.179
 8076SOL     OW25126   6.642   0.373   5.430
 8076SOL    HW125127   6.672   0.417   5.515
 8076SOL    HW225128   6.656   0.436   5.354
 8077SOL     OW25129   4.050   6.427   2.647
 8077SOL    HW125130   3.985   6.421   2.571
 8077SOL    HW225131   4.003   6.460   2.728
 8078SOL     OW25132   0.746   1.697   1.153
 8078SOL    HW125133   0.677   1.670   1.221
 8078SOL    HW225134   0.714   1.778   1.103
 8079SOL     OW25135   6.724   1.723   3.624
 8079SOL    HW125136   6.806   1.776   3.603
 8079SOL    HW225137   6.748   1.649   3.687
 8080SOL     OW25138   0.983   2.450   2.510
 8080SOL    HW125139   0.893   2.406   2.508
 8080SOL    HW225140   1.042   2.407   2.441
 8081SOL     OW25141   6.189   5.558   6.132
 8081SOL    HW125142   6.281   5.548   6.168
 8081SOL    HW225143   6.190   5.548   6.032
 8082SOL     OW25144   3.666   0.730   2.155
 8082SOL    HW125145   3.591   0.752   2.218
 8082SOL    HW225146   3.637   0.655   2.095
 8083SOL     OW25147   5.160   2.420   4.105
 8083SOL    HW125148   5.202   2.334   4.078
 8083SOL    HW225149   5.078   2.402   4.159
 8084SOL     OW25150   2.461   0.839   6.719
 8084SOL    HW125151   2.467   0.830   6.619
 8084SOL    HW225152   2.365   0.849   6.746
 8085SOL     OW25153   6.220   6.044   2.831
 8085SOL    HW125154   6.287   5.970   2.823
 8085SOL    HW225155   6.130   6.009   2.807
 8086SOL     OW25156   0.343   1.159   1.278
 8086SOL    HW125157   0.390   1.116   1.201
 8086SOL    HW225158   0.322   1.254   1.255
 8087SOL     OW25159   1.974   0.786   6.573
 8087SOL    HW125160   2.008   0.714   6.633
 8087SOL    HW225161   1.947   0.865   6.628
 8088SOL     OW25162   5.947   0.325   0.011
 8088SOL    HW125163   5.906   0.342   0.100
 8088SOL    HW225164   6.033   0.376   0.002
 8089SOL     OW25165   5.922   3.179   6.740
 8089SOL    HW125166   5.828   3.185   6.708
 8089SOL    HW225167   5.934   3.096   6.794
 8090SOL     OW25168   3.618   0.992   6.365
 8090SOL    HW125169   3.706   0.967   6.324
 8090SOL    HW225170   3.595   0.927   6.438
 8091SOL     OW25171   1.189   3.956   5.411
 8091SOL    HW125172   1.215   3.864   5.381
 8091SOL    HW225173   1.245   3.982   5.490
 8092SOL     OW25174   4.869   2.052   5.405
 8092SOL    HW125175   4.790   2.111   5.391
 8092SOL    HW225176   4.876   1.987   5.330
 8093SOL     OW25177   2.848   5.660   3.435
 8093SOL    HW125178   2.794   5.588   3.478
 8093SOL    HW225179   2.847   5.648   3.336
 8094SOL     OW25180   0.507   3.041   5.170
 8094SOL    HW125181   0.554   3.125   5.141
 8094SOL    HW225182   0.408   3.057   5.171
 8095SOL     OW25183   0.824   4.204   5.145
 8095SOL    HW125184   0.909   4.211   5.198
 8095SOL    HW225185   0.789   4.296   5.127
 8096SOL     OW25186   2.364   0.868   2.440
 8096SOL    HW125187   2.449   0.827   2.475
 8096SOL    HW225188   2.325   0.809   2.370
 8097SOL     OW25189   4.076   6.865   4.292
 8097SOL    HW125190   4.104   6.771   4.312
 8097SOL    HW225191   4.107   6.890   4.200
 8098SOL     OW25192   2.781   6.329   3.802
 8098SOL    HW125193   2.776   6.356   3.706
 8098SOL    HW225194   2.840   6.393   3.851
 8099SOL     OW25195   4.402   6.645   4.579
 8099SOL    HW125196   4.418   6.683   4.487
 8099SOL    HW225197   4.479   6.588   4.605
 8100SOL     OW25198   6.854   1.320   6.968
 8100SOL    HW125199   6.841   1.406   6.919
 8100SOL    HW225200   6.950   1.294   6.966
 8101SOL     OW25201   1.429   5.869   0.773
 8101SOL    HW125202   1.501   5.936   0.755
 8101SOL    HW225203   1.343   5.902   0.734
 8102SOL     OW25204   0.803   4.189   3.090
 8102SOL    HW125205   0.733   4.185   3.162
 8102SOL    HW225206   0.766   4.237   3.011
 8103SOL     OW25207   3.884   0.373   1.900
 8103SOL    HW125208   3.891   0.440   1.974
 8103SOL    HW225209   3.964   0.313   1.901
 8104SOL     OW25210   1.354   0.548   6.129
 8104SOL    HW125211   1.412   0.553   6.047
 8104SOL    HW225212   1.403   0.587   6.207
 8105SOL     OW25213   0.022   3.001   2.274
 8105SOL    HW125214   0.095   3.025   2.210
 8105SOL    HW225215   0.041   3.042   2.363
 8106SOL     OW25216   2.675   6.328   3.157
 8106SOL    HW125217   2.731   6.279   3.089
 8106SOL    HW225218   2.727   6.405   3.193
 8107SOL     OW25219   1.460   5.804   3.998
 8107SOL    HW125220   1.413   5.862   4.064
 8107SOL    HW225221   1.517   5.737   4.046
 8108SOL     OW25222   6.953   2.482   6.646
 8108SOL    HW125223   6.991   2.545   6.578
 8108SOL    HW225224   6.899   2.412   6.599
 8109SOL     OW25225   0.211   3.450   6.712
 8109SOL    HW125226   0.172   3.388   6.645
 8109SOL    HW225227   0.266   3.520   6.665
 8110SOL     OW25228   3.862   5.317   2.090
 8110SOL    HW125229   3.903   5.252   2.153
 8110SOL    HW225230   3.934   5.358   2.033
 8111SOL     OW25231   4.968   1.082   4.440
 8111SOL    HW125232   5.043   1.127   4.390
 8111SOL    HW225233   4.920   1.150   4.495
 8112SOL     OW25234   2.495   2.511   4.353
 8112SOL    HW125235   2.403   2.489   4.384
 8112SOL    HW225236   2.556   2.516   4.432
 8113SOL     OW25237   6.960   3.428   0.827
 8113SOL    HW125238   0.024   3.433   0.865
 8113SOL    HW225239   6.950   3.344   0.774
 8114SOL     OW25240   1.823   3.690   2.414
 8114SOL    HW125241   1.794   3.626   2.343
 8114SOL    HW225242   1.922   3.702   2.410
 8115SOL     OW25243   3.234   6.881   6.172
 8115SOL    HW125244   3.331   6.899   6.190
 8115SOL    HW225245   3.205   6.800   6.222
 8116SOL     OW25246   4.101   4.457   0.161
 8116SOL    HW125247   4.135   4.391   0.228
 8116SOL    HW225248   4.029   4.415   0.106
 8117SOL     OW25249   2.071   0.214   3.176
 8117SOL    HW125250   2.157   0.262   3.195
 8117SOL    HW225251   2.074   0.179   3.082
 8118SOL     OW25252   5.462   3.852   5.792
 8118SOL    HW125253   5.449   3.771   5.849
 8118SOL    HW225254   5.431   3.833   5.699
 8119SOL     OW25255   5.382   6.553   6.239
 8119SOL    HW125256   5.373   6.653   6.245
 8119SOL    HW225257   5.444   6.530   6.165
 8120SOL     OW25258   3.115   4.742   1.034
 8120SOL    HW125259   3.059   4.816   0.998
 8120SOL    HW225260   3.079   4.712   1.122
 8121SOL     OW25261   0.805   4.671   1.196
 8121SOL    HW125262   0.871   4.746   1.206
 8121SOL    HW225263   0.722   4.706   1.152
 8122SOL     OW25264   0.529   4.733   2.721
 8122SOL    HW125265   0.519   4.755   2.818
 8122SOL    HW225266   0.534   4.634   2.710
 8123SOL     OW25267   0.293   1.891   6.753
 8123SOL    HW125268   0.345   1.948   6.689
 8123SOL    HW225269   0.287   1.798   6.717
 8124SOL     OW25270   5.430   5.670   2.909
 8124SOL    HW125271   5.482   5.755   2.913
 8124SOL    HW225272   5.335   5.688   2.937
 8125SOL     OW25273   1.398   1.103   3.301
 8125SOL    HW125274   1.353   1.192   3.300
 8125SOL    HW225275   1.429   1.079   3.209
 8126SOL     OW25276   5.390   4.893   3.417
 8126SOL    HW125277   5.451   4.914   3.494
 8126SOL    HW225278   5.443   4.850   3.344
 8127SOL     OW25279   3.132   3.144   6.392
 8127SOL    HW125280   3.053   3.109   6.443
 8127SOL    HW225281   3.111   3.144   6.295
 8128SOL     OW25282   3.039   2.087   2.118
 8128SOL    HW125283   3.046   2.077   2.217
 8128SOL    HW225284   2.987   2.170   2.096
 8129SOL     OW25285   3.721   1.872   6.472
 8129SOL    HW125286   3.710   1.891   6.374
 8129SOL    HW225287   3.669   1.939   6.524
 8130SOL     OW25288   0.766   5.551   6.475
 8130SOL    HW125289   0.803   5.643   6.464
 8130SOL    HW225290   0.735   5.540   6.569
 8131SOL     OW25291   3.014   1.659   1.920
 8131SOL    HW125292   3.027   1.694   2.012
 8131SOL    HW225293   2.974   1.730   1.862
 8132SOL     OW25294   5.631   6.892   5.169
 8132SOL    HW125295   5.731   6.885   5.169
 8132SOL    HW225296   5.600   6.935   5.084
 8133SOL     OW25297   3.471   5.398   2.764
 8133SOL    HW125298   3.523   5.422   2.845
 8133SOL    HW225299   3.413   5.474   2.736
 8134SOL     OW25300   0.184   1.747   6.451
 8134SOL    HW125301   0.225   1.694   6.525
 8134SOL    HW225302   0.140   1.686   6.386
 8135SOL     OW25303   2.459   0.822   1.664
 8135SOL    HW125304   2.550   0.852   1.692
 8135SOL    HW225305   2.411   0.898   1.620
 8136SOL     OW25306   5.014   5.273   2.194
 8136SOL    HW125307   4.980   5.247   2.103
 8136SOL    HW225308   4.967   5.356   2.224
 8137SOL     OW25309   2.949   0.658   4.728
 8137SOL    HW125310   3.034   0.710   4.725
 8137SOL    HW225311   2.912   0.660   4.821
 8138SOL     OW25312   5.235   1.222   1.564
 8138SOL    HW125313   5.238   1.128   1.527
 8138SOL    HW225314   5.320   1.269   1.542
 8139SOL     OW25315   0.326   0.942   1.678
 8139SOL    HW125316   0.333   0.932   1.778
 8139SOL    HW225317   0.312   0.853   1.636
 8140SOL     OW25318   5.523   0.158   6.026
 8140SOL    HW125319   5.610   0.111   6.042
 8140SOL    HW225320   5.516   0.183   5.930
 8141SOL     OW25321   4.293   5.327   5.952
 8141SOL    HW125322   4.287   5.322   6.052
 8141SOL    HW225323   4.231   5.398   5.919
 8142SOL     OW25324   6.655   5.287   0.740
 8142SOL    HW125325   6.721   5.326   0.804
 8142SOL    HW225326   6.611   5.361   0.688
 8143SOL     OW25327   6.573   4.254   0.414
 8143SOL    HW125328   6.569   4.169   0.466
 8143SOL    HW225329   6.638   4.317   0.457
 8144SOL     OW25330   5.872   5.997   6.785
 8144SOL    HW125331   5.920   5.910   6.773
 8144SOL    HW225332   5.901   6.040   6.870
 8145SOL     OW25333   5.262   6.036   1.439
 8145SOL    HW125334   5.232   6.070   1.349
 8145SOL    HW225335   5.358   6.011   1.434
 8146SOL     OW25336   3.607   0.992   5.096
 8146SOL    HW125337   3.571   0.899   5.085
 8146SOL    HW225338   3.707   0.989   5.099
 8147SOL     OW25339   5.848   2.557   3.222
 8147SOL    HW125340   5.858   2.585   3.318
 8147SOL    HW225341   5.790   2.475   3.217
 8148SOL     OW25342   5.541   4.152   1.994
 8148SOL    HW125343   5.481   4.188   1.922
 8148SOL    HW225344   5.515   4.058   2.015
 8149SOL     OW25345   2.409   5.774   2.136
 8149SOL    HW125346   2.482   5.733   2.190
 8149SOL    HW225347   2.350   5.828   2.196
 8150SOL     OW25348   0.109   5.034   6.989
 8150SOL    HW125349   0.193   5.024   0.014
 8150SOL    HW225350   0.119   5.109   6.924
 8151SOL     OW25351   6.662   2.284   2.520
 8151SOL    HW125352   6.579   2.309   2.569
 8151SOL    HW225353   6.721   2.228   2.578
 8152SOL     OW25354   0.784   2.366   2.958
 8152SOL    HW125355   0.884   2.370   2.952
 8152SOL    HW225356   0.745   2.454   2.931
 8153SOL     OW25357   3.835   0.661   3.040
 8153SOL    HW125358   3.899   0.586   3.056
 8153SOL    HW225359   3.754   0.625   2.994
 8154SOL     OW25360   2.965   6.138   3.601
 8154SOL    HW125361   2.915   6.162   3.684
 8154SOL    HW225362   3.048   6.088   3.626
 8155SOL     OW25363   2.673   3.444   1.854
 8155SOL    HW125364   2.695   3.380   1.781
 8155SOL    HW225365   2.575   3.443   1.872
 8156SOL     OW25366   5.273   6.860   6.146
 8156SOL    HW125367   5.216   6.809   6.081
 8156SOL    HW225368   5.216   6.897   6.219
 8157SOL     OW25369   5.971   5.682   6.244
 8157SOL    HW125370   6.058   5.634   6.231
 8157SOL    HW225371   5.907   5.653   6.173
 8158SOL     OW25372   0.315   5.657   0.805
 8158SOL    HW125373   0.292   5.585   0.870
 8158SOL    HW225374   0.232   5.699   0.770
 8159SOL     OW25375   3.036   6.056   2.493
 8159SOL    HW125376   3.118   6.047   2.436
 8159SOL    HW225377   2.985   6.137   2.465
 8160SOL     OW25378   4.413   1.809   1.567
 8160SOL    HW125379   4.359   1.893   1.558
 8160SOL    HW225380   4.421   1.766   1.477
 8161SOL     OW25381   5.073   1.102   0.586
 8161SOL    HW125382   5.008   1.092   0.662
 8161SOL    HW225383   5.076   1.017   0.533
 8162SOL     OW25384   6.251   7.012   6.376
 8162SOL    HW125385   6.299   0.013   6.459
 8162SOL    HW225386   6.270   0.049   6.303
 8163SOL     OW25387   2.225   4.135   5.797
 8163SOL    HW125388   2.197   4.066   5.863
 8163SOL    HW225389   2.300   4.099   5.740
 8164SOL     OW25390   5.840   3.965   0.646
 8164SOL    HW125391   5.862   4.060   0.668
 8164SOL    HW225392   5.876   3.943   0.555
 8165SOL     OW25393   1.169   4.642   6.856
 8165SOL    HW125394   1.256   4.666   6.899
 8165SOL    HW225395   1.178   4.651   6.756
 8166SOL     OW25396   2.543   1.212   2.157
 8166SOL    HW125397   2.448   1.239   2.172
 8166SOL    HW225398   2.577   1.257   2.074
 8167SOL     OW25399   5.664   1.253   4.100
 8167SOL    HW125400   5.737   1.234   4.166
 8167SOL    HW225401   5.688   1.335   4.047
 8168SOL     OW25402   3.126   1.240   2.660
 8168SOL    HW125403   3.202   1.229   2.725
 8168SOL    HW225404   3.134   1.328   2.614
 8169SOL     OW25405   4.898   3.179   1.289
 8169SOL    HW125406   4.846   3.209   1.370
 8169SOL    HW225407   4.838   3.125   1.230
 8170SOL     OW25408   1.684   5.996   3.164
 8170SOL    HW125409   1.685   6.083   3.114
 8170SOL    HW225410   1.772   5.950   3.151
 8171SOL     OW25411   0.975   1.624   6.657
 8171SOL    HW125412   1.022   1.543   6.692
 8171SOL    HW225413   1.027   1.662   6.580
 8172SOL     OW25414   0.516   0.521   1.176
 8172SOL    HW125415   0.501   0.449   1.244
 8172SOL    HW225416   0.613   0.527   1.154
 8173SOL     OW25417   3.403   2.004   0.535
 8173SOL    HW125418   3.394   2.084   0.594
 8173SOL    HW225419   3.480   1.948   0.566
 8174SOL     OW25420   5.167   1.669   1.410
 8174SOL    HW125421   5.253   1.719   1.415
 8174SOL    HW225422   5.117   1.682   1.496
 8175SOL     OW25423   0.422   2.879   6.144
 8175SOL    HW125424   0.330   2.849   6.169
 8175SOL    HW225425   0.458   2.941   6.214
 8176SOL     OW25426   2.920   5.982   1.874
 8176SOL    HW125427   2.881   5.891   1.892
 8176SOL    HW225428   2.870   6.050   1.927
 8177SOL     OW25429   1.465   6.001   3.807
 8177SOL    HW125430   1.470   5.920   3.865
 8177SOL    HW225431   1.456   6.083   3.864
 8178SOL     OW25432   1.485   0.118   6.503
 8178SOL    HW125433   1.459   0.214   6.492
 8178SOL    HW225434   1.474   0.091   6.598
 8179SOL     OW25435   3.507   3.377   0.353
 8179SOL    HW125436   3.501   3.384   0.453
 8179SOL    HW225437   3.422   3.339   0.317
 8180SOL     OW25438   6.252   0.097   3.824
 8180SOL    HW125439   6.204   0.011   3.807
 8180SOL    HW225440   6.225   0.132   3.914
 8181SOL     OW25441   2.314   1.436   2.989
 8181SOL    HW125442   2.399   1.475   3.025
 8181SOL    HW225443   2.330   1.400   2.897
 8182SOL     OW25444   3.743   1.616   6.627
 8182SOL    HW125445   3.741   1.706   6.584
 8182SOL    HW225446   3.661   1.564   6.600
 8183SOL     OW25447   0.629   2.829   5.054
 8183SOL    HW125448   0.578   2.902   5.100
 8183SOL    HW225449   0.595   2.818   4.961
 8184SOL     OW25450   5.664   1.486   5.763
 8184SOL    HW125451   5.754   1.522   5.739
 8184SOL    HW225452   5.641   1.513   5.856
 8185SOL     OW25453   2.849   0.535   0.376
 8185SOL    HW125454   2.868   0.573   0.466
 8185SOL    HW225455   2.862   0.436   0.377
 8186SOL     OW25456   3.147   6.476   6.248
 8186SOL    HW125457   3.135   6.499   6.345
 8186SOL    HW225458   3.244   6.484   6.224
 8187SOL     OW25459   1.315   1.825   5.009
 8187SOL    HW125460   1.306   1.919   5.042
 8187SOL    HW225461   1.324   1.764   5.088
 8188SOL     OW25462   5.113   1.767   2.245
 8188SOL    HW125463   5.203   1.794   2.280
 8188SOL    HW225464   5.045   1.834   2.274
 8189SOL     OW25465   5.101   4.240   2.040
 8189SOL    HW125466   5.066   4.221   2.132
 8189SOL    HW225467   5.081   4.335   2.016
 8190SOL     OW25468   5.008   4.880   4.141
 8190SOL    HW125469   4.938   4.951   4.129
 8190SOL    HW225470   5.092   4.922   4.175
 8191SOL     OW25471   1.926   5.187   3.411
 8191SOL    HW125472   1.932   5.277   3.455
 8191SOL    HW225473   1.863   5.193   3.333
 8192SOL     OW25474   2.762   5.756   0.215
 8192SOL    HW125475   2.828   5.680   0.218
 8192SOL    HW225476   2.769   5.809   0.300
 8193SOL     OW25477   5.660   6.695   4.771
 8193SOL    HW125478   5.645   6.679   4.869
 8193SOL    HW225479   5.750   6.738   4.759
 8194SOL     OW25480   6.338   2.593   6.780
 8194SOL    HW125481   6.255   2.582   6.835
 8194SOL    HW225482   6.355   2.690   6.764
 8195SOL     OW25483   0.397   0.784   0.712
 8195SOL    HW125484   0.384   0.704   0.771
 8195SOL    HW225485   0.414   0.754   0.618
 8196SOL     OW25486   3.818   6.707   5.379
 8196SOL    HW125487   3.842   6.631   5.320
 8196SOL    HW225488   3.893   6.725   5.443
 8197SOL     OW25489   5.894   1.552   6.262
 8197SOL    HW125490   5.836   1.615   6.209
 8197SOL    HW225491   5.983   1.543   6.217
 8198SOL     OW25492   3.408   6.510   2.042
 8198SOL    HW125493   3.455   6.427   2.072
 8198SOL    HW225494   3.352   6.547   2.116
 8199SOL     OW25495   0.047   4.019   0.207
 8199SOL    HW125496   0.111   3.948   0.236
 8199SOL    HW225497   0.091   4.080   0.141
 8200SOL     OW25498   4.463   4.677   1.419
 8200SOL    HW125499   4.501   4.704   1.330
 8200SOL    HW225500   4.527   4.702   1.491
 8201SOL     OW25501   5.265   0.747   4.487
 8201SOL    HW125502   5.352   0.796   4.492
 8201SOL    HW225503   5.206   0.792   4.420
 8202SOL     OW25504   1.370   5.223   4.320
 8202SOL    HW125505   1.275   5.198   4.298
 8202SOL    HW225506   1.404   5.162   4.392
 8203SOL     OW25507   5.015   3.643   0.864
 8203SOL    HW125508   5.021   3.619   0.767
 8203SOL    HW225509   5.097   3.613   0.911
 8204SOL     OW25510   3.476   6.396   1.061
 8204SOL    HW125511   3.542   6.467   1.085
 8204SOL    HW225512   3.384   6.436   1.059
 8205SOL     OW25513   5.461   5.036   1.455
 8205SOL    HW125514   5.485   5.072   1.545
 8205SOL    HW225515   5.537   4.979   1.421
 8206SOL     OW25516   3.142   2.712   5.946
 8206SOL    HW125517   3.057   2.719   5.893
 8206SOL    HW225518   3.143   2.783   6.017
 8207SOL     OW25519   3.397   4.638   5.309
 8207SOL    HW125520   3.301   4.665   5.294
 8207SOL    HW225521   3.457   4.704   5.263
 8208SOL     OW25522   2.837   6.367   1.685
 8208SOL    HW125523   2.895   6.306   1.632
 8208SOL    HW225524   2.749   6.379   1.639
 8209SOL     OW25525   1.461   1.206   5.228
 8209SOL    HW125526   1.372   1.163   5.210
 8209SOL    HW225527   1.476   1.280   5.162
 8210SOL     OW25528   2.882   0.951   0.504
 8210SOL    HW125529   2.859   1.046   0.526
 8210SOL    HW225530   2.875   0.937   0.405
 8211SOL     OW25531   3.560   4.147   4.754
 8211SOL    HW125532   3.551   4.209   4.832
 8211SOL    HW225533   3.608   4.064   4.783
 8212SOL     OW25534   2.589   0.229   0.573
 8212SOL    HW125535   2.578   0.155   0.640
 8212SOL    HW225536   2.538   0.309   0.603
 8213SOL     OW25537   4.347   5.105   3.538
 8213SOL    HW125538   4.316   5.065   3.624
 8213SOL    HW225539   4.404   5.039   3.489
 8214SOL     OW25540   2.606   5.916   3.999
 8214SOL    HW125541   2.569   5.924   3.907
 8214SOL    HW225542   2.538   5.872   4.059
 8215SOL     OW25543   4.541   6.368   6.976
 8215SOL    HW125544   4.543   6.391   6.879
 8215SOL    HW225545   4.618   6.307   6.998
 8216SOL     OW25546   5.228   6.743   2.540
 8216SOL    HW125547   5.135   6.735   2.576
 8216SOL    HW225548   5.247   6.839   2.518
 8217SOL     OW25549   2.300   4.248   2.608
 8217SOL    HW125550   2.324   4.181   2.678
 8217SOL    HW225551   2.247   4.204   2.535
 8218SOL     OW25552   1.937   6.901   5.031
 8218SOL    HW125553   1.874   6.838   4.986
 8218SOL    HW225554   1.927   6.992   4.991
 8219SOL     OW25555   3.073   3.967   1.565
 8219SOL    HW125556   3.168   3.992   1.585
 8219SOL    HW225557   3.014   3.999   1.638
 8220SOL     OW25558   3.676   4.237   5.283
 8220SOL    HW125559   3.691   4.316   5.343
 8220SOL    HW225560   3.704   4.153   5.331
 8221SOL     OW25561   5.759   4.060   3.281
 8221SOL    HW125562   5.821   4.078   3.357
 8221SOL    HW225563   5.781   4.121   3.205
 8222SOL     OW25564   6.073   3.016   1.189
 8222SOL    HW125565   6.104   2.994   1.282
 8222SOL    HW225566   6.077   2.934   1.132
 8223SOL     OW25567   0.154   5.293   5.248
 8223SOL    HW125568   0.080   5.259   5.189
 8223SOL    HW225569   0.231   5.319   5.190
 8224SOL     OW25570   4.880   1.514   0.682
 8224SOL    HW125571   4.877   1.587   0.614
 8224SOL    HW225572   4.786   1.489   0.707
 8225SOL     OW25573   3.849   0.633   0.405
 8225SOL    HW125574   3.863   0.537   0.381
 8225SOL    HW225575   3.911   0.658   0.479
 8226SOL     OW25576   3.577   0.873   0.673
 8226SOL    HW125577   3.619   0.801   0.728
 8226SOL    HW225578   3.477   0.867   0.680
 8227SOL     OW25579   5.720   1.621   2.716
 8227SOL    HW125580   5.649   1.555   2.693
 8227SOL    HW225581   5.727   1.629   2.815
 8228SOL     OW25582   0.953   0.974   5.353
 8228SOL    HW125583   0.914   1.063   5.378
 8228SOL    HW225584   0.954   0.965   5.253
 8229SOL     OW25585   3.917   4.898   0.880
 8229SOL    HW125586   3.993   4.946   0.923
 8229SOL    HW225587   3.952   4.826   0.820
 8230SOL     OW25588   4.291   0.275   5.386
 8230SOL    HW125589   4.296   0.374   5.396
 8230SOL    HW225590   4.198   0.247   5.363
 8231SOL     OW25591   3.418   1.441   1.929
 8231SOL    HW125592   3.380   1.348   1.935
 8231SOL    HW225593   3.442   1.473   2.021
 8232SOL     OW25594   4.587   1.288   2.264
 8232SOL    HW125595   4.628   1.226   2.197
 8232SOL    HW225596   4.521   1.348   2.218
 8233SOL     OW25597   0.613   0.894   5.876
 8233SOL    HW125598   0.680   0.840   5.928
 8233SOL    HW225599   0.594   0.980   5.924
 8234SOL     OW25600   2.879   3.548   0.137
 8234SOL    HW125601   2.960   3.597   0.167
 8234SOL    HW225602   2.905   3.473   0.077
 8235SOL     OW25603   6.610   4.864   6.790
 8235SOL    HW125604   6.675   4.857   6.714
 8235SOL    HW225605   6.659   4.874   6.876
 8236SOL     OW25606   0.224   5.927   5.840
 8236SOL    HW125607   0.148   5.889   5.788
 8236SOL    HW225608   0.304   5.866   5.831
 8237SOL     OW25609   4.539   5.848   6.650
 8237SOL    HW125610   4.628   5.854   6.694
 8237SOL    HW225611   4.469   5.830   6.719
 8238SOL     OW25612   1.997   5.667   0.143
 8238SOL    HW125613   2.028   5.690   0.051
 8238SOL    HW225614   1.964   5.750   0.189
 8239SOL     OW25615   0.763   1.502   4.780
 8239SOL    HW125616   0.757   1.525   4.683
 8239SOL    HW225617   0.672   1.507   4.821
 8240SOL     OW25618   3.385   2.946   3.529
 8240SOL    HW125619   3.359   2.945   3.626
 8240SOL    HW225620   3.483   2.929   3.521
 8241SOL     OW25621   1.459   3.642   6.687
 8241SOL    HW125622   1.545   3.690   6.675
 8241SOL    HW225623   1.422   3.616   6.598
 8242SOL     OW25624   0.869   3.933   4.633
 8242SOL    HW125625   0.840   3.970   4.545
 8242SOL    HW225626   0.947   3.872   4.619
 8243SOL     OW25627   0.488   4.657   5.864
 8243SOL    HW125628   0.586   4.653   5.846
 8243SOL    HW225629   0.441   4.589   5.808
 8244SOL     OW25630   0.722   0.352   3.357
 8244SOL    HW125631   0.627   0.320   3.354
 8244SOL    HW225632   0.782   0.285   3.313
 8245SOL     OW25633   4.780   1.430   3.789
 8245SOL    HW125634   4.809   1.362   3.722
 8245SOL    HW225635   4.699   1.397   3.838
 8246SOL     OW25636   1.134   4.238   6.559
 8246SOL    HW125637   1.141   4.139   6.568
 8246SOL    HW225638   1.151   4.282   6.648
 8247SOL     OW25639   3.114   4.924   3.794
 8247SOL    HW125640   3.043   4.890   3.734
 8247SOL    HW225641   3.077   4.938   3.886
 8248SOL     OW25642   1.024   5.726   3.288
 8248SOL    HW125643   1.014   5.809   3.233
 8248SOL    HW225644   1.082   5.660   3.239
 8249SOL     OW25645   2.215   2.336   5.300
 8249SOL    HW125646   2.154   2.258   5.317
 8249SOL    HW225647   2.180   2.417   5.348
 8250SOL     OW25648   2.566   1.702   0.680
 8250SOL    HW125649   2.550   1.737   0.588
 8250SOL    HW225650   2.655   1.656   0.683
 8251SOL     OW25651   6.736   2.023   4.711
 8251SOL    HW125652   6.670   2.080   4.662
 8251SOL    HW225653   6.822   2.020   4.661
 8252SOL     OW25654   2.411   2.294   6.800
 8252SOL    HW125655   2.333   2.358   6.798
 8252SOL    HW225656   2.443   2.277   6.707
 8253SOL     OW25657   3.416   5.601   6.219
 8253SOL    HW125658   3.383   5.572   6.308
 8253SOL    HW225659   3.359   5.562   6.147
 8254SOL     OW25660   6.069   4.830   6.806
 8254SOL    HW125661   6.143   4.773   6.772
 8254SOL    HW225662   5.981   4.789   6.782
 8255SOL     OW25663   0.535   0.051   6.185
 8255SOL    HW125664   0.620   0.083   6.227
 8255SOL    HW225665   0.513   6.988   6.218
 8256SOL     OW25666   1.090   6.481   2.560
 8256SOL    HW125667   1.164   6.545   2.540
 8256SOL    HW225668   1.048   6.450   2.475
 8257SOL     OW25669   5.689   4.313   4.216
 8257SOL    HW125670   5.771   4.315   4.272
 8257SOL    HW225671   5.650   4.405   4.210
 8258SOL     OW25672   5.696   2.678   1.658
 8258SOL    HW125673   5.750   2.621   1.721
 8258SOL    HW225674   5.715   2.650   1.564
 8259SOL     OW25675   4.252   2.272   4.432
 8259SOL    HW125676   4.234   2.295   4.528
 8259SOL    HW225677   4.201   2.190   4.407
 8260SOL     OW25678   2.377   6.952   0.177
 8260SOL    HW125679   2.365   6.964   0.275
 8260SOL    HW225680   2.473   6.967   0.153
 8261SOL     OW25681   5.853   6.018   3.111
 8261SOL    HW125682   5.919   5.943   3.109
 8261SOL    HW225683   5.882   6.089   3.046
 8262SOL     OW25684   0.089   4.540   0.735
 8262SOL    HW125685   0.095   4.630   0.691
 8262SOL    HW225686   0.178   4.494   0.730
 8263SOL     OW25687   6.980   2.769   6.570
 8263SOL    HW125688   0.043   2.790   6.534
 8263SOL    HW225689   6.916   2.761   6.495
 8264SOL     OW25690   2.102   0.014   1.599
 8264SOL    HW125691   2.162   0.064   1.661
 8264SOL    HW225692   2.115   0.047   1.505
 8265SOL     OW25693   4.060   0.336   1.547
 8265SOL    HW125694   4.000   0.416   1.540
 8265SOL    HW225695   4.070   0.311   1.643
 8266SOL     OW25696   2.969   0.414   3.982
 8266SOL    HW125697   3.068   0.402   3.989
 8266SOL    HW225698   2.928   0.408   4.074
 8267SOL     OW25699   1.587   5.019   2.388
 8267SOL    HW125700   1.592   5.072   2.303
 8267SOL    HW225701   1.663   4.955   2.392
 8268SOL     OW25702   2.924   3.476   6.532
 8268SOL    HW125703   2.852   3.528   6.576
 8268SOL    HW225704   2.951   3.399   6.590
 8269SOL     OW25705   4.425   2.257   3.075
 8269SOL    HW125706   4.395   2.300   3.160
 8269SOL    HW225707   4.377   2.169   3.064
 8270SOL     OW25708   3.532   7.007   5.709
 8270SOL    HW125709   3.446   6.967   5.741
 8270SOL    HW225710   3.558   0.055   5.768
 8271SOL     OW25711   5.214   6.122   4.427
 8271SOL    HW125712   5.134   6.160   4.379
 8271SOL    HW225713   5.297   6.148   4.378
 8272SOL     OW25714   0.765   0.163   2.250
 8272SOL    HW125715   0.670   0.162   2.279
 8272SOL    HW225716   0.771   0.129   2.156
 8273SOL     OW25717   2.661   0.177   6.924
 8273SOL    HW125718   2.576   0.178   6.871
 8273SOL    HW225719   2.738   0.196   6.863
 8274SOL     OW25720   4.868   5.186   6.847
 8274SOL    HW125721   4.792   5.239   6.810
 8274SOL    HW225722   4.834   5.102   6.888
 8275SOL     OW25723   6.902   0.081   4.277
 8275SOL    HW125724   6.982   0.024   4.293
 8275SOL    HW225725   6.914   0.134   4.194
 8276SOL     OW25726   6.893   2.668   5.580
 8276SOL    HW125727   6.895   2.599   5.653
 8276SOL    HW225728   6.987   2.691   5.554
 8277SOL     OW25729   1.452   5.847   5.428
 8277SOL    HW125730   1.524   5.874   5.364
 8277SOL    HW225731   1.464   5.895   5.515
 8278SOL     OW25732   3.438   1.804   6.402
 8278SOL    HW125733   3.441   1.848   6.492
 8278SOL    HW225734   3.466   1.709   6.411
 8279SOL     OW25735   4.492   6.067   6.845
 8279SOL    HW125736   4.590   6.063   6.865
 8279SOL    HW225737   4.474   6.145   6.786
 8280SOL     OW25738   5.575   2.650   0.514
 8280SOL    HW125739   5.621   2.709   0.581
 8280SOL    HW225740   5.477   2.669   0.515
 8281SOL     OW25741   1.252   5.214   0.612
 8281SOL    HW125742   1.326   5.220   0.546
 8281SOL    HW225743   1.239   5.303   0.656
 8282SOL     OW25744   2.475   2.608   1.544
 8282SOL    HW125745   2.446   2.519   1.509
 8282SOL    HW225746   2.513   2.662   1.469
 8283SOL     OW25747   0.357   5.322   3.781
 8283SOL    HW125748   0.374   5.371   3.696
 8283SOL    HW225749   0.444   5.298   3.824
 8284SOL     OW25750   2.604   2.425   2.702
 8284SOL    HW125751   2.635   2.344   2.751
 8284SOL    HW225752   2.608   2.408   2.604
 8285SOL     OW25753   2.919   4.265   5.869
 8285SOL    HW125754   2.965   4.281   5.956
 8285SOL    HW225755   2.824   4.296   5.874
 8286SOL     OW25756   5.668   0.690   4.664
 8286SOL    HW125757   5.656   0.667   4.760
 8286SOL    HW225758   5.613   0.629   4.607
 8287SOL     OW25759   1.318   0.137   3.556
 8287SOL    HW125760   1.310   0.222   3.504
 8287SOL    HW225761   1.241   0.077   3.534
 8288SOL     OW25762   2.407   1.924   1.985
 8288SOL    HW125763   2.491   1.870   1.981
 8288SOL    HW225764   2.387   1.949   2.079
 8289SOL     OW25765   5.850   1.618   5.611
 8289SOL    HW125766   5.827   1.714   5.624
 8289SOL    HW225767   5.797   1.581   5.535
 8290SOL     OW25768   3.550   2.687   1.471
 8290SOL    HW125769   3.528   2.596   1.437
 8290SOL    HW225770   3.587   2.681   1.564
 8291SOL     OW25771   5.686   6.807   6.581
 8291SOL    HW125772   5.721   6.788   6.489
 8291SOL    HW225773   5.688   6.906   6.598
 8292SOL     OW25774   0.628   5.196   5.448
 8292SOL    HW125775   0.564   5.125   5.417
 8292SOL    HW225776   0.608   5.281   5.399
 8293SOL     OW25777   2.005   4.762   2.244
 8293SOL    HW125778   2.071   4.834   2.261
 8293SOL    HW225779   2.041   4.674   2.276
 8294SOL     OW25780   7.001   3.792   5.583
 8294SOL    HW125781   6.950   3.763   5.665
 8294SOL    HW225782   0.038   3.863   5.609
 8295SOL     OW25783   4.919   3.851   2.843
 8295SOL    HW125784   4.960   3.941   2.857
 8295SOL    HW225785   4.892   3.813   2.932
 8296SOL     OW25786   3.184   5.325   0.162
 8296SOL    HW125787   3.226   5.262   0.227
 8296SOL    HW225788   3.227   5.415   0.171
 8297SOL     OW25789   6.750   4.722   2.944
 8297SOL    HW125790   6.726   4.749   3.038
 8297SOL    HW225791   6.798   4.634   2.947
 8298SOL     OW25792   1.074   0.839   6.757
 8298SOL    HW125793   1.158   0.808   6.713
 8298SOL    HW225794   1.096   0.912   6.822
 8299SOL     OW25795   0.041   3.803   2.355
 8299SOL    HW125796   0.120   3.774   2.408
 8299SOL    HW225797   0.007   3.890   2.391
 8300SOL     OW25798   5.988   5.391   3.940
 8300SOL    HW125799   6.068   5.342   3.976
 8300SOL    HW225800   5.906   5.358   3.987
 8301SOL     OW25801   4.152   7.026   0.200
 8301SOL    HW125802   4.136   6.945   0.257
 8301SOL    HW225803   4.188   6.997   0.111
 8302SOL     OW25804   3.419   6.085   4.183
 8302SOL    HW125805   3.398   6.158   4.248
 8302SOL    HW225806   3.390   5.997   4.222
 8303SOL     OW25807   6.433   0.146   2.104
 8303SOL    HW125808   6.465   0.234   2.137
 8303SOL    HW225809   6.511   0.091   2.074
 8304SOL     OW25810   5.786   3.624   4.255
 8304SOL    HW125811   5.703   3.659   4.212
 8304SOL    HW225812   5.854   3.697   4.261
 8305SOL     OW25813   4.529   5.281   4.200
 8305SOL    HW125814   4.593   5.206   4.180
 8305SOL    HW225815   4.467   5.253   4.274
 8306SOL     OW25816   6.471   0.739   2.443
 8306SOL    HW125817   6.513   0.651   2.421
 8306SOL    HW225818   6.537   0.795   2.493
 8307SOL     OW25819   1.338   4.824   1.521
 8307SOL    HW125820   1.355   4.882   1.601
 8307SOL    HW225821   1.244   4.790   1.524
 8308SOL     OW25822   1.011   4.854   6.969
 8308SOL    HW125823   1.050   4.769   6.936
 8308SOL    HW225824   1.082   4.907   7.016
 8309SOL     OW25825   6.316   4.695   4.797
 8309SOL    HW125826   6.239   4.736   4.847
 8309SOL    HW225827   6.401   4.715   4.845
 8310SOL     OW25828   0.250   6.782   0.513
 8310SOL    HW125829   0.166   6.833   0.495
 8310SOL    HW225830   0.294   6.819   0.596
 8311SOL     OW25831   5.297   6.288   3.933
 8311SOL    HW125832   5.232   6.364   3.938
 8311SOL    HW225833   5.324   6.274   3.838
 8312SOL     OW25834   5.211   6.808   0.151
 8312SOL    HW125835   5.236   6.712   0.138
 8312SOL    HW225836   5.284   6.855   0.201
 8313SOL     OW25837   4.000   6.885   5.159
 8313SOL    HW125838   4.010   6.787   5.177
 8313SOL    HW225839   3.938   6.899   5.082
 8314SOL     OW25840   5.109   6.374   6.074
 8314SOL    HW125841   5.084   6.399   6.167
 8314SOL    HW225842   5.203   6.341   6.072
 8315SOL     OW25843   3.720   3.347   4.480
 8315SOL    HW125844   3.817   3.340   4.499
 8315SOL    HW225845   3.696   3.284   4.405
 8316SOL     OW25846   1.059   3.370   6.979
 8316SOL    HW125847   1.141   3.381   6.923
 8316SOL    HW225848   0.978   3.383   6.922
 8317SOL     OW25849   2.058   1.818   4.930
 8317SOL    HW125850   2.111   1.889   4.977
 8317SOL    HW225851   1.964   1.850   4.917
 8318SOL     OW25852   3.908   0.490   6.544
 8318SOL    HW125853   3.846   0.537   6.481
 8318SOL    HW225854   4.002   0.516   6.524
 8319SOL     OW25855   0.953   0.054   6.064
 8319SOL    HW125856   0.951   0.101   5.976
 8319SOL    HW225857   0.905   0.108   6.133
 8320SOL     OW25858   3.032   4.007   4.734
 8320SOL    HW125859   3.098   4.082   4.740
 8320SOL    HW225860   2.983   3.999   4.820
 8321SOL     OW25861   0.053   0.247   6.822
 8321SOL    HW125862   0.083   0.227   6.728
 8321SOL    HW225863   0.077   0.171   6.882
 8322SOL     OW25864   0.265   1.151   0.543
 8322SOL    HW125865   0.208   1.114   0.617
 8322SOL    HW225866   0.247   1.249   0.533
 8323SOL     OW25867   4.833   4.600   1.148
 8323SOL    HW125868   4.779   4.632   1.069
 8323SOL    HW225869   4.861   4.506   1.133
 8324SOL     OW25870   6.131   0.739   6.505
 8324SOL    HW125871   6.050   0.797   6.519
 8324SOL    HW225872   6.104   0.654   6.459
 8325SOL     OW25873   1.754   5.229   4.653
 8325SOL    HW125874   1.758   5.182   4.564
 8325SOL    HW225875   1.723   5.165   4.723
 8326SOL     OW25876   2.494   3.921   0.409
 8326SOL    HW125877   2.447   3.852   0.354
 8326SOL    HW225878   2.589   3.928   0.380
 8327SOL     OW25879   0.748   1.069   5.689
 8327SOL    HW125880   0.703   0.980   5.679
 8327SOL    HW225881   0.836   1.057   5.735
 8328SOL     OW25882   0.740   6.227   5.615
 8328SOL    HW125883   0.659   6.174   5.644
 8328SOL    HW225884   0.766   6.198   5.523
 8329SOL     OW25885   0.859   2.767   5.149
 8329SOL    HW125886   0.895   2.848   5.195
 8329SOL    HW225887   0.767   2.787   5.114
 8330SOL     OW25888   4.038   0.836   6.725
 8330SOL    HW125889   4.061   0.895   6.802
 8330SOL    HW225890   3.939   0.838   6.710
 8331SOL     OW25891   2.146   2.039   0.629
 8331SOL    HW125892   2.190   1.985   0.557
 8331SOL    HW225893   2.210   2.052   0.705
 8332SOL     OW25894   5.362   4.848   1.758
 8332SOL    HW125895   5.416   4.821   1.838
 8332SOL    HW225896   5.317   4.936   1.777
 8333SOL     OW25897   1.921   4.829   1.282
 8333SOL    HW125898   1.865   4.757   1.324
 8333SOL    HW225899   1.910   4.914   1.334
 8334SOL     OW25900   3.488   2.336   6.665
 8334SOL    HW125901   3.476   2.435   6.673
 8334SOL    HW225902   3.428   2.301   6.593
 8335SOL     OW25903   4.772   3.033   6.934
 8335SOL    HW125904   4.788   2.940   6.899
 8335SOL    HW225905   4.706   3.029   7.008
 8336SOL     OW25906   1.444   3.357   2.768
 8336SOL    HW125907   1.529   3.327   2.724
 8336SOL    HW225908   1.393   3.278   2.801
 8337SOL     OW25909   0.741   1.154   5.146
 8337SOL    HW125910   0.784   1.144   5.056
 8337SOL    HW225911   0.798   1.212   5.204
 8338SOL     OW25912   3.817   4.943   2.037
 8338SOL    HW125913   3.811   5.018   1.972
 8338SOL    HW225914   3.740   4.880   2.022
 8339SOL     OW25915   0.130   0.669   0.453
 8339SOL    HW125916   0.118   0.754   0.506
 8339SOL    HW225917   0.223   0.666   0.416
 8340SOL     OW25918   5.120   3.040   1.070
 8340SOL    HW125919   5.164   2.990   1.145
 8340SOL    HW225920   5.025   3.009   1.062
 8341SOL     OW25921   3.595   0.378   6.913
 8341SOL    HW125922   3.652   0.360   6.833
 8341SOL    HW225923   3.651   0.422   6.983
 8342SOL     OW25924   3.415   6.483   0.082
 8342SOL    HW125925   3.471   6.473   7.028
 8342SOL    HW225926   3.437   6.568   0.127
 8343SOL     OW25927   6.631   4.738   3.639
 8343SOL    HW125928   6.689   4.725   3.559
 8343SOL    HW225929   6.553   4.795   3.615
 8344SOL     OW25930   0.443   4.698   4.175
 8344SOL    HW125931   0.499   4.617   4.159
 8344SOL    HW225932   0.445   4.756   4.094
 8345SOL     OW25933   5.434   0.863   3.014
 8345SOL    HW125934   5.342   0.897   3.031
 8345SOL    HW225935   5.433   0.800   2.936
 8346SOL     OW25936   4.514   3.060   6.147
 8346SOL    HW125937   4.551   3.076   6.056
 8346SOL    HW225938   4.419   3.091   6.151
 8347SOL     OW25939   2.335   0.091   5.933
 8347SOL    HW125940   2.370   0.000   5.910
 8347SOL    HW225941   2.253   0.083   5.990
 8348SOL     OW25942   3.636   6.615   1.104
 8348SOL    HW125943   3.571   6.684   1.136
 8348SOL    HW225944   3.707   6.602   1.173
 8349SOL     OW25945   0.306   6.736   2.274
 8349SOL    HW125946   0.385   6.742   2.335
 8349SOL    HW225947   0.263   6.826   2.268
 8350SOL     OW25948   2.768   6.869   6.210
 8350SOL    HW125949   2.699   6.905   6.272
 8350SOL    HW225950   2.780   6.932   6.133
 8351SOL     OW25951   6.317   5.421   4.167
 8351SOL    HW125952   6.380   5.394   4.240
 8351SOL    HW225953   6.243   5.476   4.206
 8352SOL     OW25954   2.669   6.403   2.102
 8352SOL    HW125955   2.762   6.384   2.133
 8352SOL    HW225956   2.618   6.447   2.176
 8353SOL     OW25957   0.840   3.780   1.825
 8353SOL    HW125958   0.852   3.684   1.851
 8353SOL    HW225959   0.903   3.802   1.751
 8354SOL     OW25960   3.537   6.366   3.819
 8354SOL    HW125961   3.466   6.431   3.846
 8354SOL    HW225962   3.592   6.405   3.745
 8355SOL     OW25963   1.294   6.839   6.384
 8355SOL    HW125964   1.299   6.907   6.311
 8355SOL    HW225965   1.276   6.749   6.344
 8356SOL     OW25966   1.068   5.851   1.892
 8356SOL    HW125967   1.054   5.790   1.971
 8356SOL    HW225968   1.125   5.805   1.824
 8357SOL     OW25969   4.179   5.569   5.843
 8357SOL    HW125970   4.248   5.636   5.815
 8357SOL    HW225971   4.089   5.600   5.812
 8358SOL     OW25972   1.488   2.632   5.749
 8358SOL    HW125973   1.424   2.556   5.749
 8358SOL    HW225974   1.481   2.683   5.663
 8359SOL     OW25975   2.529   0.327   4.906
 8359SOL    HW125976   2.526   0.239   4.955
 8359SOL    HW225977   2.616   0.334   4.856
 8360SOL     OW25978   4.737   6.833   0.819
 8360SOL    HW125979   4.732   6.840   0.720
 8360SOL    HW225980   4.796   6.757   0.845
 8361SOL     OW25981   1.907   0.213   6.392
 8361SOL    HW125982   1.982   0.179   6.449
 8361SOL    HW225983   1.870   0.297   6.432
 8362SOL     OW25984   6.560   2.725   0.500
 8362SOL    HW125985   6.561   2.822   0.524
 8362SOL    HW225986   6.548   2.716   0.401
 8363SOL     OW25987   4.072   2.295   0.560
 8363SOL    HW125988   3.989   2.342   0.532
 8363SOL    HW225989   4.117   2.256   0.479
 8364SOL     OW25990   0.154   2.875   3.709
 8364SOL    HW125991   0.220   2.820   3.657
 8364SOL    HW225992   0.183   2.880   3.805
 8365SOL     OW25993   1.927   2.627   1.909
 8365SOL    HW125994   1.895   2.535   1.888
 8365SOL    HW225995   1.952   2.674   1.825
 8366SOL     OW25996   4.144   5.877   0.853
 8366SOL    HW125997   4.153   5.917   0.762
 8366SOL    HW225998   4.216   5.809   0.868
 8367SOL     OW25999   3.015   5.160   4.677
 8367SOL    HW126000   2.918   5.180   4.665
 8367SOL    HW226001   3.026   5.065   4.707
 8368SOL     OW26002   0.611   6.034   6.889
 8368SOL    HW126003   0.615   5.941   6.927
 8368SOL    HW226004   0.644   6.099   6.958
 8369SOL     OW26005   1.009   1.571   1.122
 8369SOL    HW126006   0.925   1.623   1.136
 8369SOL    HW226007   1.001   1.515   1.039
 8370SOL     OW26008   2.864   2.128   6.972
 8370SOL    HW126009   2.769   2.143   6.998
 8370SOL    HW226010   2.893   2.037   7.001
 8371SOL     OW26011   1.733   3.141   5.514
 8371SOL    HW126012   1.833   3.141   5.506
 8371SOL    HW226013   1.705   3.214   5.577
 8372SOL     OW26014   2.590   6.672   2.177
 8372SOL    HW126015   2.682   6.678   2.140
 8372SOL    HW226016   2.555   6.764   2.194
 8373SOL     OW26017   0.850   1.871   4.541
 8373SOL    HW126018   0.838   1.911   4.632
 8373SOL    HW226019   0.790   1.917   4.476
 8374SOL     OW26020   1.476   0.669   3.911
 8374SOL    HW126021   1.394   0.695   3.961
 8374SOL    HW226022   1.461   0.683   3.813
 8375SOL     OW26023   4.375   0.766   6.033
 8375SOL    HW126024   4.298   0.795   5.976
 8375SOL    HW226025   4.416   0.847   6.076
 8376SOL     OW26026   1.480   1.051   3.576
 8376SOL    HW126027   1.468   1.078   3.480
 8376SOL    HW226028   1.536   1.120   3.623
 8377SOL     OW26029   5.273   5.497   0.263
 8377SOL    HW126030   5.186   5.491   0.214
 8377SOL    HW226031   5.273   5.578   0.321
 8378SOL     OW26032   5.183   5.349   3.203
 8378SOL    HW126033   5.095   5.308   3.180
 8378SOL    HW226034   5.204   5.423   3.138
 8379SOL     OW26035   4.748   2.105   1.426
 8379SOL    HW126036   4.794   2.121   1.514
 8379SOL    HW226037   4.657   2.068   1.442
 8380SOL     OW26038   7.007   6.412   0.208
 8380SOL    HW126039   6.908   6.401   0.207
 8380SOL    HW226040   0.003   6.498   0.254
 8381SOL     OW26041   0.279   2.481   2.677
 8381SOL    HW126042   0.318   2.390   2.664
 8381SOL    HW226043   0.304   2.515   2.768
 8382SOL     OW26044   2.561   0.604   0.013
 8382SOL    HW126045   2.550   0.606   6.941
 8382SOL    HW226046   2.578   0.510   0.043
 8383SOL     OW26047   2.596   0.016   5.036
 8383SOL    HW126048   2.635   7.027   4.946
 8383SOL    HW226049   2.666   0.055   5.096
 8384SOL     OW26050   6.785   1.666   1.248
 8384SOL    HW126051   6.688   1.673   1.224
 8384SOL    HW226052   6.835   1.742   1.205
 8385SOL     OW26053   4.306   3.284   1.100
 8385SOL    HW126054   4.403   3.293   1.122
 8385SOL    HW226055   4.251   3.303   1.181
 8386SOL     OW26056   2.021   6.323   1.219
 8386SOL    HW126057   1.924   6.308   1.198
 8386SOL    HW226058   2.046   6.270   1.300
 8387SOL     OW26059   2.277   1.689   1.713
 8387SOL    HW126060   2.209   1.753   1.750
 8387SOL    HW226061   2.291   1.707   1.616
 8388SOL     OW26062   1.764   6.948   0.239
 8388SOL    HW126063   1.853   6.991   0.249
 8388SOL    HW226064   1.769   6.853   0.271
 8389SOL     OW26065   1.834   3.365   4.245
 8389SOL    HW126066   1.870   3.295   4.183
 8389SOL    HW226067   1.830   3.328   4.338
 8390SOL     OW26068   2.926   0.727   6.097
 8390SOL    HW126069   2.884   0.808   6.140
 8390SOL    HW226070   2.892   0.718   6.003
 8391SOL     OW26071   5.303   5.501   1.445
 8391SOL    HW126072   5.376   5.561   1.413
 8391SOL    HW226073   5.310   5.412   1.400
 8392SOL     OW26074   6.386   5.979   5.053
 8392SOL    HW126075   6.314   5.920   5.015
 8392SOL    HW226076   6.363   6.006   5.146
 8393SOL     OW26077   0.115   0.080   3.800
 8393SOL    HW126078   0.047   0.126   3.742
 8393SOL    HW226079   0.069   0.030   3.873
 8394SOL     OW26080   0.963   1.482   2.556
 8394SOL    HW126081   1.016   1.443   2.631
 8394SOL    HW226082   0.979   1.430   2.472
 8395SOL     OW26083   0.616   6.440   4.347
 8395SOL    HW126084   0.579   6.401   4.431
 8395SOL    HW226085   0.706   6.400   4.328
 8396SOL     OW26086   4.215   4.841   2.759
 8396SOL    HW126087   4.313   4.821   2.758
 8396SOL    HW226088   4.180   4.841   2.665
 8397SOL     OW26089   2.478   0.326   2.817
 8397SOL    HW126090   2.415   0.267   2.868
 8397SOL    HW226091   2.561   0.342   2.872
 8398SOL     OW26092   4.063   1.689   7.001
 8398SOL    HW126093   4.101   1.780   7.016
 8398SOL    HW226094   3.996   1.669   0.044
 8399SOL     OW26095   6.099   6.106   0.746
 8399SOL    HW126096   6.064   6.013   0.740
 8399SOL    HW226097   6.198   6.106   0.729
 8400SOL     OW26098   0.358   6.911   3.076
 8400SOL    HW126099   0.346   6.960   3.163
 8400SOL    HW226100   0.304   6.828   3.077
 8401SOL     OW26101   4.268   3.032   5.770
 8401SOL    HW126102   4.221   3.116   5.744
 8401SOL    HW226103   4.342   3.054   5.834
 8402SOL     OW26104   3.183   1.848   5.619
 8402SOL    HW126105   3.265   1.797   5.592
 8402SOL    HW226106   3.202   1.904   5.699
 8403SOL     OW26107   0.556   1.285   3.400
 8403SOL    HW126108   0.649   1.316   3.378
 8403SOL    HW226109   0.522   1.228   3.326
 8404SOL     OW26110   5.766   6.755   6.327
 8404SOL    HW126111   5.839   6.726   6.264
 8404SOL    HW226112   5.681   6.764   6.276
 8405SOL     OW26113   2.022   2.104   6.968
 8405SOL    HW126114   2.111   2.105   7.014
 8405SOL    HW226115   1.952   2.070   0.002
 8406SOL     OW26116   4.534   1.478   0.564
 8406SOL    HW126117   4.520   1.574   0.588
 8406SOL    HW226118   4.476   1.420   0.623
 8407SOL     OW26119   5.606   4.963   4.331
 8407SOL    HW126120   5.695   4.986   4.370
 8407SOL    HW226121   5.568   5.043   4.286
 8408SOL     OW26122   5.398   0.281   3.870
 8408SOL    HW126123   5.452   0.333   3.804
 8408SOL    HW226124   5.422   0.311   3.963
 8409SOL     OW26125   0.430   2.224   3.719
 8409SOL    HW126126   0.404   2.236   3.623
 8409SOL    HW226127   0.397   2.302   3.772
 8410SOL     OW26128   4.390   0.964   1.308
 8410SOL    HW126129   4.394   1.004   1.216
 8410SOL    HW226130   4.401   1.035   1.377
 8411SOL     OW26131   1.438   5.377   3.529
 8411SOL    HW126132   1.431   5.296   3.470
 8411SOL    HW226133   1.359   5.436   3.514
 8412SOL     OW26134   4.528   1.937   1.031
 8412SOL    HW126135   4.622   1.904   1.033
 8412SOL    HW226136   4.494   1.936   0.936
 8413SOL     OW26137   4.179   4.994   0.648
 8413SOL    HW126138   4.207   4.900   0.665
 8413SOL    HW226139   4.127   4.999   0.563
 8414SOL     OW26140   3.834   0.629   2.605
 8414SOL    HW126141   3.846   0.533   2.631
 8414SOL    HW226142   3.923   0.673   2.594
 8415SOL     OW26143   0.279   5.047   3.668
 8415SOL    HW126144   0.283   5.084   3.576
 8415SOL    HW226145   0.333   5.104   3.730
 8416SOL     OW26146   5.002   4.292   2.751
 8416SOL    HW126147   4.925   4.350   2.723
 8416SOL    HW226148   5.025   4.229   2.677
 8417SOL     OW26149   2.193   6.051   5.421
 8417SOL    HW126150   2.119   5.997   5.381
 8417SOL    HW226151   2.195   6.141   5.379
 8418SOL     OW26152   5.367   5.250   1.904
 8418SOL    HW126153   5.348   5.195   1.985
 8418SOL    HW226154   5.285   5.256   1.848
 8419SOL     OW26155   4.519   0.741   1.980
 8419SOL    HW126156   4.462   0.810   1.935
 8419SOL    HW226157   4.509   0.654   1.932
 8420SOL     OW26158   3.914   6.743   0.749
 8420SOL    HW126159   3.842   6.674   0.754
 8420SOL    HW226160   3.957   6.753   0.838
 8421SOL     OW26161   2.786   6.583   1.076
 8421SOL    HW126162   2.776   6.561   1.173
 8421SOL    HW226163   2.712   6.643   1.047
 8422SOL     OW26164   5.581   6.156   1.025
 8422SOL    HW126165   5.610   6.114   1.111
 8422SOL    HW226166   5.650   6.221   0.994
 8423SOL     OW26167   3.656   4.882   6.762
 8423SOL    HW126168   3.703   4.843   6.682
 8423SOL    HW226169   3.576   4.825   6.784
 8424SOL     OW26170   3.126   2.199   2.643
 8424SOL    HW126171   3.101   2.252   2.724
 8424SOL    HW226172   3.219   2.162   2.655
 8425SOL     OW26173   7.010   5.491   0.842
 8425SOL    HW126174   0.008   5.452   0.930
 8425SOL    HW226175   7.025   5.422   0.770
 8426SOL     OW26176   3.706   2.974   3.531
 8426SOL    HW126177   3.770   3.045   3.560
 8426SOL    HW226178   3.722   2.951   3.435
 8427SOL     OW26179   1.726   4.122   5.739
 8427SOL    HW126180   1.684   4.090   5.823
 8427SOL    HW226181   1.812   4.168   5.760
 8428SOL     OW26182   6.826   4.508   2.256
 8428SOL    HW126183   6.819   4.584   2.320
 8428SOL    HW226184   6.744   4.504   2.199
 8429SOL     OW26185   2.163   4.508   4.658
 8429SOL    HW126186   2.103   4.531   4.581
 8429SOL    HW226187   2.223   4.432   4.633
 8430SOL     OW26188   4.460   5.360   2.908
 8430SOL    HW126189   4.553   5.341   2.937
 8430SOL    HW226190   4.397   5.342   2.983
 8431SOL     OW26191   2.343   5.238   1.488
 8431SOL    HW126192   2.429   5.232   1.438
 8431SOL    HW226193   2.360   5.223   1.586
 8432SOL     OW26194   3.945   5.266   5.807
 8432SOL    HW126195   4.002   5.185   5.817
 8432SOL    HW226196   3.921   5.301   5.898
 8433SOL     OW26197   0.896   2.968   6.814
 8433SOL    HW126198   0.827   2.981   6.885
 8433SOL    HW226199   0.852   2.966   6.724
 8434SOL     OW26200   3.037   6.731   5.381
 8434SOL    HW126201   2.954   6.714   5.433
 8434SOL    HW226202   3.111   6.758   5.442
 8435SOL     OW26203   5.021   1.700   1.654
 8435SOL    HW126204   4.927   1.689   1.686
 8435SOL    HW226205   5.047   1.797   1.661
 8436SOL     OW26206   3.864   6.588   3.637
 8436SOL    HW126207   3.951   6.546   3.610
 8436SOL    HW226208   3.880   6.678   3.677
 8437SOL     OW26209   1.302   0.427   1.726
 8437SOL    HW126210   1.326   0.445   1.821
 8437SOL    HW226211   1.221   0.480   1.702
 8438SOL     OW26212   2.922   4.783   2.448
 8438SOL    HW126213   2.897   4.766   2.543
 8438SOL    HW226214   2.874   4.865   2.414
 8439SOL     OW26215   6.863   6.035   1.249
 8439SOL    HW126216   6.880   5.954   1.306
 8439SOL    HW226217   6.948   6.088   1.241
 8440SOL     OW26218   6.923   0.897   2.727
 8440SOL    HW126219   7.022   0.895   2.744
 8440SOL    HW226220   6.875   0.883   2.813
 8441SOL     OW26221   5.855   6.135   0.819
 8441SOL    HW126222   5.947   6.116   0.786
 8441SOL    HW226223   5.790   6.119   0.744
 8442SOL     OW26224   4.000   3.077   6.881
 8442SOL    HW126225   3.907   3.103   6.907
 8442SOL    HW226226   4.001   3.049   6.785
 8443SOL     OW26227   1.466   6.864   3.130
 8443SOL    HW126228   1.395   6.801   3.097
 8443SOL    HW226229   1.427   6.956   3.139
 8444SOL     OW26230   3.216   6.182   3.244
 8444SOL    HW126231   3.215   6.120   3.322
 8444SOL    HW226232   3.152   6.258   3.261
 8445SOL     OW26233   2.933   5.193   2.229
 8445SOL    HW126234   3.009   5.190   2.294
 8445SOL    HW226235   2.968   5.182   2.136
 8446SOL     OW26236   4.907   5.494   1.658
 8446SOL    HW126237   4.960   5.579   1.646
 8446SOL    HW226238   4.930   5.430   1.585
 8447SOL     OW26239   5.817   2.226   2.580
 8447SOL    HW126240   5.814   2.256   2.485
 8447SOL    HW226241   5.735   2.259   2.628
 8448SOL     OW26242   0.171   4.134   5.495
 8448SOL    HW126243   0.244   4.194   5.462
 8448SOL    HW226244   0.204   4.083   5.574
 8449SOL     OW26245   0.191   3.159   4.040
 8449SOL    HW126246   0.268   3.135   3.982
 8449SOL    HW226247   0.106   3.127   3.998
 8450SOL     OW26248   2.186   5.921   2.288
 8450SOL    HW126249   2.182   5.978   2.371
 8450SOL    HW226250   2.170   5.979   2.208
 8451SOL     OW26251   3.923   2.489   1.021
 8451SOL    HW126252   3.968   2.441   0.945
 8451SOL    HW226253   3.989   2.550   1.065
 8452SOL     OW26254   0.344   6.785   1.159
 8452SOL    HW126255   0.382   6.706   1.207
 8452SOL    HW226256   0.417   6.851   1.140
 8453SOL     OW26257   6.703   5.392   6.039
 8453SOL    HW126258   6.751   5.313   6.075
 8453SOL    HW226259   6.642   5.363   5.965
 8454SOL     OW26260   1.772   5.910   2.092
 8454SOL    HW126261   1.684   5.879   2.127
 8454SOL    HW226262   1.780   5.883   1.996
 8455SOL     OW26263   5.087   1.675   1.164
 8455SOL    HW126264   5.118   1.683   1.258
 8455SOL    HW226265   4.994   1.637   1.162
 8456SOL     OW26266   6.026   5.459   3.347
 8456SOL    HW126267   6.052   5.363   3.357
 8456SOL    HW226268   5.933   5.465   3.312
 8457SOL     OW26269   7.009   6.614   5.686
 8457SOL    HW126270   0.023   6.592   5.599
 8457SOL    HW226271   6.966   6.704   5.681
 8458SOL     OW26272   1.918   1.032   6.707
 8458SOL    HW126273   1.906   1.084   6.792
 8458SOL    HW226274   1.855   1.067   6.637
 8459SOL     OW26275   3.798   6.505   1.631
 8459SOL    HW126276   3.776   6.426   1.574
 8459SOL    HW226277   3.736   6.508   1.710
 8460SOL     OW26278   4.310   2.886   6.547
 8460SOL    HW126279   4.331   2.890   6.450
 8460SOL    HW226280   4.217   2.850   6.560
 8461SOL     OW26281   0.760   3.052   1.035
 8461SOL    HW126282   0.813   3.025   1.116
 8461SOL    HW226283   0.663   3.045   1.054
 8462SOL     OW26284   3.430   2.595   6.599
 8462SOL    HW126285   3.453   2.561   6.507
 8462SOL    HW226286   3.383   2.683   6.591
 8463SOL     OW26287   0.129   1.941   0.032
 8463SOL    HW126288   0.144   2.010   0.103
 8463SOL    HW226289   0.083   1.862   0.073
 8464SOL     OW26290   7.008   4.507   5.101
 8464SOL    HW126291   6.981   4.489   5.196
 8464SOL    HW226292   0.072   4.546   5.099
 8465SOL     OW26293   2.823   1.968   0.916
 8465SOL    HW126294   2.799   2.060   0.886
 8465SOL    HW226295   2.767   1.943   0.995
 8466SOL     OW26296   6.630   0.100   5.387
 8466SOL    HW126297   6.714   0.070   5.432
 8466SOL    HW226298   6.618   0.198   5.399
 8467SOL     OW26299   3.759   1.033   0.924
 8467SOL    HW126300   3.833   1.030   0.991
 8467SOL    HW226301   3.766   1.117   0.870
 8468SOL     OW26302   6.567   3.182   6.419
 8468SOL    HW126303   6.500   3.140   6.481
 8468SOL    HW226304   6.600   3.268   6.460
 8469SOL     OW26305   2.840   2.844   5.945
 8469SOL    HW126306   2.800   2.923   5.898
 8469SOL    HW226307   2.816   2.846   6.042
 8470SOL     OW26308   0.913   4.821   0.435
 8470SOL    HW126309   0.885   4.841   0.341
 8470SOL    HW226310   0.950   4.904   0.477
 8471SOL     OW26311   3.658   0.448   5.278
 8471SOL    HW126312   3.615   0.372   5.326
 8471SOL    HW226313   3.757   0.444   5.293
 8472SOL     OW26314   5.401   1.631   5.600
 8472SOL    HW126315   5.401   1.717   5.650
 8472SOL    HW226316   5.487   1.622   5.550
 8473SOL     OW26317   4.725   4.920   0.808
 8473SOL    HW126318   4.769   4.996   0.856
 8473SOL    HW226319   4.635   4.948   0.775
 8474SOL     OW26320   3.131   3.991   2.534
 8474SOL    HW126321   3.202   3.975   2.465
 8474SOL    HW226322   3.052   4.034   2.491
 8475SOL     OW26323   6.806   3.122   2.247
 8475SOL    HW126324   6.880   3.059   2.271
 8475SOL    HW226325   6.796   3.124   2.147
 8476SOL     OW26326   0.032   0.741   1.840
 8476SOL    HW126327   6.966   0.728   1.808
 8476SOL    HW226328   0.090   0.668   1.803
 8477SOL     OW26329   4.676   6.438   2.324
 8477SOL    HW126330   4.649   6.431   2.228
 8477SOL    HW226331   4.663   6.532   2.355
 8478SOL     OW26332   0.841   1.421   5.909
 8478SOL    HW126333   0.841   1.442   5.811
 8478SOL    HW226334   0.827   1.506   5.961
 8479SOL     OW26335   0.883   2.809   1.687
 8479SOL    HW126336   0.861   2.747   1.612
 8479SOL    HW226337   0.831   2.894   1.676
 8480SOL     OW26338   5.031   2.744   6.832
 8480SOL    HW126339   5.028   2.650   6.866
 8480SOL    HW226340   4.939   2.782   6.828
 8481SOL     OW26341   4.271   2.145   5.218
 8481SOL    HW126342   4.187   2.118   5.170
 8481SOL    HW226343   4.348   2.094   5.181
 8482SOL     OW26344   4.535   0.212   1.529
 8482SOL    HW126345   4.475   0.292   1.521
 8482SOL    HW226346   4.614   0.236   1.585
 8483SOL     OW26347   2.420   5.650   3.066
 8483SOL    HW126348   2.354   5.574   3.069
 8483SOL    HW226349   2.470   5.647   2.980
 8484SOL     OW26350   6.934   6.241   4.947
 8484SOL    HW126351   6.867   6.297   4.996
 8484SOL    HW226352   6.904   6.146   4.948
 8485SOL     OW26353   3.896   2.492   0.468
 8485SOL    HW126354   3.993   2.512   0.456
 8485SOL    HW226355   3.860   2.548   0.543
 8486SOL     OW26356   1.755   1.094   2.893
 8486SOL    HW126357   1.688   1.074   2.821
 8486SOL    HW226358   1.809   1.012   2.912
 8487SOL     OW26359   5.374   2.133   6.064
 8487SOL    HW126360   5.379   2.215   6.007
 8487SOL    HW226361   5.439   2.065   6.030
 8488SOL     OW26362   5.494   5.485   3.133
 8488SOL    HW126363   5.468   5.554   3.065
 8488SOL    HW226364   5.443   5.501   3.217
 8489SOL     OW26365   7.023   0.268   1.089
 8489SOL    HW126366   0.082   0.317   1.087
 8489SOL    HW226367   0.011   0.170   1.082
 8490SOL     OW26368   3.258   6.792   5.513
 8490SOL    HW126369   3.335   6.767   5.572
 8490SOL    HW226370   3.267   6.746   5.425
 8491SOL     OW26371   2.098   6.113   2.456
 8491SOL    HW126372   2.182   6.153   2.492
 8491SOL    HW226373   2.063   6.170   2.382
 8492SOL     OW26374   6.061   4.955   3.781
 8492SOL    HW126375   6.146   4.903   3.783
 8492SOL    HW226376   6.079   5.047   3.746
 8493SOL     OW26377   2.692   1.448   0.039
 8493SOL    HW126378   2.599   1.475   0.065
 8493SOL    HW226379   2.688   1.389   6.986
 8494SOL     OW26380   4.608   4.954   2.243
 8494SOL    HW126381   4.603   5.037   2.189
 8494SOL    HW226382   4.646   4.880   2.187
 8495SOL     OW26383   0.368   5.233   0.575
 8495SOL    HW126384   0.273   5.264   0.582
 8495SOL    HW226385   0.429   5.308   0.598
 8496SOL     OW26386   5.457   1.497   2.269
 8496SOL    HW126387   5.439   1.586   2.227
 8496SOL    HW226388   5.461   1.427   2.197
 8497SOL     OW26389   1.031   0.338   3.469
 8497SOL    HW126390   0.944   0.388   3.468
 8497SOL    HW226391   1.024   0.259   3.408
 8498SOL     OW26392   5.802   6.428   3.388
 8498SOL    HW126393   5.841   6.342   3.356
 8498SOL    HW226394   5.766   6.480   3.310
 8499SOL     OW26395   0.525   4.540   0.092
 8499SOL    HW126396   0.601   4.498   0.140
 8499SOL    HW226397   0.522   4.506   7.026
 8500SOL     OW26398   1.665   6.493   5.864
 8500SOL    HW126399   1.727   6.452   5.931
 8500SOL    HW226400   1.572   6.494   5.902
 8501SOL     OW26401   0.989   2.469   6.738
 8501SOL    HW126402   0.924   2.393   6.750
 8501SOL    HW226403   0.951   2.552   6.778
 8502SOL     OW26404   0.850   2.742   0.857
 8502SOL    HW126405   0.938   2.783   0.880
 8502SOL    HW226406   0.791   2.811   0.816
 8503SOL     OW26407   6.522   5.772   5.203
 8503SOL    HW126408   6.505   5.838   5.131
 8503SOL    HW226409   6.528   5.819   5.291
 8504SOL     OW26410   1.440   5.198   1.926
 8504SOL    HW126411   1.513   5.203   1.858
 8504SOL    HW226412   1.419   5.290   1.960
 8505SOL     OW26413   5.482   3.371   2.801
 8505SOL    HW126414   5.408   3.362   2.735
 8505SOL    HW226415   5.445   3.397   2.890
 8506SOL     OW26416   1.101   0.602   0.058
 8506SOL    HW126417   1.058   0.692   0.068
 8506SOL    HW226418   1.183   0.609   0.002
 8507SOL     OW26419   4.021   0.022   4.460
 8507SOL    HW126420   3.939   7.024   4.511
 8507SOL    HW226421   4.046   6.976   4.397
 8508SOL     OW26422   4.072   1.476   5.501
 8508SOL    HW126423   4.073   1.564   5.549
 8508SOL    HW226424   3.991   1.470   5.444
 8509SOL     OW26425   5.748   6.671   3.953
 8509SOL    HW126426   5.774   6.627   3.867
 8509SOL    HW226427   5.649   6.680   3.957
 8510SOL     OW26428   5.598   3.678   3.436
 8510SOL    HW126429   5.660   3.712   3.507
 8510SOL    HW226430   5.637   3.596   3.394
 8511SOL     OW26431   7.007   3.065   2.526
 8511SOL    HW126432   6.923   3.119   2.519
 8511SOL    HW226433   6.984   2.972   2.557
 8512SOL     OW26434   2.647   0.164   2.626
 8512SOL    HW126435   2.704   0.120   2.695
 8512SOL    HW226436   2.571   0.212   2.670
 8513SOL     OW26437   0.019   5.758   0.803
 8513SOL    HW126438   6.982   5.800   0.866
 8513SOL    HW226439   0.008   5.659   0.804
 8514SOL     OW26440   3.336   0.121   3.155
 8514SOL    HW126441   3.320   0.180   3.075
 8514SOL    HW226442   3.357   0.028   3.124
 8515SOL     OW26443   4.716   2.559   1.010
 8515SOL    HW126444   4.651   2.534   1.082
 8515SOL    HW226445   4.721   2.658   1.002
 8516SOL     OW26446   6.837   2.043   2.485
 8516SOL    HW126447   6.772   2.008   2.553
 8516SOL    HW226448   6.796   2.036   2.394
 8517SOL     OW26449   0.972   2.764   6.171
 8517SOL    HW126450   0.995   2.680   6.221
 8517SOL    HW226451   0.915   2.741   6.092
 8518SOL     OW26452   4.114   4.635   0.456
 8518SOL    HW126453   4.118   4.535   0.448
 8518SOL    HW226454   4.073   4.674   0.374
 8519SOL     OW26455   1.954   5.746   2.294
 8519SOL    HW126456   2.040   5.794   2.311
 8519SOL    HW226457   1.888   5.808   2.253
 8520SOL     OW26458   4.272   1.167   0.295
 8520SOL    HW126459   4.202   1.100   0.319
 8520SOL    HW226460   4.355   1.149   0.347
 8521SOL     OW26461   1.421   6.105   5.579
 8521SOL    HW126462   1.411   6.204   5.576
 8521SOL    HW226463   1.490   6.080   5.648
 8522SOL     OW26464   1.873   5.719   2.569
 8522SOL    HW126465   1.870   5.698   2.471
 8522SOL    HW226466   1.824   5.804   2.587
 8523SOL     OW26467   2.199   0.348   5.769
 8523SOL    HW126468   2.261   0.345   5.848
 8523SOL    HW226469   2.111   0.308   5.795
 8524SOL     OW26470   1.472   2.906   4.689
 8524SOL    HW126471   1.514   2.848   4.620
 8524SOL    HW226472   1.481   2.863   4.779
 8525SOL     OW26473   6.195   3.932   2.932
 8525SOL    HW126474   6.243   4.019   2.922
 8525SOL    HW226475   6.235   3.880   3.008
 8526SOL     OW26476   2.812   3.714   1.778
 8526SOL    HW126477   2.719   3.682   1.796
 8526SOL    HW226478   2.869   3.699   1.859
 8527SOL     OW26479   3.868   0.692   4.278
 8527SOL    HW126480   3.957   0.690   4.234
 8527SOL    HW226481   3.832   0.599   4.286
 8528SOL     OW26482   4.947   3.703   6.215
 8528SOL    HW126483   4.861   3.655   6.230
 8528SOL    HW226484   5.018   3.665   6.274
 8529SOL     OW26485   1.024   6.137   7.014
 8529SOL    HW126486   1.115   6.174   0.001
 8529SOL    HW226487   1.007   6.062   0.051
 8530SOL     OW26488   1.000   5.181   4.880
 8530SOL    HW126489   0.996   5.164   4.979
 8530SOL    HW226490   0.984   5.095   4.831
 8531SOL     OW26491   5.417   4.501   3.185
 8531SOL    HW126492   5.383   4.423   3.132
 8531SOL    HW226493   5.360   4.514   3.266
 8532SOL     OW26494   4.329   4.814   4.939
 8532SOL    HW126495   4.394   4.887   4.920
 8532SOL    HW226496   4.377   4.727   4.952
 8533SOL     OW26497   2.123   1.173   5.721
 8533SOL    HW126498   2.029   1.163   5.688
 8533SOL    HW226499   2.187   1.137   5.653
 8534SOL     OW26500   0.481   4.866   2.482
 8534SOL    HW126501   0.484   4.805   2.561
 8534SOL    HW226502   0.536   4.829   2.408
 8535SOL     OW26503   0.722   2.063   4.763
 8535SOL    HW126504   0.624   2.047   4.757
 8535SOL    HW226505   0.749   2.068   4.860
 8536SOL     OW26506   6.497   2.645   5.125
 8536SOL    HW126507   6.428   2.573   5.139
 8536SOL    HW226508   6.569   2.635   5.194
 8537SOL     OW26509   6.267   1.354   0.873
 8537SOL    HW126510   6.325   1.424   0.832
 8537SOL    HW226511   6.184   1.342   0.818
 8538SOL     OW26512   0.178   0.869   5.020
 8538SOL    HW126513   0.218   0.886   5.110
 8538SOL    HW226514   0.242   0.899   4.949
 8539SOL     OW26515   6.397   2.494   2.899
 8539SOL    HW126516   6.299   2.475   2.891
 8539SOL    HW226517   6.410   2.590   2.922
 8540SOL     OW26518   3.292   1.499   1.149
 8540SOL    HW126519   3.345   1.444   1.085
 8540SOL    HW226520   3.334   1.495   1.239
 8541SOL     OW26521   2.874   1.588   5.444
 8541SOL    HW126522   2.968   1.594   5.411
 8541SOL    HW226523   2.827   1.675   5.426
 8542SOL     OW26524   2.930   4.251   6.616
 8542SOL    HW126525   2.854   4.204   6.572
 8542SOL    HW226526   2.895   4.323   6.676
 8543SOL     OW26527   2.479   1.992   5.479
 8543SOL    HW126528   2.480   1.959   5.574
 8543SOL    HW226529   2.555   2.054   5.465
 8544SOL     OW26530   5.237   3.496   5.053
 8544SOL    HW126531   5.251   3.527   5.146
 8544SOL    HW226532   5.301   3.422   5.031
 8545SOL     OW26533   2.818   6.574   4.723
 8545SOL    HW126534   2.759   6.546   4.647
 8545SOL    HW226535   2.908   6.531   4.712
 8546SOL     OW26536   5.592   0.512   1.023
 8546SOL    HW126537   5.575   0.514   1.122
 8546SOL    HW226538   5.509   0.539   0.975
 8547SOL     OW26539   6.858   6.984   5.442
 8547SOL    HW126540   6.852   6.924   5.522
 8547SOL    HW226541   6.901   0.042   5.470
 8548SOL     OW26542   0.222   3.085   5.162
 8548SOL    HW126543   0.213   3.156   5.092
 8548SOL    HW226544   0.173   3.003   5.133
 8549SOL     OW26545   1.244   2.112   3.613
 8549SOL    HW126546   1.275   2.199   3.653
 8549SOL    HW226547   1.253   2.117   3.513
 8550SOL     OW26548   0.545   4.123   6.421
 8550SOL    HW126549   0.611   4.199   6.412
 8550SOL    HW226550   0.496   4.111   6.335
 8551SOL     OW26551   2.053   2.366   6.561
 8551SOL    HW126552   2.054   2.466   6.549
 8551SOL    HW226553   2.051   2.344   6.658
 8552SOL     OW26554   3.258   0.568   1.757
 8552SOL    HW126555   3.225   0.617   1.838
 8552SOL    HW226556   3.347   0.605   1.730
 8553SOL     OW26557   3.765   3.496   0.564
 8553SOL    HW126558   3.832   3.493   0.638
 8553SOL    HW226559   3.691   3.431   0.583
 8554SOL     OW26560   0.956   6.966   1.149
 8554SOL    HW126561   1.040   7.008   1.113
 8554SOL    HW226562   0.879   6.988   1.088
 8555SOL     OW26563   4.107   1.561   3.677
 8555SOL    HW126564   4.172   1.524   3.610
 8555SOL    HW226565   4.153   1.631   3.732
 8556SOL     OW26566   1.371   6.405   5.992
 8556SOL    HW126567   1.420   6.389   6.078
 8556SOL    HW226568   1.321   6.322   5.966
 8557SOL     OW26569   6.705   0.964   0.717
 8557SOL    HW126570   6.707   0.913   0.803
 8557SOL    HW226571   6.764   1.044   0.725
 8558SOL     OW26572   2.016   4.772   3.413
 8558SOL    HW126573   2.026   4.708   3.490
 8558SOL    HW226574   2.026   4.722   3.327
 8559SOL     OW26575   0.413   6.575   2.801
 8559SOL    HW126576   0.360   6.631   2.738
 8559SOL    HW226577   0.484   6.525   2.751
 8560SOL     OW26578   1.511   5.487   1.344
 8560SOL    HW126579   1.527   5.395   1.378
 8560SOL    HW226580   1.579   5.511   1.275
 8561SOL     OW26581   4.056   0.531   3.143
 8561SOL    HW126582   4.136   0.538   3.083
 8561SOL    HW226583   4.058   0.605   3.210
 8562SOL     OW26584   4.125   1.000   6.945
 8562SOL    HW126585   4.150   0.909   6.979
 8562SOL    HW226586   4.109   1.061   7.023
 8563SOL     OW26587   1.391   5.994   2.228
 8563SOL    HW126588   1.333   6.009   2.149
 8563SOL    HW226589   1.405   6.081   2.276
 8564SOL     OW26590   3.852   6.321   6.213
 8564SOL    HW126591   3.785   6.326   6.139
 8564SOL    HW226592   3.877   6.225   6.228
 8565SOL     OW26593   3.522   5.331   1.584
 8565SOL    HW126594   3.527   5.246   1.531
 8565SOL    HW226595   3.429   5.343   1.619
 8566SOL     OW26596   2.912   0.910   2.776
 8566SOL    HW126597   2.956   1.000   2.775
 8566SOL    HW226598   2.965   0.846   2.721
 8567SOL     OW26599   1.424   1.933   1.784
 8567SOL    HW126600   1.376   1.892   1.861
 8567SOL    HW226601   1.523   1.922   1.796
 8568SOL     OW26602   0.085   1.367   0.336
 8568SOL    HW126603   0.039   1.331   0.417
 8568SOL    HW226604   0.084   1.467   0.339
 8569SOL     OW26605   4.864   2.190   6.068
 8569SOL    HW126606   4.874   2.151   6.159
 8569SOL    HW226607   4.907   2.281   6.065
 8570SOL     OW26608   1.584   1.700   4.566
 8570SOL    HW126609   1.604   1.611   4.608
 8570SOL    HW226610   1.510   1.744   4.617
 8571SOL     OW26611   1.275   1.247   4.888
 8571SOL    HW126612   1.288   1.332   4.837
 8571SOL    HW226613   1.229   1.181   4.829
 8572SOL     OW26614   2.656   4.065   5.614
 8572SOL    HW126615   2.726   4.135   5.625
 8572SOL    HW226616   2.676   4.009   5.533
 8573SOL     OW26617   2.773   5.874   6.867
 8573SOL    HW126618   2.738   5.873   6.773
 8573SOL    HW226619   2.844   5.944   6.876
 8574SOL     OW26620   6.375   6.763   6.307
 8574SOL    HW126621   6.416   6.738   6.395
 8574SOL    HW226622   6.333   6.853   6.315
 8575SOL     OW26623   3.356   0.932   2.235
 8575SOL    HW126624   3.402   0.871   2.299
 8575SOL    HW226625   3.338   1.020   2.280
 8576SOL     OW26626   1.254   4.196   4.553
 8576SOL    HW126627   1.237   4.100   4.533
 8576SOL    HW226628   1.320   4.232   4.487
 8577SOL     OW26629   1.574   1.058   6.086
 8577SOL    HW126630   1.577   1.149   6.044
 8577SOL    HW226631   1.486   1.015   6.067
 8578SOL     OW26632   6.264   6.310   5.575
 8578SOL    HW126633   6.310   6.226   5.547
 8578SOL    HW226634   6.165   6.296   5.575
 8579SOL     OW26635   2.315   6.247   2.560
 8579SOL    HW126636   2.355   6.213   2.645
 8579SOL    HW226637   2.385   6.247   2.488
 8580SOL     OW26638   1.286   6.171   0.822
 8580SOL    HW126639   1.213   6.141   0.884
 8580SOL    HW226640   1.247   6.188   0.731
 8581SOL     OW26641   3.899   5.175   1.637
 8581SOL    HW126642   3.956   5.252   1.607
 8581SOL    HW226643   3.822   5.165   1.575
 8582SOL     OW26644   4.546   4.736   5.581
 8582SOL    HW126645   4.579   4.641   5.587
 8582SOL    HW226646   4.476   4.751   5.650
 8583SOL     OW26647   4.076   0.076   3.187
 8583SOL    HW126648   4.134   7.026   3.163
 8583SOL    HW226649   4.108   0.116   3.273
 8584SOL     OW26650   0.116   0.697   4.607
 8584SOL    HW126651   0.148   0.785   4.642
 8584SOL    HW226652   0.143   0.688   4.511
 8585SOL     OW26653   5.866   1.724   1.305
 8585SOL    HW126654   5.797   1.779   1.258
 8585SOL    HW226655   5.848   1.726   1.404
 8586SOL     OW26656   5.169   6.462   1.327
 8586SOL    HW126657   5.183   6.486   1.423
 8586SOL    HW226658   5.242   6.401   1.298
 8587SOL     OW26659   1.010   2.109   4.531
 8587SOL    HW126660   0.962   2.023   4.515
 8587SOL    HW226661   0.981   2.149   4.618
 8588SOL     OW26662   4.457   0.923   6.907
 8588SOL    HW126663   4.407   1.002   6.940
 8588SOL    HW226664   4.423   0.896   6.817
 8589SOL     OW26665   6.658   3.062   5.021
 8589SOL    HW126666   6.579   3.037   4.965
 8589SOL    HW226667   6.724   3.111   4.964
 8590SOL     OW26668   0.063   0.088   3.164
 8590SOL    HW126669   0.100   0.021   3.229
 8590SOL    HW226670   0.083   0.180   3.196
 8591SOL     OW26671   6.340   4.450   0.351
 8591SOL    HW126672   6.428   4.420   0.387
 8591SOL    HW226673   6.343   4.548   0.332
 8592SOL     OW26674   0.055   2.664   0.344
 8592SOL    HW126675   0.076   2.566   0.346
 8592SOL    HW226676   6.985   2.677   0.358
 8593SOL     OW26677   2.936   1.094   6.894
 8593SOL    HW126678   3.020   1.053   6.930
 8593SOL    HW226679   2.933   1.082   6.795
 8594SOL     OW26680   6.166   2.823   5.838
 8594SOL    HW126681   6.252   2.840   5.789
 8594SOL    HW226682   6.089   2.842   5.778
 8595SOL     OW26683   5.532   0.490   3.690
 8595SOL    HW126684   5.618   0.498   3.640
 8595SOL    HW226685   5.514   0.575   3.740
 8596SOL     OW26686   1.312   4.086   3.369
 8596SOL    HW126687   1.291   3.996   3.408
 8596SOL    HW226688   1.236   4.148   3.387
 8597SOL     OW26689   6.131   2.618   0.528
 8597SOL    HW126690   6.190   2.545   0.494
 8597SOL    HW226691   6.186   2.694   0.560
 8598SOL     OW26692   5.724   0.399   5.306
 8598SOL    HW126693   5.673   0.369   5.387
 8598SOL    HW226694   5.821   0.378   5.318
 8599SOL     OW26695   1.462   2.917   3.864
 8599SOL    HW126696   1.378   2.964   3.834
 8599SOL    HW226697   1.438   2.840   3.922
 8600SOL     OW26698   5.206   3.696   1.114
 8600SOL    HW126699   5.251   3.631   1.053
 8600SOL    HW226700   5.181   3.650   1.200
 8601SOL     OW26701   0.051   1.046   3.756
 8601SOL    HW126702   0.078   0.973   3.818
 8601SOL    HW226703   7.013   1.107   3.801
 8602SOL     OW26704   2.634   6.636   3.176
 8602SOL    HW126705   2.688   6.721   3.178
 8602SOL    HW226706   2.608   6.615   3.082
 8603SOL     OW26707   5.905   1.135   6.266
 8603SOL    HW126708   5.812   1.137   6.303
 8603SOL    HW226709   5.914   1.203   6.193
 8604SOL     OW26710   0.568   2.639   6.130
 8604SOL    HW126711   0.530   2.728   6.105
 8604SOL    HW226712   0.612   2.646   6.220
 8605SOL     OW26713   1.169   4.513   4.315
 8605SOL    HW126714   1.132   4.509   4.408
 8605SOL    HW226715   1.250   4.456   4.309
 8606SOL     OW26716   3.248   2.275   0.199
 8606SOL    HW126717   3.235   2.312   0.107
 8606SOL    HW226718   3.302   2.191   0.193
 8607SOL     OW26719   2.204   4.950   0.049
 8607SOL    HW126720   2.204   4.956   6.978
 8607SOL    HW226721   2.283   4.999   0.086
 8608SOL     OW26722   2.219   4.729   2.643
 8608SOL    HW126723   2.140   4.682   2.605
 8608SOL    HW226724   2.195   4.825   2.662
 8609SOL     OW26725   4.915   0.652   3.970
 8609SOL    HW126726   4.895   0.634   4.066
 8609SOL    HW226727   4.835   0.693   3.926
 8610SOL     OW26728   6.855   6.754   3.099
 8610SOL    HW126729   6.866   6.840   3.049
 8610SOL    HW226730   6.914   6.684   3.059
 8611SOL     OW26731   2.761   1.038   4.357
 8611SOL    HW126732   2.819   0.989   4.421
 8611SOL    HW226733   2.812   1.113   4.315
 8612SOL     OW26734   2.905   3.594   2.301
 8612SOL    HW126735   2.809   3.621   2.294
 8612SOL    HW226736   2.918   3.506   2.255
 8613SOL     OW26737   2.537   2.627   1.806
 8613SOL    HW126738   2.480   2.705   1.832
 8613SOL    HW226739   2.509   2.594   1.716
 8614SOL     OW26740   1.224   2.672   2.843
 8614SOL    HW126741   1.175   2.589   2.813
 8614SOL    HW226742   1.160   2.748   2.846
 8615SOL     OW26743   4.376   1.752   5.013
 8615SOL    HW126744   4.360   1.714   4.922
 8615SOL    HW226745   4.467   1.793   5.016
 8616SOL     OW26746   2.352   4.850   2.063
 8616SOL    HW126747   2.356   4.758   2.024
 8616SOL    HW226748   2.444   4.880   2.089
 8617SOL     OW26749   5.760   0.519   4.087
 8617SOL    HW126750   5.854   0.517   4.119
 8617SOL    HW226751   5.758   0.530   3.988
 8618SOL     OW26752   6.792   4.005   0.695
 8618SOL    HW126753   6.873   3.965   0.651
 8618SOL    HW226754   6.800   3.996   0.794
 8619SOL     OW26755   4.260   5.009   3.139
 8619SOL    HW126756   4.211   4.980   3.221
 8619SOL    HW226757   4.343   4.954   3.129
 8620SOL     OW26758   1.696   0.309   4.409
 8620SOL    HW126759   1.684   0.299   4.311
 8620SOL    HW226760   1.608   0.328   4.452
 8621SOL     OW26761   4.780   2.863   2.238
 8621SOL    HW126762   4.705   2.811   2.278
 8621SOL    HW226763   4.768   2.868   2.139
 8622SOL     OW26764   6.154   5.255   1.750
 8622SOL    HW126765   6.179   5.214   1.663
 8622SOL    HW226766   6.231   5.309   1.785
 8623SOL     OW26767   0.017   3.569   4.946
 8623SOL    HW126768   0.034   3.631   4.869
 8623SOL    HW226769   0.102   3.522   4.970
 8624SOL     OW26770   3.554   3.885   6.353
 8624SOL    HW126771   3.460   3.919   6.360
 8624SOL    HW226772   3.591   3.909   6.263
 8625SOL     OW26773   4.685   1.279   6.074
 8625SOL    HW126774   4.597   1.302   6.032
 8625SOL    HW226775   4.711   1.351   6.139
 8626SOL     OW26776   3.958   3.075   0.350
 8626SOL    HW126777   3.885   3.138   0.326
 8626SOL    HW226778   4.047   3.120   0.335
 8627SOL     OW26779   2.314   1.782   2.762
 8627SOL    HW126780   2.398   1.803   2.712
 8627SOL    HW226781   2.281   1.691   2.736
 8628SOL     OW26782   6.826   6.739   0.313
 8628SOL    HW126783   6.914   6.714   0.275
 8628SOL    HW226784   6.757   6.739   0.241
 8629SOL     OW26785   1.219   6.834   4.856
 8629SOL    HW126786   1.318   6.835   4.868
 8629SOL    HW226787   1.174   6.870   4.938
 8630SOL     OW26788   4.903   3.668   3.711
 8630SOL    HW126789   5.002   3.652   3.718
 8630SOL    HW226790   4.862   3.668   3.802
 8631SOL     OW26791   1.810   6.447   6.103
 8631SOL    HW126792   1.802   6.351   6.132
 8631SOL    HW226793   1.903   6.465   6.073
 8632SOL     OW26794   3.999   4.342   5.471
 8632SOL    HW126795   4.073   4.285   5.437
 8632SOL    HW226796   4.033   4.401   5.545
 8633SOL     OW26797   5.829   3.578   6.078
 8633SOL    HW126798   5.774   3.660   6.092
 8633SOL    HW226799   5.819   3.517   6.157
 8634SOL     OW26800   5.359   4.596   0.184
 8634SOL    HW126801   5.337   4.573   0.090
 8634SOL    HW226802   5.457   4.613   0.192
 8635SOL     OW26803   6.206   2.170   6.774
 8635SOL    HW126804   6.166   2.262   6.774
 8635SOL    HW226805   6.156   2.112   6.839
 8636SOL     OW26806   4.224   5.426   0.605
 8636SOL    HW126807   4.299   5.364   0.580
 8636SOL    HW226808   4.194   5.405   0.698
 8637SOL     OW26809   2.346   1.547   6.252
 8637SOL    HW126810   2.381   1.471   6.306
 8637SOL    HW226811   2.260   1.521   6.209
 8638SOL     OW26812   3.899   2.632   5.336
 8638SOL    HW126813   3.989   2.627   5.292
 8638SOL    HW226814   3.846   2.550   5.314
 8639SOL     OW26815   4.818   3.671   6.818
 8639SOL    HW126816   4.815   3.734   6.741
 8639SOL    HW226817   4.908   3.678   6.863
 8640SOL     OW26818   4.196   3.357   1.338
 8640SOL    HW126819   4.141   3.435   1.310
 8640SOL    HW226820   4.138   3.286   1.377
 8641SOL     OW26821   4.406   4.953   3.943
 8641SOL    HW126822   4.325   4.982   3.892
 8641SOL    HW226823   4.378   4.892   4.018
 8642SOL     OW26824   0.229   0.103   3.488
 8642SOL    HW126825   0.240   0.157   3.405
 8642SOL    HW226826   0.133   0.102   3.515
 8643SOL     OW26827   1.899   0.228   0.402
 8643SOL    HW126828   1.929   0.188   0.316
 8643SOL    HW226829   1.930   0.323   0.408
 8644SOL     OW26830   6.719   2.327   6.509
 8644SOL    HW126831   6.685   2.281   6.427
 8644SOL    HW226832   6.701   2.270   6.589
 8645SOL     OW26833   4.931   5.310   1.477
 8645SOL    HW126834   4.987   5.295   1.395
 8645SOL    HW226835   4.860   5.239   1.482
 8646SOL     OW26836   0.692   1.688   6.576
 8646SOL    HW126837   0.786   1.658   6.595
 8646SOL    HW226838   0.649   1.718   6.661
 8647SOL     OW26839   2.842   5.349   0.839
 8647SOL    HW126840   2.823   5.251   0.834
 8647SOL    HW226841   2.909   5.373   0.768
 8648SOL     OW26842   5.774   6.334   0.977
 8648SOL    HW126843   5.814   6.275   0.907
 8648SOL    HW226844   5.846   6.373   1.033
 8649SOL     OW26845   4.925   6.443   6.837
 8649SOL    HW126846   4.845   6.502   6.842
 8649SOL    HW226847   4.941   6.416   6.742
 8650SOL     OW26848   1.773   6.627   4.134
 8650SOL    HW126849   1.780   6.695   4.060
 8650SOL    HW226850   1.811   6.665   4.218
 8651SOL     OW26851   2.854   1.627   0.681
 8651SOL    HW126852   2.893   1.581   0.761
 8651SOL    HW226853   2.893   1.719   0.674
 8652SOL     OW26854   1.021   4.759   3.960
 8652SOL    HW126855   1.120   4.755   3.973
 8652SOL    HW226856   0.977   4.692   4.020
 8653SOL     OW26857   6.479   1.574   5.334
 8653SOL    HW126858   6.454   1.514   5.411
 8653SOL    HW226859   6.549   1.529   5.279
 8654SOL     OW26860   0.915   5.136   1.188
 8654SOL    HW126861   0.997   5.159   1.134
 8654SOL    HW226862   0.853   5.214   1.189
 8655SOL     OW26863   6.670   1.176   5.176
 8655SOL    HW126864   6.642   1.087   5.139
 8655SOL    HW226865   6.656   1.177   5.275
 8656SOL     OW26866   5.592   0.542   2.280
 8656SOL    HW126867   5.527   0.469   2.299
 8656SOL    HW226868   5.680   0.503   2.255
 8657SOL     OW26869   5.747   6.050   0.282
 8657SOL    HW126870   5.720   6.007   0.196
 8657SOL    HW226871   5.827   6.108   0.266
 8658SOL     OW26872   5.632   5.522   0.610
 8658SOL    HW126873   5.617   5.588   0.536
 8658SOL    HW226874   5.667   5.436   0.570
 8659SOL     OW26875   4.568   2.458   2.903
 8659SOL    HW126876   4.651   2.403   2.893
 8659SOL    HW226877   4.521   2.434   2.988
 8660SOL     OW26878   0.288   2.373   1.907
 8660SOL    HW126879   0.344   2.344   1.986
 8660SOL    HW226880   0.193   2.346   1.922
 8661SOL     OW26881   6.011   3.669   2.566
 8661SOL    HW126882   6.072   3.726   2.621
 8661SOL    HW226883   5.995   3.582   2.614
 8662SOL     OW26884   3.505   6.256   2.109
 8662SOL    HW126885   3.533   6.263   2.205
 8662SOL    HW226886   3.585   6.240   2.052
 8663SOL     OW26887   2.601   5.294   2.978
 8663SOL    HW126888   2.556   5.352   3.047
 8663SOL    HW226889   2.536   5.273   2.905
 8664SOL     OW26890   2.781   5.585   2.684
 8664SOL    HW126891   2.863   5.535   2.713
 8664SOL    HW226892   2.751   5.551   2.595
 8665SOL     OW26893   6.498   5.250   5.153
 8665SOL    HW126894   6.507   5.191   5.072
 8665SOL    HW226895   6.584   5.249   5.205
 8666SOL     OW26896   5.616   0.125   4.383
 8666SOL    HW126897   5.580   0.036   4.411
 8666SOL    HW226898   5.697   0.112   4.325
 8667SOL     OW26899   5.400   1.124   4.481
 8667SOL    HW126900   5.319   1.103   4.536
 8667SOL    HW226901   5.401   1.221   4.459
 8668SOL     OW26902   5.011   3.147   4.508
 8668SOL    HW126903   4.997   3.057   4.549
 8668SOL    HW226904   5.057   3.207   4.573
 8669SOL     OW26905   6.486   6.500   6.955
 8669SOL    HW126906   6.434   6.580   6.924
 8669SOL    HW226907   6.557   6.478   6.887
 8670SOL     OW26908   5.374   5.081   6.028
 8670SOL    HW126909   5.466   5.055   6.059
 8670SOL    HW226910   5.379   5.107   5.931
 8671SOL     OW26911   0.810   1.531   2.232
 8671SOL    HW126912   0.897   1.530   2.281
 8671SOL    HW226913   0.735   1.546   2.296
 8672SOL     OW26914   0.500   6.937   3.545
 8672SOL    HW126915   0.437   7.014   3.549
 8672SOL    HW226916   0.591   6.969   3.517
 8673SOL     OW26917   0.069   1.159   0.169
 8673SOL    HW126918   0.037   1.246   0.208
 8673SOL    HW226919   0.115   1.106   0.240
 8674SOL     OW26920   6.978   4.516   3.232
 8674SOL    HW126921   7.003   4.428   3.272
 8674SOL    HW226922   7.019   4.590   3.286
 8675SOL     OW26923   4.172   1.073   6.150
 8675SOL    HW126924   4.255   1.129   6.143
 8675SOL    HW226925   4.091   1.130   6.136
 8676SOL     OW26926   5.219   1.015   1.380
 8676SOL    HW126927   5.218   1.061   1.292
 8676SOL    HW226928   5.129   0.973   1.397
 8677SOL     OW26929   1.568   5.998   5.791
 8677SOL    HW126930   1.643   5.933   5.786
 8677SOL    HW226931   1.507   5.972   5.866
 8678SOL     OW26932   0.628   6.824   0.669
 8678SOL    HW126933   0.571   6.821   0.750
 8678SOL    HW226934   0.711   6.878   0.687
 8679SOL     OW26935   1.888   1.288   4.020
 8679SOL    HW126936   1.868   1.383   4.046
 8679SOL    HW226937   1.958   1.251   4.080
 8680SOL     OW26938   6.515   2.502   6.563
 8680SOL    HW126939   6.588   2.440   6.536
 8680SOL    HW226940   6.491   2.485   6.659
 8681SOL     OW26941   4.651   5.395   1.144
 8681SOL    HW126942   4.727   5.444   1.188
 8681SOL    HW226943   4.677   5.300   1.129
 8682SOL     OW26944   0.186   7.025   1.136
 8682SOL    HW126945   0.251   0.072   1.130
 8682SOL    HW226946   0.227   6.942   1.098
 8683SOL     OW26947   1.670   3.148   4.782
 8683SOL    HW126948   1.589   3.105   4.740
 8683SOL    HW226949   1.752   3.113   4.738
 8684SOL     OW26950   6.884   4.088   4.826
 8684SOL    HW126951   6.960   4.091   4.890
 8684SOL    HW226952   6.838   4.177   4.825
 8685SOL     OW26953   5.546   2.689   6.327
 8685SOL    HW126954   5.479   2.752   6.367
 8685SOL    HW226955   5.585   2.633   6.400
 8686SOL     OW26956   5.933   6.850   2.787
 8686SOL    HW126957   5.855   6.792   2.808
 8686SOL    HW226958   6.015   6.793   2.776
 8687SOL     OW26959   5.698   4.586   2.966
 8687SOL    HW126960   5.622   4.547   2.914
 8687SOL    HW226961   5.712   4.533   3.049
 8688SOL     OW26962   1.591   4.332   6.764
 8688SOL    HW126963   1.638   4.408   6.809
 8688SOL    HW226964   1.647   4.297   6.690
 8689SOL     OW26965   4.763   3.392   0.709
 8689SOL    HW126966   4.730   3.483   0.686
 8689SOL    HW226967   4.745   3.329   0.633
 8690SOL     OW26968   0.529   2.659   3.079
 8690SOL    HW126969   0.440   2.701   3.095
 8690SOL    HW226970   0.573   2.641   3.166
 8691SOL     OW26971   3.493   1.372   5.242
 8691SOL    HW126972   3.443   1.296   5.285
 8691SOL    HW226973   3.428   1.440   5.209
 8692SOL     OW26974   3.598   1.408   5.699
 8692SOL    HW126975   3.645   1.470   5.637
 8692SOL    HW226976   3.648   1.322   5.706
 8693SOL     OW26977   6.735   1.317   6.597
 8693SOL    HW126978   6.767   1.317   6.502
 8693SOL    HW226979   6.782   1.244   6.647
 8694SOL     OW26980   5.718   2.030   4.945
 8694SOL    HW126981   5.795   1.991   4.894
 8694SOL    HW226982   5.632   2.008   4.899
 8695SOL     OW26983   4.464   3.338   6.248
 8695SOL    HW126984   4.439   3.241   6.257
 8695SOL    HW226985   4.547   3.356   6.301
 8696SOL     OW26986   2.617   6.241   4.631
 8696SOL    HW126987   2.661   6.217   4.544
 8696SOL    HW226988   2.601   6.340   4.634
 8697SOL     OW26989   1.174   4.477   5.869
 8697SOL    HW126990   1.188   4.564   5.821
 8697SOL    HW226991   1.242   4.467   5.942
 8698SOL     OW26992   5.275   6.085   5.766
 8698SOL    HW126993   5.365   6.124   5.784
 8698SOL    HW226994   5.273   5.990   5.798
 8699SOL     OW26995   2.037   3.533   6.142
 8699SOL    HW126996   1.971   3.484   6.200
 8699SOL    HW226997   2.107   3.469   6.110
 8700SOL     OW26998   1.335   1.173   5.556
 8700SOL    HW126999   1.364   1.128   5.471
 8700SOL    HW227000   1.415   1.211   5.602
 8701SOL     OW27001   1.929   1.188   6.935
 8701SOL    HW127002   1.832   1.213   6.942
 8701SOL    HW227003   1.955   1.135   7.016
 8702SOL     OW27004   4.874   5.180   1.990
 8702SOL    HW127005   4.922   5.110   1.937
 8702SOL    HW227006   4.838   5.249   1.929
 8703SOL     OW27007   3.156   4.497   6.782
 8703SOL    HW127008   3.068   4.456   6.801
 8703SOL    HW227009   3.229   4.436   6.812
 8704SOL     OW27010   6.986   3.122   3.901
 8704SOL    HW127011   6.911   3.114   3.834
 8704SOL    HW227012   6.984   3.212   3.943
 8705SOL     OW27013   4.411   2.190   6.658
 8705SOL    HW127014   4.483   2.254   6.630
 8705SOL    HW227015   4.443   2.096   6.647
 8706SOL     OW27016   5.822   2.739   0.161
 8706SOL    HW127017   5.852   2.808   0.094
 8706SOL    HW227018   5.902   2.692   0.198
 8707SOL     OW27019   0.766   2.617   3.564
 8707SOL    HW127020   0.748   2.634   3.467
 8707SOL    HW227021   0.849   2.562   3.573
 8708SOL     OW27022   4.483   1.609   4.202
 8708SOL    HW127023   4.403   1.591   4.145
 8708SOL    HW227024   4.564   1.615   4.145
 8709SOL     OW27025   6.869   7.002   6.614
 8709SOL    HW127026   6.907   6.973   6.526
 8709SOL    HW227027   6.917   6.955   6.688
 8710SOL     OW27028   1.997   2.312   3.573
 8710SOL    HW127029   2.022   2.240   3.508
 8710SOL    HW227030   1.929   2.276   3.637
 8711SOL     OW27031   1.444   0.585   1.510
 8711SOL    HW127032   1.520   0.642   1.479
 8711SOL    HW227033   1.464   0.550   1.601
 8712SOL     OW27034   2.998   1.745   4.764
 8712SOL    HW127035   3.026   1.836   4.735
 8712SOL    HW227036   2.937   1.752   4.843
 8713SOL     OW27037   0.267   4.234   1.531
 8713SOL    HW127038   0.354   4.222   1.483
 8713SOL    HW227039   0.251   4.156   1.591
 8714SOL     OW27040   0.822   6.404   0.163
 8714SOL    HW127041   0.772   6.378   0.081
 8714SOL    HW227042   0.916   6.369   0.158
 8715SOL     OW27043   3.166   2.000   0.008
 8715SOL    HW127044   3.244   1.988   0.069
 8715SOL    HW227045   3.197   1.991   6.941
 8716SOL     OW27046   6.776   6.525   0.819
 8716SOL    HW127047   6.763   6.434   0.858
 8716SOL    HW227048   6.874   6.543   0.812
 8717SOL     OW27049   2.362   3.123   6.036
 8717SOL    HW127050   2.369   3.032   6.076
 8717SOL    HW227051   2.453   3.164   6.032
 8718SOL     OW27052   1.546   2.801   6.359
 8718SOL    HW127053   1.599   2.844   6.432
 8718SOL    HW227054   1.523   2.870   6.290
 8719SOL     OW27055   4.411   1.212   0.016
 8719SOL    HW127056   4.408   1.256   0.106
 8719SOL    HW227057   4.387   1.280   6.974
 8720SOL     OW27058   0.187   5.337   5.697
 8720SOL    HW127059   0.186   5.245   5.735
 8720SOL    HW227060   0.138   5.399   5.759
 8721SOL     OW27061   6.508   6.857   0.226
 8721SOL    HW127062   6.419   6.865   0.182
 8721SOL    HW227063   6.526   6.940   0.280
 8722SOL     OW27064   3.375   1.087   0.531
 8722SOL    HW127065   3.404   1.108   0.625
 8722SOL    HW227066   3.323   1.164   0.495
 8723SOL     OW27067   5.457   6.573   2.007
 8723SOL    HW127068   5.425   6.661   2.040
 8723SOL    HW227069   5.557   6.574   1.997
 8724SOL     OW27070   5.281   0.146   4.404
 8724SOL    HW127071   5.237   0.102   4.326
 8724SOL    HW227072   5.231   0.229   4.429
 8725SOL     OW27073   0.578   6.386   4.656
 8725SOL    HW127074   0.652   6.320   4.663
 8725SOL    HW227075   0.534   6.396   4.746
 8726SOL     OW27076   6.956   1.226   0.489
 8726SOL    HW127077   6.873   1.258   0.444
 8726SOL    HW227078   6.940   1.216   0.587
 8727SOL     OW27079   5.867   6.950   6.939
 8727SOL    HW127080   5.835   6.940   0.005
 8727SOL    HW227081   5.855   6.863   6.890
 8728SOL     OW27082   5.210   1.274   2.228
 8728SOL    HW127083   5.268   1.302   2.151
 8728SOL    HW227084   5.182   1.354   2.280
 8729SOL     OW27085   2.999   5.719   5.627
 8729SOL    HW127086   2.951   5.662   5.560
 8729SOL    HW227087   2.940   5.732   5.707
 8730SOL     OW27088   4.903   4.462   3.353
 8730SOL    HW127089   4.891   4.364   3.335
 8730SOL    HW227090   4.885   4.514   3.269
 8731SOL     OW27091   0.377   3.047   2.907
 8731SOL    HW127092   0.380   3.067   3.005
 8731SOL    HW227093   0.444   3.104   2.859
 8732SOL     OW27094   5.305   4.298   1.232
 8732SOL    HW127095   5.262   4.375   1.277
 8732SOL    HW227096   5.365   4.250   1.296
 8733SOL     OW27097   0.516   5.879   1.243
 8733SOL    HW127098   0.547   5.863   1.150
 8733SOL    HW227099   0.570   5.824   1.307
 8734SOL     OW27100   0.078   3.368   2.481
 8734SOL    HW127101   0.013   3.361   2.406
 8734SOL    HW227102   0.029   3.363   2.568
 8735SOL     OW27103   1.139   3.598   4.993
 8735SOL    HW127104   1.158   3.570   4.899
 8735SOL    HW227105   1.066   3.667   4.993
 8736SOL     OW27106   0.664   5.136   1.937
 8736SOL    HW127107   0.676   5.174   1.845
 8736SOL    HW227108   0.582   5.176   1.979
 8737SOL     OW27109   2.520   6.358   6.272
 8737SOL    HW127110   2.561   6.344   6.182
 8737SOL    HW227111   2.583   6.325   6.343
 8738SOL     OW27112   1.792   4.266   3.399
 8738SOL    HW127113   1.749   4.356   3.405
 8738SOL    HW227114   1.721   4.195   3.407
 8739SOL     OW27115   5.264   4.491   4.880
 8739SOL    HW127116   5.253   4.504   4.782
 8739SOL    HW227117   5.262   4.393   4.901
 8740SOL     OW27118   3.974   2.064   2.779
 8740SOL    HW127119   4.028   2.101   2.854
 8740SOL    HW227120   3.981   2.124   2.699
 8741SOL     OW27121   2.778   0.240   2.184
 8741SOL    HW127122   2.859   0.195   2.220
 8741SOL    HW227123   2.763   0.211   2.090
 8742SOL     OW27124   3.957   1.010   2.527
 8742SOL    HW127125   3.893   0.938   2.500
 8742SOL    HW227126   3.980   1.066   2.447
 8743SOL     OW27127   1.944   1.412   2.165
 8743SOL    HW127128   1.878   1.423   2.091
 8743SOL    HW227129   1.955   1.314   2.185
 8744SOL     OW27130   4.895   2.736   0.308
 8744SOL    HW127131   4.851   2.677   0.240
 8744SOL    HW227132   4.964   2.684   0.358
 8745SOL     OW27133   6.869   2.208   6.302
 8745SOL    HW127134   6.958   2.218   6.258
 8745SOL    HW227135   6.802   2.264   6.254
 8746SOL     OW27136   4.769   5.390   4.565
 8746SOL    HW127137   4.845   5.438   4.610
 8746SOL    HW227138   4.737   5.446   4.488
 8747SOL     OW27139   6.891   1.425   2.064
 8747SOL    HW127140   6.827   1.403   2.137
 8747SOL    HW227141   6.857   1.502   2.011
 8748SOL     OW27142   1.242   1.686   4.128
 8748SOL    HW127143   1.283   1.666   4.039
 8748SOL    HW227144   1.214   1.782   4.131
 8749SOL     OW27145   2.290   1.137   5.276
 8749SOL    HW127146   2.342   1.203   5.222
 8749SOL    HW227147   2.243   1.074   5.215
 8750SOL     OW27148   4.105   2.801   5.635
 8750SOL    HW127149   4.149   2.838   5.716
 8750SOL    HW227150   4.025   2.747   5.662
 8751SOL     OW27151   6.595   0.274   0.548
 8751SOL    HW127152   6.684   0.309   0.517
 8751SOL    HW227153   6.522   0.335   0.519
 8752SOL     OW27154   5.409   2.999   6.968
 8752SOL    HW127155   5.418   2.975   0.037
 8752SOL    HW227156   5.485   2.959   6.917
 8753SOL     OW27157   2.358   3.779   6.913
 8753SOL    HW127158   2.422   3.726   6.858
 8753SOL    HW227159   2.307   3.719   6.974
 8754SOL     OW27160   2.808   4.856   6.014
 8754SOL    HW127161   2.901   4.843   5.978
 8754SOL    HW227162   2.776   4.771   6.055
 8755SOL     OW27163   1.136   0.838   1.118
 8755SOL    HW127164   1.236   0.846   1.111
 8755SOL    HW227165   1.105   0.764   1.058
 8756SOL     OW27166   2.049   2.820   3.391
 8756SOL    HW127167   2.070   2.788   3.484
 8756SOL    HW227168   2.114   2.891   3.365
 8757SOL     OW27169   5.056   6.197   5.866
 8757SOL    HW127170   5.135   6.158   5.819
 8757SOL    HW227171   5.088   6.251   5.944
 8758SOL     OW27172   4.444   6.758   3.181
 8758SOL    HW127173   4.460   6.661   3.166
 8758SOL    HW227174   4.480   6.785   3.270
 8759SOL     OW27175   6.192   1.742   6.969
 8759SOL    HW127176   6.137   1.676   6.919
 8759SOL    HW227177   6.157   1.834   6.953
 8760SOL     OW27178   2.271   2.261   3.877
 8760SOL    HW127179   2.315   2.341   3.837
 8760SOL    HW227180   2.254   2.277   3.974
 8761SOL     OW27181   5.611   1.883   1.866
 8761SOL    HW127182   5.709   1.891   1.885
 8761SOL    HW227183   5.560   1.939   1.932
 8762SOL     OW27184   1.672   6.051   3.448
 8762SOL    HW127185   1.581   6.024   3.478
 8762SOL    HW227186   1.701   5.994   3.371
 8763SOL     OW27187   6.686   0.837   4.786
 8763SOL    HW127188   6.617   0.868   4.721
 8763SOL    HW227189   6.744   0.768   4.743
 8764SOL     OW27190   4.490   6.108   6.002
 8764SOL    HW127191   4.574   6.144   5.963
 8764SOL    HW227192   4.457   6.171   6.073
 8765SOL     OW27193   5.425   1.128   4.851
 8765SOL    HW127194   5.429   1.131   4.951
 8765SOL    HW227195   5.479   1.204   4.814
 8766SOL     OW27196   4.266   4.283   5.343
 8766SOL    HW127197   4.296   4.356   5.282
 8766SOL    HW227198   4.342   4.255   5.401
 8767SOL     OW27199   3.427   0.199   3.762
 8767SOL    HW127200   3.421   0.295   3.791
 8767SOL    HW227201   3.494   0.191   3.688
 8768SOL     OW27202   0.826   2.262   0.241
 8768SOL    HW127203   0.844   2.343   0.296
 8768SOL    HW227204   0.893   2.192   0.261
 8769SOL     OW27205   6.825   1.107   1.786
 8769SOL    HW127206   6.825   1.116   1.886
 8769SOL    HW227207   6.915   1.075   1.756
 8770SOL     OW27208   5.774   4.288   2.055
 8770SOL    HW127209   5.810   4.364   2.001
 8770SOL    HW227210   5.687   4.258   2.016
 8771SOL     OW27211   0.708   3.106   6.290
 8771SOL    HW127212   0.724   3.081   6.195
 8771SOL    HW227213   0.786   3.157   6.326
 8772SOL     OW27214   5.179   0.758   5.120
 8772SOL    HW127215   5.269   0.795   5.099
 8772SOL    HW227216   5.109   0.825   5.098
 8773SOL     OW27217   6.006   2.603   3.797
 8773SOL    HW127218   6.033   2.651   3.713
 8773SOL    HW227219   5.922   2.552   3.780
 8774SOL     OW27220   0.651   6.863   6.329
 8774SOL    HW127221   0.746   6.894   6.337
 8774SOL    HW227222   0.642   6.802   6.250
 8775SOL     OW27223   5.545   1.622   5.331
 8775SOL    HW127224   5.549   1.702   5.270
 8775SOL    HW227225   5.454   1.581   5.325
 8776SOL     OW27226   5.007   3.379   1.101
 8776SOL    HW127227   5.035   3.456   1.158
 8776SOL    HW227228   4.966   3.308   1.159
 8777SOL     OW27229   0.538   3.497   3.155
 8777SOL    HW127230   0.601   3.522   3.081
 8777SOL    HW227231   0.494   3.580   3.190
 8778SOL     OW27232   4.479   4.057   6.048
 8778SOL    HW127233   4.479   4.119   6.127
 8778SOL    HW227234   4.566   4.065   5.999
 8779SOL     OW27235   2.744   5.387   2.488
 8779SOL    HW127236   2.717   5.421   2.398
 8779SOL    HW227237   2.840   5.363   2.487
 8780SOL     OW27238   0.344   6.027   2.549
 8780SOL    HW127239   0.372   5.932   2.536
 8780SOL    HW227240   0.303   6.038   2.640
 8781SOL     OW27241   4.261   6.919   3.074
 8781SOL    HW127242   4.332   6.866   3.121
 8781SOL    HW227243   4.219   6.863   3.003
 8782SOL     OW27244   5.884   1.282   1.968
 8782SOL    HW127245   5.834   1.254   1.886
 8782SOL    HW227246   5.933   1.203   2.005
 8783SOL     OW27247   5.768   2.916   4.299
 8783SOL    HW127248   5.800   2.862   4.378
 8783SOL    HW227249   5.835   2.909   4.225
 8784SOL     OW27250   6.344   6.152   0.558
 8784SOL    HW127251   6.381   6.091   0.487
 8784SOL    HW227252   6.350   6.106   0.647
 8785SOL     OW27253   0.417   5.469   6.252
 8785SOL    HW127254   0.374   5.415   6.325
 8785SOL    HW227255   0.365   5.458   6.167
 8786SOL     OW27256   4.052   1.853   2.573
 8786SOL    HW127257   3.979   1.787   2.555
 8786SOL    HW227258   4.017   1.928   2.629
 8787SOL     OW27259   3.649   0.747   1.402
 8787SOL    HW127260   3.561   0.760   1.356
 8787SOL    HW227261   3.641   0.673   1.469
 8788SOL     OW27262   6.853   0.668   5.261
 8788SOL    HW127263   6.753   0.657   5.268
 8788SOL    HW227264   6.877   0.701   5.170
 8789SOL     OW27265   6.801   4.194   5.169
 8789SOL    HW127266   6.818   4.126   5.097
 8789SOL    HW227267   6.887   4.234   5.198
 8790SOL     OW27268   6.442   2.063   0.486
 8790SOL    HW127269   6.433   2.103   0.395
 8790SOL    HW227270   6.358   2.014   0.509
 8791SOL     OW27271   4.502   6.235   4.984
 8791SOL    HW127272   4.544   6.323   4.963
 8791SOL    HW227273   4.574   6.170   5.010
 8792SOL     OW27274   3.339   5.403   2.343
 8792SOL    HW127275   3.419   5.375   2.397
 8792SOL    HW227276   3.329   5.502   2.348
 8793SOL     OW27277   0.846   4.814   4.520
 8793SOL    HW127278   0.858   4.715   4.515
 8793SOL    HW227279   0.794   4.846   4.440
 8794SOL     OW27280   6.317   1.106   3.393
 8794SOL    HW127281   6.375   1.175   3.438
 8794SOL    HW227282   6.257   1.152   3.327
 8795SOL     OW27283   1.268   5.218   5.049
 8795SOL    HW127284   1.174   5.249   5.059
 8795SOL    HW227285   1.330   5.297   5.047
 8796SOL     OW27286   6.210   3.782   3.161
 8796SOL    HW127287   6.207   3.877   3.192
 8796SOL    HW227288   6.239   3.724   3.237
 8797SOL     OW27289   0.196   0.118   4.146
 8797SOL    HW127290   0.211   0.026   4.183
 8797SOL    HW227291   0.266   0.138   4.077
 8798SOL     OW27292   4.582   6.523   5.696
 8798SOL    HW127293   4.650   6.594   5.716
 8798SOL    HW227294   4.492   6.553   5.729
 8799SOL     OW27295   1.851   4.878   2.062
 8799SOL    HW127296   1.913   4.827   2.122
 8799SOL    HW227297   1.757   4.848   2.078
 8800SOL     OW27298   5.995   5.971   5.674
 8800SOL    HW127299   6.019   5.915   5.595
 8800SOL    HW227300   6.016   5.920   5.758
 8801SOL     OW27301   6.194   1.942   5.482
 8801SOL    HW127302   6.280   1.922   5.436
 8801SOL    HW227303   6.118   1.920   5.421
 8802SOL     OW27304   1.224   5.758   5.326
 8802SOL    HW127305   1.306   5.797   5.368
 8802SOL    HW227306   1.143   5.793   5.373
 8803SOL     OW27307   6.926   0.944   0.203
 8803SOL    HW127308   7.010   0.999   0.202
 8803SOL    HW227309   6.870   0.972   0.281
 8804SOL     OW27310   2.204   6.254   0.990
 8804SOL    HW127311   2.140   6.305   1.047
 8804SOL    HW227312   2.270   6.207   1.048
 8805SOL     OW27313   4.161   5.571   3.645
 8805SOL    HW127314   4.246   5.529   3.676
 8805SOL    HW227315   4.181   5.642   3.578
 8806SOL     OW27316   2.391   5.805   0.575
 8806SOL    HW127317   2.429   5.863   0.647
 8806SOL    HW227318   2.310   5.758   0.609
 8807SOL     OW27319   4.622   2.178   7.008
 8807SOL    HW127320   4.606   2.103   0.044
 8807SOL    HW227321   4.553   2.249   7.022
 8808SOL     OW27322   1.228   2.671   6.916
 8808SOL    HW127323   1.164   2.632   6.982
 8808SOL    HW227324   1.225   2.618   6.832
 8809SOL     OW27325   2.264   4.091   3.252
 8809SOL    HW127326   2.197   4.152   3.294
 8809SOL    HW227327   2.321   4.050   3.324
 8810SOL     OW27328   6.045   1.064   5.364
 8810SOL    HW127329   6.132   1.077   5.317
 8810SOL    HW227330   6.040   1.126   5.442
 8811SOL     OW27331   4.856   0.378   2.825
 8811SOL    HW127332   4.819   0.368   2.918
 8811SOL    HW227333   4.785   0.416   2.765
 8812SOL     OW27334   3.200   0.117   6.781
 8812SOL    HW127335   3.300   0.112   6.783
 8812SOL    HW227336   3.164   0.112   6.874
 8813SOL     OW27337   2.482   4.492   2.496
 8813SOL    HW127338   2.434   4.417   2.541
 8813SOL    HW227339   2.578   4.491   2.523
 8814SOL     OW27340   5.345   6.847   0.609
 8814SOL    HW127341   5.413   6.865   0.539
 8814SOL    HW227342   5.281   6.777   0.577
 8815SOL     OW27343   5.428   0.829   1.207
 8815SOL    HW127344   5.444   0.886   1.288
 8815SOL    HW227345   5.336   0.788   1.213
 8816SOL     OW27346   0.171   6.593   6.788
 8816SOL    HW127347   0.268   6.599   6.812
 8816SOL    HW227348   0.160   6.603   6.690
 8817SOL     OW27349   0.768   3.314   4.201
 8817SOL    HW127350   0.768   3.369   4.284
 8817SOL    HW227351   0.711   3.233   4.214
 8818SOL     OW27352   1.418   6.498   3.348
 8818SOL    HW127353   1.513   6.529   3.358
 8818SOL    HW227354   1.387   6.516   3.255
 8819SOL     OW27355   5.682   4.488   5.242
 8819SOL    HW127356   5.592   4.507   5.203
 8819SOL    HW227357   5.747   4.559   5.211
 8820SOL     OW27358   3.164   1.112   4.491
 8820SOL    HW127359   3.216   1.055   4.428
 8820SOL    HW227360   3.141   1.198   4.446
 8821SOL     OW27361   0.816   4.859   0.136
 8821SOL    HW127362   0.824   4.958   0.124
 8821SOL    HW227363   0.861   4.812   0.060
 8822SOL     OW27364   0.143   0.299   3.308
 8822SOL    HW127365   0.200   0.371   3.268
 8822SOL    HW227366   0.062   0.340   3.349
 8823SOL     OW27367   2.346   0.511   2.675
 8823SOL    HW127368   2.422   0.452   2.705
 8823SOL    HW227369   2.362   0.539   2.580
 8824SOL     OW27370   1.684   0.098   1.376
 8824SOL    HW127371   1.722   0.064   1.462
 8824SOL    HW227372   1.616   0.169   1.395
 8825SOL     OW27373   0.340   0.672   1.282
 8825SOL    HW127374   0.393   0.744   1.327
 8825SOL    HW227375   0.402   0.605   1.240
 8826SOL     OW27376   0.872   3.399   0.741
 8826SOL    HW127377   0.784   3.359   0.714
 8826SOL    HW227378   0.920   3.433   0.660
 8827SOL     OW27379   4.072   0.739   2.585
 8827SOL    HW127380   4.105   0.828   2.554
 8827SOL    HW227381   4.136   0.700   2.651
 8828SOL     OW27382   4.030   4.452   6.663
 8828SOL    HW127383   3.935   4.454   6.694
 8828SOL    HW227384   4.035   4.405   6.575
 8829SOL     OW27385   6.187   1.755   1.894
 8829SOL    HW127386   6.173   1.770   1.796
 8829SOL    HW227387   6.257   1.684   1.907
 8830SOL     OW27388   1.741   1.667   2.058
 8830SOL    HW127389   1.719   1.723   2.138
 8830SOL    HW227390   1.740   1.725   1.976
 8831SOL     OW27391   6.614   3.000   2.476
 8831SOL    HW127392   6.675   3.054   2.417
 8831SOL    HW227393   6.575   2.925   2.423
 8832SOL     OW27394   0.114   6.378   4.490
 8832SOL    HW127395   0.061   6.378   4.406
 8832SOL    HW227396   0.073   6.442   4.556
 8833SOL     OW27397   3.672   3.498   1.117
 8833SOL    HW127398   3.578   3.526   1.099
 8833SOL    HW227399   3.673   3.427   1.188
 8834SOL     OW27400   5.914   3.305   5.140
 8834SOL    HW127401   6.010   3.332   5.143
 8834SOL    HW227402   5.857   3.384   5.116
 8835SOL     OW27403   5.793   1.045   5.737
 8835SOL    HW127404   5.839   1.132   5.724
 8835SOL    HW227405   5.840   0.992   5.808
 8836SOL     OW27406   6.287   2.398   0.442
 8836SOL    HW127407   6.221   2.327   0.465
 8836SOL    HW227408   6.341   2.370   0.364
 8837SOL     OW27409   0.215   0.302   1.444
 8837SOL    HW127410   0.118   0.322   1.433
 8837SOL    HW227411   0.237   0.219   1.392
 8838SOL     OW27412   0.750   4.521   2.292
 8838SOL    HW127413   0.699   4.605   2.309
 8838SOL    HW227414   0.812   4.535   2.215
 8839SOL     OW27415   4.854   5.476   2.530
 8839SOL    HW127416   4.827   5.568   2.559
 8839SOL    HW227417   4.857   5.471   2.431
 8840SOL     OW27418   6.263   0.431   2.011
 8840SOL    HW127419   6.346   0.383   1.982
 8840SOL    HW227420   6.288   0.505   2.073
 8841SOL     OW27421   4.171   0.904   1.864
 8841SOL    HW127422   4.112   0.976   1.897
 8841SOL    HW227423   4.262   0.941   1.846
 8842SOL     OW27424   3.135   4.054   4.277
 8842SOL    HW127425   3.066   4.038   4.348
 8842SOL    HW227426   3.093   4.047   4.187
 8843SOL     OW27427   1.848   3.346   4.889
 8843SOL    HW127428   1.767   3.307   4.846
 8843SOL    HW227429   1.926   3.284   4.876
 8844SOL     OW27430   6.848   2.386   5.362
 8844SOL    HW127431   6.788   2.331   5.420
 8844SOL    HW227432   6.909   2.325   5.311
 8845SOL     OW27433   2.173   5.352   1.101
 8845SOL    HW127434   2.103   5.407   1.056
 8845SOL    HW227435   2.261   5.368   1.057
 8846SOL     OW27436   5.226   4.984   4.249
 8846SOL    HW127437   5.182   5.060   4.298
 8846SOL    HW227438   5.295   4.942   4.308
 8847SOL     OW27439   1.503   1.125   2.204
 8847SOL    HW127440   1.436   1.096   2.273
 8847SOL    HW227441   1.499   1.225   2.195
 8848SOL     OW27442   3.321   2.064   2.009
 8848SOL    HW127443   3.228   2.047   1.978
 8848SOL    HW227444   3.343   2.161   1.997
 8849SOL     OW27445   2.593   5.400   3.797
 8849SOL    HW127446   2.618   5.310   3.834
 8849SOL    HW227447   2.594   5.396   3.697
 8850SOL     OW27448   2.691   1.215   0.835
 8850SOL    HW127449   2.689   1.122   0.798
 8850SOL    HW227450   2.785   1.239   0.859
 8851SOL     OW27451   1.139   4.665   2.485
 8851SOL    HW127452   1.107   4.572   2.465
 8851SOL    HW227453   1.129   4.683   2.582
 8852SOL     OW27454   5.099   2.950   6.489
 8852SOL    HW127455   5.020   2.990   6.536
 8852SOL    HW227456   5.163   3.023   6.464
 8853SOL     OW27457   3.746   0.880   4.428
 8853SOL    HW127458   3.649   0.863   4.444
 8853SOL    HW227459   3.783   0.810   4.367
 8854SOL     OW27460   2.122   0.389   6.049
 8854SOL    HW127461   2.058   0.318   6.078
 8854SOL    HW227462   2.072   0.476   6.039
 8855SOL     OW27463   6.431   5.548   6.962
 8855SOL    HW127464   6.408   5.465   7.012
 8855SOL    HW227465   6.381   5.626   7.001
 8856SOL     OW27466   6.835   0.025   4.937
 8856SOL    HW127467   6.851   0.114   4.895
 8856SOL    HW227468   6.864   0.028   5.033
 8857SOL     OW27469   6.423   1.706   3.273
 8857SOL    HW127470   6.424   1.739   3.368
 8857SOL    HW227471   6.463   1.615   3.270
 8858SOL     OW27472   1.617   3.570   5.794
 8858SOL    HW127473   1.637   3.621   5.710
 8858SOL    HW227474   1.660   3.615   5.872
 8859SOL     OW27475   0.944   6.822   5.377
 8859SOL    HW127476   0.913   6.915   5.359
 8859SOL    HW227477   1.037   6.824   5.413
 8860SOL     OW27478   1.913   4.015   2.556
 8860SOL    HW127479   1.873   3.951   2.491
 8860SOL    HW227480   1.972   4.080   2.508
 8861SOL     OW27481   3.519   2.685   6.187
 8861SOL    HW127482   3.464   2.740   6.250
 8861SOL    HW227483   3.553   2.744   6.113
 8862SOL     OW27484   6.045   1.507   3.877
 8862SOL    HW127485   6.013   1.597   3.848
 8862SOL    HW227486   6.143   1.511   3.897
 8863SOL     OW27487   1.902   5.745   4.544
 8863SOL    HW127488   1.932   5.777   4.454
 8863SOL    HW227489   1.839   5.668   4.533
 8864SOL     OW27490   2.468   3.193   6.413
 8864SOL    HW127491   2.525   3.213   6.334
 8864SOL    HW227492   2.395   3.261   6.420
 8865SOL     OW27493   3.259   1.090   4.760
 8865SOL    HW127494   3.215   1.101   4.671
 8865SOL    HW227495   3.324   1.164   4.775
 8866SOL     OW27496   4.287   6.331   3.341
 8866SOL    HW127497   4.328   6.246   3.308
 8866SOL    HW227498   4.192   6.336   3.312
 8867SOL     OW27499   5.270   2.570   3.173
 8867SOL    HW127500   5.339   2.560   3.101
 8867SOL    HW227501   5.188   2.518   3.148
 8868SOL     OW27502   5.526   3.676   0.888
 8868SOL    HW127503   5.604   3.737   0.902
 8868SOL    HW227504   5.499   3.636   0.976
 8869SOL     OW27505   4.045   4.783   3.219
 8869SOL    HW127506   4.112   4.742   3.157
 8869SOL    HW227507   3.953   4.772   3.181
 8870SOL     OW27508   2.984   0.263   0.825
 8870SOL    HW127509   2.916   0.315   0.877
 8870SOL    HW227510   2.968   0.165   0.839
 8871SOL     OW27511   3.186   1.649   3.595
 8871SOL    HW127512   3.159   1.615   3.685
 8871SOL    HW227513   3.154   1.585   3.525
 8872SOL     OW27514   1.528   3.895   4.456
 8872SOL    HW127515   1.583   3.891   4.539
 8872SOL    HW227516   1.528   3.806   4.411
 8873SOL     OW27517   6.409   5.744   2.093
 8873SOL    HW127518   6.390   5.814   2.162
 8873SOL    HW227519   6.377   5.776   2.003
 8874SOL     OW27520   2.308   0.093   1.246
 8874SOL    HW127521   2.271   0.000   1.248
 8874SOL    HW227522   2.235   0.158   1.227
 8875SOL     OW27523   1.109   2.539   4.458
 8875SOL    HW127524   1.126   2.522   4.556
 8875SOL    HW227525   1.195   2.532   4.408
 8876SOL     OW27526   0.460   0.376   4.903
 8876SOL    HW127527   0.364   0.356   4.884
 8876SOL    HW227528   0.489   0.456   4.851
 8877SOL     OW27529   2.817   0.358   4.237
 8877SOL    HW127530   2.891   0.324   4.296
 8877SOL    HW227531   2.729   0.333   4.276
 8878SOL     OW27532   0.595   5.202   0.979
 8878SOL    HW127533   0.537   5.159   0.910
 8878SOL    HW227534   0.543   5.216   1.063
 8879SOL     OW27535   5.570   5.050   0.901
 8879SOL    HW127536   5.538   5.139   0.935
 8879SOL    HW227537   5.520   4.977   0.947
 8880SOL     OW27538   0.562   5.730   4.926
 8880SOL    HW127539   0.590   5.640   4.892
 8880SOL    HW227540   0.576   5.798   4.854
 8881SOL     OW27541   5.714   0.285   3.164
 8881SOL    HW127542   5.806   0.247   3.175
 8881SOL    HW227543   5.686   0.330   3.249
 8882SOL     OW27544   5.149   0.839   0.446
 8882SOL    HW127545   5.201   0.804   0.369
 8882SOL    HW227546   5.057   0.865   0.415
 8883SOL     OW27547   0.508   1.073   6.043
 8883SOL    HW127548   0.520   1.009   6.119
 8883SOL    HW227549   0.414   1.108   6.043
 8884SOL     OW27550   5.747   6.410   6.571
 8884SOL    HW127551   5.700   6.441   6.654
 8884SOL    HW227552   5.679   6.377   6.505
 8885SOL     OW27553   6.326   3.514   1.349
 8885SOL    HW127554   6.364   3.565   1.426
 8885SOL    HW227555   6.267   3.441   1.383
 8886SOL     OW27556   3.202   5.967   5.829
 8886SOL    HW127557   3.164   6.030   5.761
 8886SOL    HW227558   3.180   6.001   5.921
 8887SOL     OW27559   3.031   1.460   1.296
 8887SOL    HW127560   2.987   1.542   1.260
 8887SOL    HW227561   3.107   1.434   1.236
 8888SOL     OW27562   1.322   1.931   1.294
 8888SOL    HW127563   1.228   1.898   1.298
 8888SOL    HW227564   1.345   1.975   1.381
 8889SOL     OW27565   4.974   6.458   5.771
 8889SOL    HW127566   5.013   6.450   5.679
 8889SOL    HW227567   4.971   6.367   5.813
 8890SOL     OW27568   6.536   6.290   5.027
 8890SOL    HW127569   6.487   6.202   5.031
 8890SOL    HW227570   6.580   6.300   4.938
 8891SOL     OW27571   5.881   3.202   6.146
 8891SOL    HW127572   5.831   3.264   6.206
 8891SOL    HW227573   5.967   3.245   6.119
 8892SOL     OW27574   2.990   6.305   3.356
 8892SOL    HW127575   2.928   6.380   3.335
 8892SOL    HW227576   2.977   6.276   3.451
 8893SOL     OW27577   0.535   0.539   2.176
 8893SOL    HW127578   0.591   0.621   2.171
 8893SOL    HW227579   0.521   0.503   2.083
 8894SOL     OW27580   3.787   3.499   6.090
 8894SOL    HW127581   3.826   3.478   6.001
 8894SOL    HW227582   3.698   3.455   6.099
 8895SOL     OW27583   7.014   0.438   1.411
 8895SOL    HW127584   6.917   0.455   1.399
 8895SOL    HW227585   0.031   0.523   1.439
 8896SOL     OW27586   1.086   3.229   4.703
 8896SOL    HW127587   1.004   3.176   4.727
 8896SOL    HW227588   1.160   3.167   4.677
 8897SOL     OW27589   1.367   1.716   2.241
 8897SOL    HW127590   1.379   1.663   2.325
 8897SOL    HW227591   1.270   1.737   2.228
 8898SOL     OW27592   6.213   3.267   4.671
 8898SOL    HW127593   6.163   3.346   4.638
 8898SOL    HW227594   6.162   3.184   4.649
 8899SOL     OW27595   1.627   4.026   6.894
 8899SOL    HW127596   1.537   4.009   6.852
 8899SOL    HW227597   1.647   4.124   6.892
 8900SOL     OW27598   5.468   3.797   2.635
 8900SOL    HW127599   5.463   3.892   2.603
 8900SOL    HW227600   5.411   3.739   2.577
 8901SOL     OW27601   2.888   0.640   3.860
 8901SOL    HW127602   2.917   0.553   3.900
 8901SOL    HW227603   2.840   0.694   3.929
 8902SOL     OW27604   3.125   6.073   6.301
 8902SOL    HW127605   3.214   6.026   6.301
 8902SOL    HW227606   3.061   6.021   6.358
 8903SOL     OW27607   2.336   0.962   4.088
 8903SOL    HW127608   2.417   1.013   4.118
 8903SOL    HW227609   2.291   0.920   4.166
 8904SOL     OW27610   0.054   5.197   3.819
 8904SOL    HW127611   0.141   5.155   3.794
 8904SOL    HW227612   7.015   5.182   3.747
 8905SOL     OW27613   1.825   4.207   4.530
 8905SOL    HW127614   1.769   4.227   4.449
 8905SOL    HW227615   1.792   4.261   4.607
 8906SOL     OW27616   6.705   6.748   6.782
 8906SOL    HW127617   6.640   6.824   6.785
 8906SOL    HW227618   6.689   6.693   6.700
 8907SOL     OW27619   3.085   2.120   5.296
 8907SOL    HW127620   3.122   2.116   5.389
 8907SOL    HW227621   3.144   2.178   5.239
 8908SOL     OW27622   1.422   3.222   6.923
 8908SOL    HW127623   1.369   3.147   6.964
 8908SOL    HW227624   1.433   3.205   6.825
 8909SOL     OW27625   1.838   0.456   5.231
 8909SOL    HW127626   1.769   0.528   5.243
 8909SOL    HW227627   1.794   0.366   5.241
 8910SOL     OW27628   1.959   2.911   6.038
 8910SOL    HW127629   1.902   2.988   6.008
 8910SOL    HW227630   2.044   2.909   5.985
 8911SOL     OW27631   3.349   2.091   5.060
 8911SOL    HW127632   3.265   2.047   5.027
 8911SOL    HW227633   3.327   2.181   5.097
 8912SOL     OW27634   4.182   1.205   6.754
 8912SOL    HW127635   4.197   1.123   6.809
 8912SOL    HW227636   4.172   1.284   6.815
 8913SOL     OW27637   5.090   4.676   1.194
 8913SOL    HW127638   5.105   4.620   1.275
 8913SOL    HW227639   4.994   4.670   1.167
 8914SOL     OW27640   4.524   1.021   5.824
 8914SOL    HW127641   4.619   1.039   5.850
 8914SOL    HW227642   4.515   0.926   5.794
 8915SOL     OW27643   1.217   2.342   3.981
 8915SOL    HW127644   1.122   2.310   3.988
 8915SOL    HW227645   1.217   2.433   3.940
 8916SOL     OW27646   0.529   3.335   1.934
 8916SOL    HW127647   0.598   3.262   1.933
 8916SOL    HW227648   0.486   3.338   2.024
 8917SOL     OW27649   5.896   5.233   6.104
 8917SOL    HW127650   5.940   5.269   6.186
 8917SOL    HW227651   5.918   5.291   6.026
 8918SOL     OW27652   6.833   6.056   0.278
 8918SOL    HW127653   6.771   6.111   0.222
 8918SOL    HW227654   6.925   6.058   0.237
 8919SOL     OW27655   4.357   3.124   0.744
 8919SOL    HW127656   4.453   3.133   0.717
 8919SOL    HW227657   4.300   3.108   0.663
 8920SOL     OW27658   6.987   6.540   6.942
 8920SOL    HW127659   0.047   6.559   6.899
 8920SOL    HW227660   7.002   6.502   0.006
 8921SOL     OW27661   1.929   1.562   3.227
 8921SOL    HW127662   1.955   1.508   3.146
 8921SOL    HW227663   1.905   1.655   3.199
 8922SOL     OW27664   2.578   5.186   1.074
 8922SOL    HW127665   2.623   5.105   1.035
 8922SOL    HW227666   2.497   5.157   1.124
 8923SOL     OW27667   1.986   3.873   6.489
 8923SOL    HW127668   1.967   3.937   6.564
 8923SOL    HW227669   2.074   3.828   6.506
 8924SOL     OW27670   2.824   5.803   5.904
 8924SOL    HW127671   2.741   5.858   5.909
 8924SOL    HW227672   2.890   5.836   5.972
 8925SOL     OW27673   1.152   0.480   2.118
 8925SOL    HW127674   1.176   0.569   2.156
 8925SOL    HW227675   1.084   0.436   2.176
 8926SOL     OW27676   5.762   2.699   0.833
 8926SOL    HW127677   5.732   2.613   0.790
 8926SOL    HW227678   5.684   2.759   0.846
 8927SOL     OW27679   2.389   1.804   4.895
 8927SOL    HW127680   2.451   1.744   4.946
 8927SOL    HW227681   2.328   1.851   4.959
 8928SOL     OW27682   6.893   0.738   5.018
 8928SOL    HW127683   6.964   0.718   4.950
 8928SOL    HW227684   6.852   0.827   4.997
 8929SOL     OW27685   0.278   3.778   3.742
 8929SOL    HW127686   0.344   3.765   3.668
 8929SOL    HW227687   0.190   3.740   3.715
 8930SOL     OW27688   1.536   4.873   5.113
 8930SOL    HW127689   1.450   4.888   5.161
 8930SOL    HW227690   1.519   4.828   5.026
 8931SOL     OW27691   3.613   2.927   0.751
 8931SOL    HW127692   3.687   2.988   0.724
 8931SOL    HW227693   3.595   2.861   0.678
 8932SOL     OW27694   5.377   0.134   6.886
 8932SOL    HW127695   5.419   0.044   6.900
 8932SOL    HW227696   5.279   0.123   6.868
 8933SOL     OW27697   1.037   2.090   5.261
 8933SOL    HW127698   0.996   2.008   5.221
 8933SOL    HW227699   1.033   2.165   5.195
 8934SOL     OW27700   2.666   5.367   3.474
 8934SOL    HW127701   2.619   5.408   3.396
 8934SOL    HW227702   2.618   5.283   3.502
 8935SOL     OW27703   4.929   3.778   1.952
 8935SOL    HW127704   4.942   3.681   1.968
 8935SOL    HW227705   5.018   3.823   1.940
 8936SOL     OW27706   0.459   3.273   0.742
 8936SOL    HW127707   0.475   3.344   0.811
 8936SOL    HW227708   0.450   3.315   0.652
 8937SOL     OW27709   0.378   1.057   4.095
 8937SOL    HW127710   0.440   1.023   4.165
 8937SOL    HW227711   0.346   0.981   4.038
 8938SOL     OW27712   6.383   1.562   0.733
 8938SOL    HW127713   6.426   1.646   0.766
 8938SOL    HW227714   6.351   1.576   0.639
 8939SOL     OW27715   6.497   2.972   4.784
 8939SOL    HW127716   6.496   3.039   4.710
 8939SOL    HW227717   6.490   2.880   4.746
 8940SOL     OW27718   6.265   2.476   0.161
 8940SOL    HW127719   6.331   2.465   0.087
 8940SOL    HW227720   6.204   2.397   0.163
 8941SOL     OW27721   4.889   2.153   1.664
 8941SOL    HW127722   4.803   2.155   1.716
 8941SOL    HW227723   4.953   2.220   1.703
 8942SOL     OW27724   0.364   5.086   4.007
 8942SOL    HW127725   0.388   5.162   4.068
 8942SOL    HW227726   0.270   5.058   4.024
 8943SOL     OW27727   4.352   4.559   0.228
 8943SOL    HW127728   4.264   4.557   0.180
 8943SOL    HW227729   4.343   4.511   0.315
 8944SOL     OW27730   4.778   4.881   4.321
 8944SOL    HW127731   4.859   4.854   4.269
 8944SOL    HW227732   4.801   4.953   4.386
 8945SOL     OW27733   6.844   3.220   4.877
 8945SOL    HW127734   6.882   3.175   4.796
 8945SOL    HW227735   6.909   3.290   4.909
 8946SOL     OW27736   3.478   0.496   4.596
 8946SOL    HW127737   3.379   0.494   4.609
 8946SOL    HW227738   3.500   0.538   4.508
 8947SOL     OW27739   1.821   4.491   6.534
 8947SOL    HW127740   1.871   4.508   6.449
 8947SOL    HW227741   1.885   4.473   6.608
 8948SOL     OW27742   6.499   6.153   4.167
 8948SOL    HW127743   6.506   6.239   4.217
 8948SOL    HW227744   6.512   6.170   4.070
 8949SOL     OW27745   3.766   6.053   6.850
 8949SOL    HW127746   3.829   6.126   6.878
 8949SOL    HW227747   3.737   6.002   6.931
 8950SOL     OW27748   4.872   3.656   1.101
 8950SOL    HW127749   4.942   3.634   1.034
 8950SOL    HW227750   4.862   3.755   1.107
 8951SOL     OW27751   2.289   1.171   4.332
 8951SOL    HW127752   2.276   1.225   4.415
 8951SOL    HW227753   2.322   1.080   4.356
 8952SOL     OW27754   2.188   4.734   3.685
 8952SOL    HW127755   2.125   4.656   3.681
 8952SOL    HW227756   2.175   4.782   3.771
 8953SOL     OW27757   2.638   5.318   1.588
 8953SOL    HW127758   2.721   5.300   1.641
 8953SOL    HW227759   2.648   5.279   1.497
 8954SOL     OW27760   0.763   5.672   3.890
 8954SOL    HW127761   0.859   5.694   3.876
 8954SOL    HW227762   0.724   5.638   3.804
 8955SOL     OW27763   6.956   2.860   2.779
 8955SOL    HW127764   6.955   2.814   2.691
 8955SOL    HW227765   0.007   2.921   2.785
 8956SOL     OW27766   0.796   6.951   6.731
 8956SOL    HW127767   0.851   6.871   6.757
 8956SOL    HW227768   0.717   6.921   6.678
 8957SOL     OW27769   1.921   5.563   1.971
 8957SOL    HW127770   1.965   5.651   1.953
 8957SOL    HW227771   1.958   5.523   2.055
 8958SOL     OW27772   1.783   2.789   4.815
 8958SOL    HW127773   1.856   2.744   4.764
 8958SOL    HW227774   1.819   2.870   4.861
 8959SOL     OW27775   1.015   3.395   2.294
 8959SOL    HW127776   0.926   3.369   2.332
 8959SOL    HW227777   1.076   3.316   2.298
 8960SOL     OW27778   6.407   4.722   4.199
 8960SOL    HW127779   6.501   4.695   4.180
 8960SOL    HW227780   6.374   4.784   4.128
 8961SOL     OW27781   3.233   0.301   4.021
 8961SOL    HW127782   3.310   0.353   3.985
 8961SOL    HW227783   3.225   0.215   3.971
 8962SOL     OW27784   0.767   6.448   1.795
 8962SOL    HW127785   0.727   6.432   1.885
 8962SOL    HW227786   0.764   6.364   1.741
 8963SOL     OW27787   3.473   5.910   4.581
 8963SOL    HW127788   3.412   5.862   4.645
 8963SOL    HW227789   3.545   5.848   4.550
 8964SOL     OW27790   5.616   3.903   2.903
 8964SOL    HW127791   5.574   3.900   2.994
 8964SOL    HW227792   5.593   3.819   2.854
 8965SOL     OW27793   2.834   4.491   0.343
 8965SOL    HW127794   2.903   4.437   0.296
 8965SOL    HW227795   2.865   4.511   0.436
 8966SOL     OW27796   6.651   5.713   6.470
 8966SOL    HW127797   6.706   5.651   6.415
 8966SOL    HW227798   6.674   5.807   6.448
 8967SOL     OW27799   4.170   0.611   3.672
 8967SOL    HW127800   4.143   0.705   3.694
 8967SOL    HW227801   4.107   0.547   3.715
 8968SOL     OW27802   2.679   4.947   1.638
 8968SOL    HW127803   2.611   5.018   1.660
 8968SOL    HW227804   2.701   4.896   1.721
 8969SOL     OW27805   0.494   0.176   3.317
 8969SOL    HW127806   0.457   0.200   3.228
 8969SOL    HW227807   0.531   0.083   3.314
 8970SOL     OW27808   1.764   2.835   6.636
 8970SOL    HW127809   1.685   2.790   6.676
 8970SOL    HW227810   1.747   2.933   6.628
 8971SOL     OW27811   4.691   6.914   1.412
 8971SOL    HW127812   4.755   6.917   1.489
 8971SOL    HW227813   4.732   6.958   1.332
 8972SOL     OW27814   5.538   4.838   0.526
 8972SOL    HW127815   5.556   4.837   0.428
 8972SOL    HW227816   5.496   4.751   0.553
 8973SOL     OW27817   0.235   2.723   2.282
 8973SOL    HW127818   0.318   2.669   2.264
 8973SOL    HW227819   0.243   2.766   2.372
 8974SOL     OW27820   2.112   3.505   3.993
 8974SOL    HW127821   2.106   3.551   4.082
 8974SOL    HW227822   2.157   3.566   3.927
 8975SOL     OW27823   0.362   6.864   6.313
 8975SOL    HW127824   0.366   6.886   6.410
 8975SOL    HW227825   0.419   6.784   6.295
 8976SOL     OW27826   6.457   6.787   1.303
 8976SOL    HW127827   6.483   6.709   1.246
 8976SOL    HW227828   6.539   6.827   1.343
 8977SOL     OW27829   6.980   4.968   6.385
 8977SOL    HW127830   6.910   4.946   6.317
 8977SOL    HW227831   6.948   4.940   6.476
 8978SOL     OW27832   5.205   6.469   4.770
 8978SOL    HW127833   5.209   6.375   4.803
 8978SOL    HW227834   5.150   6.524   4.834
 8979SOL     OW27835   0.839   5.573   6.024
 8979SOL    HW127836   0.785   5.601   5.945
 8979SOL    HW227837   0.783   5.518   6.086
 8980SOL     OW27838   4.262   1.939   5.819
 8980SOL    HW127839   4.238   1.976   5.730
 8980SOL    HW227840   4.214   1.989   5.891
 8981SOL     OW27841   4.663   2.220   5.768
 8981SOL    HW127842   4.758   2.192   5.754
 8981SOL    HW227843   4.603   2.141   5.759
 8982SOL     OW27844   6.372   1.460   1.348
 8982SOL    HW127845   6.293   1.484   1.405
 8982SOL    HW227846   6.453   1.450   1.406
 8983SOL     OW27847   1.313   5.004   1.757
 8983SOL    HW127848   1.218   4.990   1.784
 8983SOL    HW227849   1.366   5.036   1.836
 8984SOL     OW27850   6.077   0.072   4.323
 8984SOL    HW127851   6.089   0.159   4.371
 8984SOL    HW227852   6.123   0.077   4.234
 8985SOL     OW27853   4.676   1.549   0.895
 8985SOL    HW127854   4.723   1.470   0.935
 8985SOL    HW227855   4.744   1.618   0.870
 8986SOL     OW27856   5.309   4.401   2.176
 8986SOL    HW127857   5.288   4.306   2.154
 8986SOL    HW227858   5.398   4.407   2.221
 8987SOL     OW27859   3.030   0.407   1.116
 8987SOL    HW127860   3.030   0.319   1.164
 8987SOL    HW227861   3.120   0.450   1.127
 8988SOL     OW27862   2.040   5.565   1.000
 8988SOL    HW127863   2.071   5.635   1.065
 8988SOL    HW227864   1.960   5.599   0.951
 8989SOL     OW27865   5.079   2.961   2.812
 8989SOL    HW127866   5.014   2.994   2.881
 8989SOL    HW227867   5.049   2.872   2.777
 8990SOL     OW27868   2.697   6.249   0.991
 8990SOL    HW127869   2.752   6.331   1.004
 8990SOL    HW227870   2.628   6.265   0.919
 8991SOL     OW27871   2.366   2.531   1.147
 8991SOL    HW127872   2.364   2.581   1.234
 8991SOL    HW227873   2.302   2.455   1.152
 8992SOL     OW27874   0.480   3.061   0.224
 8992SOL    HW127875   0.499   2.968   0.257
 8992SOL    HW227876   0.388   3.064   0.185
 8993SOL     OW27877   4.697   2.016   3.620
 8993SOL    HW127878   4.742   2.023   3.531
 8993SOL    HW227879   4.739   1.943   3.674
 8994SOL     OW27880   1.668   4.871   4.532
 8994SOL    HW127881   1.680   4.775   4.504
 8994SOL    HW227882   1.717   4.886   4.618
 8995SOL     OW27883   1.110   2.635   5.098
 8995SOL    HW127884   1.102   2.536   5.107
 8995SOL    HW227885   1.022   2.678   5.120
 8996SOL     OW27886   0.490   3.380   1.150
 8996SOL    HW127887   0.421   3.414   1.214
 8996SOL    HW227888   0.485   3.433   1.065
 8997SOL     OW27889   5.136   1.245   5.676
 8997SOL    HW127890   5.059   1.182   5.669
 8997SOL    HW227891   5.154   1.265   5.772
 8998SOL     OW27892   0.036   2.278   4.893
 8998SOL    HW127893   0.012   2.202   4.833
 8998SOL    HW227894   6.981   2.320   4.930
 8999SOL     OW27895   5.226   1.035   6.267
 8999SOL    HW127896   5.231   1.048   6.168
 8999SOL    HW227897   5.264   1.115   6.313
 9000SOL     OW27898   3.011   3.879   6.936
 9000SOL    HW127899   2.924   3.873   6.987
 9000SOL    HW227900   3.071   3.943   6.983
 9001SOL     OW27901   1.245   4.569   3.414
 9001SOL    HW127902   1.224   4.498   3.481
 9001SOL    HW227903   1.318   4.537   3.354
 9002SOL     OW27904   6.845   5.481   5.452
 9002SOL    HW127905   6.835   5.457   5.548
 9002SOL    HW227906   6.942   5.482   5.427
 9003SOL     OW27907   6.544   2.355   0.302
 9003SOL    HW127908   6.621   2.319   0.354
 9003SOL    HW227909   6.500   2.281   0.251
 9004SOL     OW27910   4.954   6.977   1.537
 9004SOL    HW127911   5.040   6.981   1.588
 9004SOL    HW227912   4.971   7.002   1.442
 9005SOL     OW27913   5.265   2.138   4.066
 9005SOL    HW127914   5.232   2.099   4.152
 9005SOL    HW227915   5.219   2.093   3.990
 9006SOL     OW27916   1.465   5.483   0.889
 9006SOL    HW127917   1.471   5.541   0.971
 9006SOL    HW227918   1.528   5.406   0.899
 9007SOL     OW27919   3.166   5.142   3.604
 9007SOL    HW127920   3.097   5.169   3.537
 9007SOL    HW227921   3.121   5.104   3.685
 9008SOL     OW27922   6.612   4.778   2.707
 9008SOL    HW127923   6.637   4.698   2.653
 9008SOL    HW227924   6.671   4.784   2.788
 9009SOL     OW27925   2.935   6.569   0.799
 9009SOL    HW127926   2.897   6.580   0.891
 9009SOL    HW227927   3.017   6.512   0.803
 9010SOL     OW27928   0.950   6.848   4.509
 9010SOL    HW127929   1.033   6.826   4.562
 9010SOL    HW227930   0.941   6.784   4.433
 9011SOL     OW27931   4.179   2.268   1.444
 9011SOL    HW127932   4.103   2.269   1.379
 9011SOL    HW227933   4.149   2.308   1.530
 9012SOL     OW27934   1.685   5.315   0.820
 9012SOL    HW127935   1.719   5.354   0.906
 9012SOL    HW227936   1.658   5.220   0.835
 9013SOL     OW27937   6.400   5.904   4.627
 9013SOL    HW127938   6.462   5.858   4.564
 9013SOL    HW227939   6.314   5.926   4.581
 9014SOL     OW27940   1.531   1.206   0.103
 9014SOL    HW127941   1.497   1.296   0.130
 9014SOL    HW227942   1.480   1.135   0.151
 9015SOL     OW27943   0.159   1.004   6.986
 9015SOL    HW127944   0.245   0.969   7.022
 9015SOL    HW227945   0.109   1.051   0.031
 9016SOL     OW27946   6.769   6.454   5.790
 9016SOL    HW127947   6.721   6.496   5.866
 9016SOL    HW227948   6.838   6.517   5.754
 9017SOL     OW27949   6.124   1.926   3.775
 9017SOL    HW127950   6.114   1.968   3.865
 9017SOL    HW227951   6.055   1.854   3.764
 9018SOL     OW27952   3.738   1.481   5.257
 9018SOL    HW127953   3.699   1.571   5.236
 9018SOL    HW227954   3.666   1.412   5.251
 9019SOL     OW27955   2.432   6.142   6.807
 9019SOL    HW127956   2.523   6.158   6.768
 9019SOL    HW227957   2.441   6.105   6.900
 9020SOL     OW27958   1.755   4.262   2.359
 9020SOL    HW127959   1.695   4.182   2.355
 9020SOL    HW227960   1.774   4.294   2.266
 9021SOL     OW27961   6.598   6.623   3.845
 9021SOL    HW127962   6.502   6.642   3.823
 9021SOL    HW227963   6.612   6.634   3.943
 9022SOL     OW27964   2.480   0.254   0.303
 9022SOL    HW127965   2.508   0.171   0.350
 9022SOL    HW227966   2.523   0.258   0.212
 9023SOL     OW27967   3.420   3.618   4.014
 9023SOL    HW127968   3.346   3.565   4.055
 9023SOL    HW227969   3.477   3.657   4.087
 9024SOL     OW27970   1.530   6.343   6.197
 9024SOL    HW127971   1.542   6.254   6.242
 9024SOL    HW227972   1.585   6.412   6.244
 9025SOL     OW27973   6.207   5.739   1.337
 9025SOL    HW127974   6.277   5.669   1.349
 9025SOL    HW227975   6.251   5.828   1.322
 9026SOL     OW27976   3.705   2.966   4.094
 9026SOL    HW127977   3.801   2.993   4.092
 9026SOL    HW227978   3.678   2.931   4.004
 9027SOL     OW27979   2.808   2.106   3.249
 9027SOL    HW127980   2.778   2.051   3.327
 9027SOL    HW227981   2.733   2.112   3.182
 9028SOL     OW27982   1.912   4.722   6.111
 9028SOL    HW127983   1.940   4.721   6.015
 9028SOL    HW227984   1.842   4.793   6.125
 9029SOL     OW27985   3.631   4.943   4.872
 9029SOL    HW127986   3.543   4.895   4.872
 9029SOL    HW227987   3.670   4.940   4.964
 9030SOL     OW27988   1.713   0.655   2.270
 9030SOL    HW127989   1.721   0.656   2.170
 9030SOL    HW227990   1.763   0.733   2.307
 9031SOL     OW27991   3.138   5.618   5.284
 9031SOL    HW127992   3.135   5.520   5.299
 9031SOL    HW227993   3.215   5.657   5.336
 9032SOL     OW27994   3.443   2.596   1.139
 9032SOL    HW127995   3.373   2.619   1.207
 9032SOL    HW227996   3.455   2.673   1.077
 9033SOL     OW27997   2.246   2.972   4.216
 9033SOL    HW127998   2.283   3.035   4.284
 9033SOL    HW227999   2.291   2.883   4.224
 9034SOL     OW28000   2.841   6.881   5.164
 9034SOL    HW128001   2.862   6.834   5.079
 9034SOL    HW228002   2.924   6.926   5.199
 9035SOL     OW28003   0.751   6.635   5.407
 9035SOL    HW128004   0.752   6.581   5.322
 9035SOL    HW228005   0.831   6.696   5.408
 9036SOL     OW28006   2.114   2.578   5.417
 9036SOL    HW128007   2.037   2.643   5.423
 9036SOL    HW228008   2.198   2.624   5.445
 9037SOL     OW28009   2.516   3.996   6.510
 9037SOL    HW128010   2.576   3.958   6.581
 9037SOL    HW228011   2.518   3.937   6.430
 9038SOL     OW28012   5.595   1.019   6.176
 9038SOL    HW128013   5.582   1.055   6.084
 9038SOL    HW228014   5.617   0.922   6.171
 9039SOL     OW28015   1.744   4.460   5.437
 9039SOL    HW128016   1.786   4.369   5.443
 9039SOL    HW228017   1.657   4.461   5.486
 9040SOL     OW28018   2.805   0.844   3.046
 9040SOL    HW128019   2.842   0.839   2.953
 9040SOL    HW228020   2.719   0.894   3.045
 9041SOL     OW28021   0.708   1.704   2.045
 9041SOL    HW128022   0.610   1.699   2.061
 9041SOL    HW228023   0.755   1.639   2.105
 9042SOL     OW28024   2.751   6.940   3.498
 9042SOL    HW128025   2.662   6.902   3.520
 9042SOL    HW228026   2.809   6.940   3.580
 9043SOL     OW28027   2.081   2.138   6.009
 9043SOL    HW128028   2.015   2.095   5.948
 9043SOL    HW228029   2.033   2.196   6.075
 9044SOL     OW28030   6.116   1.105   0.437
 9044SOL    HW128031   6.195   1.148   0.393
 9044SOL    HW228032   6.120   1.121   0.536
 9045SOL     OW28033   4.302   0.723   3.009
 9045SOL    HW128034   4.359   0.795   2.969
 9045SOL    HW228035   4.206   0.745   2.994
 9046SOL     OW28036   3.537   4.154   5.677
 9046SOL    HW128037   3.613   4.197   5.628
 9046SOL    HW228038   3.496   4.221   5.739
 9047SOL     OW28039   2.070   4.169   5.272
 9047SOL    HW128040   2.153   4.218   5.299
 9047SOL    HW228041   2.087   4.070   5.278
 9048SOL     OW28042   1.794   3.676   5.993
 9048SOL    HW128043   1.845   3.717   5.918
 9048SOL    HW228044   1.855   3.620   6.050
 9049SOL     OW28045   5.076   6.025   6.298
 9049SOL    HW128046   5.026   6.034   6.212
 9049SOL    HW228047   5.117   5.933   6.303
 9050SOL     OW28048   0.822   5.112   0.081
 9050SOL    HW128049   0.866   5.138   7.023
 9050SOL    HW228050   0.740   5.167   0.095
 9051SOL     OW28051   4.185   6.253   0.798
 9051SOL    HW128052   4.263   6.226   0.741
 9051SOL    HW228053   4.135   6.327   0.754
 9052SOL     OW28054   2.542   4.681   4.544
 9052SOL    HW128055   2.581   4.637   4.625
 9052SOL    HW228056   2.565   4.778   4.544
 9053SOL     OW28057   2.478   2.436   3.767
 9053SOL    HW128058   2.563   2.416   3.816
 9053SOL    HW228059   2.497   2.439   3.668
 9054SOL     OW28060   1.790   0.473   2.450
 9054SOL    HW128061   1.889   0.459   2.446
 9054SOL    HW228062   1.761   0.527   2.371
 9055SOL     OW28063   0.519   3.678   3.549
 9055SOL    HW128064   0.556   3.586   3.564
 9055SOL    HW228065   0.588   3.746   3.572
 9056SOL     OW28066   4.787   0.601   1.387
 9056SOL    HW128067   4.759   0.581   1.481
 9056SOL    HW228068   4.710   0.638   1.337
 9057SOL     OW28069   6.033   4.738   6.462
 9057SOL    HW128070   6.000   4.833   6.461
 9057SOL    HW228071   6.126   4.736   6.500
 9058SOL     OW28072   1.834   2.015   4.805
 9058SOL    HW128073   1.798   2.099   4.845
 9058SOL    HW228074   1.917   2.035   4.753
 9059SOL     OW28075   6.302   0.638   3.142
 9059SOL    HW128076   6.251   0.688   3.211
 9059SOL    HW228077   6.400   0.649   3.159
 9060SOL     OW28078   6.831   3.642   2.454
 9060SOL    HW128079   6.911   3.703   2.449
 9060SOL    HW228080   6.861   3.547   2.442
 9061SOL     OW28081   4.757   5.476   3.169
 9061SOL    HW128082   4.753   5.573   3.142
 9061SOL    HW228083   4.668   5.446   3.201
 9062SOL     OW28084   1.281   4.558   1.851
 9062SOL    HW128085   1.235   4.644   1.826
 9062SOL    HW228086   1.247   4.526   1.939
 9063SOL     OW28087   3.182   1.507   2.578
 9063SOL    HW128088   3.168   1.572   2.504
 9063SOL    HW228089   3.165   1.552   2.666
 9064SOL     OW28090   6.457   4.213   4.229
 9064SOL    HW128091   6.534   4.276   4.220
 9064SOL    HW228092   6.441   4.193   4.326
 9065SOL     OW28093   2.719   5.867   5.511
 9065SOL    HW128094   2.792   5.856   5.443
 9065SOL    HW228095   2.758   5.905   5.595
 9066SOL     OW28096   6.406   7.011   5.898
 9066SOL    HW128097   6.422   0.048   5.972
 9066SOL    HW228098   6.358   6.931   5.934
 9067SOL     OW28099   6.691   6.374   4.810
 9067SOL    HW128100   6.742   6.457   4.832
 9067SOL    HW228101   6.739   6.323   4.739
 9068SOL     OW28102   3.849   6.997   4.934
 9068SOL    HW128103   3.852   6.911   4.881
 9068SOL    HW228104   3.846   0.046   4.871
 9069SOL     OW28105   5.070   2.425   2.825
 9069SOL    HW128106   5.053   2.387   2.734
 9069SOL    HW228107   5.030   2.516   2.832
 9070SOL     OW28108   1.653   2.124   6.290
 9070SOL    HW128109   1.692   2.179   6.216
 9070SOL    HW228110   1.703   2.144   6.375
 9071SOL     OW28111   5.409   0.785   6.214
 9071SOL    HW128112   5.347   0.836   6.155
 9071SOL    HW228113   5.376   0.790   6.309
 9072SOL     OW28114   5.199   6.858   1.673
 9072SOL    HW128115   5.234   6.881   1.582
 9072SOL    HW228116   5.276   6.848   1.736
 9073SOL     OW28117   4.168   6.703   0.621
 9073SOL    HW128118   4.088   6.712   0.681
 9073SOL    HW228119   4.251   6.699   0.676
 9074SOL     OW28120   1.636   0.926   1.223
 9074SOL    HW128121   1.571   0.909   1.149
 9074SOL    HW228122   1.627   1.020   1.255
 9075SOL     OW28123   0.081   0.606   2.259
 9075SOL    HW128124   0.037   0.554   2.186
 9075SOL    HW228125   0.024   0.604   2.340
 9076SOL     OW28126   4.414   1.217   4.081
 9076SOL    HW128127   4.353   1.138   4.086
 9076SOL    HW228128   4.369   1.290   4.029
 9077SOL     OW28129   4.772   1.486   6.243
 9077SOL    HW128130   4.737   1.570   6.203
 9077SOL    HW228131   4.780   1.497   6.342
 9078SOL     OW28132   5.553   4.994   6.479
 9078SOL    HW128133   5.571   5.069   6.542
 9078SOL    HW228134   5.474   5.017   6.422
 9079SOL     OW28135   1.341   0.421   5.295
 9079SOL    HW128136   1.297   0.332   5.309
 9079SOL    HW228137   1.359   0.463   5.384
 9080SOL     OW28138   6.345   2.865   6.811
 9080SOL    HW128139   6.392   2.903   6.732
 9080SOL    HW228140   6.258   2.913   6.823
 9081SOL     OW28141   3.501   1.788   1.361
 9081SOL    HW128142   3.444   1.772   1.281
 9081SOL    HW228143   3.557   1.870   1.346
 9082SOL     OW28144   2.666   6.790   4.631
 9082SOL    HW128145   2.600   6.778   4.706
 9082SOL    HW228146   2.758   6.770   4.664
 9083SOL     OW28147   4.472   4.215   6.250
 9083SOL    HW128148   4.568   4.242   6.251
 9083SOL    HW228149   4.426   4.253   6.331
 9084SOL     OW28150   0.855   1.934   6.417
 9084SOL    HW128151   0.890   1.967   6.330
 9084SOL    HW228152   0.897   1.987   6.491
 9085SOL     OW28153   2.489   5.915   1.542
 9085SOL    HW128154   2.525   5.951   1.628
 9085SOL    HW228155   2.550   5.940   1.467
 9086SOL     OW28156   6.305   4.299   0.798
 9086SOL    HW128157   6.372   4.239   0.841
 9086SOL    HW228158   6.256   4.351   0.867
 9087SOL     OW28159   5.464   2.893   2.673
 9087SOL    HW128160   5.528   2.968   2.686
 9087SOL    HW228161   5.418   2.873   2.760
 9088SOL     OW28162   5.800   0.165   1.605
 9088SOL    HW128163   5.806   0.117   1.693
 9088SOL    HW228164   5.853   0.250   1.609
 9089SOL     OW28165   4.178   5.707   5.157
 9089SOL    HW128166   4.089   5.667   5.178
 9089SOL    HW228167   4.226   5.648   5.092
 9090SOL     OW28168   4.848   6.586   4.807
 9090SOL    HW128169   4.906   6.525   4.752
 9090SOL    HW228170   4.847   6.677   4.766
 9091SOL     OW28171   2.991   2.799   0.979
 9091SOL    HW128172   3.060   2.805   1.051
 9091SOL    HW228173   2.919   2.866   0.997
 9092SOL     OW28174   1.370   1.069   6.731
 9092SOL    HW128175   1.391   1.102   6.639
 9092SOL    HW228176   1.447   1.088   6.791
 9093SOL     OW28177   1.642   6.267   0.033
 9093SOL    HW128178   1.569   6.331   0.057
 9093SOL    HW228179   1.661   6.273   6.963
 9094SOL     OW28180   1.062   5.325   2.912
 9094SOL    HW128181   1.028   5.264   2.984
 9094SOL    HW228182   1.078   5.416   2.952
 9095SOL     OW28183   5.185   3.761   6.379
 9095SOL    HW128184   5.264   3.715   6.338
 9095SOL    HW228185   5.194   3.860   6.367
 9096SOL     OW28186   5.164   3.515   3.018
 9096SOL    HW128187   5.118   3.525   2.930
 9096SOL    HW228188   5.231   3.442   3.013
 9097SOL     OW28189   0.153   3.183   0.263
 9097SOL    HW128190   0.158   3.270   0.214
 9097SOL    HW228191   0.071   3.133   0.235
 9098SOL     OW28192   3.588   3.230   0.865
 9098SOL    HW128193   3.661   3.165   0.845
 9098SOL    HW228194   3.587   3.250   0.963
 9099SOL     OW28195   3.308   3.620   0.878
 9099SOL    HW128196   3.375   3.617   0.804
 9099SOL    HW228197   3.353   3.597   0.965
 9100SOL     OW28198   1.082   2.901   2.924
 9100SOL    HW128199   1.039   2.955   2.997
 9100SOL    HW228200   1.015   2.886   2.851
 9101SOL     OW28201   2.119   2.904   2.858
 9101SOL    HW128202   2.175   2.933   2.936
 9101SOL    HW228203   2.025   2.890   2.888
 9102SOL     OW28204   3.675   6.392   1.399
 9102SOL    HW128205   3.601   6.459   1.396
 9102SOL    HW228206   3.752   6.426   1.344
 9103SOL     OW28207   6.737   3.658   0.133
 9103SOL    HW128208   6.687   3.684   0.216
 9103SOL    HW228209   6.725   3.728   0.063
 9104SOL     OW28210   4.432   5.888   2.230
 9104SOL    HW128211   4.474   5.975   2.258
 9104SOL    HW228212   4.334   5.902   2.214
 9105SOL     OW28213   1.311   0.605   0.347
 9105SOL    HW128214   1.398   0.578   0.391
 9105SOL    HW228215   1.318   0.700   0.316
 9106SOL     OW28216   5.728   3.901   6.687
 9106SOL    HW128217   5.671   3.977   6.657
 9106SOL    HW228218   5.782   3.867   6.610
 9107SOL     OW28219   3.971   0.542   6.200
 9107SOL    HW128220   4.005   0.516   6.110
 9107SOL    HW228221   4.020   0.490   6.270
 9108SOL     OW28222   4.670   4.327   5.952
 9108SOL    HW128223   4.679   4.398   6.022
 9108SOL    HW228224   4.717   4.244   5.983
 9109SOL     OW28225   1.457   2.689   2.717
 9109SOL    HW128226   1.532   2.680   2.784
 9109SOL    HW228227   1.370   2.670   2.762
 9110SOL     OW28228   2.048   4.168   3.997
 9110SOL    HW128229   2.040   4.250   3.941
 9110SOL    HW228230   1.993   4.179   4.080
 9111SOL     OW28231   4.540   3.567   0.426
 9111SOL    HW128232   4.564   3.483   0.376
 9111SOL    HW228233   4.453   3.553   0.474
 9112SOL     OW28234   0.478   4.582   4.689
 9112SOL    HW128235   0.454   4.673   4.654
 9112SOL    HW228236   0.436   4.512   4.632
 9113SOL     OW28237   4.473   6.349   0.738
 9113SOL    HW128238   4.496   6.420   0.805
 9113SOL    HW228239   4.485   6.259   0.779
 9114SOL     OW28240   1.903   5.066   1.479
 9114SOL    HW128241   1.953   5.148   1.508
 9114SOL    HW228242   1.878   5.012   1.559
 9115SOL     OW28243   1.090   5.850   5.895
 9115SOL    HW128244   1.109   5.901   5.811
 9115SOL    HW228245   1.013   5.893   5.943
 9116SOL     OW28246   6.583   2.319   0.904
 9116SOL    HW128247   6.627   2.408   0.917
 9116SOL    HW228248   6.552   2.311   0.809
 9117SOL     OW28249   6.189   2.972   0.099
 9117SOL    HW128250   6.240   3.041   0.047
 9117SOL    HW228251   6.244   2.889   0.108
 9118SOL     OW28252   6.561   5.755   0.643
 9118SOL    HW128253   6.624   5.711   0.708
 9118SOL    HW228254   6.593   5.847   0.623
 9119SOL     OW28255   5.760   1.714   2.112
 9119SOL    HW128256   5.822   1.638   2.096
 9119SOL    HW228257   5.782   1.789   2.049
 9120SOL     OW28258   5.968   3.357   5.793
 9120SOL    HW128259   5.998   3.293   5.722
 9120SOL    HW228260   6.023   3.342   5.875
 9121SOL     OW28261   1.997   2.677   6.605
 9121SOL    HW128262   1.897   2.679   6.610
 9121SOL    HW228263   2.033   2.763   6.642
 9122SOL     OW28264   1.754   3.441   1.949
 9122SOL    HW128265   1.841   3.444   1.899
 9122SOL    HW228266   1.678   3.451   1.885
 9123SOL     OW28267   3.608   0.395   4.791
 9123SOL    HW128268   3.562   0.449   4.720
 9123SOL    HW228269   3.602   0.442   4.878
 9124SOL     OW28270   5.705   6.936   5.716
 9124SOL    HW128271   5.752   6.959   5.631
 9124SOL    HW228272   5.657   7.017   5.750
 9125SOL     OW28273   5.169   3.942   1.996
 9125SOL    HW128274   5.181   4.038   2.018
 9125SOL    HW228275   5.253   3.906   1.954
 9126SOL     OW28276   5.573   2.450   2.188
 9126SOL    HW128277   5.502   2.467   2.256
 9126SOL    HW228278   5.584   2.532   2.131
 9127SOL     OW28279   6.647   1.597   6.195
 9127SOL    HW128280   6.702   1.655   6.135
 9127SOL    HW228281   6.681   1.606   6.289
 9128SOL     OW28282   4.217   1.297   5.068
 9128SOL    HW128283   4.240   1.302   4.971
 9128SOL    HW228284   4.130   1.343   5.084
 9129SOL     OW28285   0.425   3.060   1.615
 9129SOL    HW128286   0.381   3.021   1.696
 9129SOL    HW228287   0.362   3.054   1.537
 9130SOL     OW28288   6.736   3.381   0.663
 9130SOL    HW128289   6.763   3.327   0.743
 9130SOL    HW228290   6.817   3.412   0.614
 9131SOL     OW28291   0.158   3.474   5.637
 9131SOL    HW128292   0.240   3.443   5.588
 9131SOL    HW228293   0.179   3.558   5.687
 9132SOL     OW28294   6.995   4.754   4.374
 9132SOL    HW128295   6.950   4.666   4.385
 9132SOL    HW228296   0.058   4.741   4.336
 9133SOL     OW28297   3.905   6.480   1.247
 9133SOL    HW128298   3.984   6.541   1.241
 9133SOL    HW228299   3.921   6.400   1.190
 9134SOL     OW28300   4.066   5.654   0.534
 9134SOL    HW128301   4.107   5.569   0.568
 9134SOL    HW228302   4.130   5.730   0.548
 9135SOL     OW28303   6.582   5.937   1.831
 9135SOL    HW128304   6.627   5.980   1.753
 9135SOL    HW228305   6.564   5.841   1.811
 9136SOL     OW28306   5.546   5.280   5.811
 9136SOL    HW128307   5.576   5.362   5.860
 9136SOL    HW228308   5.450   5.291   5.785
 9137SOL     OW28309   5.314   1.952   1.337
 9137SOL    HW128310   5.376   2.015   1.384
 9137SOL    HW228311   5.223   1.993   1.330
 9138SOL     OW28312   6.444   5.673   5.912
 9138SOL    HW128313   6.518   5.672   5.845
 9138SOL    HW228314   6.483   5.670   6.004
 9139SOL     OW28315   2.627   1.826   4.755
 9139SOL    HW128316   2.669   1.735   4.747
 9139SOL    HW228317   2.528   1.817   4.758
 9140SOL     OW28318   5.896   3.134   2.869
 9140SOL    HW128319   5.946   3.058   2.911
 9140SOL    HW228320   5.901   3.127   2.769
 9141SOL     OW28321   5.737   0.461   6.927
 9141SOL    HW128322   5.785   0.377   6.953
 9141SOL    HW228323   5.798   0.539   6.943
 9142SOL     OW28324   1.088   1.810   1.259
 9142SOL    HW128325   1.069   1.717   1.226
 9142SOL    HW228326   1.024   1.874   1.216
 9143SOL     OW28327   5.611   2.564   1.223
 9143SOL    HW128328   5.548   2.642   1.218
 9143SOL    HW228329   5.559   2.479   1.219
 9144SOL     OW28330   2.397   5.474   5.847
 9144SOL    HW128331   2.434   5.451   5.937
 9144SOL    HW228332   2.352   5.564   5.852
 9145SOL     OW28333   6.998   5.519   0.419
 9145SOL    HW128334   0.017   5.600   0.383
 9145SOL    HW228335   6.902   5.522   0.392
 9146SOL     OW28336   5.218   2.981   3.241
 9146SOL    HW128337   5.146   2.920   3.209
 9146SOL    HW228338   5.307   2.948   3.210
 9147SOL     OW28339   6.002   0.455   4.211
 9147SOL    HW128340   6.085   0.414   4.174
 9147SOL    HW228341   6.021   0.494   4.301
 9148SOL     OW28342   5.059   6.311   0.518
 9148SOL    HW128343   5.126   6.284   0.588
 9148SOL    HW228344   4.980   6.353   0.562
 9149SOL     OW28345   5.853   3.486   3.691
 9149SOL    HW128346   5.833   3.578   3.725
 9149SOL    HW228347   5.924   3.492   3.620
 9150SOL     OW28348   2.999   5.370   2.566
 9150SOL    HW128349   3.060   5.377   2.645
 9150SOL    HW228350   3.037   5.305   2.500
 9151SOL     OW28351   1.838   4.524   3.911
 9151SOL    HW128352   1.785   4.583   3.849
 9151SOL    HW228353   1.798   4.433   3.914
 9152SOL     OW28354   2.196   4.749   4.775
 9152SOL    HW128355   2.153   4.738   4.865
 9152SOL    HW228356   2.195   4.661   4.727
 9153SOL     OW28357   1.040   3.368   0.514
 9153SOL    HW128358   1.090   3.434   0.458
 9153SOL    HW228359   1.104   3.297   0.546
 9154SOL     OW28360   4.354   4.918   6.200
 9154SOL    HW128361   4.330   4.848   6.267
 9154SOL    HW228362   4.286   4.991   6.201
 9155SOL     OW28363   1.525   3.210   1.602
 9155SOL    HW128364   1.432   3.198   1.567
 9155SOL    HW228365   1.550   3.307   1.597
 9156SOL     OW28366   1.213   2.741   0.739
 9156SOL    HW128367   1.280   2.747   0.664
 9156SOL    HW228368   1.158   2.659   0.728
 9157SOL     OW28369   6.697   4.829   5.814
 9157SOL    HW128370   6.683   4.731   5.831
 9157SOL    HW228371   6.769   4.840   5.746
 9158SOL     OW28372   5.790   3.524   4.818
 9158SOL    HW128373   5.866   3.551   4.758
 9158SOL    HW228374   5.786   3.425   4.825
 9159SOL     OW28375   1.977   0.033   2.586
 9159SOL    HW128376   2.043   0.108   2.577
 9159SOL    HW228377   1.886   0.071   2.601
 9160SOL     OW28378   6.390   0.299   5.243
 9160SOL    HW128379   6.442   0.292   5.158
 9160SOL    HW228380   6.437   0.360   5.307
 9161SOL     OW28381   4.634   4.389   4.971
 9161SOL    HW128382   4.547   4.433   4.991
 9161SOL    HW228383   4.653   4.320   5.041
 9162SOL     OW28384   4.399   0.685   4.770
 9162SOL    HW128385   4.329   0.724   4.710
 9162SOL    HW228386   4.489   0.699   4.729
 9163SOL     OW28387   1.570   2.764   4.461
 9163SOL    HW128388   1.607   2.852   4.432
 9163SOL    HW228389   1.645   2.702   4.485
 9164SOL     OW28390   2.772   0.913   6.209
 9164SOL    HW128391   2.707   0.927   6.134
 9164SOL    HW228392   2.805   1.002   6.242
 9165SOL     OW28393   6.128   2.223   5.585
 9165SOL    HW128394   6.087   2.142   5.543
 9165SOL    HW228395   6.055   2.281   5.621
 9166SOL     OW28396   4.120   5.953   0.605
 9166SOL    HW128397   4.196   5.919   0.550
 9166SOL    HW228398   4.061   6.010   0.549
 9167SOL     OW28399   2.106   2.921   6.841
 9167SOL    HW128400   2.114   3.020   6.851
 9167SOL    HW228401   2.195   2.882   6.820
 9168SOL     OW28402   6.683   6.994   6.314
 9168SOL    HW128403   6.739   6.917   6.284
 9168SOL    HW228404   6.732   0.051   6.298
 9169SOL     OW28405   5.883   1.078   4.679
 9169SOL    HW128406   5.936   0.996   4.700
 9169SOL    HW228407   5.789   1.052   4.658
 9170SOL     OW28408   1.603   5.800   0.170
 9170SOL    HW128409   1.639   5.779   0.080
 9170SOL    HW228410   1.625   5.726   0.233
 9171SOL     OW28411   4.212   5.111   0.927
 9171SOL    HW128412   4.125   5.155   0.952
 9171SOL    HW228413   4.215   5.098   0.828
 9172SOL     OW28414   3.799   1.255   3.609
 9172SOL    HW128415   3.741   1.282   3.686
 9172SOL    HW228416   3.762   1.173   3.566
 9173SOL     OW28417   6.180   3.624   5.031
 9173SOL    HW128418   6.101   3.643   5.089
 9173SOL    HW228419   6.260   3.672   5.067
 9174SOL     OW28420   5.550   3.862   1.689
 9174SOL    HW128421   5.457   3.844   1.657
 9174SOL    HW228422   5.566   3.960   1.690
 9175SOL     OW28423   0.956   0.362   5.240
 9175SOL    HW128424   1.036   0.341   5.296
 9175SOL    HW228425   0.938   0.460   5.241
 9176SOL     OW28426   3.122   0.978   5.515
 9176SOL    HW128427   3.101   1.039   5.439
 9176SOL    HW228428   3.082   0.888   5.497
 9177SOL     OW28429   0.776   4.843   5.059
 9177SOL    HW128430   0.703   4.904   5.089
 9177SOL    HW228431   0.759   4.814   4.964
 9178SOL     OW28432   1.619   5.592   0.338
 9178SOL    HW128433   1.569   5.584   0.424
 9178SOL    HW228434   1.642   5.501   0.304
 9179SOL     OW28435   2.598   4.953   4.527
 9179SOL    HW128436   2.659   5.031   4.517
 9179SOL    HW228437   2.528   4.974   4.596
 9180SOL     OW28438   6.288   2.792   3.122
 9180SOL    HW128439   6.300   2.807   3.023
 9180SOL    HW228440   6.190   2.790   3.143
 9181SOL     OW28441   4.456   1.967   5.506
 9181SOL    HW128442   4.477   2.055   5.464
 9181SOL    HW228443   4.457   1.976   5.605
 9182SOL     OW28444   2.836   6.875   2.166
 9182SOL    HW128445   2.752   6.927   2.152
 9182SOL    HW228446   2.908   6.910   2.105
 9183SOL     OW28447   4.767   5.866   0.375
 9183SOL    HW128448   4.737   5.787   0.427
 9183SOL    HW228449   4.688   5.914   0.337
 9184SOL     OW28450   4.762   1.348   0.466
 9184SOL    HW128451   4.844   1.405   0.472
 9184SOL    HW228452   4.681   1.403   0.482
 9185SOL     OW28453   4.165   6.609   4.337
 9185SOL    HW128454   4.197   6.590   4.244
 9185SOL    HW228455   4.207   6.544   4.400
 9186SOL     OW28456   5.426   5.992   4.629
 9186SOL    HW128457   5.507   5.971   4.574
 9186SOL    HW228458   5.436   6.083   4.669
 9187SOL     OW28459   2.389   2.090   0.770
 9187SOL    HW128460   2.445   2.095   0.688
 9187SOL    HW228461   2.423   2.016   0.829
 9188SOL     OW28462   1.411   6.415   1.129
 9188SOL    HW128463   1.321   6.374   1.116
 9188SOL    HW228464   1.469   6.351   1.181
 9189SOL     OW28465   4.059   5.925   1.738
 9189SOL    HW128466   4.106   5.869   1.669
 9189SOL    HW228467   3.961   5.908   1.733
 9190SOL     OW28468   3.046   4.304   6.121
 9190SOL    HW128469   2.986   4.382   6.103
 9190SOL    HW228470   2.998   4.238   6.179
 9191SOL     OW28471   6.151   2.289   6.301
 9191SOL    HW128472   6.164   2.221   6.374
 9191SOL    HW228473   6.103   2.368   6.338
 9192SOL     OW28474   0.822   3.227   5.705
 9192SOL    HW128475   0.812   3.132   5.735
 9192SOL    HW228476   0.799   3.289   5.780
 9193SOL     OW28477   4.793   4.557   0.022
 9193SOL    HW128478   4.711   4.569   0.078
 9193SOL    HW228479   4.832   4.646   7.027
 9194SOL     OW28480   3.212   0.740   3.375
 9194SOL    HW128481   3.175   0.767   3.285
 9194SOL    HW228482   3.184   0.808   3.443
 9195SOL     OW28483   1.996   1.849   3.504
 9195SOL    HW128484   2.007   1.814   3.411
 9195SOL    HW228485   1.906   1.823   3.539
 9196SOL     OW28486   5.094   0.351   2.605
 9196SOL    HW128487   5.144   0.429   2.568
 9196SOL    HW228488   5.010   0.384   2.649
 9197SOL     OW28489   1.982   5.835   1.602
 9197SOL    HW128490   2.045   5.856   1.527
 9197SOL    HW228491   1.946   5.742   1.591
 9198SOL     OW28492   6.138   5.096   6.823
 9198SOL    HW128493   6.080   5.015   6.825
 9198SOL    HW228494   6.229   5.070   6.790
 9199SOL     OW28495   0.784   4.030   5.934
 9199SOL    HW128496   0.775   4.006   6.030
 9199SOL    HW228497   0.838   4.114   5.925
 9200SOL     OW28498   2.680   6.437   6.938
 9200SOL    HW128499   2.700   6.523   6.985
 9200SOL    HW228500   2.758   6.375   6.949
 9201SOL     OW28501   6.806   2.623   0.396
 9201SOL    HW128502   6.787   2.530   0.366
 9201SOL    HW228503   6.723   2.665   0.431
 9202SOL     OW28504   1.345   6.312   2.364
 9202SOL    HW128505   1.342   6.400   2.410
 9202SOL    HW228506   1.279   6.250   2.405
 9203SOL     OW28507   0.520   3.784   6.098
 9203SOL    HW128508   0.473   3.750   6.179
 9203SOL    HW228509   0.479   3.870   6.069
 9204SOL     OW28510   4.960   3.011   6.164
 9204SOL    HW128511   4.975   2.977   6.071
 9204SOL    HW228512   4.928   2.936   6.222
 9205SOL     OW28513   5.858   5.057   3.294
 9205SOL    HW128514   5.801   4.975   3.301
 9205SOL    HW228515   5.834   5.106   3.210
 9206SOL     OW28516   4.096   5.891   2.752
 9206SOL    HW128517   4.126   5.920   2.843
 9206SOL    HW228518   3.999   5.913   2.740
 9207SOL     OW28519   5.091   3.772   5.817
 9207SOL    HW128520   5.126   3.845   5.875
 9207SOL    HW228521   5.099   3.799   5.721
 9208SOL     OW28522   5.515   4.514   3.587
 9208SOL    HW128523   5.432   4.492   3.538
 9208SOL    HW228524   5.493   4.534   3.683
 9209SOL     OW28525   3.975   0.529   6.915
 9209SOL    HW128526   4.050   0.472   6.882
 9209SOL    HW228527   3.932   0.576   6.838
 9210SOL     OW28528   0.168   0.906   2.739
 9210SOL    HW128529   0.210   0.816   2.747
 9210SOL    HW228530   0.178   0.940   2.645
 9211SOL     OW28531   0.825   2.283   6.252
 9211SOL    HW128532   0.846   2.363   6.194
 9211SOL    HW228533   0.894   2.212   6.237
 9212SOL     OW28534   4.470   5.807   4.226
 9212SOL    HW128535   4.392   5.746   4.209
 9212SOL    HW228536   4.548   5.776   4.172
 9213SOL     OW28537   5.379   3.260   4.995
 9213SOL    HW128538   5.420   3.291   4.909
 9213SOL    HW228539   5.449   3.216   5.051
 9214SOL     OW28540   6.566   3.675   6.553
 9214SOL    HW128541   6.598   3.695   6.460
 9214SOL    HW228542   6.642   3.639   6.607
 9215SOL     OW28543   0.645   2.710   1.249
 9215SOL    HW128544   0.683   2.690   1.159
 9215SOL    HW228545   0.554   2.671   1.257
 9216SOL     OW28546   3.367   0.152   2.459
 9216SOL    HW128547   3.372   0.168   2.558
 9216SOL    HW228548   3.453   0.182   2.417
 9217SOL     OW28549   0.159   2.522   0.044
 9217SOL    HW128550   0.132   2.591   7.005
 9217SOL    HW228551   0.133   2.553   0.136
 9218SOL     OW28552   1.711   6.892   7.003
 9218SOL    HW128553   1.633   6.830   7.013
 9218SOL    HW228554   1.733   6.932   0.064
 9219SOL     OW28555   6.347   3.062   1.395
 9219SOL    HW128556   6.414   3.137   1.396
 9219SOL    HW228557   6.386   2.982   1.439
 9220SOL     OW28558   1.177   6.613   1.203
 9220SOL    HW128559   1.117   6.553   1.256
 9220SOL    HW228560   1.271   6.599   1.232
 9221SOL     OW28561   3.382   0.468   3.215
 9221SOL    HW128562   3.430   0.494   3.299
 9221SOL    HW228563   3.336   0.381   3.228
 9222SOL     OW28564   2.409   6.852   6.217
 9222SOL    HW128565   2.438   6.769   6.265
 9222SOL    HW228566   2.384   6.829   6.123
 9223SOL     OW28567   1.183   1.329   3.939
 9223SOL    HW128568   1.132   1.333   3.854
 9223SOL    HW228569   1.130   1.372   4.012
 9224SOL     OW28570   1.163   4.978   4.685
 9224SOL    HW128571   1.232   5.050   4.694
 9224SOL    HW228572   1.143   4.939   4.774
 9225SOL     OW28573   3.333   6.806   5.794
 9225SOL    HW128574   3.360   6.770   5.883
 9225SOL    HW228575   3.233   6.807   5.787
 9226SOL     OW28576   6.041   6.446   0.748
 9226SOL    HW128577   6.058   6.450   0.846
 9226SOL    HW228578   6.097   6.375   0.706
 9227SOL     OW28579   1.077   5.705   0.746
 9227SOL    HW128580   0.978   5.708   0.732
 9227SOL    HW228581   1.115   5.797   0.738
 9228SOL     OW28582   1.251   1.931   5.328
 9228SOL    HW128583   1.174   1.964   5.274
 9228SOL    HW228584   1.286   1.846   5.289
 9229SOL     OW28585   0.935   6.038   4.864
 9229SOL    HW128586   0.977   6.015   4.953
 9229SOL    HW228587   0.899   5.955   4.822
 9230SOL     OW28588   4.941   1.597   3.937
 9230SOL    HW128589   4.905   1.524   3.878
 9230SOL    HW228590   5.005   1.653   3.884
 9231SOL     OW28591   0.332   4.384   4.513
 9231SOL    HW128592   0.277   4.432   4.445
 9231SOL    HW228593   0.272   4.341   4.580
 9232SOL     OW28594   3.790   5.168   0.341
 9232SOL    HW128595   3.745   5.079   0.339
 9232SOL    HW228596   3.825   5.185   0.433
 9233SOL     OW28597   5.559   5.367   2.131
 9233SOL    HW128598   5.606   5.358   2.219
 9233SOL    HW228599   5.460   5.377   2.148
 9234SOL     OW28600   3.492   6.014   5.761
 9234SOL    HW128601   3.536   5.973   5.841
 9234SOL    HW228602   3.394   5.995   5.763
 9235SOL     OW28603   1.487   3.437   3.388
 9235SOL    HW128604   1.580   3.414   3.358
 9235SOL    HW228605   1.482   3.431   3.487
 9236SOL     OW28606   2.720   4.663   5.786
 9236SOL    HW128607   2.732   4.712   5.700
 9236SOL    HW228608   2.688   4.725   5.856
 9237SOL     OW28609   1.816   5.170   4.386
 9237SOL    HW128610   1.886   5.120   4.335
 9237SOL    HW228611   1.753   5.213   4.321
 9238SOL     OW28612   3.651   1.477   0.003
 9238SOL    HW128613   3.568   1.441   6.987
 9238SOL    HW228614   3.636   1.572   0.030
 9239SOL     OW28615   7.016   4.217   0.390
 9239SOL    HW128616   0.060   4.282   0.413
 9239SOL    HW228617   0.021   4.155   0.318
 9240SOL     OW28618   5.649   1.206   1.403
 9240SOL    HW128619   5.655   1.134   1.334
 9240SOL    HW228620   5.715   1.278   1.383
 9241SOL     OW28621   0.585   5.504   5.317
 9241SOL    HW128622   0.551   5.551   5.235
 9241SOL    HW228623   0.516   5.509   5.389
 9242SOL     OW28624   0.573   5.277   0.163
 9242SOL    HW128625   0.509   5.333   0.109
 9242SOL    HW228626   0.628   5.337   0.221
 9243SOL     OW28627   5.329   6.703   1.242
 9243SOL    HW128628   5.276   6.621   1.264
 9243SOL    HW228629   5.407   6.711   1.305
 9244SOL     OW28630   4.293   5.693   6.238
 9244SOL    HW128631   4.228   5.630   6.195
 9244SOL    HW228632   4.329   5.755   6.168
 9245SOL     OW28633   1.303   4.859   3.302
 9245SOL    HW128634   1.229   4.925   3.293
 9245SOL    HW228635   1.267   4.766   3.296
 9246SOL     OW28636   0.120   5.586   2.195
 9246SOL    HW128637   0.157   5.548   2.279
 9246SOL    HW228638   0.098   5.512   2.131
 9247SOL     OW28639   1.213   6.984   2.561
 9247SOL    HW128640   1.162   0.009   2.493
 9247SOL    HW228641   1.307   6.968   2.528
 9248SOL     OW28642   1.723   2.190   5.006
 9248SOL    HW128643   1.684   2.258   5.067
 9248SOL    HW228644   1.694   2.099   5.035
 9249SOL     OW28645   4.448   4.313   0.351
 9249SOL    HW128646   4.436   4.325   0.253
 9249SOL    HW228647   4.503   4.388   0.388
 9250SOL     OW28648   5.640   3.273   4.298
 9250SOL    HW128649   5.717   3.331   4.270
 9250SOL    HW228650   5.578   3.327   4.356
 9251SOL     OW28651   4.198   2.052   2.971
 9251SOL    HW128652   4.165   1.971   2.922
 9251SOL    HW228653   4.154   2.057   3.061
 9252SOL     OW28654   5.837   0.416   4.562
 9252SOL    HW128655   5.770   0.450   4.496
 9252SOL    HW228656   5.929   0.446   4.536
 9253SOL     OW28657   5.844   6.492   5.411
 9253SOL    HW128658   5.758   6.500   5.461
 9253SOL    HW228659   5.905   6.566   5.437
 9254SOL     OW28660   6.248   4.479   2.759
 9254SOL    HW128661   6.187   4.403   2.740
 9254SOL    HW228662   6.220   4.525   2.843
 9255SOL     OW28663   5.068   3.515   6.891
 9255SOL    HW128664   5.005   3.444   6.924
 9255SOL    HW228665   5.101   3.569   6.968
 9256SOL     OW28666   4.701   6.682   3.013
 9256SOL    HW128667   4.712   6.620   2.935
 9256SOL    HW228668   4.613   6.665   3.057
 9257SOL     OW28669   0.959   3.855   2.872
 9257SOL    HW128670   0.868   3.882   2.902
 9257SOL    HW228671   0.979   3.897   2.784
 9258SOL     OW28672   3.537   3.314   4.246
 9258SOL    HW128673   3.483   3.305   4.329
 9258SOL    HW228674   3.509   3.244   4.180
 9259SOL     OW28675   1.182   2.853   6.600
 9259SOL    HW128676   1.192   2.944   6.560
 9259SOL    HW228677   1.088   2.821   6.586
 9260SOL     OW28678   5.249   1.969   4.748
 9260SOL    HW128679   5.206   1.885   4.714
 9260SOL    HW228680   5.257   2.035   4.674
 9261SOL     OW28681   4.850   0.654   6.707
 9261SOL    HW128682   4.783   0.728   6.722
 9261SOL    HW228683   4.813   0.589   6.640
 9262SOL     OW28684   6.899   3.637   6.064
 9262SOL    HW128685   6.946   3.636   6.153
 9262SOL    HW228686   6.810   3.593   6.073
 9263SOL     OW28687   5.544   5.693   2.105
 9263SOL    HW128688   5.528   5.675   2.202
 9263SOL    HW228689   5.602   5.621   2.067
 9264SOL     OW28690   5.867   4.204   0.418
 9264SOL    HW128691   5.898   4.250   0.502
 9264SOL    HW228692   5.778   4.162   0.435
 9265SOL     OW28693   4.038   1.969   0.036
 9265SOL    HW128694   4.007   1.991   0.129
 9265SOL    HW228695   4.051   2.053   7.012
 9266SOL     OW28696   2.425   6.714   1.953
 9266SOL    HW128697   2.477   6.685   2.033
 9266SOL    HW228698   2.482   6.774   1.897
 9267SOL     OW28699   0.644   3.853   5.736
 9267SOL    HW128700   0.708   3.895   5.800
 9267SOL    HW228701   0.606   3.923   5.676
 9268SOL     OW28702   1.425   5.704   1.493
 9268SOL    HW128703   1.368   5.751   1.426
 9268SOL    HW228704   1.449   5.613   1.458
 9269SOL     OW28705   2.906   1.589   5.983
 9269SOL    HW128706   2.924   1.652   5.908
 9269SOL    HW228707   2.885   1.498   5.946
 9270SOL     OW28708   4.390   6.803   5.978
 9270SOL    HW128709   4.384   6.703   5.973
 9270SOL    HW228710   4.301   6.842   5.955
 9271SOL     OW28711   1.136   6.910   0.145
 9271SOL    HW128712   1.183   6.980   0.198
 9271SOL    HW228713   1.192   6.885   0.065
 9272SOL     OW28714   1.622   5.082   4.855
 9272SOL    HW128715   1.614   5.096   4.954
 9272SOL    HW228716   1.650   4.987   4.838
 9273SOL     OW28717   5.651   6.143   3.559
 9273SOL    HW128718   5.617   6.200   3.485
 9273SOL    HW228719   5.661   6.199   3.642
 9274SOL     OW28720   6.527   2.627   0.236
 9274SOL    HW128721   6.467   2.665   0.166
 9274SOL    HW228722   6.518   2.528   0.238
 9275SOL     OW28723   6.617   2.283   6.776
 9275SOL    HW128724   6.702   2.287   6.828
 9275SOL    HW228725   6.588   2.187   6.769
 9276SOL     OW28726   1.888   4.506   2.360
 9276SOL    HW128727   1.978   4.490   2.320
 9276SOL    HW228728   1.841   4.419   2.373
 9277SOL     OW28729   5.389   2.949   0.215
 9277SOL    HW128730   5.426   2.948   0.308
 9277SOL    HW228731   5.294   2.919   0.217
 9278SOL     OW28732   0.924   0.204   5.831
 9278SOL    HW128733   0.879   0.156   5.756
 9278SOL    HW228734   0.887   0.297   5.839
 9279SOL     OW28735   5.245   0.737   1.696
 9279SOL    HW128736   5.306   0.709   1.621
 9279SOL    HW228737   5.265   0.831   1.722
 9280SOL     OW28738   1.603   1.386   3.179
 9280SOL    HW128739   1.675   1.385   3.248
 9280SOL    HW228740   1.513   1.383   3.223
 9281SOL     OW28741   2.656   4.364   0.975
 9281SOL    HW128742   2.608   4.451   0.975
 9281SOL    HW228743   2.599   4.293   0.933
 9282SOL     OW28744   4.729   0.524   4.500
 9282SOL    HW128745   4.718   0.479   4.588
 9282SOL    HW228746   4.679   0.610   4.500
 9283SOL     OW28747   6.124   0.772   3.963
 9283SOL    HW128748   6.075   0.747   3.880
 9283SOL    HW228749   6.064   0.823   4.024
 9284SOL     OW28750   3.113   4.331   6.435
 9284SOL    HW128751   3.065   4.391   6.371
 9284SOL    HW228752   3.046   4.285   6.493
 9285SOL     OW28753   5.213   2.435   1.024
 9285SOL    HW128754   5.312   2.446   1.014
 9285SOL    HW228755   5.166   2.509   0.976
 9286SOL     OW28756   5.151   6.262   6.947
 9286SOL    HW128757   5.227   6.251   7.011
 9286SOL    HW228758   5.142   6.359   6.923
 9287SOL     OW28759   3.383   4.975   6.592
 9287SOL    HW128760   3.444   4.926   6.530
 9287SOL    HW228761   3.288   4.957   6.568
 9288SOL     OW28762   4.021   1.329   4.523
 9288SOL    HW128763   4.109   1.300   4.483
 9288SOL    HW228764   4.028   1.425   4.550
 9289SOL     OW28765   4.241   1.445   2.534
 9289SOL    HW128766   4.310   1.517   2.534
 9289SOL    HW228767   4.155   1.480   2.572
 9290SOL     OW28768   5.321   1.518   3.100
 9290SOL    HW128769   5.276   1.439   3.142
 9290SOL    HW228770   5.302   1.518   3.001
 9291SOL     OW28771   1.976   6.857   3.941
 9291SOL    HW128772   1.897   6.900   3.898
 9291SOL    HW228773   1.981   6.885   4.037
 9292SOL     OW28774   0.887   3.702   6.685
 9292SOL    HW128775   0.930   3.787   6.714
 9292SOL    HW228776   0.853   3.653   6.765
 9293SOL     OW28777   5.655   3.824   6.962
 9293SOL    HW128778   5.733   3.763   6.974
 9293SOL    HW228779   5.659   3.866   6.871
 9294SOL     OW28780   3.179   0.306   4.711
 9294SOL    HW128781   3.243   0.230   4.727
 9294SOL    HW228782   3.227   0.380   4.665
 9295SOL     OW28783   5.602   1.938   4.368
 9295SOL    HW128784   5.683   1.961   4.316
 9295SOL    HW228785   5.587   2.006   4.440
 9296SOL     OW28786   0.472   6.268   6.315
 9296SOL    HW128787   0.445   6.273   6.411
 9296SOL    HW228788   0.399   6.306   6.258
 9297SOL     OW28789   6.705   1.260   0.362
 9297SOL    HW128790   6.638   1.286   0.430
 9297SOL    HW228791   6.680   1.171   0.323
 9298SOL     OW28792   1.374   0.764   4.907
 9298SOL    HW128793   1.389   0.690   4.972
 9298SOL    HW228794   1.294   0.743   4.850
 9299SOL     OW28795   0.899   2.274   3.988
 9299SOL    HW128796   0.857   2.238   4.071
 9299SOL    HW228797   0.834   2.268   3.912
 9300SOL     OW28798   0.668   4.539   5.625
 9300SOL    HW128799   0.609   4.582   5.557
 9300SOL    HW228800   0.764   4.559   5.605
 9301SOL     OW28801   4.693   4.352   3.871
 9301SOL    HW128802   4.781   4.384   3.905
 9301SOL    HW228803   4.621   4.373   3.937
 9302SOL     OW28804   2.388   2.749   4.212
 9302SOL    HW128805   2.430   2.687   4.278
 9302SOL    HW228806   2.427   2.733   4.122
 9303SOL     OW28807   3.003   5.210   0.629
 9303SOL    HW128808   3.027   5.155   0.549
 9303SOL    HW228809   3.031   5.305   0.613
 9304SOL     OW28810   4.945   4.653   2.205
 9304SOL    HW128811   4.855   4.615   2.183
 9304SOL    HW228812   4.999   4.584   2.254
 9305SOL     OW28813   3.312   0.948   1.524
 9305SOL    HW128814   3.348   1.032   1.483
 9305SOL    HW228815   3.350   0.935   1.615
 9306SOL     OW28816   0.026   4.484   4.706
 9306SOL    HW128817   0.104   4.423   4.692
 9306SOL    HW228818   0.059   4.576   4.727
 9307SOL     OW28819   1.182   3.464   1.467
 9307SOL    HW128820   1.086   3.489   1.454
 9307SOL    HW228821   1.188   3.383   1.525
 9308SOL     OW28822   1.716   4.502   0.503
 9308SOL    HW128823   1.766   4.441   0.564
 9308SOL    HW228824   1.750   4.595   0.512
 9309SOL     OW28825   3.081   4.754   5.485
 9309SOL    HW128826   3.083   4.762   5.385
 9309SOL    HW228827   3.160   4.801   5.523
 9310SOL     OW28828   4.430   5.350   6.632
 9310SOL    HW128829   4.422   5.439   6.588
 9310SOL    HW228830   4.340   5.321   6.664
 9311SOL     OW28831   4.182   4.691   2.156
 9311SOL    HW128832   4.252   4.622   2.137
 9311SOL    HW228833   4.115   4.691   2.081
 9312SOL     OW28834   1.096   3.255   1.201
 9312SOL    HW128835   1.036   3.264   1.121
 9312SOL    HW228836   1.061   3.313   1.275
 9313SOL     OW28837   0.194   0.357   0.866
 9313SOL    HW128838   0.286   0.362   0.906
 9313SOL    HW228839   0.201   0.369   0.767
 9314SOL     OW28840   4.942   6.087   6.082
 9314SOL    HW128841   4.906   6.156   6.145
 9314SOL    HW228842   4.967   6.131   5.995
 9315SOL     OW28843   6.552   0.576   5.243
 9315SOL    HW128844   6.478   0.572   5.311
 9315SOL    HW228845   6.522   0.629   5.164
 9316SOL     OW28846   3.886   5.487   5.655
 9316SOL    HW128847   3.924   5.407   5.700
 9316SOL    HW228848   3.875   5.561   5.721
 9317SOL     OW28849   6.713   5.323   3.132
 9317SOL    HW128850   6.617   5.339   3.157
 9317SOL    HW228851   6.717   5.278   3.043
 9318SOL     OW28852   6.531   0.480   5.885
 9318SOL    HW128853   6.578   0.398   5.851
 9318SOL    HW228854   6.584   0.561   5.860
 9319SOL     OW28855   1.430   2.986   0.146
 9319SOL    HW128856   1.500   3.049   0.179
 9319SOL    HW228857   1.345   3.001   0.197
 9320SOL     OW28858   3.923   0.441   5.432
 9320SOL    HW128859   4.013   0.433   5.389
 9320SOL    HW228860   3.900   0.538   5.444
 9321SOL     OW28861   6.242   0.484   3.594
 9321SOL    HW128862   6.327   0.536   3.589
 9321SOL    HW228863   6.180   0.514   3.522
 9322SOL     OW28864   1.384   4.516   6.573
 9322SOL    HW128865   1.465   4.481   6.527
 9322SOL    HW228866   1.353   4.449   6.641
 9323SOL     OW28867   1.483   0.875   5.467
 9323SOL    HW128868   1.385   0.871   5.488
 9323SOL    HW228869   1.514   0.785   5.437
 9324SOL     OW28870   1.324   4.512   0.460
 9324SOL    HW128871   1.379   4.488   0.380
 9324SOL    HW228872   1.298   4.608   0.455
 9325SOL     OW28873   4.941   0.780   6.919
 9325SOL    HW128874   4.929   0.722   6.838
 9325SOL    HW228875   4.868   0.848   6.922
 9326SOL     OW28876   2.179   5.707   0.693
 9326SOL    HW128877   2.120   5.783   0.721
 9326SOL    HW228878   2.135   5.655   0.620
 9327SOL     OW28879   5.296   0.223   3.267
 9327SOL    HW128880   5.315   0.255   3.360
 9327SOL    HW228881   5.341   0.135   3.252
 9328SOL     OW28882   2.853   0.706   5.613
 9328SOL    HW128883   2.948   0.675   5.615
 9328SOL    HW228884   2.806   0.674   5.696
 9329SOL     OW28885   5.896   3.868   1.634
 9329SOL    HW128886   5.797   3.875   1.624
 9329SOL    HW228887   5.926   3.927   1.709
 9330SOL     OW28888   6.044   6.578   6.859
 9330SOL    HW128889   6.050   6.596   6.958
 9330SOL    HW228890   6.106   6.503   6.835
 9331SOL     OW28891   1.723   0.979   0.024
 9331SOL    HW128892   1.690   0.951   6.962
 9331SOL    HW228893   1.665   1.051   0.060
 9332SOL     OW28894   3.826   4.078   1.849
 9332SOL    HW128895   3.902   4.109   1.791
 9332SOL    HW228896   3.815   3.980   1.839
 9333SOL     OW28897   4.007   3.522   1.208
 9333SOL    HW128898   3.965   3.612   1.212
 9333SOL    HW228899   3.972   3.471   1.129
 9334SOL     OW28900   5.393   5.925   3.789
 9334SOL    HW128901   5.461   5.860   3.756
 9334SOL    HW228902   5.423   5.963   3.877
 9335SOL     OW28903   0.991   1.132   6.416
 9335SOL    HW128904   1.078   1.107   6.374
 9335SOL    HW228905   0.979   1.231   6.413
 9336SOL     OW28906   2.843   5.553   5.453
 9336SOL    HW128907   2.822   5.473   5.508
 9336SOL    HW228908   2.793   5.549   5.366
 9337SOL     OW28909   4.999   1.856   4.271
 9337SOL    HW128910   4.945   1.864   4.187
 9337SOL    HW228911   4.964   1.781   4.327
 9338SOL     OW28912   4.904   0.768   2.268
 9338SOL    HW128913   4.864   0.685   2.231
 9338SOL    HW228914   4.958   0.814   2.198
 9339SOL     OW28915   5.713   0.062   1.351
 9339SOL    HW128916   5.710   0.124   1.272
 9339SOL    HW228917   5.727   0.116   1.434
 9340SOL     OW28918   5.863   3.807   4.546
 9340SOL    HW128919   5.890   3.892   4.590
 9340SOL    HW228920   5.782   3.823   4.490
 9341SOL     OW28921   6.939   5.756   0.269
 9341SOL    HW128922   6.930   5.787   0.174
 9341SOL    HW228923   6.849   5.730   0.304
 9342SOL     OW28924   1.999   6.638   3.764
 9342SOL    HW128925   2.061   6.562   3.783
 9342SOL    HW228926   2.009   6.708   3.835
 9343SOL     OW28927   5.990   4.060   2.784
 9343SOL    HW128928   5.984   4.017   2.694
 9343SOL    HW228929   6.059   4.014   2.839
 9344SOL     OW28930   4.626   6.307   2.714
 9344SOL    HW128931   4.685   6.281   2.790
 9344SOL    HW228932   4.554   6.368   2.747
 9345SOL     OW28933   6.361   5.000   2.309
 9345SOL    HW128934   6.361   4.982   2.408
 9345SOL    HW228935   6.291   4.944   2.266
 9346SOL     OW28936   6.573   0.694   1.023
 9346SOL    HW128937   6.591   0.630   1.098
 9346SOL    HW228938   6.549   0.783   1.061
 9347SOL     OW28939   1.720   3.631   0.753
 9347SOL    HW128940   1.651   3.587   0.810
 9347SOL    HW228941   1.704   3.607   0.657
 9348SOL     OW28942   3.660   6.028   2.243
 9348SOL    HW128943   3.711   6.091   2.185
 9348SOL    HW228944   3.600   5.972   2.186
 9349SOL     OW28945   6.888   5.860   3.579
 9349SOL    HW128946   6.814   5.875   3.645
 9349SOL    HW228947   6.953   5.936   3.585
 9350SOL     OW28948   0.890   3.574   5.295
 9350SOL    HW128949   0.817   3.519   5.336
 9350SOL    HW228950   0.852   3.630   5.222
 9351SOL     OW28951   2.829   0.320   6.708
 9351SOL    HW128952   2.893   0.324   6.631
 9351SOL    HW228953   2.735   0.318   6.673
 9352SOL     OW28954   3.830   1.941   6.907
 9352SOL    HW128955   3.902   1.935   6.976
 9352SOL    HW228956   3.870   1.929   6.816
 9353SOL     OW28957   0.365   4.083   0.607
 9353SOL    HW128958   0.419   4.153   0.560
 9353SOL    HW228959   0.425   4.010   0.639
 9354SOL     OW28960   6.965   1.903   6.411
 9354SOL    HW128961   6.975   2.002   6.426
 9354SOL    HW228962   0.024   1.858   6.430
 9355SOL     OW28963   0.329   2.370   4.516
 9355SOL    HW128964   0.229   2.380   4.520
 9355SOL    HW228965   0.362   2.404   4.428
 9356SOL     OW28966   4.841   0.511   1.924
 9356SOL    HW128967   4.747   0.509   1.889
 9356SOL    HW228968   4.839   0.505   2.024
 9357SOL     OW28969   1.732   2.881   5.614
 9357SOL    HW128970   1.760   2.972   5.585
 9357SOL    HW228971   1.780   2.857   5.699
 9358SOL     OW28972   6.492   3.898   2.255
 9358SOL    HW128973   6.517   3.866   2.164
 9358SOL    HW228974   6.411   3.957   2.248
 9359SOL     OW28975   1.343   4.650   6.241
 9359SOL    HW128976   1.331   4.743   6.207
 9359SOL    HW228977   1.362   4.653   6.339
 9360SOL     OW28978   1.132   5.174   6.175
 9360SOL    HW128979   1.099   5.260   6.214
 9360SOL    HW228980   1.185   5.193   6.093
 9361SOL     OW28981   1.623   4.695   3.817
 9361SOL    HW128982   1.667   4.784   3.801
 9361SOL    HW228983   1.565   4.701   3.898
 9362SOL     OW28984   0.906   1.152   2.309
 9362SOL    HW128985   0.985   1.208   2.284
 9362SOL    HW228986   0.883   1.091   2.233
 9363SOL     OW28987   2.861   5.563   2.125
 9363SOL    HW128988   2.813   5.477   2.142
 9363SOL    HW228989   2.959   5.545   2.116
 9364SOL     OW28990   2.569   1.940   0.179
 9364SOL    HW128991   2.532   2.017   0.127
 9364SOL    HW228992   2.629   1.886   0.120
 9365SOL     OW28993   3.188   1.756   3.133
 9365SOL    HW128994   3.112   1.791   3.078
 9365SOL    HW228995   3.174   1.779   3.229
 9366SOL     OW28996   2.956   5.619   7.001
 9366SOL    HW128997   2.919   5.553   0.038
 9366SOL    HW228998   2.881   5.655   6.944
 9367SOL     OW28999   6.332   6.737   2.148
 9367SOL    HW129000   6.400   6.664   2.152
 9367SOL    HW229001   6.355   6.808   2.215
 9368SOL     OW29002   3.495   0.329   2.235
 9368SOL    HW129003   3.496   0.259   2.163
 9368SOL    HW229004   3.403   0.337   2.272
 9369SOL     OW29005   6.419   6.889   3.668
 9369SOL    HW129006   6.451   6.968   3.720
 9369SOL    HW229007   6.319   6.890   3.662
 9370SOL     OW29008   5.423   6.941   4.429
 9370SOL    HW129009   5.395   6.909   4.519
 9370SOL    HW229010   5.398   0.009   4.419
 9371SOL     OW29011   2.646   5.668   0.587
 9371SOL    HW129012   2.692   5.730   0.524
 9371SOL    HW229013   2.561   5.709   0.619
 9372SOL     OW29014   5.234   0.199   1.405
 9372SOL    HW129015   5.285   0.249   1.334
 9372SOL    HW229016   5.261   0.234   1.495
 9373SOL     OW29017   4.761   2.127   0.823
 9373SOL    HW129018   4.839   2.179   0.857
 9373SOL    HW229019   4.693   2.116   0.896
 9374SOL     OW29020   0.759   3.422   6.376
 9374SOL    HW129021   0.775   3.450   6.281
 9374SOL    HW229022   0.718   3.330   6.378
 9375SOL     OW29023   0.501   2.075   0.516
 9375SOL    HW129024   0.550   1.991   0.539
 9375SOL    HW229025   0.404   2.055   0.504
 9376SOL     OW29026   2.332   3.965   1.906
 9376SOL    HW129027   2.306   4.037   1.970
 9376SOL    HW229028   2.262   3.956   1.835
 9377SOL     OW29029   1.443   5.074   3.436
 9377SOL    HW129030   1.517   5.080   3.369
 9377SOL    HW229031   1.364   5.029   3.395
 9378SOL     OW29032   3.879   1.404   3.410
 9378SOL    HW129033   3.821   1.485   3.408
 9378SOL    HW229034   3.862   1.353   3.494
 9379SOL     OW29035   4.820   0.296   4.354
 9379SOL    HW129036   4.776   0.369   4.407
 9379SOL    HW229037   4.754   0.258   4.289
 9380SOL     OW29038   3.750   5.824   5.356
 9380SOL    HW129039   3.743   5.842   5.258
 9380SOL    HW229040   3.696   5.891   5.406
 9381SOL     OW29041   5.478   2.779   5.630
 9381SOL    HW129042   5.449   2.816   5.542
 9381SOL    HW229043   5.424   2.697   5.652
 9382SOL     OW29044   4.129   1.414   4.106
 9382SOL    HW129045   4.192   1.416   4.028
 9382SOL    HW229046   4.050   1.358   4.082
 9383SOL     OW29047   5.367   4.877   4.471
 9383SOL    HW129048   5.454   4.905   4.430
 9383SOL    HW229049   5.370   4.891   4.570
 9384SOL     OW29050   3.553   0.132   2.046
 9384SOL    HW129051   3.632   0.077   2.022
 9384SOL    HW229052   3.518   0.179   1.965
 9385SOL     OW29053   4.664   1.326   4.151
 9385SOL    HW129054   4.709   1.252   4.201
 9385SOL    HW229055   4.575   1.294   4.118
 9386SOL     OW29056   2.833   5.795   4.861
 9386SOL    HW129057   2.783   5.725   4.811
 9386SOL    HW229058   2.896   5.751   4.926
 9387SOL     OW29059   3.385   2.266   0.656
 9387SOL    HW129060   3.295   2.271   0.699
 9387SOL    HW229061   3.440   2.345   0.684
 9388SOL     OW29062   1.671   6.615   3.353
 9388SOL    HW129063   1.706   6.523   3.371
 9388SOL    HW229064   1.741   6.669   3.305
 9389SOL     OW29065   2.984   6.381   2.625
 9389SOL    HW129066   2.914   6.380   2.554
 9389SOL    HW229067   3.058   6.444   2.599
 9390SOL     OW29068   5.992   5.424   5.907
 9390SOL    HW129069   6.049   5.503   5.884
 9390SOL    HW229070   5.979   5.367   5.826
 9391SOL     OW29071   0.163   0.782   5.778
 9391SOL    HW129072   0.173   0.701   5.721
 9391SOL    HW229073   0.103   0.848   5.733
 9392SOL     OW29074   5.072   4.493   4.605
 9392SOL    HW129075   4.995   4.557   4.605
 9392SOL    HW229076   5.145   4.530   4.547
 9393SOL     OW29077   2.845   6.588   5.548
 9393SOL    HW129078   2.855   6.597   5.648
 9393SOL    HW229079   2.750   6.605   5.522
 9394SOL     OW29080   6.418   0.565   1.241
 9394SOL    HW129081   6.384   0.522   1.325
 9394SOL    HW229082   6.397   0.505   1.163
 9395SOL     OW29083   2.324   0.885   0.731
 9395SOL    HW129084   2.387   0.878   0.809
 9395SOL    HW229085   2.370   0.931   0.655
 9396SOL     OW29086   1.487   4.457   4.890
 9396SOL    HW129087   1.422   4.482   4.819
 9396SOL    HW229088   1.473   4.361   4.916
 9397SOL     OW29089   2.538   6.413   5.692
 9397SOL    HW129090   2.598   6.335   5.675
 9397SOL    HW229091   2.459   6.409   5.630
 9398SOL     OW29092   6.030   1.551   5.815
 9398SOL    HW129093   6.001   1.562   5.720
 9398SOL    HW229094   6.032   1.641   5.859
 9399SOL     OW29095   0.778   3.068   3.980
 9399SOL    HW129096   0.844   3.026   4.042
 9399SOL    HW229097   0.750   3.157   4.017
 9400SOL     OW29098   4.435   0.503   0.626
 9400SOL    HW129099   4.510   0.437   0.633
 9400SOL    HW229100   4.376   0.495   0.707
 9401SOL     OW29101   0.163   2.158   2.130
 9401SOL    HW129102   0.202   2.066   2.135
 9401SOL    HW229103   0.145   2.191   2.222
 9402SOL     OW29104   1.085   4.443   3.029
 9402SOL    HW129105   1.121   4.355   2.999
 9402SOL    HW229106   1.161   4.506   3.046
 9403SOL     OW29107   6.720   1.606   1.940
 9403SOL    HW129108   6.667   1.558   1.869
 9403SOL    HW229109   6.658   1.649   2.005
 9404SOL     OW29110   0.001   2.107   0.880
 9404SOL    HW129111   0.048   2.092   0.967
 9404SOL    HW229112   0.049   2.177   0.827
 9405SOL     OW29113   1.269   3.870   4.447
 9405SOL    HW129114   1.266   3.837   4.353
 9405SOL    HW229115   1.363   3.894   4.471
 9406SOL     OW29116   1.362   3.364   0.222
 9406SOL    HW129117   1.451   3.371   0.267
 9406SOL    HW229118   1.363   3.417   0.138
 9407SOL     OW29119   2.720   5.234   4.209
 9407SOL    HW129120   2.661   5.313   4.228
 9407SOL    HW229121   2.782   5.256   4.134
 9408SOL     OW29122   0.592   1.922   6.366
 9408SOL    HW129123   0.562   1.834   6.403
 9408SOL    HW229124   0.691   1.932   6.377
 9409SOL     OW29125   6.539   5.774   1.575
 9409SOL    HW129126   6.587   5.704   1.522
 9409SOL    HW229127   6.481   5.731   1.643
 9410SOL     OW29128   4.679   1.157   1.650
 9410SOL    HW129129   4.738   1.185   1.574
 9410SOL    HW229130   4.584   1.177   1.627
 9411SOL     OW29131   3.701   3.695   3.341
 9411SOL    HW129132   3.670   3.762   3.274
 9411SOL    HW229133   3.673   3.724   3.433
 9412SOL     OW29134   1.315   0.032   2.174
 9412SOL    HW129135   1.235   0.038   2.233
 9412SOL    HW229136   1.329   6.966   2.145
 9413SOL     OW29137   4.741   5.071   4.921
 9413SOL    HW129138   4.698   5.034   5.003
 9413SOL    HW229139   4.804   5.144   4.946
 9414SOL     OW29140   3.261   1.935   4.372
 9414SOL    HW129141   3.232   2.030   4.363
 9414SOL    HW229142   3.333   1.928   4.441
 9415SOL     OW29143   2.505   0.146   1.435
 9415SOL    HW129144   2.437   0.103   1.375
 9415SOL    HW229145   2.560   0.210   1.381
 9416SOL     OW29146   0.474   0.845   5.435
 9416SOL    HW129147   0.470   0.867   5.532
 9416SOL    HW229148   0.567   0.816   5.411
 9417SOL     OW29149   3.959   6.699   1.516
 9417SOL    HW129150   4.056   6.693   1.539
 9417SOL    HW229151   3.909   6.628   1.565
 9418SOL     OW29152   2.338   1.193   2.780
 9418SOL    HW129153   2.332   1.103   2.822
 9418SOL    HW229154   2.412   1.194   2.713
 9419SOL     OW29155   2.159   3.281   6.693
 9419SOL    HW129156   2.177   3.373   6.659
 9419SOL    HW229157   2.082   3.242   6.642
 9420SOL     OW29158   5.222   4.446   0.383
 9420SOL    HW129159   5.293   4.394   0.429
 9420SOL    HW229160   5.263   4.526   0.339
 9421SOL     OW29161   2.887   5.247   3.984
 9421SOL    HW129162   2.865   5.240   3.887
 9421SOL    HW229163   2.932   5.164   4.014
 9422SOL     OW29164   2.881   5.984   3.996
 9422SOL    HW129165   2.947   6.050   4.033
 9422SOL    HW229166   2.807   5.970   4.061
 9423SOL     OW29167   3.940   6.083   3.116
 9423SOL    HW129168   3.943   6.161   3.179
 9423SOL    HW229169   3.980   6.109   3.029
 9424SOL     OW29170   5.418   1.612   4.623
 9424SOL    HW129171   5.423   1.532   4.564
 9424SOL    HW229172   5.403   1.584   4.718
 9425SOL     OW29173   5.505   5.323   0.898
 9425SOL    HW129174   5.406   5.330   0.912
 9425SOL    HW229175   5.545   5.415   0.898
 9426SOL     OW29176   2.014   1.799   5.963
 9426SOL    HW129177   1.963   1.884   5.944
 9426SOL    HW229178   1.982   1.760   6.049
 9427SOL     OW29179   2.367   5.968   3.144
 9427SOL    HW129180   2.312   6.034   3.093
 9427SOL    HW229181   2.437   6.018   3.196
 9428SOL     OW29182   6.849   0.168   0.292
 9428SOL    HW129183   6.759   0.149   0.332
 9428SOL    HW229184   6.891   0.245   0.339
 9429SOL     OW29185   1.597   2.387   3.813
 9429SOL    HW129186   1.578   2.319   3.884
 9429SOL    HW229187   1.512   2.413   3.768
 9430SOL     OW29188   0.433   2.471   4.254
 9430SOL    HW129189   0.500   2.500   4.186
 9430SOL    HW229190   0.342   2.470   4.213
 9431SOL     OW29191   6.460   4.265   1.095
 9431SOL    HW129192   6.490   4.226   1.008
 9431SOL    HW229193   6.516   4.346   1.116
 9432SOL     OW29194   6.123   1.711   4.577
 9432SOL    HW129195   6.157   1.713   4.671
 9432SOL    HW229196   6.070   1.627   4.563
 9433SOL     OW29197   4.166   5.733   3.417
 9433SOL    HW129198   4.073   5.746   3.452
 9433SOL    HW229199   4.182   5.794   3.339
 9434SOL     OW29200   5.612   5.493   3.505
 9434SOL    HW129201   5.650   5.434   3.435
 9434SOL    HW229202   5.653   5.471   3.594
 9435SOL     OW29203   0.234   1.800   2.665
 9435SOL    HW129204   0.201   1.752   2.746
 9435SOL    HW229205   0.168   1.870   2.639
 9436SOL     OW29206   1.327   1.214   2.749
 9436SOL    HW129207   1.399   1.278   2.779
 9436SOL    HW229208   1.365   1.122   2.742
 9437SOL     OW29209   0.973   5.190   3.578
 9437SOL    HW129210   1.050   5.147   3.626
 9437SOL    HW229211   0.932   5.259   3.637
 9438SOL     OW29212   0.761   6.981   2.041
 9438SOL    HW129213   0.855   6.988   2.008
 9438SOL    HW229214   0.711   6.914   1.986
 9439SOL     OW29215   0.753   2.967   0.763
 9439SOL    HW129216   0.748   3.045   0.701
 9439SOL    HW229217   0.770   3.000   0.856
 9440SOL     OW29218   3.019   4.853   3.469
 9440SOL    HW129219   2.955   4.877   3.396
 9440SOL    HW229220   2.975   4.792   3.534
 9441SOL     OW29221   6.325   5.909   5.776
 9441SOL    HW129222   6.377   5.825   5.794
 9441SOL    HW229223   6.349   5.977   5.844
 9442SOL     OW29224   4.905   3.416   1.652
 9442SOL    HW129225   4.973   3.466   1.598
 9442SOL    HW229226   4.832   3.383   1.592
 9443SOL     OW29227   2.805   6.038   1.633
 9443SOL    HW129228   2.895   6.075   1.656
 9443SOL    HW229229   2.748   6.038   1.715
 9444SOL     OW29230   1.658   4.343   0.768
 9444SOL    HW129231   1.704   4.254   0.767
 9444SOL    HW229232   1.691   4.396   0.846
 9445SOL     OW29233   6.616   2.407   3.400
 9445SOL    HW129234   6.560   2.450   3.470
 9445SOL    HW229235   6.562   2.393   3.317
 9446SOL     OW29236   0.301   5.024   4.387
 9446SOL    HW129237   0.384   5.076   4.370
 9446SOL    HW229238   0.230   5.084   4.424
 9447SOL     OW29239   5.158   4.887   2.944
 9447SOL    HW129240   5.244   4.938   2.956
 9447SOL    HW229241   5.122   4.862   3.033
 9448SOL     OW29242   6.339   6.750   5.941
 9448SOL    HW129243   6.265   6.719   5.882
 9448SOL    HW229244   6.340   6.695   6.025
 9449SOL     OW29245   5.580   6.602   0.489
 9449SOL    HW129246   5.605   6.521   0.437
 9449SOL    HW229247   5.498   6.583   0.543
 9450SOL     OW29248   1.423   5.042   3.709
 9450SOL    HW129249   1.423   5.061   3.610
 9450SOL    HW229250   1.507   4.994   3.733
 9451SOL     OW29251   4.380   5.845   6.030
 9451SOL    HW129252   4.372   5.817   5.935
 9451SOL    HW229253   4.402   5.942   6.035
 9452SOL     OW29254   0.493   4.107   0.109
 9452SOL    HW129255   0.504   4.150   0.019
 9452SOL    HW229256   0.428   4.161   0.163
 9453SOL     OW29257   2.634   4.928   2.727
 9453SOL    HW129258   2.693   4.998   2.687
 9453SOL    HW229259   2.589   4.876   2.654
 9454SOL     OW29260   4.252   3.465   0.097
 9454SOL    HW129261   4.163   3.494   0.133
 9454SOL    HW229262   4.321   3.534   0.118
 9455SOL     OW29263   2.255   2.118   2.759
 9455SOL    HW129264   2.188   2.141   2.688
 9455SOL    HW229265   2.268   2.019   2.761
 9456SOL     OW29266   6.371   4.347   2.238
 9456SOL    HW129267   6.277   4.375   2.216
 9456SOL    HW229268   6.435   4.393   2.177
 9457SOL     OW29269   0.173   4.471   4.307
 9457SOL    HW129270   0.185   4.569   4.292
 9457SOL    HW229271   0.177   4.423   4.220
 9458SOL     OW29272   0.256   3.833   0.299
 9458SOL    HW129273   0.244   3.768   0.374
 9458SOL    HW229274   0.330   3.802   0.240
 9459SOL     OW29275   5.220   4.418   4.097
 9459SOL    HW129276   5.170   4.502   4.117
 9459SOL    HW229277   5.189   4.345   4.158
 9460SOL     OW29278   2.222   2.747   4.532
 9460SOL    HW129279   2.127   2.725   4.553
 9460SOL    HW229280   2.225   2.819   4.463
 9461SOL     OW29281   0.815   1.220   1.368
 9461SOL    HW129282   0.747   1.255   1.433
 9461SOL    HW229283   0.849   1.132   1.400
 9462SOL     OW29284   1.569   3.031   3.604
 9462SOL    HW129285   1.521   3.053   3.689
 9462SOL    HW229286   1.667   3.038   3.618
 9463SOL     OW29287   5.411   0.290   1.201
 9463SOL    HW129288   5.491   0.249   1.157
 9463SOL    HW229289   5.436   0.377   1.242
 9464SOL     OW29290   6.157   0.252   0.956
 9464SOL    HW129291   6.080   0.315   0.950
 9464SOL    HW229292   6.133   0.166   0.909
 9465SOL     OW29293   6.960   3.903   1.684
 9465SOL    HW129294   6.885   3.838   1.679
 9465SOL    HW229295   6.950   3.958   1.767
 9466SOL     OW29296   3.875   4.727   6.341
 9466SOL    HW129297   3.853   4.718   6.438
 9466SOL    HW229298   3.798   4.696   6.286
 9467SOL     OW29299   1.436   2.685   0.887
 9467SOL    HW129300   1.430   2.625   0.967
 9467SOL    HW229301   1.345   2.698   0.848
 9468SOL     OW29302   6.830   3.559   6.666
 9468SOL    HW129303   6.893   3.567   6.743
 9468SOL    HW229304   6.880   3.525   6.586
 9469SOL     OW29305   0.212   5.996   0.909
 9469SOL    HW129306   0.113   5.996   0.924
 9469SOL    HW229307   0.235   5.929   0.839
 9470SOL     OW29308   4.876   3.944   6.688
 9470SOL    HW129309   4.969   3.928   6.721
 9470SOL    HW229310   4.875   3.947   6.588
 9471SOL     OW29311   5.520   2.261   5.637
 9471SOL    HW129312   5.444   2.204   5.608
 9471SOL    HW229313   5.519   2.346   5.585
 9472SOL     OW29314   0.915   4.263   6.012
 9472SOL    HW129315   1.007   4.251   5.973
 9472SOL    HW229316   0.859   4.316   5.948
 9473SOL     OW29317   3.054   3.634   6.799
 9473SOL    HW129318   3.138   3.587   6.826
 9473SOL    HW229319   3.045   3.719   6.851
 9474SOL     OW29320   5.970   3.299   1.912
 9474SOL    HW129321   6.047   3.312   1.849
 9474SOL    HW229322   5.976   3.366   1.986
 9475SOL     OW29323   4.831   3.591   0.155
 9475SOL    HW129324   4.855   3.526   0.082
 9475SOL    HW229325   4.751   3.644   0.127
 9476SOL     OW29326   3.857   4.008   5.777
 9476SOL    HW129327   3.942   3.961   5.756
 9476SOL    HW229328   3.799   3.950   5.834
 9477SOL     OW29329   1.778   3.101   0.783
 9477SOL    HW129330   1.699   3.041   0.797
 9477SOL    HW229331   1.748   3.189   0.748
 9478SOL     OW29332   4.645   3.021   0.686
 9478SOL    HW129333   4.728   2.969   0.665
 9478SOL    HW229334   4.655   3.065   0.775
 9479SOL     OW29335   3.985   0.092   0.889
 9479SOL    HW129336   4.011   0.173   0.836
 9479SOL    HW229337   4.056   0.071   0.956
 9480SOL     OW29338   6.077   5.209   0.297
 9480SOL    HW129339   6.041   5.124   0.336
 9480SOL    HW229340   6.151   5.242   0.354
 9481SOL     OW29341   5.079   2.387   3.088
 9481SOL    HW129342   5.082   2.292   3.117
 9481SOL    HW229343   5.066   2.391   2.989
 9482SOL     OW29344   6.085   0.206   2.621
 9482SOL    HW129345   6.131   0.134   2.570
 9482SOL    HW229346   6.101   0.194   2.719
 9483SOL     OW29347   1.447   1.048   0.324
 9483SOL    HW129348   1.405   0.958   0.327
 9483SOL    HW229349   1.544   1.041   0.349
 9484SOL     OW29350   2.649   0.399   4.466
 9484SOL    HW129351   2.719   0.386   4.536
 9484SOL    HW229352   2.585   0.322   4.469
 9485SOL     OW29353   6.703   1.477   0.843
 9485SOL    HW129354   6.764   1.528   0.783
 9485SOL    HW229355   6.661   1.402   0.791
 9486SOL     OW29356   4.960   6.273   1.176
 9486SOL    HW129357   4.935   6.181   1.208
 9486SOL    HW229358   4.956   6.337   1.252
 9487SOL     OW29359   3.301   3.951   4.495
 9487SOL    HW129360   3.228   3.969   4.429
 9487SOL    HW229361   3.288   4.009   4.576
 9488SOL     OW29362   2.195   7.000   0.816
 9488SOL    HW129363   2.119   6.945   0.851
 9488SOL    HW229364   2.158   0.049   0.764
 9489SOL     OW29365   5.078   4.021   1.182
 9489SOL    HW129366   5.073   4.118   1.208
 9489SOL    HW229367   5.020   3.968   1.244
 9490SOL     OW29368   6.688   6.475   3.558
 9490SOL    HW129369   6.644   6.554   3.515
 9490SOL    HW229370   6.707   6.496   3.654
 9491SOL     OW29371   5.977   5.570   4.532
 9491SOL    HW129372   5.985   5.498   4.601
 9491SOL    HW229373   5.953   5.657   4.576
 9492SOL     OW29374   4.061   3.226   5.702
 9492SOL    HW129375   3.991   3.185   5.760
 9492SOL    HW229376   4.091   3.314   5.741
 9493SOL     OW29377   3.627   5.537   3.942
 9493SOL    HW129378   3.596   5.585   3.860
 9493SOL    HW229379   3.554   5.477   3.974
 9494SOL     OW29380   5.653   2.848   2.271
 9494SOL    HW129381   5.659   2.948   2.279
 9494SOL    HW229382   5.672   2.821   2.177
 9495SOL     OW29383   6.897   1.179   2.345
 9495SOL    HW129384   6.915   1.275   2.363
 9495SOL    HW229385   6.823   1.147   2.405
 9496SOL     OW29386   4.780   2.432   2.071
 9496SOL    HW129387   4.855   2.495   2.094
 9496SOL    HW229388   4.813   2.338   2.072
 9497SOL     OW29389   5.320   6.451   5.596
 9497SOL    HW129390   5.279   6.530   5.641
 9497SOL    HW229391   5.250   6.400   5.547
 9498SOL     OW29392   6.543   4.537   5.375
 9498SOL    HW129393   6.562   4.443   5.345
 9498SOL    HW229394   6.454   4.566   5.341
 9499SOL     OW29395   0.328   6.262   5.078
 9499SOL    HW129396   0.408   6.202   5.065
 9499SOL    HW229397   0.245   6.206   5.077
 9500SOL     OW29398   3.835   6.245   0.816
 9500SOL    HW129399   3.820   6.333   0.770
 9500SOL    HW229400   3.922   6.246   0.864
 9501SOL     OW29401   1.594   1.428   4.281
 9501SOL    HW129402   1.592   1.428   4.181
 9501SOL    HW229403   1.510   1.470   4.316
 9502SOL     OW29404   6.088   4.091   4.087
 9502SOL    HW129405   6.009   4.135   4.045
 9502SOL    HW229406   6.111   4.138   4.173
 9503SOL     OW29407   0.180   2.656   0.685
 9503SOL    HW129408   0.156   2.582   0.747
 9503SOL    HW229409   0.173   2.743   0.733
 9504SOL     OW29410   6.638   3.909   1.459
 9504SOL    HW129411   6.679   3.852   1.531
 9504SOL    HW229412   6.710   3.955   1.408
 9505SOL     OW29413   5.365   4.384   5.326
 9505SOL    HW129414   5.447   4.333   5.300
 9505SOL    HW229415   5.287   4.322   5.334
 9506SOL     OW29416   2.140   2.424   0.694
 9506SOL    HW129417   2.178   2.387   0.609
 9506SOL    HW229418   2.214   2.457   0.752
 9507SOL     OW29419   6.742   0.536   1.366
 9507SOL    HW129420   6.757   0.487   1.281
 9507SOL    HW229421   6.649   0.572   1.369
 9508SOL     OW29422   6.074   1.894   3.044
 9508SOL    HW129423   6.121   1.953   3.109
 9508SOL    HW229424   6.063   1.942   2.957
 9509SOL     OW29425   6.976   0.152   3.590
 9509SOL    HW129426   6.961   0.216   3.515
 9509SOL    HW229427   6.895   0.095   3.602
 9510SOL     OW29428   1.159   3.425   3.034
 9510SOL    HW129429   1.250   3.387   3.048
 9510SOL    HW229430   1.163   3.525   3.038
 9511SOL     OW29431   1.442   0.863   1.785
 9511SOL    HW129432   1.451   0.764   1.792
 9511SOL    HW229433   1.531   0.906   1.804
 9512SOL     OW29434   6.379   2.179   1.517
 9512SOL    HW129435   6.369   2.081   1.500
 9512SOL    HW229436   6.426   2.193   1.604
 9513SOL     OW29437   2.989   4.564   6.052
 9513SOL    HW129438   2.899   4.602   6.030
 9513SOL    HW229439   3.036   4.536   5.969
 9514SOL     OW29440   2.780   4.152   6.989
 9514SOL    HW129441   2.715   4.076   6.977
 9514SOL    HW229442   2.734   4.227   0.008
 9515SOL     OW29443   2.013   5.972   2.791
 9515SOL    HW129444   2.000   6.025   2.707
 9515SOL    HW229445   2.035   5.877   2.767
 9516SOL     OW29446   5.882   4.527   0.534
 9516SOL    HW129447   5.868   4.545   0.436
 9516SOL    HW229448   5.979   4.508   0.550
 9517SOL     OW29449   1.309   3.633   1.235
 9517SOL    HW129450   1.281   3.568   1.305
 9517SOL    HW229451   1.374   3.699   1.274
 9518SOL     OW29452   2.340   1.574   0.891
 9518SOL    HW129453   2.394   1.632   0.830
 9518SOL    HW229454   2.402   1.522   0.950
 9519SOL     OW29455   2.930   2.817   5.367
 9519SOL    HW129456   2.950   2.749   5.438
 9519SOL    HW229457   3.012   2.833   5.311
 9520SOL     OW29458   2.946   0.506   2.737
 9520SOL    HW129459   2.955   0.588   2.680
 9520SOL    HW229460   3.001   0.517   2.819
 9521SOL     OW29461   5.696   5.187   2.650
 9521SOL    HW129462   5.668   5.283   2.649
 9521SOL    HW229463   5.722   5.159   2.558
 9522SOL     OW29464   3.234   5.114   0.800
 9522SOL    HW129465   3.158   5.128   0.736
 9522SOL    HW229466   3.242   5.195   0.859
 9523SOL     OW29467   3.338   5.153   4.535
 9523SOL    HW129468   3.363   5.056   4.525
 9523SOL    HW229469   3.412   5.210   4.500
 9524SOL     OW29470   4.150   2.706   1.646
 9524SOL    HW129471   4.053   2.723   1.668
 9524SOL    HW229472   4.187   2.784   1.595
 9525SOL     OW29473   2.474   2.567   6.259
 9525SOL    HW129474   2.492   2.603   6.351
 9525SOL    HW229475   2.528   2.484   6.245
 9526SOL     OW29476   5.672   5.499   2.582
 9526SOL    HW129477   5.651   5.497   2.680
 9526SOL    HW229478   5.738   5.572   2.564
 9527SOL     OW29479   1.333   0.968   1.522
 9527SOL    HW129480   1.358   0.907   1.597
 9527SOL    HW229481   1.274   1.041   1.557
 9528SOL     OW29482   0.231   0.757   6.795
 9528SOL    HW129483   0.237   0.854   6.821
 9528SOL    HW229484   0.171   0.709   6.859
 9529SOL     OW29485   0.245   3.452   5.273
 9529SOL    HW129486   0.146   3.466   5.280
 9529SOL    HW229487   0.277   3.393   5.347
 9530SOL     OW29488   1.764   2.748   3.370
 9530SOL    HW129489   1.745   2.672   3.308
 9530SOL    HW229490   1.862   2.766   3.373
 9531SOL     OW29491   4.139   5.500   3.260
 9531SOL    HW129492   4.162   5.569   3.328
 9531SOL    HW229493   4.062   5.532   3.204
 9532SOL     OW29494   1.218   5.692   1.710
 9532SOL    HW129495   1.296   5.741   1.670
 9532SOL    HW229496   1.245   5.599   1.732
 9533SOL     OW29497   0.265   0.915   5.287
 9533SOL    HW129498   0.264   1.002   5.238
 9533SOL    HW229499   0.357   0.897   5.322
 9534SOL     OW29500   5.717   3.098   5.401
 9534SOL    HW129501   5.702   3.056   5.491
 9534SOL    HW229502   5.714   3.197   5.410
 9535SOL     OW29503   2.540   1.282   5.974
 9535SOL    HW129504   2.480   1.305   5.897
 9535SOL    HW229505   2.485   1.253   6.052
 9536SOL     OW29506   2.153   5.345   5.200
 9536SOL    HW129507   2.184   5.421   5.257
 9536SOL    HW229508   2.176   5.259   5.245
 9537SOL     OW29509   3.105   0.786   2.252
 9537SOL    HW129510   3.123   0.723   2.177
 9537SOL    HW229511   3.188   0.839   2.272
 9538SOL     OW29512   6.801   1.424   4.474
 9538SOL    HW129513   6.830   1.453   4.566
 9538SOL    HW229514   6.724   1.361   4.482
 9539SOL     OW29515   2.079   4.626   6.578
 9539SOL    HW129516   2.117   4.543   6.536
 9539SOL    HW229517   2.033   4.681   6.508
 9540SOL     OW29518   4.629   4.265   5.241
 9540SOL    HW129519   4.649   4.355   5.280
 9540SOL    HW229520   4.583   4.208   5.309
 9541SOL     OW29521   1.986   1.915   5.545
 9541SOL    HW129522   2.070   1.944   5.591
 9541SOL    HW229523   1.912   1.977   5.570
 9542SOL     OW29524   4.965   3.560   5.245
 9542SOL    HW129525   4.912   3.552   5.161
 9542SOL    HW229526   4.993   3.469   5.276
 9543SOL     OW29527   4.609   0.331   4.716
 9543SOL    HW129528   4.561   0.297   4.636
 9543SOL    HW229529   4.542   0.359   4.785
 9544SOL     OW29530   5.444   0.696   1.513
 9544SOL    HW129531   5.484   0.782   1.480
 9544SOL    HW229532   5.509   0.651   1.574
 9545SOL     OW29533   6.703   5.902   3.089
 9545SOL    HW129534   6.760   5.831   3.046
 9545SOL    HW229535   6.746   5.991   3.074
 9546SOL     OW29536   2.549   3.990   6.929
 9546SOL    HW129537   2.511   3.898   6.942
 9546SOL    HW229538   2.494   4.056   6.981
 9547SOL     OW29539   2.404   6.324   4.161
 9547SOL    HW129540   2.463   6.276   4.096
 9547SOL    HW229541   2.310   6.325   4.125
 9548SOL     OW29542   6.505   5.118   4.911
 9548SOL    HW129543   6.413   5.086   4.890
 9548SOL    HW229544   6.527   5.197   4.854
 9549SOL     OW29545   3.022   4.983   0.962
 9549SOL    HW129546   3.020   5.007   1.059
 9549SOL    HW229547   3.106   5.018   0.921
 9550SOL     OW29548   6.637   1.037   6.730
 9550SOL    HW129549   6.723   1.041   6.781
 9550SOL    HW229550   6.641   0.963   6.662
 9551SOL     OW29551   0.516   6.757   4.353
 9551SOL    HW129552   0.586   6.805   4.405
 9551SOL    HW229553   0.491   6.673   4.400
 9552SOL     OW29554   2.046   6.320   3.128
 9552SOL    HW129555   2.010   6.229   3.107
 9552SOL    HW229556   2.107   6.349   3.055
 9553SOL     OW29557   5.990   5.033   6.482
 9553SOL    HW129558   6.083   4.999   6.493
 9553SOL    HW229559   5.979   5.120   6.530
 9554SOL     OW29560   3.088   1.171   1.681
 9554SOL    HW129561   3.045   1.180   1.771
 9554SOL    HW229562   3.180   1.133   1.693
 9555SOL     OW29563   6.475   2.838   1.518
 9555SOL    HW129564   6.426   2.756   1.492
 9555SOL    HW229565   6.570   2.815   1.538
 9556SOL     OW29566   2.418   1.505   1.912
 9556SOL    HW129567   2.375   1.534   1.827
 9556SOL    HW229568   2.484   1.432   1.892
 9557SOL     OW29569   5.876   0.448   2.593
 9557SOL    HW129570   5.935   0.504   2.535
 9557SOL    HW229571   5.927   0.369   2.626
 9558SOL     OW29572   0.162   5.291   2.899
 9558SOL    HW129573   0.119   5.224   2.960
 9558SOL    HW229574   0.124   5.281   2.807
 9559SOL     OW29575   0.238   4.174   2.439
 9559SOL    HW129576   0.284   4.192   2.352
 9559SOL    HW229577   0.302   4.129   2.501
 9560SOL     OW29578   2.123   1.032   2.362
 9560SOL    HW129579   2.101   1.098   2.434
 9560SOL    HW229580   2.218   1.003   2.371
 9561SOL     OW29581   2.736   6.760   0.450
 9561SOL    HW129582   2.716   6.838   0.510
 9561SOL    HW229583   2.797   6.697   0.498
 9562SOL     OW29584   3.526   5.314   4.428
 9562SOL    HW129585   3.446   5.370   4.448
 9562SOL    HW229586   3.599   5.334   4.493
 9563SOL     OW29587   6.385   6.277   0.009
 9563SOL    HW129588   6.410   6.368   7.005
 9563SOL    HW229589   6.363   6.281   0.106
 9564SOL     OW29590   2.786   7.007   6.618
 9564SOL    HW129591   2.744   0.061   6.579
 9564SOL    HW229592   2.883   7.003   6.591
 9565SOL     OW29593   4.274   5.967   5.170
 9565SOL    HW129594   4.233   5.876   5.170
 9565SOL    HW229595   4.361   5.964   5.220
 9566SOL     OW29596   3.753   4.165   6.688
 9566SOL    HW129597   3.823   4.139   6.753
 9566SOL    HW229598   3.762   4.110   6.605
 9567SOL     OW29599   6.345   5.727   6.497
 9567SOL    HW129600   6.326   5.633   6.527
 9567SOL    HW229601   6.424   5.727   6.437
 9568SOL     OW29602   5.003   3.698   6.581
 9568SOL    HW129603   5.051   3.689   6.668
 9568SOL    HW229604   5.068   3.722   6.509
 9569SOL     OW29605   6.351   1.023   0.010
 9569SOL    HW129606   6.303   1.058   6.957
 9569SOL    HW229607   6.357   0.923   0.004
 9570SOL     OW29608   0.590   1.359   1.083
 9570SOL    HW129609   0.599   1.410   1.169
 9570SOL    HW229610   0.673   1.305   1.068
 9571SOL     OW29611   2.784   3.841   0.078
 9571SOL    HW129612   2.756   3.886   0.163
 9571SOL    HW229613   2.792   3.743   0.094
 9572SOL     OW29614   1.286   4.457   1.300
 9572SOL    HW129615   1.378   4.430   1.271
 9572SOL    HW229616   1.265   4.547   1.263
 9573SOL     OW29617   0.930   0.606   6.662
 9573SOL    HW129618   0.866   0.556   6.721
 9573SOL    HW229619   0.975   0.678   6.716
 9574SOL     OW29620   3.310   3.733   6.128
 9574SOL    HW129621   3.375   3.790   6.079
 9574SOL    HW229622   3.352   3.644   6.149
 9575SOL     OW29623   6.083   0.752   1.078
 9575SOL    HW129624   6.156   0.684   1.077
 9575SOL    HW229625   5.994   0.706   1.074
 9576SOL     OW29626   3.890   1.601   3.895
 9576SOL    HW129627   3.965   1.537   3.879
 9576SOL    HW229628   3.920   1.693   3.870
 9577SOL     OW29629   0.965   0.323   2.303
 9577SOL    HW129630   0.931   0.399   2.358
 9577SOL    HW229631   0.888   0.271   2.267
 9578SOL     OW29632   6.346   2.739   2.136
 9578SOL    HW129633   6.249   2.759   2.151
 9578SOL    HW229634   6.379   2.791   2.058
 9579SOL     OW29635   1.062   0.030   2.009
 9579SOL    HW129636   1.027   0.120   1.982
 9579SOL    HW229637   1.162   0.033   2.013
 9580SOL     OW29638   5.234   3.653   0.075
 9580SOL    HW129639   5.299   3.724   0.103
 9580SOL    HW229640   5.218   3.591   0.152
 9581SOL     OW29641   1.749   5.454   5.957
 9581SOL    HW129642   1.650   5.466   5.957
 9581SOL    HW229643   1.786   5.479   5.867
 9582SOL     OW29644   4.311   4.640   4.101
 9582SOL    HW129645   4.359   4.556   4.124
 9582SOL    HW229646   4.299   4.695   4.184
 9583SOL     OW29647   1.991   3.512   1.836
 9583SOL    HW129648   1.996   3.462   1.749
 9583SOL    HW229649   2.075   3.496   1.888
 9584SOL     OW29650   6.411   5.032   0.210
 9584SOL    HW129651   6.326   5.051   0.160
 9584SOL    HW229652   6.463   4.961   0.162
 9585SOL     OW29653   5.599   6.922   2.641
 9585SOL    HW129654   5.664   6.984   2.597
 9585SOL    HW229655   5.528   6.975   2.686
 9586SOL     OW29656   5.387   3.519   3.817
 9586SOL    HW129657   5.454   3.497   3.746
 9586SOL    HW229658   5.374   3.439   3.876
 9587SOL     OW29659   6.135   0.333   1.452
 9587SOL    HW129660   6.228   0.358   1.478
 9587SOL    HW229661   6.139   0.260   1.383
 9588SOL     OW29662   0.036   0.593   0.925
 9588SOL    HW129663   0.071   0.526   0.859
 9588SOL    HW229664   0.015   0.546   1.011
 9589SOL     OW29665   2.120   6.775   5.823
 9589SOL    HW129666   2.075   6.865   5.820
 9589SOL    HW229667   2.182   6.772   5.902
 9590SOL     OW29668   0.541   3.840   2.484
 9590SOL    HW129669   0.616   3.804   2.540
 9590SOL    HW229670   0.574   3.853   2.390
 9591SOL     OW29671   2.176   6.443   0.509
 9591SOL    HW129672   2.181   6.507   0.433
 9591SOL    HW229673   2.244   6.370   0.495
 9592SOL     OW29674   4.000   5.267   2.859
 9592SOL    HW129675   3.992   5.312   2.948
 9592SOL    HW229676   4.029   5.172   2.872
 9593SOL     OW29677   5.570   2.152   4.526
 9593SOL    HW129678   5.654   2.205   4.519
 9593SOL    HW229679   5.551   2.132   4.622
 9594SOL     OW29680   6.694   6.220   2.793
 9594SOL    HW129681   6.768   6.261   2.740
 9594SOL    HW229682   6.636   6.293   2.829
 9595SOL     OW29683   1.662   5.682   4.147
 9595SOL    HW129684   1.624   5.737   4.222
 9595SOL    HW229685   1.655   5.585   4.170
 9596SOL     OW29686   6.984   5.836   5.191
 9596SOL    HW129687   6.923   5.765   5.157
 9596SOL    HW229688   6.932   5.898   5.251
 9597SOL     OW29689   0.352   4.158   1.926
 9597SOL    HW129690   0.392   4.089   1.986
 9597SOL    HW229691   0.416   4.178   1.852
 9598SOL     OW29692   0.381   4.417   5.749
 9598SOL    HW129693   0.311   4.384   5.686
 9598SOL    HW229694   0.466   4.366   5.734
 9599SOL     OW29695   3.541   0.216   5.401
 9599SOL    HW129696   3.475   0.242   5.471
 9599SOL    HW229697   3.556   0.118   5.404
 9600SOL     OW29698   1.488   0.565   5.874
 9600SOL    HW129699   1.543   0.481   5.874
 9600SOL    HW229700   1.535   0.635   5.818
 9601SOL     OW29701   0.124   4.652   6.112
 9601SOL    HW129702   0.162   4.573   6.064
 9601SOL    HW229703   0.193   4.724   6.118
 9602SOL     OW29704   6.862   4.632   6.091
 9602SOL    HW129705   6.835   4.571   6.166
 9602SOL    HW229706   6.959   4.654   6.100
 9603SOL     OW29707   2.409   6.089   4.357
 9603SOL    HW129708   2.371   6.182   4.356
 9603SOL    HW229709   2.508   6.093   4.352
 9604SOL     OW29710   5.172   0.872   7.002
 9604SOL    HW129711   5.090   0.852   6.948
 9604SOL    HW229712   5.183   0.971   7.011
 9605SOL     OW29713   1.741   5.654   5.289
 9605SOL    HW129714   1.775   5.593   5.218
 9605SOL    HW229715   1.816   5.682   5.349
 9606SOL     OW29716   0.415   6.456   3.215
 9606SOL    HW129717   0.431   6.381   3.280
 9606SOL    HW229718   0.493   6.463   3.153
 9607SOL     OW29719   0.716   0.749   2.095
 9607SOL    HW129720   0.777   0.827   2.084
 9607SOL    HW229721   0.757   0.668   2.051
 9608SOL     OW29722   6.699   0.087   2.021
 9608SOL    HW129723   6.737   0.158   1.963
 9608SOL    HW229724   6.737   0.094   2.113
 9609SOL     OW29725   1.998   4.409   4.861
 9609SOL    HW129726   2.047   4.424   4.775
 9609SOL    HW229727   2.062   4.382   4.932
 9610SOL     OW29728   1.535   2.123   5.914
 9610SOL    HW129729   1.526   2.174   5.999
 9610SOL    HW229730   1.487   2.172   5.841
 9611SOL     OW29731   6.751   0.267   0.831
 9611SOL    HW129732   6.708   0.345   0.786
 9611SOL    HW229733   6.840   0.250   0.790
 9612SOL     OW29734   6.306   3.106   0.588
 9612SOL    HW129735   6.282   3.069   0.678
 9612SOL    HW229736   6.393   3.156   0.594
 9613SOL     OW29737   5.545   6.677   4.513
 9613SOL    HW129738   5.596   6.651   4.595
 9613SOL    HW229739   5.514   6.772   4.522
 9614SOL     OW29740   3.681   4.099   2.331
 9614SOL    HW129741   3.753   4.161   2.362
 9614SOL    HW229742   3.605   4.101   2.396
 9615SOL     OW29743   1.645   5.874   2.664
 9615SOL    HW129744   1.622   5.948   2.727
 9615SOL    HW229745   1.605   5.893   2.574
 9616SOL     OW29746   3.684   2.582   0.930
 9616SOL    HW129747   3.642   2.664   0.969
 9616SOL    HW229748   3.761   2.554   0.987
 9617SOL     OW29749   1.030   3.052   3.515
 9617SOL    HW129750   1.119   3.013   3.539
 9617SOL    HW229751   0.982   3.078   3.599
 9618SOL     OW29752   3.894   6.754   6.891
 9618SOL    HW129753   3.960   6.696   6.939
 9618SOL    HW229754   3.942   6.832   6.851
 9619SOL     OW29755   2.150   6.034   0.247
 9619SOL    HW129756   2.078   6.089   0.291
 9619SOL    HW229757   2.227   6.023   0.310
 9620SOL     OW29758   3.356   0.426   6.518
 9620SOL    HW129759   3.352   0.335   6.478
 9620SOL    HW229760   3.297   0.488   6.465
 9621SOL     OW29761   0.392   0.127   2.654
 9621SOL    HW129762   0.337   0.057   2.608
 9621SOL    HW229763   0.353   0.146   2.745
 9622SOL     OW29764   6.652   0.765   7.024
 9622SOL    HW129765   6.553   0.775   7.025
 9622SOL    HW229766   6.683   0.729   0.083
 9623SOL     OW29767   5.084   5.531   6.724
 9623SOL    HW129768   5.086   5.435   6.751
 9623SOL    HW229769   5.109   5.539   6.627
 9624SOL     OW29770   5.078   5.313   5.362
 9624SOL    HW129771   5.089   5.214   5.375
 9624SOL    HW229772   4.981   5.337   5.369
 9625SOL     OW29773   5.581   4.702   6.495
 9625SOL    HW129774   5.601   4.799   6.508
 9625SOL    HW229775   5.485   4.685   6.515
 9626SOL     OW29776   1.749   4.778   5.225
 9626SOL    HW129777   1.669   4.806   5.172
 9626SOL    HW229778   1.783   4.691   5.190
 9627SOL     OW29779   1.594   4.778   5.740
 9627SOL    HW129780   1.658   4.701   5.736
 9627SOL    HW229781   1.537   4.778   5.658
 9628SOL     OW29782   5.973   3.930   6.818
 9628SOL    HW129783   5.888   3.921   6.766
 9628SOL    HW229784   5.993   4.028   6.831
 9629SOL     OW29785   6.664   5.934   2.771
 9629SOL    HW129786   6.651   6.031   2.790
 9629SOL    HW229787   6.751   5.903   2.811
 9630SOL     OW29788   6.134   6.503   5.757
 9630SOL    HW129789   6.088   6.445   5.689
 9630SOL    HW229790   6.155   6.592   5.716
 9631SOL     OW29791   4.453   1.116   1.105
 9631SOL    HW129792   4.390   1.112   1.028
 9631SOL    HW229793   4.487   1.209   1.115
 9632SOL     OW29794   2.458   5.460   1.780
 9632SOL    HW129795   2.518   5.433   1.704
 9632SOL    HW229796   2.371   5.492   1.743
 9633SOL     OW29797   3.786   3.293   2.175
 9633SOL    HW129798   3.766   3.237   2.096
 9633SOL    HW229799   3.855   3.248   2.232
 9634SOL     OW29800   4.949   4.807   2.438
 9634SOL    HW129801   4.944   4.810   2.338
 9634SOL    HW229802   4.860   4.831   2.477
 9635SOL     OW29803   0.618   3.496   4.385
 9635SOL    HW129804   0.576   3.487   4.295
 9635SOL    HW229805   0.571   3.569   4.436
 9636SOL     OW29806   4.299   1.682   5.748
 9636SOL    HW129807   4.294   1.777   5.777
 9636SOL    HW229808   4.370   1.671   5.679
 9637SOL     OW29809   2.322   3.126   1.408
 9637SOL    HW129810   2.392   3.081   1.353
 9637SOL    HW229811   2.235   3.078   1.397
 9638SOL     OW29812   0.165   4.318   6.234
 9638SOL    HW129813   0.172   4.358   6.142
 9638SOL    HW229814   0.089   4.360   6.282
 9639SOL     OW29815   4.301   2.391   1.948
 9639SOL    HW129816   4.225   2.399   1.884
 9639SOL    HW229817   4.311   2.296   1.977
 9640SOL     OW29818   4.287   1.194   2.492
 9640SOL    HW129819   4.274   1.293   2.492
 9640SOL    HW229820   4.311   1.164   2.585
 9641SOL     OW29821   5.678   4.611   2.554
 9641SOL    HW129822   5.615   4.606   2.632
 9641SOL    HW229823   5.768   4.641   2.586
 9642SOL     OW29824   1.572   0.024   4.020
 9642SOL    HW129825   1.600   0.114   4.055
 9642SOL    HW229826   1.477   0.007   4.047
 9643SOL     OW29827   4.854   3.959   4.138
 9643SOL    HW129828   4.837   3.999   4.048
 9643SOL    HW229829   4.939   3.995   4.175
 9644SOL     OW29830   2.176   6.465   5.098
 9644SOL    HW129831   2.266   6.506   5.104
 9644SOL    HW229832   2.109   6.534   5.069
 9645SOL     OW29833   0.876   5.012   5.373
 9645SOL    HW129834   0.821   5.000   5.456
 9645SOL    HW229835   0.891   4.923   5.331
 9646SOL     OW29836   3.073   6.907   4.640
 9646SOL    HW129837   3.027   6.986   4.680
 9646SOL    HW229838   3.035   6.888   4.549
 9647SOL     OW29839   6.222   6.318   2.847
 9647SOL    HW129840   6.257   6.326   2.941
 9647SOL    HW229841   6.222   6.222   2.820
 9648SOL     OW29842   5.248   2.529   1.607
 9648SOL    HW129843   5.253   2.549   1.509
 9648SOL    HW229844   5.152   2.526   1.635
 9649SOL     OW29845   2.221   3.548   6.628
 9649SOL    HW129846   2.271   3.516   6.709
 9649SOL    HW229847   2.225   3.648   6.624
 9650SOL     OW29848   6.341   4.821   3.930
 9650SOL    HW129849   6.356   4.873   3.846
 9650SOL    HW229850   6.312   4.728   3.907
 9651SOL     OW29851   2.965   1.318   0.062
 9651SOL    HW129852   2.953   1.245   7.023
 9651SOL    HW229853   2.877   1.359   0.083
 9652SOL     OW29854   0.864   4.092   1.232
 9652SOL    HW129855   0.788   4.062   1.175
 9652SOL    HW229856   0.938   4.125   1.174
 9653SOL     OW29857   4.624   4.204   5.684
 9653SOL    HW129858   4.702   4.142   5.684
 9653SOL    HW229859   4.602   4.230   5.778
 9654SOL     OW29860   3.773   3.132   3.148
 9654SOL    HW129861   3.791   3.189   3.069
 9654SOL    HW229862   3.773   3.188   3.231
 9655SOL     OW29863   6.605   1.032   1.034
 9655SOL    HW129864   6.583   1.088   1.113
 9655SOL    HW229865   6.692   0.985   1.049
 9656SOL     OW29866   5.246   3.151   0.733
 9656SOL    HW129867   5.219   3.112   0.645
 9656SOL    HW229868   5.187   3.228   0.756
 9657SOL     OW29869   5.035   3.902   3.893
 9657SOL    HW129870   5.098   3.931   3.821
 9657SOL    HW229871   4.951   3.955   3.887
 9658SOL     OW29872   4.957   1.910   2.458
 9658SOL    HW129873   4.934   1.970   2.534
 9658SOL    HW229874   4.885   1.841   2.447
 9659SOL     OW29875   2.960   1.787   0.366
 9659SOL    HW129876   3.054   1.822   0.363
 9659SOL    HW229877   2.961   1.688   0.370
 9660SOL     OW29878   0.669   6.207   0.709
 9660SOL    HW129879   0.623   6.228   0.623
 9660SOL    HW229880   0.606   6.160   0.770
 9661SOL     OW29881   4.392   5.692   1.154
 9661SOL    HW129882   4.331   5.634   1.101
 9661SOL    HW229883   4.404   5.780   1.107
 9662SOL     OW29884   5.801   4.306   6.834
 9662SOL    HW129885   5.739   4.374   6.873
 9662SOL    HW229886   5.840   4.250   6.907
 9663SOL     OW29887   0.786   4.774   2.957
 9663SOL    HW129888   0.797   4.873   2.963
 9663SOL    HW229889   0.710   4.745   3.015
 9664SOL     OW29890   5.211   3.922   3.665
 9664SOL    HW129891   5.275   3.873   3.606
 9664SOL    HW229892   5.222   4.021   3.651
 9665SOL     OW29893   6.396   6.511   5.432
 9665SOL    HW129894   6.424   6.596   5.477
 9665SOL    HW229895   6.362   6.447   5.501
 9666SOL     OW29896   6.238   4.341   1.721
 9666SOL    HW129897   6.330   4.323   1.755
 9666SOL    HW229898   6.215   4.437   1.736
 9667SOL     OW29899   4.534   4.751   1.132
 9667SOL    HW129900   4.579   4.747   1.043
 9667SOL    HW229901   4.458   4.817   1.129
 9668SOL     OW29902   1.213   0.231   5.817
 9668SOL    HW129903   1.115   0.227   5.836
 9668SOL    HW229904   1.263   0.245   5.902
 9669SOL     OW29905   2.707   6.967   0.629
 9669SOL    HW129906   2.753   6.991   0.715
 9669SOL    HW229907   2.608   6.972   0.642
 9670SOL     OW29908   0.503   0.040   5.285
 9670SOL    HW129909   0.415   7.023   5.270
 9670SOL    HW229910   0.554   0.042   5.199
 9671SOL     OW29911   0.595   4.534   0.547
 9671SOL    HW129912   0.563   4.607   0.486
 9671SOL    HW229913   0.673   4.488   0.505
 9672SOL     OW29914   1.391   4.912   2.741
 9672SOL    HW129915   1.380   4.813   2.732
 9672SOL    HW229916   1.474   4.932   2.793
 9673SOL     OW29917   3.209   4.329   1.653
 9673SOL    HW129918   3.251   4.287   1.734
 9673SOL    HW229919   3.110   4.324   1.661
 9674SOL     OW29920   4.146   6.796   2.870
 9674SOL    HW129921   4.062   6.744   2.886
 9674SOL    HW229922   4.179   6.778   2.778
 9675SOL     OW29923   5.125   3.880   0.575
 9675SOL    HW129924   5.033   3.870   0.615
 9675SOL    HW229925   5.190   3.907   0.646
 9676SOL     OW29926   1.564   3.352   6.567
 9676SOL    HW129927   1.600   3.422   6.628
 9676SOL    HW229928   1.530   3.275   6.621
 9677SOL     OW29929   6.250   4.944   6.478
 9677SOL    HW129930   6.310   4.985   6.547
 9677SOL    HW229931   6.304   4.881   6.421
 9678SOL     OW29932   3.234   3.780   5.109
 9678SOL    HW129933   3.273   3.871   5.095
 9678SOL    HW229934   3.162   3.764   5.041
 9679SOL     OW29935   2.575   2.105   4.791
 9679SOL    HW129936   2.481   2.100   4.758
 9679SOL    HW229937   2.622   2.019   4.771
 9680SOL     OW29938   4.606   6.318   4.644
 9680SOL    HW129939   4.524   6.265   4.668
 9680SOL    HW229940   4.687   6.273   4.680
 9681SOL     OW29941   3.036   1.184   1.952
 9681SOL    HW129942   3.002   1.101   1.996
 9681SOL    HW229943   2.983   1.263   1.985
 9682SOL     OW29944   5.210   4.971   3.745
 9682SOL    HW129945   5.161   5.050   3.707
 9682SOL    HW229946   5.225   4.903   3.674
 9683SOL     OW29947   1.952   6.379   0.310
 9683SOL    HW129948   2.049   6.392   0.331
 9683SOL    HW229949   1.912   6.315   0.375
 9684SOL     OW29950   1.110   3.113   5.045
 9684SOL    HW129951   1.083   3.208   5.030
 9684SOL    HW229952   1.170   3.083   4.970
 9685SOL     OW29953   4.683   3.656   0.638
 9685SOL    HW129954   4.635   3.656   0.725
 9685SOL    HW229955   4.622   3.625   0.565
 9686SOL     OW29956   0.439   2.324   6.358
 9686SOL    HW129957   0.476   2.416   6.368
 9686SOL    HW229958   0.508   2.264   6.317
 9687SOL     OW29959   6.314   6.868   1.892
 9687SOL    HW129960   6.405   6.904   1.874
 9687SOL    HW229961   6.306   6.846   1.989
 9688SOL     OW29962   1.148   4.089   1.155
 9688SOL    HW129963   1.151   3.994   1.122
 9688SOL    HW229964   1.227   4.139   1.121
 9689SOL     OW29965   0.735   5.237   5.983
 9689SOL    HW129966   0.745   5.261   5.887
 9689SOL    HW229967   0.720   5.139   5.992
 9690SOL     OW29968   5.025   5.177   5.781
 9690SOL    HW129969   4.925   5.182   5.787
 9690SOL    HW229970   5.064   5.176   5.873
 9691SOL     OW29971   3.231   3.958   2.874
 9691SOL    HW129972   3.137   3.951   2.839
 9691SOL    HW229973   3.231   4.011   2.959
 9692SOL     OW29974   5.115   5.239   0.237
 9692SOL    HW129975   5.115   5.146   0.200
 9692SOL    HW229976   5.187   5.249   0.305
 9693SOL     OW29977   5.866   4.308   4.389
 9693SOL    HW129978   5.943   4.371   4.372
 9693SOL    HW229979   5.824   4.329   4.477
 9694SOL     OW29980   3.265   0.536   1.211
 9694SOL    HW129981   3.361   0.563   1.220
 9694SOL    HW229982   3.226   0.521   1.301
 9695SOL     OW29983   0.096   4.001   2.648
 9695SOL    HW129984   0.146   3.918   2.623
 9695SOL    HW229985   0.057   4.043   2.566
 9696SOL     OW29986   5.940   1.559   2.561
 9696SOL    HW129987   5.853   1.585   2.603
 9696SOL    HW229988   5.947   1.603   2.471
 9697SOL     OW29989   0.211   6.299   0.313
 9697SOL    HW129990   0.126   6.304   0.261
 9697SOL    HW229991   0.250   6.208   0.303
 9698SOL     OW29992   5.580   3.030   6.230
 9698SOL    HW129993   5.597   3.111   6.173
 9698SOL    HW229994   5.597   2.948   6.177
 9699SOL     OW29995   0.617   5.796   0.038
 9699SOL    HW129996   0.602   5.814   0.135
 9699SOL    HW229997   0.572   5.709   0.013
 9700SOL     OW29998   6.784   6.407   4.119
 9700SOL    HW129999   6.773   6.499   4.079
 9700SOL    HW230000   6.722   6.344   4.072
 9701SOL     OW30001   4.895   3.085   6.673
 9701SOL    HW130002   4.874   3.059   6.767
 9701SOL    HW230003   4.837   3.161   6.646
 9702SOL     OW30004   4.029   2.741   0.638
 9702SOL    HW130005   4.078   2.794   0.707
 9702SOL    HW230006   3.931   2.743   0.658
 9703SOL     OW30007   5.947   3.846   4.243
 9703SOL    HW130008   5.969   3.872   4.338
 9703SOL    HW230009   5.974   3.920   4.182
 9704SOL     OW30010   3.162   4.937   2.825
 9704SOL    HW130011   3.214   5.022   2.828
 9704SOL    HW230012   3.112   4.925   2.910
 9705SOL     OW30013   5.938   4.146   5.854
 9705SOL    HW130014   5.967   4.242   5.848
 9705SOL    HW230015   5.997   4.098   5.919
 9706SOL     OW30016   2.077   1.530   0.952
 9706SOL    HW130017   2.069   1.460   1.023
 9706SOL    HW230018   2.174   1.541   0.928
 9707SOL     OW30019   5.664   5.071   2.118
 9707SOL    HW130020   5.634   5.018   2.039
 9707SOL    HW230021   5.630   5.165   2.111
 9708SOL     OW30022   1.353   1.629   1.889
 9708SOL    HW130023   1.371   1.633   1.988
 9708SOL    HW230024   1.300   1.547   1.868
 9709SOL     OW30025   5.378   4.223   1.764
 9709SOL    HW130026   5.280   4.214   1.782
 9709SOL    HW230027   5.395   4.305   1.709
 9710SOL     OW30028   6.195   0.367   6.936
 9710SOL    HW130029   6.271   0.394   6.876
 9710SOL    HW230030   6.202   0.269   6.955
 9711SOL     OW30031   4.019   6.308   6.018
 9711SOL    HW130032   3.971   6.306   6.106
 9711SOL    HW230033   4.047   6.216   5.993
 9712SOL     OW30034   6.442   3.353   0.397
 9712SOL    HW130035   6.404   3.273   0.350
 9712SOL    HW230036   6.436   3.341   0.496
 9713SOL     OW30037   2.381   6.649   2.976
 9713SOL    HW130038   2.377   6.594   3.059
 9713SOL    HW230039   2.470   6.636   2.933
 9714SOL     OW30040   3.989   5.950   5.291
 9714SOL    HW130041   3.915   5.900   5.336
 9714SOL    HW230042   4.074   5.899   5.300
 9715SOL     OW30043   6.308   4.702   0.291
 9715SOL    HW130044   6.286   4.703   0.194
 9715SOL    HW230045   6.398   4.744   0.306
 9716SOL     OW30046   4.253   3.792   0.029
 9716SOL    HW130047   4.194   3.758   0.102
 9716SOL    HW230048   4.281   3.885   0.049
 9717SOL     OW30049   4.572   6.329   6.707
 9717SOL    HW130050   4.657   6.308   6.661
 9717SOL    HW230051   4.504   6.358   6.640
 9718SOL     OW30052   4.520   2.503   0.362
 9718SOL    HW130053   4.470   2.519   0.447
 9718SOL    HW230054   4.477   2.556   0.288
 9719SOL     OW30055   5.291   0.115   5.570
 9719SOL    HW130056   5.192   0.130   5.569
 9719SOL    HW230057   5.320   0.076   5.483
 9720SOL     OW30058   1.431   3.645   2.892
 9720SOL    HW130059   1.460   3.550   2.883
 9720SOL    HW230060   1.331   3.650   2.893
 9721SOL     OW30061   0.289   1.695   6.977
 9721SOL    HW130062   0.279   1.625   6.906
 9721SOL    HW230063   0.259   1.783   6.941
 9722SOL     OW30064   3.661   2.054   5.054
 9722SOL    HW130065   3.662   1.960   5.020
 9722SOL    HW230066   3.568   2.090   5.052
 9723SOL     OW30067   5.860   5.019   4.387
 9723SOL    HW130068   5.946   4.969   4.387
 9723SOL    HW230069   5.871   5.105   4.336
 9724SOL     OW30070   2.221   4.954   6.571
 9724SOL    HW130071   2.283   4.956   6.492
 9724SOL    HW230072   2.127   4.946   6.539
 9725SOL     OW30073   4.212   6.180   5.329
 9725SOL    HW130074   4.153   6.253   5.296
 9725SOL    HW230075   4.196   6.097   5.274
 9726SOL     OW30076   5.146   1.194   4.241
 9726SOL    HW130077   5.161   1.125   4.169
 9726SOL    HW230078   5.229   1.248   4.253
 9727SOL     OW30079   0.382   2.489   0.262
 9727SOL    HW130080   0.358   2.507   0.167
 9727SOL    HW230081   0.417   2.395   0.270
 9728SOL     OW30082   6.803   1.756   6.024
 9728SOL    HW130083   6.832   1.737   5.930
 9728SOL    HW230084   6.875   1.808   6.071
 9729SOL     OW30085   1.559   3.363   4.158
 9729SOL    HW130086   1.638   3.333   4.211
 9729SOL    HW230087   1.566   3.461   4.138
 9730SOL     OW30088   0.994   4.695   3.416
 9730SOL    HW130089   1.092   4.710   3.404
 9730SOL    HW230090   0.970   4.698   3.513
 9731SOL     OW30091   5.018   5.035   1.807
 9731SOL    HW130092   4.981   4.964   1.747
 9731SOL    HW230093   5.072   4.992   1.880
 9732SOL     OW30094   7.014   2.844   1.840
 9732SOL    HW130095   0.035   2.896   1.770
 9732SOL    HW230096   0.052   2.793   1.896
 9733SOL     OW30097   5.738   5.377   1.293
 9733SOL    HW130098   5.685   5.431   1.228
 9733SOL    HW230099   5.835   5.384   1.271
 9734SOL     OW30100   6.409   6.729   0.610
 9734SOL    HW130101   6.412   6.821   0.572
 9734SOL    HW230102   6.463   6.667   0.553
 9735SOL     OW30103   1.367   2.663   3.294
 9735SOL    HW130104   1.345   2.737   3.230
 9735SOL    HW230105   1.337   2.689   3.386
 9736SOL     OW30106   4.695   1.957   5.962
 9736SOL    HW130107   4.602   1.975   5.995
 9736SOL    HW230108   4.757   2.025   6.001
 9737SOL     OW30109   5.805   1.929   3.171
 9737SOL    HW130110   5.817   2.024   3.199
 9737SOL    HW230111   5.891   1.893   3.134
 9738SOL     OW30112   1.920   6.627   0.460
 9738SOL    HW130113   1.890   6.605   0.367
 9738SOL    HW230114   1.956   6.544   0.504
 9739SOL     OW30115   4.810   6.194   6.932
 9739SOL    HW130116   4.820   6.133   6.853
 9739SOL    HW230117   4.854   6.282   6.911
 9740SOL     OW30118   5.763   0.886   2.726
 9740SOL    HW130119   5.682   0.918   2.677
 9740SOL    HW230120   5.762   0.786   2.731
 9741SOL     OW30121   2.324   0.795   3.756
 9741SOL    HW130122   2.266   0.725   3.715
 9741SOL    HW230123   2.296   0.809   3.851
 9742SOL     OW30124   4.553   1.154   0.356
 9742SOL    HW130125   4.595   1.159   0.447
 9742SOL    HW230126   4.540   1.246   0.320
 9743SOL     OW30127   0.272   3.921   3.494
 9743SOL    HW130128   0.259   3.913   3.396
 9743SOL    HW230129   0.184   3.923   3.540
 9744SOL     OW30130   2.456   6.897   3.024
 9744SOL    HW130131   2.385   6.827   3.037
 9744SOL    HW230132   2.518   6.897   3.102
 9745SOL     OW30133   5.403   2.683   6.087
 9745SOL    HW130134   5.358   2.772   6.094
 9745SOL    HW230135   5.457   2.666   6.169
 9746SOL     OW30136   5.556   6.373   6.384
 9746SOL    HW130137   5.549   6.471   6.363
 9746SOL    HW230138   5.467   6.339   6.416
 9747SOL     OW30139   2.678   2.223   1.612
 9747SOL    HW130140   2.580   2.203   1.607
 9747SOL    HW230141   2.720   2.206   1.523
 9748SOL     OW30142   0.239   6.714   2.653
 9748SOL    HW130143   0.207   6.655   2.578
 9748SOL    HW230144   0.161   6.743   2.709
 9749SOL     OW30145   0.771   1.082   2.560
 9749SOL    HW130146   0.834   1.122   2.492
 9749SOL    HW230147   0.678   1.082   2.524
 9750SOL     OW30148   6.555   5.236   3.946
 9750SOL    HW130149   6.561   5.137   3.935
 9750SOL    HW230150   6.621   5.266   4.015
 9751SOL     OW30151   1.871   0.016   0.633
 9751SOL    HW130152   1.897   0.071   0.554
 9751SOL    HW230153   1.785   0.050   0.671
 9752SOL     OW30154   3.664   2.127   6.236
 9752SOL    HW130155   3.658   2.028   6.223
 9752SOL    HW230156   3.666   2.172   6.146
 9753SOL     OW30157   1.124   5.641   6.072
 9753SOL    HW130158   1.161   5.720   6.022
 9753SOL    HW230159   1.028   5.628   6.046
 9754SOL     OW30160   3.783   6.837   0.524
 9754SOL    HW130161   3.801   6.818   0.621
 9754SOL    HW230162   3.726   6.918   0.516
 9755SOL     OW30163   3.494   3.988   5.459
 9755SOL    HW130164   3.419   3.938   5.503
 9755SOL    HW230165   3.527   4.058   5.522
 9756SOL     OW30166   6.016   1.898   6.304
 9756SOL    HW130167   6.093   1.864   6.251
 9756SOL    HW230168   5.993   1.833   6.377
 9757SOL     OW30169   5.576   4.629   4.608
 9757SOL    HW130170   5.489   4.641   4.657
 9757SOL    HW230171   5.606   4.534   4.617
 9758SOL     OW30172   1.669   1.268   6.895
 9758SOL    HW130173   1.625   1.237   6.980
 9758SOL    HW230174   1.626   1.353   6.865
 9759SOL     OW30175   1.054   2.102   0.343
 9759SOL    HW130176   1.087   2.146   0.426
 9759SOL    HW230177   1.132   2.078   0.285
 9760SOL     OW30178   5.137   2.951   6.978
 9760SOL    HW130179   5.088   2.896   6.910
 9760SOL    HW230180   5.235   2.946   6.960
 9761SOL     OW30181   1.317   2.153   2.407
 9761SOL    HW130182   1.417   2.144   2.405
 9761SOL    HW230183   1.284   2.138   2.501
 9762SOL     OW30184   3.278   1.838   4.855
 9762SOL    HW130185   3.284   1.844   4.756
 9762SOL    HW230186   3.203   1.896   4.887
 9763SOL     OW30187   5.819   1.147   3.157
 9763SOL    HW130188   5.839   1.074   3.091
 9763SOL    HW230189   5.768   1.220   3.111
 9764SOL     OW30190   6.479   2.006   2.645
 9764SOL    HW130191   6.484   1.979   2.549
 9764SOL    HW230192   6.423   1.939   2.695
 9765SOL     OW30193   6.841   0.724   2.967
 9765SOL    HW130194   6.895   0.804   2.995
 9765SOL    HW230195   6.769   0.709   3.034
 9766SOL     OW30196   2.399   0.171   2.410
 9766SOL    HW130197   2.370   0.208   2.322
 9766SOL    HW230198   2.498   0.181   2.420
 9767SOL     OW30199   2.170   2.616   4.877
 9767SOL    HW130200   2.156   2.705   4.835
 9767SOL    HW230201   2.256   2.616   4.928
 9768SOL     OW30202   4.822   1.900   1.099
 9768SOL    HW130203   4.839   1.890   1.001
 9768SOL    HW230204   4.827   1.997   1.124
 9769SOL     OW30205   3.483   0.797   4.913
 9769SOL    HW130206   3.464   0.890   4.882
 9769SOL    HW230207   3.494   0.736   4.834
 9770SOL     OW30208   4.138   1.682   5.134
 9770SOL    HW130209   4.180   1.677   5.224
 9770SOL    HW230210   4.197   1.735   5.073
 9771SOL     OW30211   2.586   6.195   1.262
 9771SOL    HW130212   2.637   6.209   1.177
 9771SOL    HW230213   2.534   6.278   1.284
 9772SOL     OW30214   2.224   6.208   1.408
 9772SOL    HW130215   2.255   6.241   1.497
 9772SOL    HW230216   2.231   6.281   1.341
 9773SOL     OW30217   5.483   5.205   3.384
 9773SOL    HW130218   5.464   5.112   3.416
 9773SOL    HW230219   5.400   5.260   3.389
 9774SOL     OW30220   0.734   4.351   3.389
 9774SOL    HW130221   0.692   4.423   3.334
 9774SOL    HW230222   0.833   4.366   3.394
 9775SOL     OW30223   2.694   0.365   3.258
 9775SOL    HW130224   2.720   0.284   3.311
 9775SOL    HW230225   2.625   0.418   3.308
 9776SOL     OW30226   1.203   4.865   5.984
 9776SOL    HW130227   1.246   4.873   6.074
 9776SOL    HW230228   1.167   4.954   5.956
 9777SOL     OW30229   5.451   5.859   0.299
 9777SOL    HW130230   5.380   5.804   0.344
 9777SOL    HW230231   5.488   5.925   0.364
 9778SOL     OW30232   0.149   1.980   4.703
 9778SOL    HW130233   0.087   2.023   4.637
 9778SOL    HW230234   0.183   2.049   4.767
 9779SOL     OW30235   0.026   2.313   3.539
 9779SOL    HW130236   6.961   2.280   3.545
 9779SOL    HW230237   0.077   2.259   3.472
 9780SOL     OW30238   2.120   1.599   0.621
 9780SOL    HW130239   2.113   1.564   0.714
 9780SOL    HW230240   2.205   1.567   0.580
 9781SOL     OW30241   2.152   3.066   4.618
 9781SOL    HW130242   2.173   2.993   4.683
 9781SOL    HW230243   2.191   3.152   4.650
 9782SOL     OW30244   0.372   1.704   0.215
 9782SOL    HW130245   0.454   1.648   0.207
 9782SOL    HW230246   0.328   1.712   0.126
 9783SOL     OW30247   4.421   2.091   3.532
 9783SOL    HW130248   4.516   2.107   3.560
 9783SOL    HW230249   4.368   2.175   3.544
 9784SOL     OW30250   3.840   0.766   6.052
 9784SOL    HW130251   3.849   0.666   6.046
 9784SOL    HW230252   3.855   0.806   5.961
 9785SOL     OW30253   5.996   2.826   5.449
 9785SOL    HW130254   6.000   2.918   5.410
 9785SOL    HW230255   5.939   2.827   5.531
 9786SOL     OW30256   2.109   3.907   0.541
 9786SOL    HW130257   2.203   3.937   0.559
 9786SOL    HW230258   2.085   3.928   0.447
 9787SOL     OW30259   3.147   3.177   3.904
 9787SOL    HW130260   3.132   3.152   3.808
 9787SOL    HW230261   3.072   3.235   3.934
 9788SOL     OW30262   0.568   6.825   1.960
 9788SOL    HW130263   0.472   6.850   1.964
 9788SOL    HW230264   0.588   6.785   1.870
 9789SOL     OW30265   2.546   6.588   6.736
 9789SOL    HW130266   2.604   6.552   6.809
 9789SOL    HW230267   2.569   6.685   6.720
 9790SOL     OW30268   6.181   4.831   6.043
 9790SOL    HW130269   6.139   4.746   6.074
 9790SOL    HW230270   6.175   4.899   6.116
 9791SOL     OW30271   0.778   7.008   0.268
 9791SOL    HW130272   0.686   0.015   0.284
 9791SOL    HW230273   0.824   0.037   0.199
 9792SOL     OW30274   3.450   5.070   0.544
 9792SOL    HW130275   3.383   5.042   0.613
 9792SOL    HW230276   3.501   5.149   0.578
 9793SOL     OW30277   4.349   0.179   2.614
 9793SOL    HW130278   4.292   0.101   2.641
 9793SOL    HW230279   4.445   0.160   2.638
 9794SOL     OW30280   5.810   4.297   5.408
 9794SOL    HW130281   5.834   4.335   5.497
 9794SOL    HW230282   5.764   4.367   5.353
 9795SOL     OW30283   1.105   2.859   4.461
 9795SOL    HW130284   1.071   2.845   4.554
 9795SOL    HW230285   1.095   2.774   4.408
 9796SOL     OW30286   3.853   3.720   3.747
 9796SOL    HW130287   3.764   3.754   3.780
 9796SOL    HW230288   3.923   3.737   3.817
 9797SOL     OW30289   2.192   5.541   6.905
 9797SOL    HW130290   2.148   5.452   6.896
 9797SOL    HW230291   2.271   5.533   6.967
 9798SOL     OW30292   2.129   1.229   1.546
 9798SOL    HW130293   2.070   1.295   1.500
 9798SOL    HW230294   2.097   1.215   1.640
 9799SOL     OW30295   3.257   3.956   6.321
 9799SOL    HW130296   3.257   3.950   6.421
 9799SOL    HW230297   3.239   3.865   6.283
 9800SOL     OW30298   5.599   4.592   4.180
 9800SOL    HW130299   5.635   4.611   4.271
 9800SOL    HW230300   5.607   4.674   4.123
 9801SOL     OW30301   5.276   4.965   0.237
 9801SOL    HW130302   5.327   5.034   0.289
 9801SOL    HW230303   5.272   4.880   0.290
 9802SOL     OW30304   4.970   4.817   0.658
 9802SOL    HW130305   4.986   4.718   0.653
 9802SOL    HW230306   4.888   4.835   0.712
 9803SOL     OW30307   2.450   3.443   6.192
 9803SOL    HW130308   2.424   3.518   6.130
 9803SOL    HW230309   2.370   3.416   6.245
 9804SOL     OW30310   0.134   6.082   3.300
 9804SOL    HW130311   0.043   6.116   3.324
 9804SOL    HW230312   0.133   5.982   3.301
 9805SOL     OW30313   0.251   6.614   3.025
 9805SOL    HW130314   0.306   6.609   2.942
 9805SOL    HW230315   0.279   6.542   3.088
 9806SOL     OW30316   1.896   1.451   6.755
 9806SOL    HW130317   1.990   1.485   6.753
 9806SOL    HW230318   1.895   1.359   6.795
 9807SOL     OW30319   3.293   3.363   2.173
 9807SOL    HW130320   3.329   3.324   2.089
 9807SOL    HW230321   3.197   3.338   2.183
 9808SOL     OW30322   3.519   5.775   4.031
 9808SOL    HW130323   3.568   5.704   3.981
 9808SOL    HW230324   3.538   5.864   3.990
 9809SOL     OW30325   0.509   3.236   0.410
 9809SOL    HW130326   0.493   3.165   0.341
 9809SOL    HW230327   0.431   3.298   0.413
 9810SOL     OW30328   2.868   2.197   4.792
 9810SOL    HW130329   2.778   2.159   4.817
 9810SOL    HW230330   2.917   2.223   4.876
 9811SOL     OW30331   5.765   4.614   3.515
 9811SOL    HW130332   5.814   4.659   3.589
 9811SOL    HW230333   5.669   4.603   3.541
 9812SOL     OW30334   2.535   1.093   4.555
 9812SOL    HW130335   2.470   1.020   4.534
 9812SOL    HW230336   2.595   1.107   4.476
 9813SOL     OW30337   5.154   1.905   1.056
 9813SOL    HW130338   5.111   1.824   1.095
 9813SOL    HW230339   5.175   1.971   1.128
 9814SOL     OW30340   5.966   1.378   0.316
 9814SOL    HW130341   5.956   1.406   0.411
 9814SOL    HW230342   5.880   1.395   0.267
 9815SOL     OW30343   4.653   2.488   4.477
 9815SOL    HW130344   4.729   2.522   4.422
 9815SOL    HW230345   4.681   2.480   4.572
 9816SOL     OW30346   0.914   0.773   6.268
 9816SOL    HW130347   0.951   0.739   6.181
 9816SOL    HW230348   0.984   0.768   6.338
 9817SOL     OW30349   1.223   6.910   3.473
 9817SOL    HW130350   1.181   6.885   3.560
 9817SOL    HW230351   1.309   6.859   3.463
 9818SOL     OW30352   6.400   2.008   4.821
 9818SOL    HW130353   6.441   2.040   4.735
 9818SOL    HW230354   6.453   1.932   4.857
 9819SOL     OW30355   4.869   3.089   3.530
 9819SOL    HW130356   4.889   3.170   3.585
 9819SOL    HW230357   4.942   3.021   3.543
 9820SOL     OW30358   3.633   2.857   6.463
 9820SOL    HW130359   3.657   2.785   6.528
 9820SOL    HW230360   3.606   2.940   6.513
 9821SOL     OW30361   5.744   0.882   6.976
 9821SOL    HW130362   5.675   0.844   6.914
 9821SOL    HW230363   5.723   0.853   0.042
 9822SOL     OW30364   1.461   6.807   3.389
 9822SOL    HW130365   1.539   6.745   3.400
 9822SOL    HW230366   1.442   6.820   3.292
 9823SOL     OW30367   3.729   0.073   1.130
 9823SOL    HW130368   3.745   0.018   1.049
 9823SOL    HW230369   3.755   0.022   1.212
 9824SOL     OW30370   1.655   4.390   5.709
 9824SOL    HW130371   1.655   4.290   5.717
 9824SOL    HW230372   1.734   4.427   5.758
 9825SOL     OW30373   3.127   5.348   5.479
 9825SOL    HW130374   3.043   5.296   5.497
 9825SOL    HW230375   3.151   5.340   5.383
 9826SOL     OW30376   5.335   5.087   6.307
 9826SOL    HW130377   5.337   5.025   6.229
 9826SOL    HW230378   5.263   5.060   6.370
 9827SOL     OW30379   2.061   3.249   3.906
 9827SOL    HW130380   2.036   3.267   3.811
 9827SOL    HW230381   2.087   3.334   3.951
 9828SOL     OW30382   2.677   2.836   6.701
 9828SOL    HW130383   2.644   2.880   6.785
 9828SOL    HW230384   2.736   2.759   6.725
 9829SOL     OW30385   3.202   6.105   0.179
 9829SOL    HW130386   3.196   6.034   0.250
 9829SOL    HW230387   3.298   6.124   0.160
 9830SOL     OW30388   5.267   2.583   1.343
 9830SOL    HW130389   5.299   2.658   1.285
 9830SOL    HW230390   5.299   2.496   1.305
 9831SOL     OW30391   1.770   6.288   1.141
 9831SOL    HW130392   1.732   6.362   1.085
 9831SOL    HW230393   1.766   6.202   1.090
 9832SOL     OW30394   5.023   5.078   2.565
 9832SOL    HW130395   4.976   5.131   2.495
 9832SOL    HW230396   5.051   4.990   2.527
 9833SOL     OW30397   3.682   2.935   4.849
 9833SOL    HW130398   3.763   2.938   4.907
 9833SOL    HW230399   3.600   2.929   4.906
 9834SOL     OW30400   3.558   4.579   5.560
 9834SOL    HW130401   3.639   4.558   5.505
 9834SOL    HW230402   3.490   4.626   5.503
 9835SOL     OW30403   3.366   2.742   5.764
 9835SOL    HW130404   3.294   2.811   5.778
 9835SOL    HW230405   3.334   2.654   5.798
 9836SOL     OW30406   6.178   4.750   3.565
 9836SOL    HW130407   6.172   4.789   3.472
 9836SOL    HW230408   6.087   4.727   3.597
 9837SOL     OW30409   3.467   0.157   2.720
 9837SOL    HW130410   3.550   0.204   2.689
 9837SOL    HW230411   3.445   0.186   2.813
 9838SOL     OW30412   0.603   6.917   5.954
 9838SOL    HW130413   0.523   6.920   5.893
 9838SOL    HW230414   0.601   6.996   6.015
 9839SOL     OW30415   5.743   1.465   3.271
 9839SOL    HW130416   5.719   1.432   3.180
 9839SOL    HW230417   5.662   1.501   3.316
 9840SOL     OW30418   0.878   0.952   1.387
 9840SOL    HW130419   0.955   0.901   1.425
 9840SOL    HW230420   0.793   0.905   1.409
 9841SOL     OW30421   1.417   3.889   4.990
 9841SOL    HW130422   1.317   3.887   4.979
 9841SOL    HW230423   1.443   3.827   5.064
 9842SOL     OW30424   3.964   3.733   3.160
 9842SOL    HW130425   3.873   3.767   3.183
 9842SOL    HW230426   4.030   3.762   3.230
 9843SOL     OW30427   6.131   1.456   1.581
 9843SOL    HW130428   6.069   1.389   1.538
 9843SOL    HW230429   6.174   1.414   1.661
 9844SOL     OW30430   5.492   0.644   2.555
 9844SOL    HW130431   5.525   0.601   2.639
 9844SOL    HW230432   5.565   0.642   2.486
 9845SOL     OW30433   2.922   1.129   3.607
 9845SOL    HW130434   2.978   1.202   3.566
 9845SOL    HW230435   2.928   1.135   3.706
 9846SOL     OW30436   3.864   3.483   1.793
 9846SOL    HW130437   3.947   3.480   1.737
 9846SOL    HW230438   3.889   3.489   1.890
 9847SOL     OW30439   3.415   2.910   4.950
 9847SOL    HW130440   3.426   2.838   4.881
 9847SOL    HW230441   3.444   2.876   5.039
 9848SOL     OW30442   3.641   2.943   5.993
 9848SOL    HW130443   3.708   3.017   5.988
 9848SOL    HW230444   3.669   2.869   5.932
 9849SOL     OW30445   6.385   0.427   0.443
 9849SOL    HW130446   6.366   0.450   0.539
 9849SOL    HW230447   6.426   0.506   0.398
 9850SOL     OW30448   6.285   6.049   3.137
 9850SOL    HW130449   6.370   6.000   3.158
 9850SOL    HW230450   6.237   6.003   3.063
 9851SOL     OW30451   4.453   1.971   6.049
 9851SOL    HW130452   4.367   1.967   5.998
 9851SOL    HW230453   4.436   2.005   6.141
 9852SOL     OW30454   4.319   2.242   2.571
 9852SOL    HW130455   4.273   2.245   2.660
 9852SOL    HW230456   4.250   2.248   2.498
 9853SOL     OW30457   4.975   4.135   3.664
 9853SOL    HW130458   5.029   4.218   3.646
 9853SOL    HW230459   5.005   4.062   3.603
 9854SOL     OW30460   0.251   5.160   4.819
 9854SOL    HW130461   0.210   5.140   4.730
 9854SOL    HW230462   0.248   5.078   4.876
 9855SOL     OW30463   2.411   4.034   1.325
 9855SOL    HW130464   2.359   4.110   1.363
 9855SOL    HW230465   2.429   3.967   1.397
 9856SOL     OW30466   5.103   3.812   6.848
 9856SOL    HW130467   5.181   3.749   6.842
 9856SOL    HW230468   5.118   3.877   6.922
 9857SOL     OW30469   4.096   1.818   4.680
 9857SOL    HW130470   4.172   1.877   4.654
 9857SOL    HW230471   4.009   1.859   4.650
 9858SOL     OW30472   0.370   0.224   1.111
 9858SOL    HW130473   0.461   0.237   1.150
 9858SOL    HW230474   0.312   0.303   1.132
 9859SOL     OW30475   5.924   6.849   1.890
 9859SOL    HW130476   5.946   6.760   1.850
 9859SOL    HW230477   6.007   6.905   1.896
 9860SOL     OW30478   0.255   1.407   3.057
 9860SOL    HW130479   0.159   1.405   3.083
 9860SOL    HW230480   0.297   1.318   3.075
 9861SOL     OW30481   3.724   0.299   2.645
 9861SOL    HW130482   3.735   0.259   2.554
 9861SOL    HW230483   3.800   0.271   2.703
 9862SOL     OW30484   2.902   4.776   0.764
 9862SOL    HW130485   2.890   4.743   0.858
 9862SOL    HW230486   2.894   4.875   0.762
 9863SOL     OW30487   3.567   0.524   3.675
 9863SOL    HW130488   3.652   0.549   3.629
 9863SOL    HW230489   3.494   0.513   3.608
 9864SOL     OW30490   3.548   6.121   3.915
 9864SOL    HW130491   3.523   6.111   4.012
 9864SOL    HW230492   3.527   6.214   3.885
 9865SOL     OW30493   1.945   0.974   4.190
 9865SOL    HW130494   1.969   1.061   4.233
 9865SOL    HW230495   1.887   0.991   4.110
 9866SOL     OW30496   5.915   4.716   5.378
 9866SOL    HW130497   5.850   4.742   5.449
 9866SOL    HW230498   5.955   4.627   5.400
 9867SOL     OW30499   6.073   0.399   0.684
 9867SOL    HW130500   6.046   0.402   0.780
 9867SOL    HW230501   6.167   0.433   0.675
 9868SOL     OW30502   0.693   3.659   5.549
 9868SOL    HW130503   0.597   3.666   5.521
 9868SOL    HW230504   0.717   3.737   5.607
 9869SOL     OW30505   1.491   3.265   2.342
 9869SOL    HW130506   1.473   3.259   2.243
 9869SOL    HW230507   1.464   3.356   2.375
 9870SOL     OW30508   4.548   5.729   2.406
 9870SOL    HW130509   4.500   5.783   2.336
 9870SOL    HW230510   4.500   5.738   2.493
 9871SOL     OW30511   0.709   6.414   6.244
 9871SOL    HW130512   0.613   6.385   6.252
 9871SOL    HW230513   0.727   6.486   6.311
 9872SOL     OW30514   2.633   4.645   4.290
 9872SOL    HW130515   2.664   4.552   4.270
 9872SOL    HW230516   2.604   4.652   4.385
 9873SOL     OW30517   3.019   2.555   1.171
 9873SOL    HW130518   2.925   2.549   1.136
 9873SOL    HW230519   3.020   2.531   1.268
 9874SOL     OW30520   1.326   3.247   4.137
 9874SOL    HW130521   1.410   3.299   4.151
 9874SOL    HW230522   1.323   3.170   4.201
 9875SOL     OW30523   6.739   6.615   1.969
 9875SOL    HW130524   6.690   6.563   1.899
 9875SOL    HW230525   6.830   6.576   1.982
 9876SOL     OW30526   6.371   0.850   2.770
 9876SOL    HW130527   6.451   0.863   2.828
 9876SOL    HW230528   6.354   0.933   2.717
 9877SOL     OW30529   0.195   6.395   3.533
 9877SOL    HW130530   0.256   6.346   3.471
 9877SOL    HW230531   0.162   6.478   3.489
 9878SOL     OW30532   2.593   5.005   4.958
 9878SOL    HW130533   2.556   4.920   4.921
 9878SOL    HW230534   2.666   4.985   5.022
 9879SOL     OW30535   5.592   5.440   4.063
 9879SOL    HW130536   5.544   5.518   4.103
 9879SOL    HW230537   5.601   5.452   3.964
 9880SOL     OW30538   3.320   1.349   5.611
 9880SOL    HW130539   3.258   1.427   5.612
 9880SOL    HW230540   3.412   1.380   5.634
 9881SOL     OW30541   0.991   1.297   5.201
 9881SOL    HW130542   1.030   1.364   5.265
 9881SOL    HW230543   0.952   1.345   5.122
 9882SOL     OW30544   0.520   2.613   3.674
 9882SOL    HW130545   0.608   2.618   3.626
 9882SOL    HW230546   0.448   2.648   3.614
 9883SOL     OW30547   1.227   5.696   0.470
 9883SOL    HW130548   1.212   5.655   0.560
 9883SOL    HW230549   1.324   5.717   0.459
 9884SOL     OW30550   4.532   1.895   2.631
 9884SOL    HW130551   4.551   1.933   2.541
 9884SOL    HW230552   4.561   1.960   2.702
 9885SOL     OW30553   6.707   2.634   5.322
 9885SOL    HW130554   6.734   2.646   5.418
 9885SOL    HW230555   6.755   2.555   5.284
 9886SOL     OW30556   1.154   3.900   2.202
 9886SOL    HW130557   1.135   3.868   2.109
 9886SOL    HW230558   1.194   3.826   2.255
 9887SOL     OW30559   3.861   0.368   5.880
 9887SOL    HW130560   3.782   0.373   5.941
 9887SOL    HW230561   3.830   0.352   5.786
 9888SOL     OW30562   5.491   4.555   2.378
 9888SOL    HW130563   5.560   4.589   2.442
 9888SOL    HW230564   5.400   4.565   2.418
 9889SOL     OW30565   0.052   5.380   1.413
 9889SOL    HW130566   7.018   5.302   1.400
 9889SOL    HW230567   0.145   5.347   1.427
 9890SOL     OW30568   1.621   1.857   0.374
 9890SOL    HW130569   1.533   1.868   0.328
 9890SOL    HW230570   1.643   1.942   0.423
 9891SOL     OW30571   5.635   3.346   1.999
 9891SOL    HW130572   5.558   3.312   2.053
 9891SOL    HW230573   5.719   3.303   2.031
 9892SOL     OW30574   6.796   4.800   0.787
 9892SOL    HW130575   6.779   4.705   0.816
 9892SOL    HW230576   6.782   4.861   0.864
 9893SOL     OW30577   0.927   0.505   0.898
 9893SOL    HW130578   1.026   0.492   0.910
 9893SOL    HW230579   0.910   0.591   0.851
 9894SOL     OW30580   2.620   2.348   1.299
 9894SOL    HW130581   2.535   2.299   1.280
 9894SOL    HW230582   2.694   2.282   1.310
 9895SOL     OW30583   5.888   4.602   4.822
 9895SOL    HW130584   5.814   4.660   4.789
 9895SOL    HW230585   5.938   4.564   4.744
 9896SOL     OW30586   6.626   0.858   6.526
 9896SOL    HW130587   6.674   0.793   6.585
 9896SOL    HW230588   6.547   0.814   6.484
 9897SOL     OW30589   5.981   5.891   2.807
 9897SOL    HW130590   5.974   5.850   2.716
 9897SOL    HW230591   5.914   5.965   2.816
 9898SOL     OW30592   1.445   6.255   3.933
 9898SOL    HW130593   1.474   6.240   4.028
 9898SOL    HW230594   1.523   6.282   3.877
 9899SOL     OW30595   0.861   6.138   0.886
 9899SOL    HW130596   0.848   6.202   0.961
 9899SOL    HW230597   0.820   6.176   0.803
 9900SOL     OW30598   2.034   3.646   3.087
 9900SOL    HW130599   1.990   3.670   3.001
 9900SOL    HW230600   2.044   3.729   3.143
 9901SOL     OW30601   2.997   0.528   0.069
 9901SOL    HW130602   2.988   0.487   0.160
 9901SOL    HW230603   3.006   0.627   0.077
 9902SOL     OW30604   2.920   4.762   0.445
 9902SOL    HW130605   2.993   4.726   0.503
 9902SOL    HW230606   2.898   4.697   0.373
 9903SOL     OW30607   5.083   2.125   2.253
 9903SOL    HW130608   5.114   2.161   2.341
 9903SOL    HW230609   5.017   2.051   2.268
 9904SOL     OW30610   1.006   3.933   6.791
 9904SOL    HW130611   0.948   3.933   6.873
 9904SOL    HW230612   1.097   3.899   6.814
 9905SOL     OW30613   1.900   0.200   6.109
 9905SOL    HW130614   1.887   0.243   6.199
 9905SOL    HW230615   1.827   0.134   6.094
 9906SOL     OW30616   2.324   3.608   1.650
 9906SOL    HW130617   2.363   3.562   1.730
 9906SOL    HW230618   2.320   3.543   1.573
 9907SOL     OW30619   6.805   0.430   1.135
 9907SOL    HW130620   6.774   0.453   1.043
 9907SOL    HW230621   6.878   0.362   1.130
 9908SOL     OW30622   6.040   1.766   5.203
 9908SOL    HW130623   6.108   1.698   5.229
 9908SOL    HW230624   5.994   1.737   5.119
 9909SOL     OW30625   4.735   0.822   3.435
 9909SOL    HW130626   4.801   0.792   3.367
 9909SOL    HW230627   4.710   0.745   3.494
 9910SOL     OW30628   1.553   4.650   2.423
 9910SOL    HW130629   1.474   4.689   2.376
 9910SOL    HW230630   1.544   4.551   2.427
 9911SOL     OW30631   2.634   5.630   2.314
 9911SOL    HW130632   2.657   5.727   2.326
 9911SOL    HW230633   2.664   5.600   2.224
 9912SOL     OW30634   3.592   0.516   1.588
 9912SOL    HW130635   3.655   0.446   1.622
 9912SOL    HW230636   3.578   0.585   1.659
 9913SOL     OW30637   6.040   3.500   1.271
 9913SOL    HW130638   6.137   3.527   1.275
 9913SOL    HW230639   6.001   3.507   1.363
 9914SOL     OW30640   5.757   1.308   4.972
 9914SOL    HW130641   5.795   1.229   5.019
 9914SOL    HW230642   5.746   1.384   5.036
 9915SOL     OW30643   5.303   0.352   3.530
 9915SOL    HW130644   5.353   0.425   3.577
 9915SOL    HW230645   5.205   0.367   3.540
 9916SOL     OW30646   1.844   2.188   2.703
 9916SOL    HW130647   1.760   2.241   2.709
 9916SOL    HW230648   1.918   2.234   2.752
 9917SOL     OW30649   5.215   4.469   6.836
 9917SOL    HW130650   5.118   4.491   6.837
 9917SOL    HW230651   5.239   4.424   6.750
 9918SOL     OW30652   3.547   1.288   2.800
 9918SOL    HW130653   3.605   1.330   2.869
 9918SOL    HW230654   3.603   1.255   2.724
 9919SOL     OW30655   0.749   5.430   1.021
 9919SOL    HW130656   0.823   5.409   0.958
 9919SOL    HW230657   0.677   5.361   1.013
 9920SOL     OW30658   5.079   1.502   2.368
 9920SOL    HW130659   5.082   1.587   2.316
 9920SOL    HW230660   4.984   1.481   2.392
 9921SOL     OW30661   3.826   0.205   4.799
 9921SOL    HW130662   3.894   0.237   4.733
 9921SOL    HW230663   3.753   0.272   4.806
 9922SOL     OW30664   2.491   4.156   0.860
 9922SOL    HW130665   2.515   4.060   0.868
 9922SOL    HW230666   2.408   4.175   0.913
 9923SOL     OW30667   5.215   4.770   6.864
 9923SOL    HW130668   5.265   4.685   6.883
 9923SOL    HW230669   5.273   4.848   6.886
 9924SOL     OW30670   6.460   1.461   4.332
 9924SOL    HW130671   6.400   1.422   4.263
 9924SOL    HW230672   6.518   1.531   4.290
 9925SOL     OW30673   0.582   3.948   4.273
 9925SOL    HW130674   0.492   3.961   4.313
 9925SOL    HW230675   0.573   3.912   4.180
 9926SOL     OW30676   4.389   2.807   1.299
 9926SOL    HW130677   4.487   2.821   1.316
 9926SOL    HW230678   4.374   2.713   1.268
 9927SOL     OW30679   6.986   0.211   0.728
 9927SOL    HW130680   0.025   0.239   0.797
 9927SOL    HW230681   0.005   0.183   0.644
 9928SOL     OW30682   4.730   4.183   2.628
 9928SOL    HW130683   4.720   4.192   2.727
 9928SOL    HW230684   4.785   4.102   2.606
 9929SOL     OW30685   3.738   4.478   5.984
 9929SOL    HW130686   3.677   4.506   5.910
 9929SOL    HW230687   3.700   4.398   6.031
 9930SOL     OW30688   6.400   6.552   5.003
 9930SOL    HW130689   6.301   6.544   4.991
 9930SOL    HW230690   6.442   6.462   4.991
 9931SOL     OW30691   0.677   5.578   4.129
 9931SOL    HW130692   0.726   5.502   4.172
 9931SOL    HW230693   0.712   5.592   4.036
 9932SOL     OW30694   3.736   2.956   6.949
 9932SOL    HW130695   3.759   2.891   6.876
 9932SOL    HW230696   3.760   2.916   0.010
 9933SOL     OW30697   0.119   5.813   3.328
 9933SOL    HW130698   0.026   5.789   3.300
 9933SOL    HW230699   0.184   5.783   3.258
 9934SOL     OW30700   6.520   2.582   5.598
 9934SOL    HW130701   6.586   2.533   5.655
 9934SOL    HW230702   6.428   2.548   5.618
 9935SOL     OW30703   2.725   6.005   6.613
 9935SOL    HW130704   2.709   6.104   6.614
 9935SOL    HW230705   2.639   5.957   6.593
 9936SOL     OW30706   6.757   5.040   0.028
 9936SOL    HW130707   6.768   4.965   0.093
 9936SOL    HW230708   6.691   5.106   0.064
 9937SOL     OW30709   6.822   1.732   0.946
 9937SOL    HW130710   6.808   1.633   0.958
 9937SOL    HW230711   6.733   1.776   0.936
 9938SOL     OW30712   6.542   5.096   3.202
 9938SOL    HW130713   6.578   5.136   3.118
 9938SOL    HW230714   6.618   5.070   3.262
 9939SOL     OW30715   4.395   2.143   1.173
 9939SOL    HW130716   4.442   2.072   1.122
 9939SOL    HW230717   4.357   2.210   1.110
 9940SOL     OW30718   1.098   0.246   1.263
 9940SOL    HW130719   1.128   0.333   1.223
 9940SOL    HW230720   1.168   0.176   1.247
 9941SOL     OW30721   3.475   3.525   5.478
 9941SOL    HW130722   3.520   3.451   5.428
 9941SOL    HW230723   3.540   3.601   5.491
 9942SOL     OW30724   2.225   5.459   2.828
 9942SOL    HW130725   2.318   5.485   2.802
 9942SOL    HW230726   2.222   5.439   2.925
 9943SOL     OW30727   0.158   4.814   5.760
 9943SOL    HW130728   0.252   4.829   5.733
 9943SOL    HW230729   0.142   4.854   5.851
 9944SOL     OW30730   0.727   4.467   6.489
 9944SOL    HW130731   0.794   4.524   6.536
 9944SOL    HW230732   0.761   4.445   6.397
 9945SOL     OW30733   5.111   5.303   6.903
 9945SOL    HW130734   5.099   5.369   6.978
 9945SOL    HW230735   5.028   5.248   6.894
 9946SOL     OW30736   5.855   0.545   3.792
 9946SOL    HW130737   5.828   0.493   3.711
 9946SOL    HW230738   5.873   0.640   3.766
 9947SOL     OW30739   2.245   2.039   4.982
 9947SOL    HW130740   2.149   2.068   4.985
 9947SOL    HW230741   2.298   2.091   5.049
 9948SOL     OW30742   5.870   3.896   5.305
 9948SOL    HW130743   5.936   3.960   5.344
 9948SOL    HW230744   5.917   3.837   5.238
 9949SOL     OW30745   6.053   5.254   4.386
 9949SOL    HW130746   6.013   5.276   4.297
 9949SOL    HW230747   6.151   5.237   4.375
 9950SOL     OW30748   5.607   6.015   5.228
 9950SOL    HW130749   5.539   5.957   5.183
 9950SOL    HW230750   5.567   6.104   5.250
 9951SOL     OW30751   0.100   1.346   3.870
 9951SOL    HW130752   0.136   1.427   3.917
 9951SOL    HW230753   0.172   1.303   3.818
 9952SOL     OW30754   1.461   4.488   0.687
 9952SOL    HW130755   1.422   4.474   0.596
 9952SOL    HW230756   1.541   4.430   0.698
 9953SOL     OW30757   5.156   2.682   4.566
 9953SOL    HW130758   5.060   2.661   4.585
 9953SOL    HW230759   5.205   2.692   4.652
 9954SOL     OW30760   6.769   0.952   6.317
 9954SOL    HW130761   6.724   0.944   6.406
 9954SOL    HW230762   6.780   0.861   6.277
 9955SOL     OW30763   6.114   3.593   5.886
 9955SOL    HW130764   6.032   3.566   5.835
 9955SOL    HW230765   6.097   3.581   5.984
 9956SOL     OW30766   1.545   6.874   1.811
 9956SOL    HW130767   1.586   6.949   1.862
 9956SOL    HW230768   1.602   6.792   1.819
 9957SOL     OW30769   5.021   5.981   2.656
 9957SOL    HW130770   5.047   6.071   2.621
 9957SOL    HW230771   5.103   5.927   2.674
 9958SOL     OW30772   3.191   5.220   6.855
 9958SOL    HW130773   3.228   5.264   6.774
 9958SOL    HW230774   3.180   5.287   6.928
 9959SOL     OW30775   4.193   3.689   4.873
 9959SOL    HW130776   4.188   3.783   4.905
 9959SOL    HW230777   4.281   3.650   4.899
 9960SOL     OW30778   6.916   0.456   2.099
 9960SOL    HW130779   6.820   0.464   2.125
 9960SOL    HW230780   6.925   0.463   2.000
 9961SOL     OW30781   1.339   4.780   4.723
 9961SOL    HW130782   1.303   4.873   4.723
 9961SOL    HW230783   1.428   4.779   4.768
 9962SOL     OW30784   6.141   5.873   1.821
 9962SOL    HW130785   6.060   5.833   1.778
 9962SOL    HW230786   6.130   5.874   1.920
 9963SOL     OW30787   3.029   3.257   6.697
 9963SOL    HW130788   3.125   3.270   6.672
 9963SOL    HW230789   3.006   3.160   6.694
 9964SOL     OW30790   5.784   4.402   5.669
 9964SOL    HW130791   5.720   4.479   5.672
 9964SOL    HW230792   5.800   4.369   5.762
 9965SOL     OW30793   3.548   6.657   6.288
 9965SOL    HW130794   3.636   6.610   6.296
 9965SOL    HW230795   3.487   6.626   6.361
 9966SOL     OW30796   1.773   6.186   2.165
 9966SOL    HW130797   1.701   6.204   2.232
 9966SOL    HW230798   1.779   6.088   2.148
 9967SOL     OW30799   6.812   0.112   2.270
 9967SOL    HW130800   6.758   0.031   2.292
 9967SOL    HW230801   6.785   0.188   2.329
 9968SOL     OW30802   3.280   3.766   0.471
 9968SOL    HW130803   3.274   3.771   0.371
 9968SOL    HW230804   3.216   3.832   0.511
 9969SOL     OW30805   1.791   2.967   2.878
 9969SOL    HW130806   1.803   3.065   2.891
 9969SOL    HW230807   1.698   2.941   2.902
 9970SOL     OW30808   5.063   3.604   2.773
 9970SOL    HW130809   5.027   3.566   2.688
 9970SOL    HW230810   5.029   3.697   2.785
 9971SOL     OW30811   2.109   5.724   1.199
 9971SOL    HW130812   2.099   5.823   1.186
 9971SOL    HW230813   2.203   5.705   1.228
 9972SOL     OW30814   4.018   4.822   1.321
 9972SOL    HW130815   4.087   4.788   1.386
 9972SOL    HW230816   4.025   4.771   1.235
 9973SOL     OW30817   4.694   1.952   4.187
 9973SOL    HW130818   4.620   2.018   4.175
 9973SOL    HW230819   4.668   1.885   4.257
 9974SOL     OW30820   6.869   2.882   3.329
 9974SOL    HW130821   6.801   2.897   3.258
 9974SOL    HW230822   6.915   2.969   3.350
 9975SOL     OW30823   6.083   4.178   6.969
 9975SOL    HW130824   6.046   4.213   0.027
 9975SOL    HW230825   6.138   4.248   6.925
 9976SOL     OW30826   0.335   6.459   5.535
 9976SOL    HW130827   0.325   6.534   5.600
 9976SOL    HW230828   0.245   6.424   5.510
 9977SOL     OW30829   6.849   5.456   5.180
 9977SOL    HW130830   6.898   5.370   5.164
 9977SOL    HW230831   6.846   5.474   5.278
 9978SOL     OW30832   6.461   2.747   3.466
 9978SOL    HW130833   6.456   2.685   3.387
 9978SOL    HW230834   6.499   2.834   3.437
 9979SOL     OW30835   6.178   5.194   5.381
 9979SOL    HW130836   6.081   5.167   5.379
 9979SOL    HW230837   6.213   5.185   5.474
 9980SOL     OW30838   1.865   1.564   5.868
 9980SOL    HW130839   1.947   1.620   5.876
 9980SOL    HW230840   1.883   1.474   5.909
 9981SOL     OW30841   2.153   1.861   1.893
 9981SOL    HW130842   2.112   1.797   1.957
 9981SOL    HW230843   2.244   1.886   1.926
 9982SOL     OW30844   6.833   7.004   3.881
 9982SOL    HW130845   6.862   6.909   3.897
 9982SOL    HW230846   6.789   7.011   3.792
 9983SOL     OW30847   6.954   2.534   3.069
 9983SOL    HW130848   7.007   2.510   3.150
 9983SOL    HW230849   6.956   2.457   3.005
 9984SOL     OW30850   1.960   0.842   0.221
 9984SOL    HW130851   1.876   0.885   0.187
 9984SOL    HW230852   2.039   0.894   0.189
 9985SOL     OW30853   1.777   1.223   1.507
 9985SOL    HW130854   1.723   1.294   1.552
 9985SOL    HW230855   1.782   1.143   1.566
 9986SOL     OW30856   5.702   4.340   5.942
 9986SOL    HW130857   5.691   4.397   6.024
 9986SOL    HW230858   5.616   4.295   5.920
 9987SOL     OW30859   6.506   3.150   4.084
 9987SOL    HW130860   6.536   3.243   4.108
 9987SOL    HW230861   6.575   3.084   4.114
 9988SOL     OW30862   6.865   5.975   4.962
 9988SOL    HW130863   6.917   5.929   5.034
 9988SOL    HW230864   6.809   5.908   4.913
 9989SOL     OW30865   6.254   3.854   3.550
 9989SOL    HW130866   6.277   3.946   3.518
 9989SOL    HW230867   6.284   3.786   3.483
 9990SOL     OW30868   2.828   5.560   1.700
 9990SOL    HW130869   2.784   5.500   1.767
 9990SOL    HW230870   2.762   5.586   1.630
 9991SOL     OW30871   1.899   2.559   3.567
 9991SOL    HW130872   1.926   2.462   3.567
 9991SOL    HW230873   1.829   2.574   3.498
 9992SOL     OW30874   5.586   4.820   0.248
 9992SOL    HW130875   5.672   4.769   0.243
 9992SOL    HW230876   5.604   4.917   0.229
 9993SOL     OW30877   3.061   0.292   0.554
 9993SOL    HW130878   3.041   0.282   0.651
 9993SOL    HW230879   3.005   0.228   0.501
 9994SOL     OW30880   6.792   4.636   3.417
 9994SOL    HW130881   6.813   4.560   3.479
 9994SOL    HW230882   6.876   4.672   3.377
 9995SOL     OW30883   4.564   1.024   3.346
 9995SOL    HW130884   4.614   0.948   3.385
 9995SOL    HW230885   4.491   1.052   3.408
 9996SOL     OW30886   2.809   2.863   1.455
 9996SOL    HW130887   2.757   2.875   1.540
 9996SOL    HW230888   2.805   2.768   1.426
 9997SOL     OW30889   3.446   1.523   0.413
 9997SOL    HW130890   3.468   1.441   0.360
 9997SOL    HW230891   3.440   1.601   0.350
 9998SOL     OW30892   5.113   4.443   6.387
 9998SOL    HW130893   5.045   4.379   6.352
 9998SOL    HW230894   5.117   4.437   6.487
 9999SOL     OW30895   6.752   3.209   5.229
 9999SOL    HW130896   6.691   3.157   5.170
 9999SOL    HW230897   6.840   3.222   5.182
10000SOL     OW30898   0.297   4.423   6.883
10000SOL    HW130899   0.359   4.444   6.807
10000SOL    HW230900   0.203   4.419   6.849
10001SOL     OW30901   4.523   0.061   2.339
10001SOL    HW130902   4.596   0.059   2.271
10001SOL    HW230903   4.562   0.081   2.429
10002SOL     OW30904   2.137   6.707   2.847
10002SOL    HW130905   2.219   6.696   2.904
10002SOL    HW230906   2.080   6.780   2.884
10003SOL     OW30907   3.855   1.292   3.151
10003SOL    HW130908   3.777   1.276   3.212
10003SOL    HW230909   3.936   1.311   3.206
10004SOL     OW30910   6.341   2.396   4.562
10004SOL    HW130911   6.292   2.473   4.603
10004SOL    HW230912   6.276   2.325   4.536
10005SOL     OW30913   4.489   0.246   4.495
10005SOL    HW130914   4.510   0.252   4.397
10005SOL    HW230915   4.397   0.210   4.507
10006SOL     OW30916   5.113   6.098   4.035
10006SOL    HW130917   5.094   6.053   3.948
10006SOL    HW230918   5.198   6.150   4.028
10007SOL     OW30919   6.877   5.361   5.696
10007SOL    HW130920   6.960   5.399   5.736
10007SOL    HW230921   6.814   5.333   5.769
10008SOL     OW30922   4.221   1.247   4.362
10008SOL    HW130923   4.185   1.310   4.294
10008SOL    HW230924   4.265   1.170   4.315
10009SOL     OW30925   1.768   3.737   1.729
10009SOL    HW130926   1.788   3.681   1.649
10009SOL    HW230927   1.824   3.705   1.806
10010SOL     OW30928   2.243   0.781   5.696
10010SOL    HW130929   2.207   0.711   5.634
10010SOL    HW230930   2.343   0.779   5.695
10011SOL     OW30931   5.282   1.260   5.417
10011SOL    HW130932   5.228   1.256   5.501
10011SOL    HW230933   5.288   1.169   5.376
10012SOL     OW30934   5.948   1.641   3.293
10012SOL    HW130935   5.875   1.578   3.268
10012SOL    HW230936   6.031   1.620   3.240
10013SOL     OW30937   0.163   1.002   3.360
10013SOL    HW130938   0.172   0.959   3.449
10013SOL    HW230939   0.175   1.101   3.368
10014SOL     OW30940   0.026   4.054   0.881
10014SOL    HW130941   0.062   3.986   0.945
10014SOL    HW230942   0.028   4.017   0.789
10015SOL     OW30943   1.996   4.583   0.592
10015SOL    HW130944   2.037   4.572   0.683
10015SOL    HW230945   1.992   4.495   0.546
10016SOL     OW30946   1.308   0.790   6.624
10016SOL    HW130947   1.373   0.716   6.640
10016SOL    HW230948   1.353   0.878   6.638
10017SOL     OW30949   2.817   1.648   3.118
10017SOL    HW130950   2.800   1.743   3.091
10017SOL    HW230951   2.852   1.597   3.039
10018SOL     OW30952   4.357   0.414   6.284
10018SOL    HW130953   4.342   0.415   6.185
10018SOL    HW230954   4.429   0.479   6.308
10019SOL     OW30955   0.493   1.540   3.150
10019SOL    HW130956   0.482   1.590   3.236
10019SOL    HW230957   0.406   1.499   3.124
10020SOL     OW30958   1.417   2.150   0.854
10020SOL    HW130959   1.397   2.084   0.782
10020SOL    HW230960   1.412   2.106   0.943
10021SOL     OW30961   6.973   2.060   1.384
10021SOL    HW130962   0.031   2.014   1.364
10021SOL    HW230963   6.988   2.159   1.390
10022SOL     OW30964   2.707   1.067   5.942
10022SOL    HW130965   2.654   1.152   5.942
10022SOL    HW230966   2.745   1.053   5.850
10023SOL     OW30967   0.723   4.991   0.877
10023SOL    HW130968   0.707   5.086   0.904
10023SOL    HW230969   0.820   4.970   0.886
10024SOL     OW30970   2.574   6.024   2.563
10024SOL    HW130971   2.642   5.955   2.536
10024SOL    HW230972   2.568   6.094   2.493
10025SOL     OW30973   1.447   1.761   0.696
10025SOL    HW130974   1.513   1.812   0.752
10025SOL    HW230975   1.396   1.698   0.754
10026SOL     OW30976   5.365   6.537   3.715
10026SOL    HW130977   5.460   6.561   3.694
10026SOL    HW230978   5.351   6.440   3.695
10027SOL     OW30979   6.574   4.469   4.643
10027SOL    HW130980   6.476   4.452   4.644
10027SOL    HW230981   6.597   4.536   4.573
10028SOL     OW30982   1.347   0.970   2.401
10028SOL    HW130983   1.278   0.931   2.340
10028SOL    HW230984   1.311   0.972   2.495
10029SOL     OW30985   4.676   1.571   4.554
10029SOL    HW130986   4.762   1.621   4.539
10029SOL    HW230987   4.644   1.588   4.647
10030SOL     OW30988   1.931   0.513   3.764
10030SOL    HW130989   1.920   0.414   3.771
10030SOL    HW230990   1.876   0.548   3.688
10031SOL     OW30991   5.001   4.873   4.949
10031SOL    HW130992   4.954   4.938   5.008
10031SOL    HW230993   5.051   4.807   5.006
10032SOL     OW30994   2.747   1.237   5.035
10032SOL    HW130995   2.806   1.235   4.954
10032SOL    HW230996   2.661   1.191   5.014
10033SOL     OW30997   6.732   3.038   4.435
10033SOL    HW130998   6.795   3.014   4.508
10033SOL    HW230999   6.704   3.134   4.445
10034SOL     OW31000   3.759   0.509   4.021
10034SOL    HW131001   3.848   0.543   3.993
10034SOL    HW231002   3.692   0.583   4.016
10035SOL     OW31003   6.959   5.088   1.460
10035SOL    HW131004   6.896   5.010   1.466
10035SOL    HW231005   0.018   5.057   1.421
10036SOL     OW31006   6.233   2.106   1.086
10036SOL    HW131007   6.262   2.037   1.152
10036SOL    HW231008   6.239   2.069   0.994
10037SOL     OW31009   0.339   1.301   0.227
10037SOL    HW131010   0.250   1.331   0.261
10037SOL    HW231011   0.326   1.237   0.151
10038SOL     OW31012   5.587   0.644   0.037
10038SOL    HW131013   5.630   0.678   0.120
10038SOL    HW231014   5.639   0.565   0.003
10039SOL     OW31015   3.566   0.733   4.041
10039SOL    HW131016   3.569   0.774   3.950
10039SOL    HW231017   3.573   0.805   4.110
10040SOL     OW31018   5.682   5.183   6.716
10040SOL    HW131019   5.704   5.228   6.630
10040SOL    HW231020   5.664   5.251   6.786
10041SOL     OW31021   4.387   5.693   6.814
10041SOL    HW131022   4.355   5.604   6.846
10041SOL    HW231023   4.309   5.752   6.794
10042SOL     OW31024   0.487   1.659   3.704
10042SOL    HW131025   0.431   1.741   3.713
10042SOL    HW231026   0.584   1.684   3.703
10043SOL     OW31027   5.812   1.475   5.374
10043SOL    HW131028   5.805   1.517   5.284
10043SOL    HW231029   5.729   1.423   5.393
10044SOL     OW31030   2.450   2.477   5.183
10044SOL    HW131031   2.366   2.423   5.191
10044SOL    HW231032   2.441   2.544   5.110
10045SOL     OW31033   3.809   1.003   1.718
10045SOL    HW131034   3.904   1.034   1.706
10045SOL    HW231035   3.761   1.006   1.631
10046SOL     OW31036   1.989   3.418   1.151
10046SOL    HW131037   2.088   3.436   1.159
10046SOL    HW231038   1.974   3.349   1.081
10047SOL     OW31039   0.864   3.176   5.420
10047SOL    HW131040   0.928   3.252   5.404
10047SOL    HW231041   0.848   3.167   5.518
10048SOL     OW31042   6.802   6.711   2.545
10048SOL    HW131043   6.742   6.656   2.602
10048SOL    HW231044   6.832   6.657   2.467
10049SOL     OW31045   1.561   1.304   5.637
10049SOL    HW131046   1.531   1.396   5.612
10049SOL    HW231047   1.640   1.278   5.581
10050SOL     OW31048   5.512   3.390   4.510
10050SOL    HW131049   5.478   3.484   4.502
10050SOL    HW231050   5.512   3.363   4.606
10051SOL     OW31051   1.208   4.251   5.037
10051SOL    HW131052   1.209   4.351   5.031
10051SOL    HW231053   1.141   4.215   4.972
10052SOL     OW31054   1.969   0.684   3.303
10052SOL    HW131055   2.005   0.777   3.292
10052SOL    HW231056   2.035   0.628   3.354
10053SOL     OW31057   4.324   5.745   3.920
10053SOL    HW131058   4.294   5.706   4.007
10053SOL    HW231059   4.255   5.727   3.850
10054SOL     OW31060   5.560   4.183   5.306
10054SOL    HW131061   5.574   4.084   5.312
10054SOL    HW231062   5.627   4.230   5.363
10055SOL     OW31063   6.775   2.807   6.391
10055SOL    HW131064   6.771   2.889   6.334
10055SOL    HW231065   6.683   2.769   6.401
10056SOL     OW31066   5.035   4.084   2.942
10056SOL    HW131067   5.117   4.045   2.984
10056SOL    HW231068   5.062   4.147   2.869
10057SOL     OW31069   5.467   3.732   5.477
10057SOL    HW131070   5.444   3.637   5.457
10057SOL    HW231071   5.554   3.736   5.527
10058SOL     OW31072   6.737   3.700   4.103
10058SOL    HW131073   6.656   3.740   4.144
10058SOL    HW231074   6.725   3.696   4.003
10059SOL     OW31075   6.572   1.808   0.732
10059SOL    HW131076   6.655   1.753   0.733
10059SOL    HW231077   6.596   1.905   0.724
10060SOL     OW31078   2.521   1.835   2.380
10060SOL    HW131079   2.452   1.773   2.344
10060SOL    HW231080   2.558   1.892   2.306
10061SOL     OW31081   4.596   1.394   3.526
10061SOL    HW131082   4.574   1.437   3.439
10061SOL    HW231083   4.694   1.405   3.545
10062SOL     OW31084   6.595   6.652   4.112
10062SOL    HW131085   6.528   6.722   4.136
10062SOL    HW231086   6.682   6.672   4.157
10063SOL     OW31087   2.237   1.978   4.450
10063SOL    HW131088   2.238   1.907   4.379
10063SOL    HW231089   2.261   2.066   4.409
10064SOL     OW31090   4.427   5.980   6.443
10064SOL    HW131091   4.467   5.947   6.528
10064SOL    HW231092   4.327   5.981   6.450
10065SOL     OW31093   1.671   1.004   1.821
10065SOL    HW131094   1.674   1.044   1.912
10065SOL    HW231095   1.763   0.977   1.792
10066SOL     OW31096   0.463   3.426   5.099
10066SOL    HW131097   0.384   3.429   5.161
10066SOL    HW231098   0.546   3.407   5.152
10067SOL     OW31099   0.969   3.191   6.339
10067SOL    HW131100   0.963   3.169   6.436
10067SOL    HW231101   1.026   3.123   6.292
10068SOL     OW31102   1.740   3.578   2.642
10068SOL    HW131103   1.715   3.481   2.643
10068SOL    HW231104   1.771   3.604   2.551
10069SOL     OW31105   3.519   5.111   1.906
10069SOL    HW131106   3.612   5.148   1.910
10069SOL    HW231107   3.453   5.183   1.926
10070SOL     OW31108   1.724   5.545   4.529
10070SOL    HW131109   1.769   5.474   4.475
10070SOL    HW231110   1.626   5.530   4.530
10071SOL     OW31111   0.424   6.633   3.934
10071SOL    HW131112   0.464   6.724   3.925
10071SOL    HW231113   0.369   6.629   4.018
10072SOL     OW31114   0.411   1.345   2.416
10072SOL    HW131115   0.397   1.382   2.507
10072SOL    HW231116   0.422   1.245   2.421
10073SOL     OW31117   5.915   2.923   3.914
10073SOL    HW131118   5.941   2.863   3.989
10073SOL    HW231119   5.969   3.007   3.918
10074SOL     OW31120   1.176   5.435   0.383
10074SOL    HW131121   1.164   5.533   0.402
10074SOL    HW231122   1.261   5.421   0.333
10075SOL     OW31123   2.581   0.709   2.479
10075SOL    HW131124   2.670   0.690   2.437
10075SOL    HW231125   2.518   0.633   2.461
10076SOL     OW31126   5.131   5.446   3.457
10076SOL    HW131127   5.134   5.409   3.364
10076SOL    HW231128   5.045   5.420   3.501
10077SOL     OW31129   6.095   3.402   0.300
10077SOL    HW131130   6.180   3.392   0.352
10077SOL    HW231131   6.017   3.394   0.363
10078SOL     OW31132   6.866   6.581   4.981
10078SOL    HW131133   6.964   6.584   4.962
10078SOL    HW231134   6.816   6.624   4.906
10079SOL     OW31135   5.745   2.532   3.721
10079SOL    HW131136   5.737   2.454   3.659
10079SOL    HW231137   5.672   2.527   3.790
10080SOL     OW31138   5.549   1.133   5.928
10080SOL    HW131139   5.576   1.141   5.832
10080SOL    HW231140   5.572   1.217   5.977
10081SOL     OW31141   1.248   1.537   6.815
10081SOL    HW131142   1.270   1.582   6.901
10081SOL    HW231143   1.331   1.531   6.758
10082SOL     OW31144   1.446   5.400   3.005
10082SOL    HW131145   1.391   5.484   3.004
10082SOL    HW231146   1.521   5.411   3.069
10083SOL     OW31147   3.524   5.651   3.217
10083SOL    HW131148   3.553   5.592   3.141
10083SOL    HW231149   3.553   5.610   3.303
10084SOL     OW31150   0.637   6.889   5.453
10084SOL    HW131151   0.597   6.943   5.379
10084SOL    HW231152   0.666   6.800   5.418
10085SOL     OW31153   3.959   6.508   0.235
10085SOL    HW131154   3.895   6.436   0.263
10085SOL    HW231155   3.921   6.597   0.258
10086SOL     OW31156   5.921   6.534   2.247
10086SOL    HW131157   5.844   6.555   2.187
10086SOL    HW231158   6.000   6.510   2.191
10087SOL     OW31159   0.672   6.906   4.508
10087SOL    HW131160   0.633   6.908   4.600
10087SOL    HW231161   0.769   6.882   4.513
10088SOL     OW31162   6.957   1.994   6.867
10088SOL    HW131163   0.013   1.999   6.922
10088SOL    HW231164   6.945   2.080   6.818
10089SOL     OW31165   3.932   1.462   2.340
10089SOL    HW131166   3.890   1.512   2.416
10089SOL    HW231167   3.994   1.523   2.290
10090SOL     OW31168   0.998   5.438   1.684
10090SOL    HW131169   1.019   5.351   1.640
10090SOL    HW231170   1.079   5.471   1.732
10091SOL     OW31171   6.562   5.674   6.751
10091SOL    HW131172   6.515   5.611   6.813
10091SOL    HW231173   6.556   5.639   6.657
10092SOL     OW31174   1.283   3.199   5.300
10092SOL    HW131175   1.265   3.148   5.216
10092SOL    HW231176   1.206   3.261   5.318
10093SOL     OW31177   4.962   3.549   5.631
10093SOL    HW131178   4.995   3.612   5.702
10093SOL    HW231179   4.894   3.596   5.574
10094SOL     OW31180   3.219   6.310   0.528
10094SOL    HW131181   3.310   6.273   0.544
10094SOL    HW231182   3.219   6.363   0.444
10095SOL     OW31183   5.108   2.325   4.714
10095SOL    HW131184   5.195   2.288   4.748
10095SOL    HW231185   5.041   2.252   4.709
10096SOL     OW31186   4.826   0.681   2.519
10096SOL    HW131187   4.844   0.745   2.594
10096SOL    HW231188   4.850   0.725   2.432
10097SOL     OW31189   2.031   2.303   6.254
10097SOL    HW131190   1.939   2.295   6.217
10097SOL    HW231191   2.035   2.380   6.318
10098SOL     OW31192   3.328   5.545   4.395
10098SOL    HW131193   3.282   5.576   4.478
10098SOL    HW231194   3.261   5.504   4.333
10099SOL     OW31195   6.462   4.091   1.552
10099SOL    HW131196   6.419   4.154   1.488
10099SOL    HW231197   6.544   4.051   1.510
10100SOL     OW31198   5.530   5.452   5.575
10100SOL    HW131199   5.563   5.399   5.653
10100SOL    HW231200   5.445   5.413   5.541
10101SOL     OW31201   6.479   2.897   1.956
10101SOL    HW131202   6.525   2.980   1.987
10101SOL    HW231203   6.546   2.824   1.942
10102SOL     OW31204   5.396   6.987   0.240
10102SOL    HW131205   5.447   6.926   0.301
10102SOL    HW231206   5.460   0.023   0.197
10103SOL     OW31207   0.802   0.441   6.086
10103SOL    HW131208   0.828   0.501   6.011
10103SOL    HW231209   0.838   0.349   6.069
10104SOL     OW31210   2.065   0.689   6.136
10104SOL    HW131211   2.100   0.750   6.207
10104SOL    HW231212   2.077   0.731   6.047
10105SOL     OW31213   2.831   1.367   5.832
10105SOL    HW131214   2.755   1.402   5.778
10105SOL    HW231215   2.872   1.288   5.787
10106SOL     OW31216   4.915   6.181   1.945
10106SOL    HW131217   4.877   6.250   1.883
10106SOL    HW231218   4.964   6.226   2.019
10107SOL     OW31219   5.004   4.478   6.658
10107SOL    HW131220   4.945   4.413   6.706
10107SOL    HW231221   4.961   4.568   6.659
10108SOL     OW31222   1.896   2.986   0.244
10108SOL    HW131223   1.864   2.984   0.339
10108SOL    HW231224   1.890   2.894   0.205
10109SOL     OW31225   0.571   1.038   0.059
10109SOL    HW131226   0.535   1.110   7.027
10109SOL    HW231227   0.507   0.962   0.061
10110SOL     OW31228   4.962   5.000   2.223
10110SOL    HW131229   4.891   4.979   2.156
10110SOL    HW231230   4.985   5.097   2.216
10111SOL     OW31231   0.820   2.585   2.136
10111SOL    HW131232   0.893   2.647   2.109
10111SOL    HW231233   0.859   2.500   2.171
10112SOL     OW31234   6.563   2.975   3.365
10112SOL    HW131235   6.610   2.955   3.279
10112SOL    HW231236   6.473   3.014   3.346
10113SOL     OW31237   5.280   1.101   6.709
10113SOL    HW131238   5.279   1.103   6.809
10113SOL    HW231239   5.186   1.104   6.674
10114SOL     OW31240   4.077   2.123   3.225
10114SOL    HW131241   3.996   2.181   3.229
10114SOL    HW231242   4.093   2.082   3.315
10115SOL     OW31243   3.142   1.353   4.380
10115SOL    HW131244   3.141   1.436   4.437
10115SOL    HW231245   3.236   1.331   4.355
10116SOL     OW31246   6.008   0.465   5.380
10116SOL    HW131247   5.981   0.527   5.453
10116SOL    HW231248   6.107   0.472   5.365
10117SOL     OW31249   6.472   4.987   5.277
10117SOL    HW131250   6.526   4.954   5.354
10117SOL    HW231251   6.445   5.082   5.293
10118SOL     OW31252   2.787   5.141   4.465
10118SOL    HW131253   2.779   5.147   4.365
10118SOL    HW231254   2.769   5.231   4.505
10119SOL     OW31255   0.439   5.320   4.150
10119SOL    HW131256   0.374   5.396   4.143
10119SOL    HW231257   0.495   5.330   4.231
10120SOL     OW31258   1.159   2.973   2.458
10120SOL    HW131259   1.101   2.892   2.451
10120SOL    HW231260   1.221   2.963   2.536
10121SOL     OW31261   6.625   4.587   0.545
10121SOL    HW131262   6.685   4.507   0.546
10121SOL    HW231263   6.550   4.574   0.609
10122SOL     OW31264   0.093   1.845   3.999
10122SOL    HW131265   0.106   1.942   3.977
10122SOL    HW231266   7.024   1.825   4.006
10123SOL     OW31267   5.699   6.066   1.287
10123SOL    HW131268   5.758   6.094   1.363
10123SOL    HW231269   5.755   6.020   1.217
10124SOL     OW31270   1.338   5.256   2.239
10124SOL    HW131271   1.413   5.320   2.256
10124SOL    HW231272   1.265   5.273   2.305
10125SOL     OW31273   1.586   1.433   0.654
10125SOL    HW131274   1.674   1.390   0.676
10125SOL    HW231275   1.601   1.517   0.603
10126SOL     OW31276   5.972   0.845   6.803
10126SOL    HW131277   5.901   0.881   6.863
10126SOL    HW231278   6.014   0.921   6.752
10127SOL     OW31279   1.463   4.717   5.962
10127SOL    HW131280   1.531   4.741   5.892
10127SOL    HW231281   1.374   4.755   5.937
10128SOL     OW31282   3.363   0.822   0.415
10128SOL    HW131283   3.339   0.918   0.419
10128SOL    HW231284   3.347   0.779   0.505
10129SOL     OW31285   6.079   1.635   3.540
10129SOL    HW131286   6.040   1.624   3.449
10129SOL    HW231287   6.005   1.644   3.607
10130SOL     OW31288   0.860   2.058   2.302
10130SOL    HW131289   0.871   2.022   2.210
10130SOL    HW231290   0.854   1.983   2.367
10131SOL     OW31291   2.105   0.763   4.591
10131SOL    HW131292   2.097   0.863   4.600
10131SOL    HW231293   2.017   0.726   4.563
10132SOL     OW31294   6.653   0.476   2.556
10132SOL    HW131295   6.726   0.412   2.530
10132SOL    HW231296   6.689   0.540   2.624
10133SOL     OW31297   4.665   5.663   0.522
10133SOL    HW131298   4.597   5.615   0.467
10133SOL    HW231299   4.732   5.598   0.557
10134SOL     OW31300   5.746   0.623   1.832
10134SOL    HW131301   5.719   0.556   1.763
10134SOL    HW231302   5.810   0.582   1.896
10135SOL     OW31303   5.761   0.293   3.869
10135SOL    HW131304   5.773   0.391   3.854
10135SOL    HW231305   5.839   0.258   3.920
10136SOL     OW31306   4.928   2.098   2.741
10136SOL    HW131307   4.878   2.064   2.821
10136SOL    HW231308   4.871   2.163   2.691
10137SOL     OW31309   7.024   5.792   5.697
10137SOL    HW131310   6.973   5.866   5.739
10137SOL    HW231311   6.967   5.748   5.627
10138SOL     OW31312   5.741   1.415   0.150
10138SOL    HW131313   5.798   1.396   0.070
10138SOL    HW231314   5.654   1.366   0.142
10139SOL     OW31315   3.203   3.470   6.202
10139SOL    HW131316   3.254   3.409   6.140
10139SOL    HW231317   3.259   3.489   6.283
10140SOL     OW31318   6.602   5.878   6.213
10140SOL    HW131319   6.662   5.892   6.134
10140SOL    HW231320   6.585   5.966   6.258
10141SOL     OW31321   3.113   1.563   3.869
10141SOL    HW131322   3.180   1.612   3.925
10141SOL    HW231323   3.157   1.483   3.828
10142SOL     OW31324   5.806   6.336   4.323
10142SOL    HW131325   5.806   6.433   4.344
10142SOL    HW231326   5.764   6.285   4.399
10143SOL     OW31327   5.862   3.581   0.606
10143SOL    HW131328   5.933   3.652   0.607
10143SOL    HW231329   5.890   3.507   0.545
10144SOL     OW31330   3.760   6.220   5.228
10144SOL    HW131331   3.770   6.217   5.328
10144SOL    HW231332   3.816   6.147   5.188
10145SOL     OW31333   5.020   6.028   1.742
10145SOL    HW131334   4.995   6.069   1.831
10145SOL    HW231335   5.005   6.096   1.670
10146SOL     OW31336   0.506   3.498   4.133
10146SOL    HW131337   0.530   3.420   4.075
10146SOL    HW231338   0.473   3.573   4.076
10147SOL     OW31339   4.424   5.593   6.496
10147SOL    HW131340   4.384   5.585   6.404
10147SOL    HW231341   4.458   5.687   6.509
10148SOL     OW31342   0.786   4.942   6.851
10148SOL    HW131343   0.788   5.041   6.839
10148SOL    HW231344   0.852   4.915   6.921
10149SOL     OW31345   4.931   4.646   1.445
10149SOL    HW131346   4.939   4.554   1.484
10149SOL    HW231347   4.869   4.644   1.367
10150SOL     OW31348   4.877   3.869   0.660
10150SOL    HW131349   4.909   3.866   0.755
10150SOL    HW231350   4.808   3.798   0.645
10151SOL     OW31351   6.831   0.161   5.719
10151SOL    HW131352   6.893   0.099   5.766
10151SOL    HW231353   6.881   0.211   5.648
10152SOL     OW31354   5.913   6.157   2.512
10152SOL    HW131355   5.914   6.256   2.500
10152SOL    HW231356   5.896   6.135   2.608
10153SOL     OW31357   4.765   5.197   3.839
10153SOL    HW131358   4.818   5.280   3.855
10153SOL    HW231359   4.733   5.195   3.744
10154SOL     OW31360   3.916   4.755   5.578
10154SOL    HW131361   3.879   4.842   5.545
10154SOL    HW231362   3.870   4.679   5.530
10155SOL     OW31363   4.528   1.999   5.756
10155SOL    HW131364   4.605   1.935   5.763
10155SOL    HW231365   4.457   1.974   5.821
10156SOL     OW31366   4.668   0.579   1.034
10156SOL    HW131367   4.594   0.639   1.065
10156SOL    HW231368   4.637   0.526   0.955
10157SOL     OW31369   0.026   2.826   1.428
10157SOL    HW131370   6.982   2.842   1.361
10157SOL    HW231371   0.047   2.728   1.430
10158SOL     OW31372   5.514   6.577   1.732
10158SOL    HW131373   5.544   6.667   1.699
10158SOL    HW231374   5.509   6.578   1.832
10159SOL     OW31375   3.843   3.465   3.301
10159SOL    HW131376   3.797   3.553   3.310
10159SOL    HW231377   3.912   3.456   3.374
10160SOL     OW31378   1.997   4.297   3.047
10160SOL    HW131379   1.997   4.313   2.948
10160SOL    HW231380   1.910   4.327   3.086
10161SOL     OW31381   3.557   4.848   6.410
10161SOL    HW131382   3.614   4.767   6.400
10161SOL    HW231383   3.530   4.882   6.320
10162SOL     OW31384   2.103   4.624   1.775
10162SOL    HW131385   2.051   4.687   1.717
10162SOL    HW231386   2.080   4.530   1.751
10163SOL     OW31387   1.283   6.495   5.323
10163SOL    HW131388   1.296   6.511   5.421
10163SOL    HW231389   1.349   6.428   5.291
10164SOL     OW31390   6.729   3.092   3.556
10164SOL    HW131391   6.814   3.040   3.566
10164SOL    HW231392   6.680   3.061   3.475
10165SOL     OW31393   6.297   2.970   4.094
10165SOL    HW131394   6.208   3.014   4.093
10165SOL    HW231395   6.368   3.038   4.110
10166SOL     OW31396   0.730   2.398   0.795
10166SOL    HW131397   0.671   2.434   0.866
10166SOL    HW231398   0.688   2.413   0.705
10167SOL     OW31399   0.514   5.850   6.109
10167SOL    HW131400   0.586   5.819   6.170
10167SOL    HW231401   0.505   5.786   6.032
10168SOL     OW31402   5.875   1.335   6.941
10168SOL    HW131403   5.954   1.273   6.944
10168SOL    HW231404   5.791   1.282   6.932
10169SOL     OW31405   6.886   3.846   3.247
10169SOL    HW131406   6.924   3.779   3.310
10169SOL    HW231407   6.939   3.848   3.163
10170SOL     OW31408   6.453   5.740   0.181
10170SOL    HW131409   6.550   5.725   0.160
10170SOL    HW231410   6.443   5.823   0.236
10171SOL     OW31411   1.923   2.983   5.006
10171SOL    HW131412   1.998   2.944   5.059
10171SOL    HW231413   1.956   3.060   4.952
10172SOL     OW31414   6.698   0.353   3.080
10172SOL    HW131415   6.627   0.353   3.150
10172SOL    HW231416   6.656   0.350   2.990
10173SOL     OW31417   3.398   4.728   7.016
10173SOL    HW131418   3.359   4.802   6.960
10173SOL    HW231419   3.464   4.677   6.961
10174SOL     OW31420   5.032   6.955   2.990
10174SOL    HW131421   5.085   6.892   2.933
10174SOL    HW231422   5.060   0.021   2.971
10175SOL     OW31423   6.831   2.069   3.966
10175SOL    HW131424   6.751   2.038   3.915
10175SOL    HW231425   6.823   2.168   3.983
10176SOL     OW31426   6.394   3.433   5.677
10176SOL    HW131427   6.492   3.438   5.656
10176SOL    HW231428   6.346   3.506   5.628
10177SOL     OW31429   2.419   0.356   1.565
10177SOL    HW131430   2.476   0.436   1.584
10177SOL    HW231431   2.478   0.279   1.542
10178SOL     OW31432   1.820   1.728   0.214
10178SOL    HW131433   1.751   1.773   0.272
10178SOL    HW231434   1.775   1.660   0.157
10179SOL     OW31435   6.956   4.326   0.815
10179SOL    HW131436   7.006   4.245   0.844
10179SOL    HW231437   7.020   4.399   0.793
10180SOL     OW31438   4.450   0.084   6.107
10180SOL    HW131439   4.501   0.024   6.169
10180SOL    HW231440   4.492   0.082   6.016
10181SOL     OW31441   6.839   3.956   1.302
10181SOL    HW131442   6.915   3.892   1.301
10181SOL    HW231443   6.839   4.009   1.217
10182SOL     OW31444   5.366   1.546   6.929
10182SOL    HW131445   5.286   1.517   6.982
10182SOL    HW231446   5.408   1.467   6.886
10183SOL     OW31447   6.744   2.082   5.999
10183SOL    HW131448   6.820   2.145   6.016
10183SOL    HW231449   6.723   2.031   6.082
10184SOL     OW31450   6.085   3.662   6.439
10184SOL    HW131451   6.005   3.719   6.417
10184SOL    HW231452   6.054   3.571   6.466
10185SOL     OW31453   4.055   5.849   2.316
10185SOL    HW131454   4.054   5.750   2.300
10185SOL    HW231455   4.114   5.869   2.394
10186SOL     OW31456   4.989   3.992   5.339
10186SOL    HW131457   5.022   3.914   5.286
10186SOL    HW231458   4.930   3.959   5.413
10187SOL     OW31459   2.503   4.282   5.757
10187SOL    HW131460   2.507   4.215   5.683
10187SOL    HW231461   2.460   4.366   5.724
10188SOL     OW31462   2.600   6.941   6.966
10188SOL    HW131463   2.624   6.919   6.872
10188SOL    HW231464   2.618   0.010   6.982
10189SOL     OW31465   1.308   1.429   6.194
10189SOL    HW131466   1.357   1.342   6.192
10189SOL    HW231467   1.346   1.489   6.123
10190SOL     OW31468   2.671   4.360   1.251
10190SOL    HW131469   2.681   4.374   1.152
10190SOL    HW231470   2.579   4.387   1.279
10191SOL     OW31471   6.033   5.533   6.956
10191SOL    HW131472   5.988   5.472   7.022
10191SOL    HW231473   6.086   5.602   7.004
10192SOL     OW31474   2.153   2.009   5.735
10192SOL    HW131475   2.210   2.091   5.735
10192SOL    HW231476   2.201   1.935   5.783
10193SOL     OW31477   4.107   3.358   2.590
10193SOL    HW131478   4.122   3.346   2.688
10193SOL    HW231479   4.107   3.456   2.569
10194SOL     OW31480   3.552   0.590   4.315
10194SOL    HW131481   3.506   0.615   4.230
10194SOL    HW231482   3.642   0.552   4.294
10195SOL     OW31483   5.565   0.146   1.996
10195SOL    HW131484   5.658   0.166   1.966
10195SOL    HW231485   5.565   0.126   2.094
10196SOL     OW31486   5.767   1.626   3.005
10196SOL    HW131487   5.830   1.549   2.997
10196SOL    HW231488   5.804   1.693   3.069
10197SOL     OW31489   5.949   0.040   2.934
10197SOL    HW131490   5.867   0.096   2.919
10197SOL    HW231491   5.948   6.989   2.874
10198SOL     OW31492   3.292   6.279   1.715
10198SOL    HW131493   3.329   6.372   1.712
10198SOL    HW231494   3.357   6.216   1.672
10199SOL     OW31495   1.204   1.880   6.728
10199SOL    HW131496   1.219   1.799   6.784
10199SOL    HW231497   1.259   1.874   6.645
10200SOL     OW31498   5.828   3.955   5.665
10200SOL    HW131499   5.773   3.990   5.590
10200SOL    HW231500   5.862   4.032   5.720
10201SOL     OW31501   0.747   5.139   2.278
10201SOL    HW131502   0.825   5.179   2.231
10201SOL    HW231503   0.663   5.187   2.250
10202SOL     OW31504   0.214   3.972   1.660
10202SOL    HW131505   0.273   3.896   1.632
10202SOL    HW231506   0.122   3.938   1.679
10203SOL     OW31507   1.954   2.919   2.280
10203SOL    HW131508   1.995   2.848   2.337
10203SOL    HW231509   1.980   3.009   2.316
10204SOL     OW31510   3.184   4.532   5.584
10204SOL    HW131511   3.240   4.484   5.517
10204SOL    HW231512   3.142   4.611   5.541
10205SOL     OW31513   5.327   1.473   3.721
10205SOL    HW131514   5.392   1.400   3.700
10205SOL    HW231515   5.377   1.557   3.740
10206SOL     OW31516   5.591   6.563   6.055
10206SOL    HW131517   5.675   6.555   6.109
10206SOL    HW231518   5.580   6.482   5.998
10207SOL     OW31519   2.179   0.935   2.649
10207SOL    HW131520   2.224   0.924   2.738
10207SOL    HW231521   2.247   0.952   2.579
10208SOL     OW31522   5.821   5.688   5.108
10208SOL    HW131523   5.723   5.697   5.128
10208SOL    HW231524   5.835   5.682   5.010
10209SOL     OW31525   0.002   1.171   6.350
10209SOL    HW131526   6.945   1.224   6.343
10209SOL    HW231527   0.001   1.099   6.281
10210SOL     OW31528   5.819   0.103   1.897
10210SOL    HW131529   5.870   0.143   1.972
10210SOL    HW231530   5.840   0.005   1.890
10211SOL     OW31531   4.169   6.706   5.437
10211SOL    HW131532   4.177   6.804   5.417
10211SOL    HW231533   4.203   6.653   5.360
10212SOL     OW31534   0.764   1.237   4.101
10212SOL    HW131535   0.776   1.140   4.126
10212SOL    HW231536   0.766   1.293   4.184
10213SOL     OW31537   5.971   1.425   2.992
10213SOL    HW131538   6.025   1.398   2.913
10213SOL    HW231539   6.030   1.468   3.060
10214SOL     OW31540   6.317   0.626   2.180
10214SOL    HW131541   6.270   0.714   2.185
10214SOL    HW231542   6.307   0.578   2.266
10215SOL     OW31543   3.374   3.526   6.404
10215SOL    HW131544   3.364   3.595   6.476
10215SOL    HW231545   3.471   3.504   6.391
10216SOL     OW31546   6.575   6.900   0.935
10216SOL    HW131547   6.556   6.962   0.859
10216SOL    HW231548   6.581   6.806   0.901
10217SOL     OW31549   2.652   1.959   4.310
10217SOL    HW131550   2.568   1.934   4.263
10217SOL    HW231551   2.650   1.922   4.403
10218SOL     OW31552   1.091   1.334   1.404
10218SOL    HW131553   1.146   1.400   1.354
10218SOL    HW231554   1.015   1.303   1.347
10219SOL     OW31555   0.849   1.944   2.065
10219SOL    HW131556   0.792   1.862   2.062
10219SOL    HW231557   0.913   1.942   1.988
10220SOL     OW31558   4.257   1.868   1.134
10220SOL    HW131559   4.222   1.892   1.225
10220SOL    HW231560   4.356   1.883   1.132
10221SOL     OW31561   2.766   1.070   5.295
10221SOL    HW131562   2.679   1.031   5.326
10221SOL    HW231563   2.747   1.149   5.236
10222SOL     OW31564   0.965   3.843   5.516
10222SOL    HW131565   0.922   3.766   5.470
10222SOL    HW231566   1.021   3.894   5.451
10223SOL     OW31567   1.228   5.075   0.004
10223SOL    HW131568   1.159   5.140   7.002
10223SOL    HW231569   1.298   5.065   6.961
10224SOL     OW31570   1.528   0.666   4.571
10224SOL    HW131571   1.476   0.724   4.509
10224SOL    HW231572   1.528   0.706   4.663
10225SOL     OW31573   0.775   6.146   4.662
10225SOL    HW131574   0.827   6.162   4.579
10225SOL    HW231575   0.836   6.109   4.733
10226SOL     OW31576   2.973   1.024   6.618
10226SOL    HW131577   2.984   0.924   6.621
10226SOL    HW231578   3.059   1.066   6.589
10227SOL     OW31579   4.632   4.492   0.472
10227SOL    HW131580   4.651   4.590   0.470
10227SOL    HW231581   4.714   4.441   0.446
10228SOL     OW31582   0.416   5.493   2.287
10228SOL    HW131583   0.488   5.522   2.350
10228SOL    HW231584   0.404   5.562   2.215
10229SOL     OW31585   0.870   0.822   3.394
10229SOL    HW131586   0.963   0.851   3.418
10229SOL    HW231587   0.858   0.726   3.421
10230SOL     OW31588   6.729   0.019   3.613
10230SOL    HW131589   6.703   7.004   3.526
10230SOL    HW231590   6.653   0.075   3.647
10231SOL     OW31591   6.377   6.825   4.963
10231SOL    HW131592   6.434   6.744   4.971
10231SOL    HW231593   6.301   6.808   4.900
10232SOL     OW31594   3.657   1.311   4.124
10232SOL    HW131595   3.709   1.284   4.205
10232SOL    HW231596   3.715   1.304   4.043
10233SOL     OW31597   4.264   3.113   6.263
10233SOL    HW131598   4.180   3.062   6.242
10233SOL    HW231599   4.265   3.137   6.360
10234SOL     OW31600   4.935   0.701   0.769
10234SOL    HW131601   4.954   0.608   0.736
10234SOL    HW231602   4.836   0.715   0.773
10235SOL     OW31603   4.539   0.875   0.241
10235SOL    HW131604   4.630   0.842   0.265
10235SOL    HW231605   4.536   0.975   0.246
10236SOL     OW31606   2.182   6.374   1.622
10236SOL    HW131607   2.134   6.427   1.552
10236SOL    HW231608   2.193   6.430   1.704
10237SOL     OW31609   6.496   4.340   1.868
10237SOL    HW131610   6.582   4.320   1.916
10237SOL    HW231611   6.512   4.411   1.800
10238SOL     OW31612   3.788   4.199   5.574
10238SOL    HW131613   3.826   4.132   5.638
10238SOL    HW231614   3.862   4.242   5.522
10239SOL     OW31615   0.581   4.041   5.573
10239SOL    HW131616   0.664   4.078   5.615
10239SOL    HW231617   0.569   4.081   5.482
10240SOL     OW31618   1.059   4.417   2.412
10240SOL    HW131619   0.986   4.440   2.476
10240SOL    HW231620   1.097   4.328   2.437
10241SOL     OW31621   0.054   1.006   1.781
10241SOL    HW131622   0.147   1.028   1.751
10241SOL    HW231623   0.046   0.907   1.795
10242SOL     OW31624   0.514   1.665   5.857
10242SOL    HW131625   0.477   1.662   5.950
10242SOL    HW231626   0.582   1.594   5.846
10243SOL     OW31627   0.120   5.629   1.322
10243SOL    HW131628   0.085   5.550   1.372
10243SOL    HW231629   0.206   5.605   1.276
10244SOL     OW31630   1.939   5.087   0.089
10244SOL    HW131631   2.020   5.030   0.076
10244SOL    HW231632   1.966   5.178   0.119
10245SOL     OW31633   2.262   3.573   0.059
10245SOL    HW131634   2.225   3.597   0.148
10245SOL    HW231635   2.270   3.473   0.051
10246SOL     OW31636   2.965   3.931   4.998
10246SOL    HW131637   2.934   4.006   5.057
10246SOL    HW231638   2.917   3.847   5.024
10247SOL     OW31639   0.604   5.263   5.121
10247SOL    HW131640   0.519   5.292   5.078
10247SOL    HW231641   0.679   5.320   5.088
10248SOL     OW31642   3.291   0.474   2.402
10248SOL    HW131643   3.191   0.479   2.402
10248SOL    HW231644   3.321   0.416   2.478
10249SOL     OW31645   3.401   0.715   5.313
10249SOL    HW131646   3.319   0.738   5.260
10249SOL    HW231647   3.440   0.630   5.279
10250SOL     OW31648   6.636   1.439   1.093
10250SOL    HW131649   6.643   1.443   0.993
10250SOL    HW231650   6.570   1.507   1.125
10251SOL     OW31651   2.585   2.782   5.709
10251SOL    HW131652   2.559   2.769   5.805
10251SOL    HW231653   2.628   2.872   5.698
10252SOL     OW31654   5.943   6.938   0.811
10252SOL    HW131655   6.002   6.886   0.873
10252SOL    HW231656   5.855   6.956   0.855
10253SOL     OW31657   4.675   5.389   0.286
10253SOL    HW131658   4.715   5.466   0.236
10253SOL    HW231659   4.732   5.367   0.364
10254SOL     OW31660   3.157   2.173   4.698
10254SOL    HW131661   3.107   2.098   4.655
10254SOL    HW231662   3.114   2.198   4.784
10255SOL     OW31663   2.000   6.569   2.322
10255SOL    HW131664   1.904   6.541   2.325
10255SOL    HW231665   2.029   6.581   2.226
10256SOL     OW31666   5.101   0.262   0.829
10256SOL    HW131667   5.187   0.226   0.792
10256SOL    HW231668   5.114   0.287   0.925
10257SOL     OW31669   0.982   4.723   5.384
10257SOL    HW131670   1.042   4.798   5.413
10257SOL    HW231671   0.989   4.648   5.450
10258SOL     OW31672   5.161   6.669   3.588
10258SOL    HW131673   5.220   6.600   3.630
10258SOL    HW231674   5.089   6.624   3.537
10259SOL     OW31675   0.686   5.435   3.683
10259SOL    HW131676   0.662   5.375   3.759
10259SOL    HW231677   0.612   5.434   3.615
10260SOL     OW31678   0.014   6.569   2.954
10260SOL    HW131679   0.105   6.604   2.972
10260SOL    HW231680   0.008   6.537   2.859
10261SOL     OW31681   0.001   6.230   1.998
10261SOL    HW131682   6.982   6.250   2.084
10261SOL    HW231683   6.968   6.251   1.921
10262SOL     OW31684   3.243   4.940   4.743
10262SOL    HW131685   3.326   4.955   4.797
10262SOL    HW231686   3.231   5.015   4.678
10263SOL     OW31687   4.752   1.852   6.802
10263SOL    HW131688   4.829   1.790   6.784
10263SOL    HW231689   4.694   1.812   6.872
10264SOL     OW31690   6.022   1.680   6.471
10264SOL    HW131691   5.964   1.711   6.546
10264SOL    HW231692   5.968   1.626   6.407
10265SOL     OW31693   3.186   1.650   2.805
10265SOL    HW131694   3.275   1.604   2.803
10265SOL    HW231695   3.198   1.746   2.828
10266SOL     OW31696   3.908   4.089   6.212
10266SOL    HW131697   3.920   4.183   6.179
10266SOL    HW231698   3.821   4.053   6.179
10267SOL     OW31699   6.566   1.976   0.026
10267SOL    HW131700   6.642   1.911   0.027
10267SOL    HW231701   6.526   1.979   6.963
10268SOL     OW31702   5.482   6.419   1.431
10268SOL    HW131703   5.529   6.507   1.428
10268SOL    HW231704   5.435   6.409   1.518
10269SOL     OW31705   2.132   1.635   5.539
10269SOL    HW131706   2.086   1.721   5.516
10269SOL    HW231707   2.148   1.632   5.638
10270SOL     OW31708   2.403   6.030   1.070
10270SOL    HW131709   2.439   5.944   1.034
10270SOL    HW231710   2.465   6.066   1.140
10271SOL     OW31711   3.146   3.664   0.127
10271SOL    HW131712   3.233   3.624   0.098
10271SOL    HW231713   3.144   3.760   0.099
10272SOL     OW31714   1.117   1.060   4.049
10272SOL    HW131715   1.048   1.027   3.984
10272SOL    HW231716   1.155   1.147   4.016
10273SOL     OW31717   4.015   5.442   4.271
10273SOL    HW131718   4.033   5.352   4.309
10273SOL    HW231719   3.959   5.433   4.188
10274SOL     OW31720   1.186   4.910   5.502
10274SOL    HW131721   1.200   5.003   5.535
10274SOL    HW231722   1.263   4.883   5.444
10275SOL     OW31723   0.763   6.981   2.737
10275SOL    HW131724   0.702   6.907   2.765
10275SOL    HW231725   0.834   6.994   2.806
10276SOL     OW31726   7.010   5.744   6.070
10276SOL    HW131727   0.069   5.702   6.094
10276SOL    HW231728   7.020   5.844   6.071
10277SOL     OW31729   3.029   6.461   4.153
10277SOL    HW131730   3.008   6.475   4.249
10277SOL    HW231731   3.125   6.483   4.135
10278SOL     OW31732   6.838   1.356   6.048
10278SOL    HW131733   6.900   1.338   5.972
10278SOL    HW231734   6.762   1.413   6.017
10279SOL     OW31735   3.467   0.427   3.888
10279SOL    HW131736   3.541   0.389   3.944
10279SOL    HW231737   3.504   0.456   3.800
10280SOL     OW31738   2.386   4.876   1.207
10280SOL    HW131739   2.472   4.866   1.256
10280SOL    HW231740   2.359   4.972   1.206
10281SOL     OW31741   5.165   1.993   2.808
10281SOL    HW131742   5.071   2.027   2.810
10281SOL    HW231743   5.221   2.055   2.753
10282SOL     OW31744   0.024   3.140   3.340
10282SOL    HW131745   6.963   3.182   3.323
10282SOL    HW231746   0.091   3.212   3.360
10283SOL     OW31747   1.302   3.269   0.641
10283SOL    HW131748   1.339   3.350   0.595
10283SOL    HW231749   1.296   3.287   0.739
10284SOL     OW31750   5.725   4.105   5.101
10284SOL    HW131751   5.700   4.190   5.056
10284SOL    HW231752   5.657   4.083   5.172
10285SOL     OW31753   4.594   0.265   1.276
10285SOL    HW131754   4.581   0.363   1.264
10285SOL    HW231755   4.578   0.240   1.371
10286SOL     OW31756   3.887   1.643   2.586
10286SOL    HW131757   3.881   1.556   2.636
10286SOL    HW231758   3.799   1.663   2.543
10287SOL     OW31759   2.157   0.002   1.972
10287SOL    HW131760   2.173   6.954   1.909
10287SOL    HW231761   2.086   7.004   2.038
10288SOL     OW31762   5.256   5.812   2.657
10288SOL    HW131763   5.329   5.825   2.590
10288SOL    HW231764   5.297   5.794   2.747
10289SOL     OW31765   3.579   1.470   1.655
10289SOL    HW131766   3.567   1.568   1.642
10289SOL    HW231767   3.502   1.433   1.706
10290SOL     OW31768   3.496   4.074   3.112
10290SOL    HW131769   3.418   4.012   3.112
10290SOL    HW231770   3.511   4.109   3.019
10291SOL     OW31771   4.020   0.659   3.960
10291SOL    HW131772   4.113   0.626   3.945
10291SOL    HW231773   3.972   0.665   3.872
10292SOL     OW31774   0.379   2.095   4.493
10292SOL    HW131775   0.408   2.061   4.583
10292SOL    HW231776   0.375   2.195   4.495
10293SOL     OW31777   1.393   6.558   3.089
10293SOL    HW131778   1.302   6.565   3.049
10293SOL    HW231779   1.454   6.623   3.044
10294SOL     OW31780   4.907   3.092   2.965
10294SOL    HW131781   4.876   3.029   3.036
10294SOL    HW231782   4.900   3.186   2.999
10295SOL     OW31783   6.025   4.489   5.533
10295SOL    HW131784   6.104   4.460   5.586
10295SOL    HW231785   5.941   4.470   5.584
10296SOL     OW31786   5.824   4.211   6.146
10296SOL    HW131787   5.818   4.227   6.048
10296SOL    HW231788   5.750   4.260   6.193
10297SOL     OW31789   2.819   0.075   4.452
10297SOL    HW131790   2.831   0.035   4.361
10297SOL    HW231791   2.900   0.130   4.474
10298SOL     OW31792   4.623   4.421   3.158
10298SOL    HW131793   4.567   4.482   3.214
10298SOL    HW231794   4.650   4.341   3.212
10299SOL     OW31795   4.490   4.446   3.397
10299SOL    HW131796   4.547   4.365   3.381
10299SOL    HW231797   4.499   4.474   3.493
10300SOL     OW31798   1.845   3.733   2.009
10300SOL    HW131799   1.915   3.804   2.011
10300SOL    HW231800   1.875   3.656   2.066
10301SOL     OW31801   5.727   1.702   3.515
10301SOL    HW131802   5.803   1.711   3.451
10301SOL    HW231803   5.654   1.647   3.473
10302SOL     OW31804   1.184   6.081   2.449
10302SOL    HW131805   1.142   6.036   2.370
10302SOL    HW231806   1.122   6.076   2.527
10303SOL     OW31807   3.828   3.463   1.420
10303SOL    HW131808   3.904   3.467   1.355
10303SOL    HW231809   3.850   3.519   1.500
10304SOL     OW31810   5.960   0.205   4.033
10304SOL    HW131811   6.048   0.247   4.058
10304SOL    HW231812   5.901   0.201   4.114
10305SOL     OW31813   1.491   6.036   0.167
10305SOL    HW131814   1.559   6.100   0.131
10305SOL    HW231815   1.531   5.945   0.176
10306SOL     OW31816   4.314   5.393   0.013
10306SOL    HW131817   4.384   5.383   0.083
10306SOL    HW231818   4.278   5.486   0.015
10307SOL     OW31819   1.887   0.836   5.399
10307SOL    HW131820   1.792   0.811   5.417
10307SOL    HW231821   1.916   0.906   5.463
10308SOL     OW31822   3.388   5.163   3.755
10308SOL    HW131823   3.406   5.076   3.800
10308SOL    HW231824   3.297   5.160   3.712
10309SOL     OW31825   6.031   6.357   3.573
10309SOL    HW131826   5.955   6.413   3.542
10309SOL    HW231827   6.100   6.350   3.501
10310SOL     OW31828   3.068   3.659   2.082
10310SOL    HW131829   3.013   3.693   2.158
10310SOL    HW231830   3.027   3.577   2.044
10311SOL     OW31831   0.845   5.824   0.780
10311SOL    HW131832   0.766   5.801   0.838
10311SOL    HW231833   0.867   5.921   0.792
10312SOL     OW31834   3.340   4.598   0.399
10312SOL    HW131835   3.353   4.691   0.367
10312SOL    HW231836   3.307   4.541   0.323
10313SOL     OW31837   4.169   0.100   2.366
10313SOL    HW131838   4.218   0.143   2.442
10313SOL    HW231839   4.136   0.171   2.303
10314SOL     OW31840   6.335   7.018   0.549
10314SOL    HW131841   6.332   0.042   0.464
10314SOL    HW231842   6.254   0.013   0.605
10315SOL     OW31843   6.025   6.083   5.239
10315SOL    HW131844   5.977   6.137   5.170
10315SOL    HW231845   5.960   6.024   5.287
10316SOL     OW31846   0.255   3.536   4.653
10316SOL    HW131847   0.281   3.540   4.557
10316SOL    HW231848   0.336   3.549   4.710
10317SOL     OW31849   3.817   5.042   6.490
10317SOL    HW131850   3.730   5.022   6.443
10317SOL    HW231851   3.867   4.956   6.503
10318SOL     OW31852   6.182   5.199   1.214
10318SOL    HW131853   6.126   5.118   1.196
10318SOL    HW231854   6.226   5.190   1.303
10319SOL     OW31855   0.116   4.926   4.041
10319SOL    HW131856   0.147   4.831   4.045
10319SOL    HW231857   0.065   4.940   3.956
10320SOL     OW31858   0.895   0.240   0.936
10320SOL    HW131859   0.889   0.340   0.941
10320SOL    HW231860   0.986   0.214   0.904
10321SOL     OW31861   3.955   6.323   4.930
10321SOL    HW131862   3.871   6.352   4.976
10321SOL    HW231863   3.949   6.225   4.910
10322SOL     OW31864   6.284   5.801   0.507
10322SOL    HW131865   6.358   5.746   0.545
10322SOL    HW231866   6.196   5.767   0.541
10323SOL     OW31867   6.836   3.172   6.649
10323SOL    HW131868   6.804   3.077   6.651
10323SOL    HW231869   6.758   3.234   6.659
10324SOL     OW31870   3.505   3.280   3.419
10324SOL    HW131871   3.414   3.320   3.408
10324SOL    HW231872   3.506   3.189   3.378
10325SOL     OW31873   6.644   4.170   3.499
10325SOL    HW131874   6.652   4.216   3.410
10325SOL    HW231875   6.552   4.132   3.508
10326SOL     OW31876   5.323   2.363   0.574
10326SOL    HW131877   5.395   2.301   0.543
10326SOL    HW231878   5.274   2.399   0.494
10327SOL     OW31879   1.489   1.072   3.036
10327SOL    HW131880   1.533   0.983   3.050
10327SOL    HW231881   1.558   1.143   3.028
10328SOL     OW31882   5.652   3.497   2.642
10328SOL    HW131883   5.579   3.456   2.697
10328SOL    HW231884   5.740   3.479   2.685
10329SOL     OW31885   3.054   0.419   3.279
10329SOL    HW131886   3.126   0.473   3.237
10329SOL    HW231887   2.966   0.465   3.268
10330SOL     OW31888   3.587   5.204   2.987
10330SOL    HW131889   3.537   5.129   3.030
10330SOL    HW231890   3.656   5.239   3.050
10331SOL     OW31891   5.407   0.634   3.453
10331SOL    HW131892   5.409   0.696   3.531
10331SOL    HW231893   5.495   0.638   3.405
10332SOL     OW31894   6.857   1.953   0.679
10332SOL    HW131895   6.831   1.990   0.768
10332SOL    HW231896   6.931   2.008   0.640
10333SOL     OW31897   5.783   4.998   3.872
10333SOL    HW131898   5.760   5.095   3.868
10333SOL    HW231899   5.869   4.983   3.824
10334SOL     OW31900   2.230   4.816   3.943
10334SOL    HW131901   2.310   4.763   3.968
10334SOL    HW231902   2.252   4.913   3.945
10335SOL     OW31903   2.063   5.386   6.640
10335SOL    HW131904   2.038   5.337   6.724
10335SOL    HW231905   2.028   5.336   6.561
10336SOL     OW31906   4.113   6.923   2.193
10336SOL    HW131907   4.135   6.989   2.265
10336SOL    HW231908   4.193   6.869   2.171
10337SOL     OW31909   0.075   5.107   4.589
10337SOL    HW131910   0.039   5.017   4.611
10337SOL    HW231911   0.017   5.151   4.521
10338SOL     OW31912   3.581   6.827   1.437
10338SOL    HW131913   3.630   6.750   1.477
10338SOL    HW231914   3.644   6.882   1.382
10339SOL     OW31915   3.320   5.578   0.812
10339SOL    HW131916   3.257   5.625   0.750
10339SOL    HW231917   3.381   5.644   0.855
10340SOL     OW31918   2.275   5.584   6.548
10340SOL    HW131919   2.342   5.631   6.606
10340SOL    HW231920   2.219   5.523   6.603
10341SOL     OW31921   2.393   2.183   2.279
10341SOL    HW131922   2.334   2.248   2.232
10341SOL    HW231923   2.438   2.230   2.356
10342SOL     OW31924   2.518   6.809   5.591
10342SOL    HW131925   2.583   6.860   5.535
10342SOL    HW231926   2.509   6.716   5.554
10343SOL     OW31927   2.474   4.080   5.962
10343SOL    HW131928   2.531   4.014   5.912
10343SOL    HW231929   2.460   4.161   5.905
10344SOL     OW31930   4.066   3.631   4.615
10344SOL    HW131931   4.067   3.718   4.567
10344SOL    HW231932   4.112   3.641   4.703
10345SOL     OW31933   2.763   1.324   0.284
10345SOL    HW131934   2.739   1.391   0.214
10345SOL    HW231935   2.758   1.232   0.245
10346SOL     OW31936   5.420   6.739   6.717
10346SOL    HW131937   5.517   6.761   6.709
10346SOL    HW231938   5.369   6.787   6.646
10347SOL     OW31939   5.451   1.721   1.315
10347SOL    HW131940   5.417   1.809   1.281
10347SOL    HW231941   5.502   1.674   1.243
10348SOL     OW31942   6.164   1.473   6.183
10348SOL    HW131943   6.255   1.442   6.210
10348SOL    HW231944   6.117   1.401   6.132
10349SOL     OW31945   6.162   0.917   0.881
10349SOL    HW131946   6.145   0.865   0.797
10349SOL    HW231947   6.128   0.865   0.959
10350SOL     OW31948   3.679   5.894   4.280
10350SOL    HW131949   3.701   5.943   4.195
10350SOL    HW231950   3.676   5.796   4.263
10351SOL     OW31951   6.067   5.456   5.198
10351SOL    HW131952   6.149   5.412   5.236
10351SOL    HW231953   6.092   5.507   5.116
10352SOL     OW31954   5.665   1.655   6.802
10352SOL    HW131955   5.587   1.613   6.756
10352SOL    HW231956   5.651   1.651   6.901
10353SOL     OW31957   0.282   3.319   3.460
10353SOL    HW131958   0.374   3.281   3.467
10353SOL    HW231959   0.228   3.293   3.541
10354SOL     OW31960   0.520   3.857   0.644
10354SOL    HW131961   0.471   3.771   0.631
10354SOL    HW231962   0.574   3.877   0.563
10355SOL     OW31963   0.972   1.452   0.868
10355SOL    HW131964   0.887   1.446   0.816
10355SOL    HW231965   1.037   1.383   0.833
10356SOL     OW31966   0.193   3.242   6.548
10356SOL    HW131967   0.238   3.201   6.627
10356SOL    HW231968   0.220   3.194   6.465
10357SOL     OW31969   1.426   2.132   6.569
10357SOL    HW131970   1.487   2.169   6.499
10357SOL    HW231971   1.451   2.037   6.588
10358SOL     OW31972   1.571   2.703   2.464
10358SOL    HW131973   1.512   2.752   2.400
10358SOL    HW231974   1.557   2.738   2.557
10359SOL     OW31975   5.356   2.415   2.804
10359SOL    HW131976   5.388   2.485   2.869
10359SOL    HW231977   5.259   2.397   2.819
10360SOL     OW31978   5.253   5.071   3.126
10360SOL    HW131979   5.289   5.008   3.195
10360SOL    HW231980   5.200   5.143   3.172
10361SOL     OW31981   2.078   1.359   1.184
10361SOL    HW131982   2.134   1.276   1.197
10361SOL    HW231983   2.037   1.384   1.271
10362SOL     OW31984   0.268   5.474   1.754
10362SOL    HW131985   0.304   5.427   1.834
10362SOL    HW231986   0.275   5.573   1.767
10363SOL     OW31987   4.487   3.592   0.816
10363SOL    HW131988   4.413   3.537   0.777
10363SOL    HW231989   4.468   3.610   0.913
10364SOL     OW31990   5.167   5.059   0.955
10364SOL    HW131991   5.215   5.056   1.043
10364SOL    HW231992   5.070   5.080   0.971
10365SOL     OW31993   5.980   4.897   0.126
10365SOL    HW131994   6.009   4.931   0.215
10365SOL    HW231995   5.940   4.806   0.136
10366SOL     OW31996   4.432   6.484   2.894
10366SOL    HW131997   4.344   6.465   2.938
10366SOL    HW231998   4.419   6.494   2.796
10367SOL     OW31999   6.555   1.800   1.713
10367SOL    HW132000   6.547   1.792   1.813
10367SOL    HW232001   6.632   1.745   1.682
10368SOL     OW32002   3.003   0.727   2.580
10368SOL    HW132003   2.951   0.714   2.496
10368SOL    HW232004   3.068   0.801   2.569
10369SOL     OW32005   3.022   6.236   5.630
10369SOL    HW132006   3.029   6.137   5.615
10369SOL    HW232007   2.969   6.277   5.556
10370SOL     OW32008   6.457   1.466   4.613
10370SOL    HW132009   6.471   1.563   4.634
10370SOL    HW232010   6.455   1.453   4.514
10371SOL     OW32011   3.681   6.418   3.155
10371SOL    HW132012   3.666   6.379   3.245
10371SOL    HW232013   3.695   6.517   3.163
10372SOL     OW32014   3.166   0.534   1.512
10372SOL    HW132015   3.196   0.523   1.607
10372SOL    HW232016   3.090   0.471   1.493
10373SOL     OW32017   0.314   0.442   5.148
10373SOL    HW132018   0.289   0.534   5.117
10373SOL    HW232019   0.261   0.374   5.098
10374SOL     OW32020   3.216   6.743   4.286
10374SOL    HW132021   3.156   6.714   4.360
10374SOL    HW232022   3.305   6.770   4.323
10375SOL     OW32023   3.097   2.752   6.391
10375SOL    HW132024   3.168   2.756   6.461
10375SOL    HW232025   3.051   2.663   6.395
10376SOL     OW32026   0.957   6.526   3.487
10376SOL    HW132027   1.056   6.539   3.489
10376SOL    HW232028   0.935   6.445   3.432
10377SOL     OW32029   0.169   1.800   1.646
10377SOL    HW132030   0.090   1.797   1.708
10377SOL    HW232031   0.253   1.808   1.700
10378SOL     OW32032   0.248   5.610   5.040
10378SOL    HW132033   0.217   5.646   5.128
10378SOL    HW232034   0.267   5.685   4.978
10379SOL     OW32035   2.643   6.727   4.051
10379SOL    HW132036   2.642   6.796   4.123
10379SOL    HW232037   2.727   6.674   4.057
10380SOL     OW32038   1.391   2.381   4.576
10380SOL    HW132039   1.323   2.438   4.621
10380SOL    HW232040   1.476   2.382   4.629
10381SOL     OW32041   3.977   4.188   1.652
10381SOL    HW132042   3.955   4.138   1.568
10381SOL    HW232043   4.025   4.273   1.629
10382SOL     OW32044   2.650   5.318   2.231
10382SOL    HW132045   2.611   5.270   2.310
10382SOL    HW232046   2.576   5.360   2.178
10383SOL     OW32047   1.862   4.644   0.112
10383SOL    HW132048   1.934   4.619   0.177
10383SOL    HW232049   1.901   4.703   0.040
10384SOL     OW32050   6.402   6.311   1.496
10384SOL    HW132051   6.495   6.276   1.510
10384SOL    HW232052   6.389   6.336   1.400
10385SOL     OW32053   3.405   5.074   5.942
10385SOL    HW132054   3.394   5.133   6.022
10385SOL    HW232055   3.493   5.026   5.947
10386SOL     OW32056   6.846   1.381   6.340
10386SOL    HW132057   6.810   1.376   6.247
10386SOL    HW232058   6.831   1.473   6.376
10387SOL     OW32059   5.495   2.715   3.538
10387SOL    HW132060   5.490   2.783   3.465
10387SOL    HW232061   5.544   2.634   3.503
10388SOL     OW32062   2.740   0.216   6.459
10388SOL    HW132063   2.815   0.272   6.423
10388SOL    HW232064   2.735   0.130   6.408
10389SOL     OW32065   6.527   3.995   0.206
10389SOL    HW132066   6.498   4.089   0.186
10389SOL    HW232067   6.624   3.994   0.231
10390SOL     OW32068   1.860   2.370   0.766
10390SOL    HW132069   1.947   2.418   0.754
10390SOL    HW232070   1.820   2.394   0.854
10391SOL     OW32071   1.045   6.276   3.332
10391SOL    HW132072   1.004   6.203   3.387
10391SOL    HW232073   1.144   6.265   3.330
10392SOL     OW32074   5.884   5.168   5.360
10392SOL    HW132075   5.826   5.108   5.305
10392SOL    HW232076   5.848   5.261   5.357
10393SOL     OW32077   1.866   3.582   3.786
10393SOL    HW132078   1.852   3.493   3.742
10393SOL    HW232079   1.963   3.594   3.808
10394SOL     OW32080   2.765   5.587   3.895
10394SOL    HW132081   2.784   5.583   3.994
10394SOL    HW232082   2.709   5.509   3.869
10395SOL     OW32083   0.388   6.284   1.404
10395SOL    HW132084   0.426   6.194   1.385
10395SOL    HW232085   0.458   6.354   1.389
10396SOL     OW32086   4.191   1.580   4.327
10396SOL    HW132087   4.272   1.524   4.308
10396SOL    HW232088   4.112   1.541   4.281
10397SOL     OW32089   3.518   1.870   2.771
10397SOL    HW132090   3.500   1.775   2.798
10397SOL    HW232091   3.616   1.884   2.761
10398SOL     OW32092   6.319   2.620   1.125
10398SOL    HW132093   6.237   2.666   1.090
10398SOL    HW232094   6.302   2.522   1.129
10399SOL     OW32095   5.268   2.149   3.633
10399SOL    HW132096   5.254   2.215   3.559
10399SOL    HW232097   5.362   2.114   3.629
10400SOL     OW32098   4.436   6.671   0.460
10400SOL    HW132099   4.342   6.679   0.494
10400SOL    HW232100   4.474   6.762   0.446
10401SOL     OW32101   6.686   0.401   3.463
10401SOL    HW132102   6.601   0.407   3.410
10401SOL    HW232103   6.665   0.374   3.557
10402SOL     OW32104   6.430   3.783   5.423
10402SOL    HW132105   6.390   3.743   5.506
10402SOL    HW232106   6.387   3.871   5.404
10403SOL     OW32107   4.531   0.975   3.851
10403SOL    HW132108   4.596   1.013   3.917
10403SOL    HW232109   4.447   0.948   3.899
10404SOL     OW32110   6.096   6.727   5.290
10404SOL    HW132111   6.122   6.632   5.271
10404SOL    HW232112   6.040   6.730   5.373
10405SOL     OW32113   0.430   1.544   5.161
10405SOL    HW132114   0.387   1.612   5.102
10405SOL    HW232115   0.487   1.591   5.229
10406SOL     OW32116   2.855   4.945   3.238
10406SOL    HW132117   2.883   4.979   3.149
10406SOL    HW232118   2.802   4.861   3.227
10407SOL     OW32119   3.108   6.867   5.925
10407SOL    HW132120   3.153   6.893   6.011
10407SOL    HW232121   3.090   6.949   5.871
10408SOL     OW32122   4.392   7.016   1.213
10408SOL    HW132123   4.492   7.015   1.220
10408SOL    HW232124   4.359   0.082   1.221
10409SOL     OW32125   0.242   4.583   1.149
10409SOL    HW132126   0.222   4.492   1.113
10409SOL    HW232127   0.252   4.578   1.248
10410SOL     OW32128   5.785   1.873   0.676
10410SOL    HW132129   5.689   1.887   0.652
10410SOL    HW232130   5.842   1.937   0.625
10411SOL     OW32131   3.729   6.653   3.388
10411SOL    HW132132   3.716   6.749   3.365
10411SOL    HW232133   3.803   6.644   3.454
10412SOL     OW32134   0.345   0.902   0.121
10412SOL    HW132135   0.317   0.806   0.113
10412SOL    HW232136   0.337   0.931   0.217
10413SOL     OW32137   6.595   2.967   0.916
10413SOL    HW132138   6.532   2.999   0.845
10413SOL    HW232139   6.557   2.885   0.960
10414SOL     OW32140   4.163   4.212   5.768
10414SOL    HW132141   4.112   4.284   5.720
10414SOL    HW232142   4.119   4.124   5.751
10415SOL     OW32143   1.076   3.732   4.618
10415SOL    HW132144   1.146   3.742   4.548
10415SOL    HW232145   1.101   3.658   4.681
10416SOL     OW32146   6.129   7.004   4.675
10416SOL    HW132147   6.066   7.021   4.599
10416SOL    HW232148   6.125   6.908   4.701
10417SOL     OW32149   3.067   5.358   4.425
10417SOL    HW132150   3.016   5.428   4.475
10417SOL    HW232151   3.065   5.272   4.476
10418SOL     OW32152   0.055   4.621   6.618
10418SOL    HW132153   0.077   4.683   6.542
10418SOL    HW232154   0.119   4.637   6.693
10419SOL     OW32155   1.652   7.014   6.350
10419SOL    HW132156   1.584   0.043   6.396
10419SOL    HW232157   1.738   7.017   6.400
10420SOL     OW32158   6.822   4.092   2.976
10420SOL    HW132159   6.765   4.009   2.985
10420SOL    HW232160   6.813   4.128   2.883
10421SOL     OW32161   0.369   1.481   3.449
10421SOL    HW132162   0.368   1.493   3.549
10421SOL    HW232163   0.436   1.411   3.424
10422SOL     OW32164   6.434   3.459   5.361
10422SOL    HW132165   6.472   3.395   5.427
10422SOL    HW232166   6.493   3.464   5.281
10423SOL     OW32167   6.052   5.395   4.758
10423SOL    HW132168   6.043   5.311   4.703
10423SOL    HW232169   5.975   5.402   4.820
10424SOL     OW32170   5.600   2.364   0.496
10424SOL    HW132171   5.634   2.311   0.573
10424SOL    HW232172   5.595   2.461   0.521
10425SOL     OW32173   0.884   6.968   1.633
10425SOL    HW132174   0.902   6.922   1.546
10425SOL    HW232175   0.922   6.913   1.707
10426SOL     OW32176   6.833   4.850   0.523
10426SOL    HW132177   6.812   4.812   0.613
10426SOL    HW232178   6.808   4.947   0.522
10427SOL     OW32179   3.449   0.843   6.943
10427SOL    HW132180   3.471   0.769   7.008
10427SOL    HW232181   3.468   0.931   6.986
10428SOL     OW32182   2.896   1.264   4.287
10428SOL    HW132183   2.886   1.299   4.194
10428SOL    HW232184   2.985   1.291   4.324
10429SOL     OW32185   6.948   5.104   0.712
10429SOL    HW132186   6.856   5.117   0.676
10429SOL    HW232187   6.946   5.034   0.784
10430SOL     OW32188   4.829   6.234   3.780
10430SOL    HW132189   4.871   6.155   3.825
10430SOL    HW232190   4.872   6.318   3.813
10431SOL     OW32191   3.251   5.808   3.903
10431SOL    HW132192   3.339   5.820   3.949
10431SOL    HW232193   3.264   5.750   3.822
10432SOL     OW32194   6.102   6.764   4.313
10432SOL    HW132195   6.044   6.824   4.258
10432SOL    HW232196   6.065   6.757   4.405
10433SOL     OW32197   2.042   6.521   1.445
10433SOL    HW132198   1.967   6.587   1.449
10433SOL    HW232199   2.041   6.473   1.358
10434SOL     OW32200   4.165   0.132   3.452
10434SOL    HW132201   4.236   0.064   3.470
10434SOL    HW232202   4.160   0.196   3.528
10435SOL     OW32203   0.197   0.276   4.824
10435SOL    HW132204   0.150   0.255   4.738
10435SOL    HW232205   0.132   0.270   4.900
10436SOL     OW32206   0.689   5.395   6.200
10436SOL    HW132207   0.711   5.335   6.122
10436SOL    HW232208   0.600   5.437   6.185
10437SOL     OW32209   6.414   5.223   6.118
10437SOL    HW132210   6.436   5.282   6.196
10437SOL    HW232211   6.344   5.157   6.145
10438SOL     OW32212   5.821   6.429   0.590
10438SOL    HW132213   5.808   6.337   0.553
10438SOL    HW232214   5.891   6.426   0.662
10439SOL     OW32215   3.681   1.222   6.505
10439SOL    HW132216   3.633   1.148   6.458
10439SOL    HW232217   3.734   1.184   6.581
10440SOL     OW32218   1.393   6.187   0.418
10440SOL    HW132219   1.427   6.108   0.367
10440SOL    HW232220   1.468   6.251   0.436
10441SOL     OW32221   3.991   0.823   0.170
10441SOL    HW132222   4.055   0.772   0.113
10441SOL    HW232223   3.900   0.820   0.129
10442SOL     OW32224   3.920   6.456   5.822
10442SOL    HW132225   3.962   6.458   5.731
10442SOL    HW232226   3.975   6.400   5.883
10443SOL     OW32227   4.978   4.012   4.942
10443SOL    HW132228   4.911   3.993   5.014
10443SOL    HW232229   5.012   4.105   4.952
10444SOL     OW32230   3.667   6.726   4.417
10444SOL    HW132231   3.624   6.661   4.355
10444SOL    HW232232   3.747   6.685   4.459
10445SOL     OW32233   1.337   5.664   4.283
10445SOL    HW132234   1.257   5.665   4.224
10445SOL    HW232235   1.387   5.750   4.274
10446SOL     OW32236   0.805   2.963   5.816
10446SOL    HW132237   0.782   2.887   5.876
10446SOL    HW232238   0.844   2.928   5.730
10447SOL     OW32239   0.306   0.955   2.097
10447SOL    HW132240   0.288   1.046   2.135
10447SOL    HW232241   0.313   0.889   2.172
10448SOL     OW32242   3.842   2.177   1.647
10448SOL    HW132243   3.875   2.270   1.665
10448SOL    HW232244   3.806   2.138   1.732
10449SOL     OW32245   2.575   5.343   4.546
10449SOL    HW132246   2.535   5.427   4.583
10449SOL    HW232247   2.631   5.299   4.616
10450SOL     OW32248   0.945   2.556   0.370
10450SOL    HW132249   0.872   2.566   0.438
10450SOL    HW232250   1.029   2.528   0.416
10451SOL     OW32251   1.915   4.965   3.087
10451SOL    HW132252   1.963   4.999   3.168
10451SOL    HW232253   1.820   4.944   3.112
10452SOL     OW32254   5.967   3.822   3.500
10452SOL    HW132255   6.063   3.795   3.495
10452SOL    HW232256   5.954   3.908   3.451
10453SOL     OW32257   4.990   5.794   1.649
10453SOL    HW132258   5.011   5.885   1.684
10453SOL    HW232259   4.892   5.777   1.656
10454SOL     OW32260   4.298   3.011   0.974
10454SOL    HW132261   4.306   3.070   0.894
10454SOL    HW232262   4.283   3.066   1.056
10455SOL     OW32263   6.613   5.655   2.543
10455SOL    HW132264   6.644   5.717   2.471
10455SOL    HW232265   6.693   5.618   2.592
10456SOL     OW32266   3.333   6.264   1.262
10456SOL    HW132267   3.352   6.307   1.173
10456SOL    HW232268   3.236   6.275   1.283
10457SOL     OW32269   3.323   2.976   3.086
10457SOL    HW132270   3.310   2.886   3.046
10457SOL    HW232271   3.300   3.046   3.019
10458SOL     OW32272   0.005   0.820   6.484
10458SOL    HW132273   6.973   0.871   6.423
10458SOL    HW232274   6.985   0.796   6.568
10459SOL     OW32275   5.480   4.828   2.620
10459SOL    HW132276   5.383   4.843   2.638
10459SOL    HW232277   5.513   4.896   2.555
10460SOL     OW32278   1.718   5.560   1.197
10460SOL    HW132279   1.743   5.580   1.102
10460SOL    HW232280   1.802   5.545   1.250
10461SOL     OW32281   1.477   6.096   5.019
10461SOL    HW132282   1.378   6.089   5.007
10461SOL    HW232283   1.507   6.189   4.999
10462SOL     OW32284   5.549   1.988   2.549
10462SOL    HW132285   5.600   1.980   2.635
10462SOL    HW232286   5.558   1.903   2.497
10463SOL     OW32287   3.882   2.657   5.665
10463SOL    HW132288   3.813   2.645   5.736
10463SOL    HW232289   3.857   2.601   5.586
10464SOL     OW32290   5.392   6.923   0.861
10464SOL    HW132291   5.448   6.860   0.915
10464SOL    HW232292   5.367   6.880   0.774
10465SOL     OW32293   6.152   6.834   1.008
10465SOL    HW132294   6.211   6.914   1.015
10465SOL    HW232295   6.088   6.833   1.084
10466SOL     OW32296   4.390   5.017   5.272
10466SOL    HW132297   4.359   5.098   5.223
10466SOL    HW232298   4.334   5.004   5.354
10467SOL     OW32299   0.832   2.087   5.000
10467SOL    HW132300   0.830   2.165   5.062
10467SOL    HW232301   0.849   2.003   5.053
10468SOL     OW32302   3.489   4.978   3.118
10468SOL    HW132303   3.389   4.981   3.112
10468SOL    HW232304   3.516   4.961   3.213
10469SOL     OW32305   3.555   2.587   6.845
10469SOL    HW132306   3.504   2.654   6.899
10469SOL    HW232307   3.521   2.587   6.751
10470SOL     OW32308   2.500   1.681   3.398
10470SOL    HW132309   2.404   1.703   3.415
10470SOL    HW232310   2.538   1.745   3.331
10471SOL     OW32311   2.258   3.477   1.122
10471SOL    HW132312   2.339   3.419   1.125
10471SOL    HW232313   2.248   3.526   1.209
10472SOL     OW32314   3.508   6.243   0.840
10472SOL    HW132315   3.574   6.169   0.852
10472SOL    HW232316   3.499   6.293   0.927
10473SOL     OW32317   5.654   0.054   0.848
10473SOL    HW132318   5.598   7.001   0.834
10473SOL    HW232319   5.658   0.107   0.763
10474SOL     OW32320   4.844   0.832   4.808
10474SOL    HW132321   4.902   0.831   4.890
10474SOL    HW232322   4.901   0.847   4.727
10475SOL     OW32323   4.612   6.116   1.930
10475SOL    HW132324   4.579   6.081   1.843
10475SOL    HW232325   4.708   6.145   1.920
10476SOL     OW32326   6.981   5.238   6.451
10476SOL    HW132327   6.882   5.229   6.438
10476SOL    HW232328   7.028   5.175   6.389
10477SOL     OW32329   5.900   2.297   4.781
10477SOL    HW132330   5.982   2.251   4.747
10477SOL    HW232331   5.881   2.265   4.874
10478SOL     OW32332   0.422   0.430   0.481
10478SOL    HW132333   0.416   0.345   0.427
10478SOL    HW232334   0.445   0.506   0.421
10479SOL     OW32335   0.607   2.651   2.002
10479SOL    HW132336   0.696   2.631   2.044
10479SOL    HW232337   0.583   2.577   1.939
10480SOL     OW32338   6.255   0.570   0.990
10480SOL    HW132339   6.309   0.496   0.950
10480SOL    HW232340   6.188   0.603   0.924
10481SOL     OW32341   2.306   1.088   5.533
10481SOL    HW132342   2.297   1.115   5.437
10481SOL    HW232343   2.313   0.989   5.540
10482SOL     OW32344   0.576   5.955   4.737
10482SOL    HW132345   0.661   5.997   4.706
10482SOL    HW232346   0.508   6.027   4.753
10483SOL     OW32347   6.944   5.208   0.242
10483SOL    HW132348   6.927   5.306   0.233
10483SOL    HW232349   6.947   5.166   0.151
10484SOL     OW32350   6.866   0.645   0.460
10484SOL    HW132351   6.782   0.621   0.509
10484SOL    HW232352   6.906   0.727   0.502
10485SOL     OW32353   3.811   3.313   2.919
10485SOL    HW132354   3.817   3.319   2.820
10485SOL    HW232355   3.800   3.404   2.958
10486SOL     OW32356   6.171   1.028   5.917
10486SOL    HW132357   6.189   1.027   5.819
10486SOL    HW232358   6.258   1.026   5.967
10487SOL     OW32359   4.463   2.117   1.443
10487SOL    HW132360   4.468   2.197   1.383
10487SOL    HW232361   4.430   2.038   1.391
10488SOL     OW32362   1.652   2.443   5.860
10488SOL    HW132363   1.555   2.466   5.868
10488SOL    HW232364   1.691   2.490   5.781
10489SOL     OW32365   5.516   6.132   4.044
10489SOL    HW132366   5.447   6.185   3.994
10489SOL    HW232367   5.595   6.190   4.063
10490SOL     OW32368   5.787   0.876   0.489
10490SOL    HW132369   5.755   0.951   0.546
10490SOL    HW232370   5.887   0.870   0.494
10491SOL     OW32371   2.408   2.876   6.185
10491SOL    HW132372   2.461   2.793   6.202
10491SOL    HW232373   2.349   2.894   6.263
10492SOL     OW32374   3.770   5.859   0.583
10492SOL    HW132375   3.869   5.868   0.590
10492SOL    HW232376   3.744   5.764   0.597
10493SOL     OW32377   3.097   5.680   1.527
10493SOL    HW132378   3.197   5.676   1.524
10493SOL    HW232379   3.065   5.642   1.614
10494SOL     OW32380   6.962   4.105   5.618
10494SOL    HW132381   6.875   4.099   5.569
10494SOL    HW232382   0.009   4.109   5.552
10495SOL     OW32383   6.397   6.042   0.242
10495SOL    HW132384   6.386   6.135   0.208
10495SOL    HW232385   6.319   5.987   0.214
10496SOL     OW32386   6.011   4.250   5.029
10496SOL    HW132387   6.053   4.300   5.104
10496SOL    HW232388   5.913   4.272   5.025
10497SOL     OW32389   1.137   0.088   1.675
10497SOL    HW132390   1.188   0.002   1.686
10497SOL    HW232391   1.042   0.067   1.651
10498SOL     OW32392   5.163   6.070   1.195
10498SOL    HW132393   5.123   6.147   1.146
10498SOL    HW232394   5.092   6.002   1.216
10499SOL     OW32395   5.103   6.372   0.963
10499SOL    HW132396   5.172   6.438   0.995
10499SOL    HW232397   5.046   6.344   1.041
10500SOL     OW32398   5.369   2.848   5.383
10500SOL    HW132399   5.302   2.905   5.335
10500SOL    HW232400   5.434   2.810   5.316
10501SOL     OW32401   2.459   5.874   2.758
10501SOL    HW132402   2.482   5.956   2.708
10501SOL    HW232403   2.392   5.820   2.706
10502SOL     OW32404   2.494   3.336   1.223
10502SOL    HW132405   2.541   3.417   1.188
10502SOL    HW232406   2.462   3.354   1.316
10503SOL     OW32407   6.474   4.084   6.952
10503SOL    HW132408   6.448   4.155   7.018
10503SOL    HW232409   6.393   4.033   6.924
10504SOL     OW32410   0.810   2.719   5.966
10504SOL    HW132411   0.819   2.660   5.885
10504SOL    HW232412   0.726   2.695   6.015
10505SOL     OW32413   5.396   6.010   2.034
10505SOL    HW132414   5.495   6.009   2.015
10505SOL    HW232415   5.363   5.917   2.042
10506SOL     OW32416   0.668   3.572   0.130
10506SOL    HW132417   0.647   3.484   0.086
10506SOL    HW232418   0.683   3.558   0.228
10507SOL     OW32419   1.868   5.386   0.021
10507SOL    HW132420   1.892   5.477   0.053
10507SOL    HW232421   1.779   5.360   0.057
10508SOL     OW32422   1.247   5.792   3.593
10508SOL    HW132423   1.296   5.737   3.661
10508SOL    HW232424   1.264   5.755   3.502
10509SOL     OW32425   5.671   4.120   4.517
10509SOL    HW132426   5.600   4.137   4.449
10509SOL    HW232427   5.757   4.159   4.486
10510SOL     OW32428   4.633   6.845   6.467
10510SOL    HW132429   4.558   6.848   6.533
10510SOL    HW232430   4.706   6.787   6.503
10511SOL     OW32431   2.603   1.524   2.248
10511SOL    HW132432   2.626   1.621   2.237
10511SOL    HW232433   2.580   1.484   2.160
10512SOL     OW32434   4.090   6.990   5.694
10512SOL    HW132435   4.088   0.045   5.749
10512SOL    HW232436   4.116   7.013   5.600
10513SOL     OW32437   6.471   2.766   2.917
10513SOL    HW132438   6.484   2.838   2.848
10513SOL    HW232439   6.558   2.745   2.961
10514SOL     OW32440   1.861   1.893   1.568
10514SOL    HW132441   1.892   1.973   1.516
10514SOL    HW232442   1.842   1.818   1.505
10515SOL     OW32443   2.706   2.158   3.611
10515SOL    HW132444   2.767   2.079   3.599
10515SOL    HW232445   2.612   2.130   3.593
10516SOL     OW32446   2.698   1.810   6.937
10516SOL    HW132447   2.702   1.736   6.870
10516SOL    HW232448   2.787   1.819   6.982
10517SOL     OW32449   1.728   4.588   1.631
10517SOL    HW132450   1.793   4.663   1.620
10517SOL    HW232451   1.660   4.592   1.558
10518SOL     OW32452   0.020   5.381   2.040
10518SOL    HW132453   0.100   5.325   2.061
10518SOL    HW232454   7.019   5.365   1.946
10519SOL     OW32455   2.974   4.652   1.259
10519SOL    HW132456   2.948   4.575   1.318
10519SOL    HW232457   2.921   4.648   1.174
10520SOL     OW32458   7.024   1.829   6.142
10520SOL    HW132459   6.995   1.869   6.228
10520SOL    HW232460   0.078   1.876   6.109
10521SOL     OW32461   6.219   4.628   1.769
10521SOL    HW132462   6.206   4.694   1.696
10521SOL    HW232463   6.313   4.633   1.802
10522SOL     OW32464   0.317   2.131   3.182
10522SOL    HW132465   0.413   2.104   3.170
10522SOL    HW232466   0.310   2.230   3.179
10523SOL     OW32467   0.143   4.414   3.594
10523SOL    HW132468   0.218   4.391   3.532
10523SOL    HW232469   0.131   4.513   3.596
10524SOL     OW32470   0.075   5.940   4.206
10524SOL    HW132471   0.022   5.918   4.123
10524SOL    HW232472   0.037   6.021   4.249
10525SOL     OW32473   3.897   0.210   5.106
10525SOL    HW132474   3.848   0.157   5.037
10525SOL    HW232475   3.930   0.295   5.066
10526SOL     OW32476   0.548   6.291   1.107
10526SOL    HW132477   0.545   6.243   1.195
10526SOL    HW232478   0.636   6.336   1.096
10527SOL     OW32479   0.502   0.461   6.069
10527SOL    HW132480   0.461   0.516   5.996
10527SOL    HW232481   0.601   0.478   6.070
10528SOL     OW32482   0.762   4.174   6.880
10528SOL    HW132483   0.820   4.255   6.868
10528SOL    HW232484   0.819   4.094   6.896
10529SOL     OW32485   1.582   6.058   4.727
10529SOL    HW132486   1.543   5.998   4.657
10529SOL    HW232487   1.511   6.119   4.762
10530SOL     OW32488   1.074   6.440   5.937
10530SOL    HW132489   1.104   6.359   5.887
10530SOL    HW232490   1.153   6.493   5.966
10531SOL     OW32491   2.696   2.391   4.144
10531SOL    HW132492   2.669   2.306   4.097
10531SOL    HW232493   2.627   2.414   4.212
10532SOL     OW32494   5.804   6.725   6.827
10532SOL    HW132495   5.775   6.736   6.732
10532SOL    HW232496   5.858   6.642   6.836
10533SOL     OW32497   3.344   5.860   4.330
10533SOL    HW132498   3.378   5.848   4.423
10533SOL    HW232499   3.400   5.808   4.266
10534SOL     OW32500   6.980   5.943   2.172
10534SOL    HW132501   6.897   5.887   2.169
10534SOL    HW232502   0.025   5.891   2.218
10535SOL     OW32503   2.332   1.416   1.493
10535SOL    HW132504   2.270   1.338   1.493
10535SOL    HW232505   2.290   1.492   1.444
10536SOL     OW32506   4.438   6.892   3.897
10536SOL    HW132507   4.470   6.956   3.826
10536SOL    HW232508   4.470   6.800   3.876
10537SOL     OW32509   4.900   6.625   3.729
10537SOL    HW132510   4.956   6.705   3.706
10537SOL    HW232511   4.857   6.590   3.646
10538SOL     OW32512   5.632   3.980   2.479
10538SOL    HW132513   5.641   4.027   2.566
10538SOL    HW232514   5.682   3.894   2.482
10539SOL     OW32515   6.037   5.297   1.502
10539SOL    HW132516   6.036   5.390   1.466
10539SOL    HW232517   6.126   5.255   1.482
10540SOL     OW32518   2.389   4.303   6.206
10540SOL    HW132519   2.481   4.311   6.165
10540SOL    HW232520   2.356   4.393   6.232
10541SOL     OW32521   3.442   2.965   4.117
10541SOL    HW132522   3.538   2.959   4.089
10541SOL    HW232523   3.430   2.920   4.205
10542SOL     OW32524   6.711   0.233   4.370
10542SOL    HW132525   6.633   0.173   4.354
10542SOL    HW232526   6.796   0.186   4.344
10543SOL     OW32527   0.560   2.557   5.331
10543SOL    HW132528   0.529   2.544   5.237
10543SOL    HW232529   0.518   2.640   5.369
10544SOL     OW32530   1.955   6.802   3.540
10544SOL    HW132531   1.959   6.715   3.590
10544SOL    HW232532   1.869   6.848   3.561
10545SOL     OW32533   0.936   2.962   2.132
10545SOL    HW132534   0.994   3.035   2.096
10545SOL    HW232535   0.945   2.957   2.231
10546SOL     OW32536   3.478   6.036   1.278
10546SOL    HW132537   3.428   5.958   1.239
10546SOL    HW232538   3.419   6.117   1.275
10547SOL     OW32539   5.074   0.871   4.281
10547SOL    HW132540   5.001   0.920   4.330
10547SOL    HW232541   5.096   0.921   4.197
10548SOL     OW32542   0.714   4.573   4.831
10548SOL    HW132543   0.780   4.633   4.786
10548SOL    HW232544   0.647   4.540   4.764
10549SOL     OW32545   0.471   1.700   0.637
10549SOL    HW132546   0.509   1.670   0.549
10549SOL    HW232547   0.545   1.707   0.704
10550SOL     OW32548   4.149   6.473   3.017
10550SOL    HW132549   4.155   6.544   3.088
10550SOL    HW232550   4.072   6.493   2.956
10551SOL     OW32551   2.493   1.842   6.149
10551SOL    HW132552   2.450   1.772   6.091
10551SOL    HW232553   2.587   1.815   6.169
10552SOL     OW32554   2.344   0.470   5.104
10552SOL    HW132555   2.380   0.483   5.012
10552SOL    HW232556   2.247   0.491   5.106
10553SOL     OW32557   6.811   4.557   0.920
10553SOL    HW132558   6.850   4.475   0.879
10553SOL    HW232559   6.877   4.598   0.983
10554SOL     OW32560   5.946   5.168   2.401
10554SOL    HW132561   5.900   5.228   2.335
10554SOL    HW232562   5.911   5.075   2.391
10555SOL     OW32563   3.144   2.285   0.846
10555SOL    HW132564   3.181   2.290   0.938
10555SOL    HW232565   3.063   2.344   0.839
10556SOL     OW32566   2.684   1.392   3.755
10556SOL    HW132567   2.660   1.407   3.851
10556SOL    HW232568   2.656   1.300   3.728
10557SOL     OW32569   1.681   3.247   4.459
10557SOL    HW132570   1.594   3.272   4.502
10557SOL    HW232571   1.743   3.210   4.528
10558SOL     OW32572   2.971   5.198   5.786
10558SOL    HW132573   2.924   5.124   5.833
10558SOL    HW232574   2.912   5.234   5.713
10559SOL     OW32575   3.469   1.237   0.762
10559SOL    HW132576   3.554   1.190   0.735
10559SOL    HW232577   3.489   1.301   0.836
10560SOL     OW32578   4.323   6.317   1.926
10560SOL    HW132579   4.374   6.317   2.012
10560SOL    HW232580   4.305   6.223   1.898
10561SOL     OW32581   3.694   4.964   1.711
10561SOL    HW132582   3.735   5.029   1.775
10561SOL    HW232583   3.766   4.909   1.669
10562SOL     OW32584   3.336   5.999   0.447
10562SOL    HW132585   3.244   5.965   0.430
10562SOL    HW232586   3.361   5.982   0.543
10563SOL     OW32587   1.177   0.506   1.172
10563SOL    HW132588   1.259   0.542   1.217
10563SOL    HW232589   1.155   0.561   1.092
10564SOL     OW32590   6.363   5.868   3.790
10564SOL    HW132591   6.452   5.823   3.777
10564SOL    HW232592   6.360   5.952   3.736
10565SOL     OW32593   6.514   6.690   5.628
10565SOL    HW132594   6.577   6.696   5.706
10565SOL    HW232595   6.525   6.771   5.570
10566SOL     OW32596   3.005   2.641   0.441
10566SOL    HW132597   2.949   2.710   0.487
10566SOL    HW232598   2.969   2.550   0.460
10567SOL     OW32599   2.116   2.475   5.669
10567SOL    HW132600   2.088   2.512   5.581
10567SOL    HW232601   2.039   2.477   5.733
10568SOL     OW32602   6.119   2.577   6.939
10568SOL    HW132603   6.063   2.511   6.988
10568SOL    HW232604   6.061   2.649   6.902
10569SOL     OW32605   5.325   0.998   1.819
10569SOL    HW132606   5.405   1.027   1.766
10569SOL    HW232607   5.272   1.078   1.846
10570SOL     OW32608   1.696   4.954   3.718
10570SOL    HW132609   1.686   4.915   3.627
10570SOL    HW232610   1.750   5.038   3.713
10571SOL     OW32611   0.430   4.053   6.072
10571SOL    HW132612   0.344   4.063   6.022
10571SOL    HW232613   0.488   4.133   6.055
10572SOL     OW32614   6.868   4.866   1.867
10572SOL    HW132615   6.947   4.862   1.805
10572SOL    HW232616   6.896   4.908   1.953
10573SOL     OW32617   4.906   0.559   5.101
10573SOL    HW132618   4.943   0.470   5.127
10573SOL    HW232619   4.878   0.556   5.005
10574SOL     OW32620   6.877   1.254   3.774
10574SOL    HW132621   6.807   1.269   3.843
10574SOL    HW232622   6.958   1.309   3.796
10575SOL     OW32623   6.091   0.391   3.799
10575SOL    HW132624   6.017   0.459   3.803
10575SOL    HW232625   6.156   0.418   3.728
10576SOL     OW32626   1.264   5.462   2.767
10576SOL    HW132627   1.312   5.464   2.680
10576SOL    HW232628   1.287   5.377   2.816
10577SOL     OW32629   2.366   5.399   0.477
10577SOL    HW132630   2.342   5.318   0.423
10577SOL    HW232631   2.388   5.475   0.415
10578SOL     OW32632   5.374   1.193   3.097
10578SOL    HW132633   5.467   1.228   3.092
10578SOL    HW232634   5.366   1.128   3.173
10579SOL     OW32635   2.980   3.708   1.456
10579SOL    HW132636   3.001   3.805   1.464
10579SOL    HW232637   3.029   3.657   1.527
10580SOL     OW32638   6.390   6.529   6.156
10580SOL    HW132639   6.378   6.618   6.202
10580SOL    HW232640   6.392   6.457   6.225
10581SOL     OW32641   4.851   0.090   2.810
10581SOL    HW132642   4.881   0.185   2.825
10581SOL    HW232643   4.878   0.034   2.888
10582SOL     OW32644   5.663   4.697   6.763
10582SOL    HW132645   5.676   4.773   6.827
10582SOL    HW232646   5.621   4.730   6.679
10583SOL     OW32647   3.796   0.208   3.939
10583SOL    HW132648   3.732   0.185   4.012
10583SOL    HW232649   3.783   0.303   3.912
10584SOL     OW32650   6.319   0.510   6.716
10584SOL    HW132651   6.292   0.469   6.629
10584SOL    HW232652   6.287   0.604   6.721
10585SOL     OW32653   1.615   1.856   5.868
10585SOL    HW132654   1.560   1.938   5.858
10585SOL    HW232655   1.594   1.792   5.793
10586SOL     OW32656   4.863   4.538   5.520
10586SOL    HW132657   4.960   4.528   5.541
10586SOL    HW232658   4.809   4.507   5.598
10587SOL     OW32659   0.251   5.728   6.101
10587SOL    HW132660   0.274   5.663   6.173
10587SOL    HW232661   0.295   5.816   6.118
10588SOL     OW32662   2.008   2.146   5.328
10588SOL    HW132663   2.035   2.083   5.400
10588SOL    HW232664   1.921   2.189   5.351
10589SOL     OW32665   5.046   6.283   4.243
10589SOL    HW132666   5.060   6.207   4.179
10589SOL    HW232667   5.078   6.368   4.202
10590SOL     OW32668   0.411   5.926   1.588
10590SOL    HW132669   0.326   5.938   1.537
10590SOL    HW232670   0.478   5.880   1.530
10591SOL     OW32671   2.262   1.742   1.436
10591SOL    HW132672   2.347   1.745   1.383
10591SOL    HW232673   2.191   1.792   1.387
10592SOL     OW32674   5.760   2.522   4.177
10592SOL    HW132675   5.662   2.535   4.196
10592SOL    HW232676   5.812   2.539   4.260
10593SOL     OW32677   1.325   6.437   0.810
10593SOL    HW132678   1.343   6.339   0.816
10593SOL    HW232679   1.394   6.480   0.751
10594SOL     OW32680   4.048   1.516   3.226
10594SOL    HW132681   4.004   1.475   3.306
10594SOL    HW232682   4.010   1.607   3.211
10595SOL     OW32683   6.129   0.463   0.222
10595SOL    HW132684   6.211   0.506   0.259
10595SOL    HW232685   6.087   0.524   0.154
10596SOL     OW32686   5.021   1.620   6.920
10596SOL    HW132687   4.991   1.657   7.008
10596SOL    HW232688   5.090   1.681   6.881
10597SOL     OW32689   2.696   0.691   5.823
10597SOL    HW132690   2.656   0.724   5.909
10597SOL    HW232691   2.668   0.597   5.808
10598SOL     OW32692   2.981   2.379   6.944
10598SOL    HW132693   2.920   2.446   6.988
10598SOL    HW232694   2.946   2.287   6.960
10599SOL     OW32695   6.526   4.316   6.282
10599SOL    HW132696   6.463   4.338   6.356
10599SOL    HW232697   6.588   4.243   6.311
10600SOL     OW32698   4.034   1.322   1.405
10600SOL    HW132699   3.950   1.335   1.457
10600SOL    HW232700   4.093   1.402   1.417
10601SOL     OW32701   0.606   5.964   5.332
10601SOL    HW132702   0.581   5.907   5.411
10601SOL    HW232703   0.670   5.913   5.274
10602SOL     OW32704   0.906   1.070   0.848
10602SOL    HW132705   0.849   1.136   0.898
10602SOL    HW232706   0.996   1.066   0.891
10603SOL     OW32707   4.969   6.697   3.106
10603SOL    HW132708   5.016   6.785   3.101
10603SOL    HW232709   4.884   6.701   3.052
10604SOL     OW32710   0.374   6.158   4.800
10604SOL    HW132711   0.310   6.092   4.761
10604SOL    HW232712   0.325   6.219   4.862
10605SOL     OW32713   1.876   6.896   6.461
10605SOL    HW132714   1.929   6.874   6.378
10605SOL    HW232715   1.909   6.840   6.537
10606SOL     OW32716   6.814   0.658   1.826
10606SOL    HW132717   6.749   0.675   1.900
10606SOL    HW232718   6.777   0.694   1.740
10607SOL     OW32719   4.209   4.356   0.489
10607SOL    HW132720   4.287   4.302   0.456
10607SOL    HW232721   4.203   4.350   0.588
10608SOL     OW32722   6.675   3.546   3.311
10608SOL    HW132723   6.670   3.587   3.219
10608SOL    HW232724   6.585   3.510   3.336
10609SOL     OW32725   2.678   6.406   0.487
10609SOL    HW132726   2.634   6.469   0.422
10609SOL    HW232727   2.777   6.413   0.478
10610SOL     OW32728   6.867   2.398   4.693
10610SOL    HW132729   6.849   2.408   4.791
10610SOL    HW232730   6.963   2.419   4.674
10611SOL     OW32731   2.749   5.526   5.879
10611SOL    HW132732   2.785   5.619   5.885
10611SOL    HW232733   2.681   5.521   5.806
10612SOL     OW32734   5.384   1.389   4.417
10612SOL    HW132735   5.433   1.398   4.330
10612SOL    HW232736   5.288   1.414   4.403
10613SOL     OW32737   5.637   6.009   4.434
10613SOL    HW132738   5.672   5.932   4.381
10613SOL    HW232739   5.578   6.065   4.376
10614SOL     OW32740   5.229   1.047   4.703
10614SOL    HW132741   5.297   1.088   4.763
10614SOL    HW232742   5.142   1.096   4.712
10615SOL     OW32743   3.984   1.024   5.595
10615SOL    HW132744   3.926   0.984   5.524
10615SOL    HW232745   4.066   1.063   5.552
10616SOL     OW32746   2.787   6.229   6.393
10616SOL    HW132747   2.836   6.265   6.313
10616SOL    HW232748   2.806   6.132   6.403
10617SOL     OW32749   2.449   4.627   1.539
10617SOL    HW132750   2.394   4.709   1.555
10617SOL    HW232751   2.535   4.634   1.589
10618SOL     OW32752   0.739   5.336   4.821
10618SOL    HW132753   0.826   5.292   4.844
10618SOL    HW232754   0.666   5.268   4.818
10619SOL     OW32755   0.302   2.408   3.203
10619SOL    HW132756   0.372   2.437   3.269
10619SOL    HW232757   0.212   2.436   3.236
10620SOL     OW32758   1.389   0.105   5.088
10620SOL    HW132759   1.352   0.015   5.065
10620SOL    HW232760   1.329   0.149   5.154
10621SOL     OW32761   0.713   4.454   1.954
10621SOL    HW132762   0.748   4.406   1.874
10621SOL    HW232763   0.773   4.530   1.977
10622SOL     OW32764   4.560   2.496   1.218
10622SOL    HW132765   4.626   2.510   1.292
10622SOL    HW232766   4.467   2.503   1.254
10623SOL     OW32767   5.894   6.251   5.041
10623SOL    HW132768   5.850   6.327   5.090
10623SOL    HW232769   5.923   6.282   4.950
10624SOL     OW32770   0.298   3.129   4.443
10624SOL    HW132771   0.361   3.198   4.477
10624SOL    HW232772   0.218   3.173   4.402
10625SOL     OW32773   0.619   3.907   1.635
10625SOL    HW132774   0.601   3.819   1.678
10625SOL    HW232775   0.717   3.915   1.615
10626SOL     OW32776   3.361   3.049   1.459
10626SOL    HW132777   3.297   3.123   1.443
10626SOL    HW232778   3.312   2.970   1.496
10627SOL     OW32779   6.009   1.122   6.681
10627SOL    HW132780   6.036   1.218   6.684
10627SOL    HW232781   5.916   1.114   6.643
10628SOL     OW32782   4.581   0.263   0.660
10628SOL    HW132783   4.604   0.271   0.757
10628SOL    HW232784   4.656   0.218   0.611
10629SOL     OW32785   3.404   5.067   4.977
10629SOL    HW132786   3.478   5.134   4.985
10629SOL    HW232787   3.321   5.113   4.944
10630SOL     OW32788   5.644   1.159   2.328
10630SOL    HW132789   5.605   1.069   2.346
10630SOL    HW232790   5.604   1.196   2.244
10631SOL     OW32791   4.010   4.440   5.729
10631SOL    HW132792   3.911   4.452   5.743
10631SOL    HW232793   4.055   4.429   5.817
10632SOL     OW32794   4.829   5.962   3.150
10632SOL    HW132795   4.782   6.017   3.219
10632SOL    HW232796   4.909   5.918   3.191
10633SOL     OW32797   2.643   2.410   1.957
10633SOL    HW132798   2.735   2.395   1.992
10633SOL    HW232799   2.638   2.500   1.914
10634SOL     OW32800   1.565   5.394   0.597
10634SOL    HW132801   1.538   5.315   0.542
10634SOL    HW232802   1.609   5.362   0.681
10635SOL     OW32803   2.184   3.072   0.266
10635SOL    HW132804   2.096   3.026   0.254
10635SOL    HW232805   2.184   3.120   0.354
10636SOL     OW32806   0.040   1.773   0.862
10636SOL    HW132807   6.977   1.752   0.897
10636SOL    HW232808   0.047   1.871   0.843
10637SOL     OW32809   1.731   5.770   6.064
10637SOL    HW132810   1.727   5.848   6.127
10637SOL    HW232811   1.746   5.686   6.115
10638SOL     OW32812   5.471   6.312   2.216
10638SOL    HW132813   5.404   6.368   2.263
10638SOL    HW232814   5.482   6.225   2.264
10639SOL     OW32815   1.810   3.511   2.221
10639SOL    HW132816   1.763   3.474   2.141
10639SOL    HW232817   1.907   3.491   2.215
10640SOL     OW32818   4.996   0.784   3.285
10640SOL    HW132819   4.940   0.719   3.234
10640SOL    HW232820   5.056   0.735   3.348
10641SOL     OW32821   2.243   1.623   3.990
10641SOL    HW132822   2.170   1.621   4.058
10641SOL    HW232823   2.260   1.530   3.957
10642SOL     OW32824   6.007   2.003   0.243
10642SOL    HW132825   5.918   1.960   0.235
10642SOL    HW232826   6.079   1.934   0.236
10643SOL     OW32827   2.127   6.230   4.566
10643SOL    HW132828   2.186   6.308   4.544
10643SOL    HW232829   2.056   6.259   4.631
10644SOL     OW32830   5.909   3.429   1.060
10644SOL    HW132831   5.958   3.457   1.142
10644SOL    HW232832   5.814   3.407   1.084
10645SOL     OW32833   2.192   2.745   3.632
10645SOL    HW132834   2.268   2.743   3.697
10645SOL    HW232835   2.108   2.771   3.679
10646SOL     OW32836   5.902   0.656   5.552
10646SOL    HW132837   5.808   0.624   5.553
10646SOL    HW232838   5.935   0.668   5.645
10647SOL     OW32839   3.218   5.239   4.882
10647SOL    HW132840   3.161   5.230   4.800
10647SOL    HW232841   3.199   5.326   4.927
10648SOL     OW32842   5.902   5.449   6.715
10648SOL    HW132843   5.963   5.444   6.795
10648SOL    HW232844   5.807   5.443   6.745
10649SOL     OW32845   0.982   3.696   3.301
10649SOL    HW132846   1.043   3.721   3.225
10649SOL    HW232847   0.953   3.779   3.348
10650SOL     OW32848   0.661   0.285   4.236
10650SOL    HW132849   0.748   0.331   4.256
10650SOL    HW232850   0.608   0.276   4.321
10651SOL     OW32851   6.266   5.973   6.434
10651SOL    HW132852   6.180   5.995   6.388
10651SOL    HW232853   6.272   5.875   6.446
10652SOL     OW32854   2.043   7.011   5.716
10652SOL    HW132855   1.967   6.970   5.666
10652SOL    HW232856   2.123   7.016   5.657
10653SOL     OW32857   3.952   5.999   5.010
10653SOL    HW132858   3.870   5.947   5.032
10653SOL    HW232859   4.015   5.998   5.089
10654SOL     OW32860   4.868   1.196   5.571
10654SOL    HW132861   4.881   1.097   5.564
10654SOL    HW232862   4.797   1.216   5.639
10655SOL     OW32863   1.655   4.471   0.232
10655SOL    HW132864   1.685   4.458   0.327
10655SOL    HW232865   1.688   4.558   0.198
10656SOL     OW32866   6.632   1.160   2.420
10656SOL    HW132867   6.641   1.098   2.342
10656SOL    HW232868   6.567   1.233   2.398
10657SOL     OW32869   6.253   0.607   4.727
10657SOL    HW132870   6.222   0.683   4.785
10657SOL    HW232871   6.271   0.527   4.784
10658SOL     OW32872   5.997   4.284   4.758
10658SOL    HW132873   6.001   4.281   4.858
10658SOL    HW232874   6.061   4.353   4.724
10659SOL     OW32875   0.945   4.607   0.609
10659SOL    HW132876   0.916   4.670   0.537
10659SOL    HW232877   0.954   4.515   0.569
10660SOL     OW32878   5.984   4.087   5.481
10660SOL    HW132879   5.934   4.063   5.564
10660SOL    HW232880   5.941   4.165   5.437
10661SOL     OW32881   1.842   5.929   0.777
10661SOL    HW132882   1.926   5.941   0.830
10661SOL    HW232883   1.864   5.913   0.681
10662SOL     OW32884   4.319   0.759   2.688
10662SOL    HW132885   4.413   0.742   2.658
10662SOL    HW232886   4.318   0.836   2.752
10663SOL     OW32887   0.747   1.016   2.802
10663SOL    HW132888   0.681   0.942   2.793
10663SOL    HW232889   0.766   1.055   2.712
10664SOL     OW32890   6.805   4.678   5.348
10664SOL    HW132891   6.729   4.618   5.322
10664SOL    HW232892   6.774   4.773   5.346
10665SOL     OW32893   1.930   2.541   6.933
10665SOL    HW132894   1.917   2.640   6.927
10665SOL    HW232895   1.912   2.500   6.844
10666SOL     OW32896   2.991   3.882   2.779
10666SOL    HW132897   2.902   3.928   2.781
10666SOL    HW232898   3.014   3.857   2.685
10667SOL     OW32899   4.810   1.838   3.913
10667SOL    HW132900   4.760   1.860   3.996
10667SOL    HW232901   4.811   1.739   3.899
10668SOL     OW32902   3.115   1.113   4.988
10668SOL    HW132903   3.169   1.090   4.908
10668SOL    HW232904   3.044   1.044   5.001
10669SOL     OW32905   6.641   0.535   0.820
10669SOL    HW132906   6.650   0.608   0.888
10669SOL    HW232907   6.638   0.575   0.728
10670SOL     OW32908   5.707   4.840   4.781
10670SOL    HW132909   5.647   4.783   4.724
10670SOL    HW232910   5.691   4.936   4.761
10671SOL     OW32911   1.667   1.956   4.191
10671SOL    HW132912   1.680   1.861   4.220
10671SOL    HW232913   1.607   2.003   4.256
10672SOL     OW32914   6.565   4.329   2.424
10672SOL    HW132915   6.495   4.331   2.353
10672SOL    HW232916   6.599   4.421   2.441
10673SOL     OW32917   0.720   0.434   0.624
10673SOL    HW132918   0.669   0.462   0.705
10673SOL    HW232919   0.727   0.511   0.561
10674SOL     OW32920   4.010   3.873   4.497
10674SOL    HW132921   3.930   3.934   4.500
10674SOL    HW232922   4.057   3.884   4.410
10675SOL     OW32923   2.492   0.391   6.657
10675SOL    HW132924   2.469   0.414   6.563
10675SOL    HW232925   2.539   0.468   6.700
10676SOL     OW32926   0.493   6.458   4.935
10676SOL    HW132927   0.455   6.545   4.968
10676SOL    HW232928   0.462   6.384   4.995
10677SOL     OW32929   1.905   0.856   1.171
10677SOL    HW132930   1.807   0.865   1.183
10677SOL    HW232931   1.924   0.789   1.098
10678SOL     OW32932   4.168   5.067   4.080
10678SOL    HW132933   4.261   5.063   4.118
10678SOL    HW232934   4.135   4.974   4.065
10679SOL     OW32935   3.685   5.654   6.185
10679SOL    HW132936   3.589   5.626   6.190
10679SOL    HW232937   3.737   5.609   6.258
10680SOL     OW32938   3.652   2.073   3.717
10680SOL    HW132939   3.636   2.025   3.803
10680SOL    HW232940   3.566   2.080   3.667
10681SOL     OW32941   6.903   3.741   0.378
10681SOL    HW132942   6.876   3.710   0.287
10681SOL    HW232943   6.852   3.823   0.402
10682SOL     OW32944   0.108   2.754   5.435
10682SOL    HW132945   0.116   2.756   5.335
10682SOL    HW232946   0.087   2.846   5.468
10683SOL     OW32947   4.708   0.718   3.824
10683SOL    HW132948   4.693   0.807   3.866
10683SOL    HW232949   4.633   0.698   3.760
10684SOL     OW32950   4.266   5.090   2.433
10684SOL    HW132951   4.302   5.137   2.514
10684SOL    HW232952   4.227   5.156   2.370
10685SOL     OW32953   0.255   5.995   1.185
10685SOL    HW132954   0.257   5.979   1.086
10685SOL    HW232955   0.344   5.970   1.224
10686SOL     OW32956   1.116   4.139   5.847
10686SOL    HW132957   1.151   4.184   5.765
10686SOL    HW232958   1.152   4.045   5.851
10687SOL     OW32959   6.168   5.221   4.023
10687SOL    HW132960   6.152   5.133   4.068
10687SOL    HW232961   6.258   5.256   4.050
10688SOL     OW32962   5.787   3.341   3.060
10688SOL    HW132963   5.847   3.276   3.012
10688SOL    HW232964   5.776   3.423   3.004
10689SOL     OW32965   6.407   0.280   2.562
10689SOL    HW132966   6.402   0.229   2.648
10689SOL    HW232967   6.478   0.350   2.568
10690SOL     OW32968   0.201   5.639   3.517
10690SOL    HW132969   0.189   5.557   3.462
10690SOL    HW232970   0.183   5.720   3.460
10691SOL     OW32971   1.487   2.036   2.099
10691SOL    HW132972   1.523   1.965   2.159
10691SOL    HW232973   1.554   2.056   2.028
10692SOL     OW32974   2.357   0.375   3.724
10692SOL    HW132975   2.411   0.318   3.661
10692SOL    HW232976   2.410   0.456   3.749
10693SOL     OW32977   1.748   6.364   1.558
10693SOL    HW132978   1.722   6.388   1.651
10693SOL    HW232979   1.807   6.283   1.560
10694SOL     OW32980   5.373   5.889   6.738
10694SOL    HW132981   5.463   5.931   6.751
10694SOL    HW232982   5.382   5.811   6.676
10695SOL     OW32983   1.376   2.345   2.660
10695SOL    HW132984   1.414   2.384   2.576
10695SOL    HW232985   1.354   2.418   2.724
10696SOL     OW32986   6.340   4.268   3.918
10696SOL    HW132987   6.274   4.248   3.846
10696SOL    HW232988   6.350   4.188   3.977
10697SOL     OW32989   0.524   0.284   5.406
10697SOL    HW132990   0.500   0.187   5.392
10697SOL    HW232991   0.440   0.338   5.417
10698SOL     OW32992   4.913   4.772   6.935
10698SOL    HW132993   5.012   4.778   6.940
10698SOL    HW232994   4.872   4.861   6.956
10699SOL     OW32995   3.916   4.636   1.741
10699SOL    HW132996   3.951   4.557   1.690
10699SOL    HW232997   3.877   4.702   1.677
10700SOL     OW32998   5.515   6.159   0.671
10700SOL    HW132999   5.526   6.060   0.667
10700SOL    HW233000   5.489   6.185   0.765
10701SOL     OW33001   2.214   6.742   5.582
10701SOL    HW133002   2.189   6.752   5.679
10701SOL    HW233003   2.313   6.730   5.574
10702SOL     OW33004   5.819   3.146   2.297
10702SOL    HW133005   5.761   3.209   2.348
10702SOL    HW233006   5.912   3.149   2.335
10703SOL     OW33007   2.734   3.012   5.380
10703SOL    HW133008   2.656   3.000   5.318
10703SOL    HW233009   2.798   2.936   5.367
10704SOL     OW33010   6.154   5.175   1.994
10704SOL    HW133011   6.093   5.106   2.033
10704SOL    HW233012   6.126   5.194   1.900
10705SOL     OW33013   6.406   4.993   1.602
10705SOL    HW133014   6.409   4.951   1.693
10705SOL    HW233015   6.499   5.005   1.569
10706SOL     OW33016   4.815   0.587   3.192
10706SOL    HW133017   4.721   0.620   3.185
10706SOL    HW233018   4.817   0.507   3.252
10707SOL     OW33019   0.322   6.782   4.633
10707SOL    HW133020   0.319   6.696   4.583
10707SOL    HW233021   0.367   6.768   4.722
10708SOL     OW33022   3.696   1.540   1.225
10708SOL    HW133023   3.688   1.612   1.156
10708SOL    HW233024   3.759   1.570   1.296
10709SOL     OW33025   5.783   5.691   5.472
10709SOL    HW133026   5.820   5.775   5.432
10709SOL    HW233027   5.792   5.695   5.572
10710SOL     OW33028   6.467   0.995   4.274
10710SOL    HW133029   6.371   1.022   4.272
10710SOL    HW233030   6.515   1.046   4.346
10711SOL     OW33031   1.992   6.220   3.765
10711SOL    HW133032   1.963   6.126   3.786
10711SOL    HW233033   1.977   6.277   3.845
10712SOL     OW33034   2.872   0.532   1.960
10712SOL    HW133035   2.826   0.488   1.883
10712SOL    HW233036   2.813   0.604   1.998
10713SOL     OW33037   0.762   3.420   1.170
10713SOL    HW133038   0.809   3.384   1.089
10713SOL    HW233039   0.673   3.377   1.179
10714SOL     OW33040   5.518   3.623   5.163
10714SOL    HW133041   5.470   3.588   5.244
10714SOL    HW233042   5.452   3.664   5.100
10715SOL     OW33043   4.553   0.481   2.129
10715SOL    HW133044   4.489   0.415   2.168
10715SOL    HW233045   4.512   0.572   2.131
10716SOL     OW33046   5.779   1.850   3.970
10716SOL    HW133047   5.704   1.797   4.010
10716SOL    HW233048   5.769   1.946   3.996
10717SOL     OW33049   1.087   2.520   0.969
10717SOL    HW133050   1.109   2.612   0.935
10717SOL    HW233051   1.163   2.458   0.946
10718SOL     OW33052   0.842   3.572   6.942
10718SOL    HW133053   0.935   3.597   6.968
10718SOL    HW233054   0.784   3.572   7.024
10719SOL     OW33055   6.892   5.655   2.617
10719SOL    HW133056   6.902   5.596   2.537
10719SOL    HW233057   6.972   5.645   2.676
10720SOL     OW33058   0.284   4.640   5.313
10720SOL    HW133059   0.233   4.595   5.386
10720SOL    HW233060   0.248   4.732   5.298
10721SOL     OW33061   5.375   4.203   4.850
10721SOL    HW133062   5.357   4.183   4.947
10721SOL    HW233063   5.417   4.124   4.807
10722SOL     OW33064   1.139   5.015   6.697
10722SOL    HW133065   1.130   4.925   6.656
10722SOL    HW233066   1.087   5.082   6.643
10723SOL     OW33067   0.768   3.129   6.029
10723SOL    HW133068   0.690   3.191   6.020
10723SOL    HW233069   0.780   3.079   5.943
10724SOL     OW33070   6.466   1.525   0.053
10724SOL    HW133071   6.506   1.435   0.037
10724SOL    HW233072   6.490   1.556   0.145
10725SOL     OW33073   1.670   5.414   4.237
10725SOL    HW133074   1.595   5.432   4.301
10725SOL    HW233075   1.640   5.347   4.169
10726SOL     OW33076   5.405   0.146   4.963
10726SOL    HW133077   5.310   0.175   4.949
10726SOL    HW233078   5.444   0.196   5.041
10727SOL     OW33079   0.471   4.983   5.384
10727SOL    HW133080   0.389   5.022   5.427
10727SOL    HW233081   0.487   4.891   5.419
10728SOL     OW33082   0.303   5.829   6.482
10728SOL    HW133083   0.354   5.750   6.450
10728SOL    HW233084   0.352   5.913   6.457
10729SOL     OW33085   5.439   1.988   2.069
10729SOL    HW133086   5.340   1.998   2.059
10729SOL    HW233087   5.470   2.045   2.145
10730SOL     OW33088   2.003   1.088   1.059
10730SOL    HW133089   1.967   1.011   1.111
10730SOL    HW233090   2.085   1.123   1.105
10731SOL     OW33091   3.320   6.592   0.689
10731SOL    HW133092   3.373   6.650   0.750
10731SOL    HW233093   3.260   6.533   0.742
10732SOL     OW33094   5.984   4.876   4.632
10732SOL    HW133095   6.022   4.851   4.543
10732SOL    HW233096   5.891   4.841   4.640
10733SOL     OW33097   6.388   1.787   0.953
10733SOL    HW133098   6.300   1.832   0.940
10733SOL    HW233099   6.448   1.808   0.877
10734SOL     OW33100   0.583   0.482   0.248
10734SOL    HW133101   0.677   0.462   0.219
10734SOL    HW233102   0.532   0.521   0.171
10735SOL     OW33103   0.548   2.891   3.473
10735SOL    HW133104   0.501   2.809   3.507
10735SOL    HW233105   0.581   2.944   3.551
10736SOL     OW33106   1.310   0.392   3.457
10736SOL    HW133107   1.213   0.387   3.481
10736SOL    HW233108   1.319   0.425   3.363
10737SOL     OW33109   1.629   1.901   0.870
10737SOL    HW133110   1.613   1.941   0.961
10737SOL    HW233111   1.727   1.884   0.859
10738SOL     OW33112   2.553   0.554   3.376
10738SOL    HW133113   2.458   0.570   3.349
10738SOL    HW233114   2.590   0.639   3.415
10739SOL     OW33115   1.314   1.590   0.841
10739SOL    HW133116   1.270   1.655   0.902
10739SOL    HW233117   1.310   1.498   0.881
10740SOL     OW33118   0.034   4.917   4.810
10740SOL    HW133119   6.991   4.985   4.791
10740SOL    HW233120   0.008   4.864   4.891
10741SOL     OW33121   5.822   0.632   1.154
10741SOL    HW133122   5.819   0.635   1.254
10741SOL    HW233123   5.742   0.583   1.119
10742SOL     OW33124   5.668   0.422   0.786
10742SOL    HW133125   5.643   0.455   0.877
10742SOL    HW233126   5.626   0.482   0.717
10743SOL     OW33127   2.669   1.204   5.585
10743SOL    HW133128   2.682   1.111   5.619
10743SOL    HW233129   2.588   1.244   5.628
10744SOL     OW33130   3.847   1.662   1.457
10744SOL    HW133131   3.873   1.577   1.503
10744SOL    HW233132   3.760   1.694   1.494
10745SOL     OW33133   0.233   5.964   6.726
10745SOL    HW133134   0.282   6.050   6.742
10745SOL    HW233135   0.263   5.925   6.639
10746SOL     OW33136   2.175   4.719   1.293
10746SOL    HW133137   2.254   4.779   1.281
10746SOL    HW233138   2.091   4.772   1.286
10747SOL     OW33139   3.609   1.482   4.522
10747SOL    HW133140   3.600   1.428   4.605
10747SOL    HW233141   3.559   1.437   4.448
10748SOL     OW33142   5.069   0.803   0.980
10748SOL    HW133143   5.132   0.872   0.944
10748SOL    HW233144   5.008   0.772   0.906
10749SOL     OW33145   0.713   5.190   2.752
10749SOL    HW133146   0.711   5.123   2.677
10749SOL    HW233147   0.788   5.254   2.738
10750SOL     OW33148   4.034   5.919   4.747
10750SOL    HW133149   4.032   5.942   4.844
10750SOL    HW233150   3.943   5.932   4.708
10751SOL     OW33151   1.821   4.092   4.909
10751SOL    HW133152   1.830   4.182   4.866
10751SOL    HW233153   1.777   4.101   4.998
10752SOL     OW33154   6.254   4.026   6.369
10752SOL    HW133155   6.167   4.019   6.320
10752SOL    HW233156   6.264   3.948   6.430
10753SOL     OW33157   4.635   5.749   4.435
10753SOL    HW133158   4.568   5.789   4.372
10753SOL    HW233159   4.652   5.654   4.410
10754SOL     OW33160   0.949   1.138   2.974
10754SOL    HW133161   0.928   1.217   2.915
10754SOL    HW233162   0.892   1.061   2.947
10755SOL     OW33163   6.292   1.050   6.353
10755SOL    HW133164   6.364   1.116   6.376
10755SOL    HW233165   6.225   1.048   6.426
10756SOL     OW33166   6.773   4.803   0.167
10756SOL    HW133167   6.723   4.716   0.163
10756SOL    HW233168   6.865   4.791   0.131
10757SOL     OW33169   2.465   3.015   0.551
10757SOL    HW133170   2.445   3.100   0.600
10757SOL    HW233171   2.477   3.034   0.454
10758SOL     OW33172   0.370   6.517   4.213
10758SOL    HW133173   0.377   6.571   4.297
10758SOL    HW233174   0.438   6.444   4.214
10759SOL     OW33175   1.884   3.112   1.227
10759SOL    HW133176   1.932   3.121   1.140
10759SOL    HW233177   1.882   3.016   1.254
10760SOL     OW33178   5.937   1.511   2.105
10760SOL    HW133179   5.928   1.441   2.034
10760SOL    HW233180   5.881   1.485   2.184
10761SOL     OW33181   0.984   6.610   6.184
10761SOL    HW133182   0.924   6.686   6.209
10761SOL    HW233183   0.949   6.565   6.102
10762SOL     OW33184   3.829   2.136   4.278
10762SOL    HW133185   3.829   2.192   4.195
10762SOL    HW233186   3.764   2.173   4.343
10763SOL     OW33187   5.254   6.456   2.339
10763SOL    HW133188   5.158   6.481   2.345
10763SOL    HW233189   5.308   6.538   2.316
10764SOL     OW33190   4.850   2.436   5.817
10764SOL    HW133191   4.806   2.347   5.832
10764SOL    HW233192   4.920   2.450   5.887
10765SOL     OW33193   5.283   2.188   0.217
10765SOL    HW133194   5.288   2.098   0.174
10765SOL    HW233195   5.375   2.227   0.223
10766SOL     OW33196   4.980   3.844   0.277
10766SOL    HW133197   5.018   3.872   0.365
10766SOL    HW233198   4.997   3.747   0.263
10767SOL     OW33199   1.304   0.829   0.205
10767SOL    HW133200   1.239   0.904   0.190
10767SOL    HW233201   1.367   0.823   0.127
10768SOL     OW33202   4.757   4.321   1.859
10768SOL    HW133203   4.797   4.235   1.889
10768SOL    HW233204   4.669   4.335   1.906
10769SOL     OW33205   2.643   4.037   5.323
10769SOL    HW133206   2.560   4.011   5.274
10769SOL    HW233207   2.654   4.136   5.320
10770SOL     OW33208   5.673   0.405   4.952
10770SOL    HW133209   5.722   0.490   4.937
10770SOL    HW233210   5.638   0.402   5.045
10771SOL     OW33211   5.988   0.150   3.681
10771SOL    HW133212   6.012   0.221   3.747
10771SOL    HW233213   5.911   0.097   3.716
10772SOL     OW33214   5.784   6.827   4.169
10772SOL    HW133215   5.776   6.790   4.076
10772SOL    HW233216   5.793   6.752   4.234
10773SOL     OW33217   6.490   5.863   6.920
10773SOL    HW133218   6.497   5.825   7.012
10773SOL    HW233219   6.519   5.794   6.854
10774SOL     OW33220   2.993   1.373   6.742
10774SOL    HW133221   2.920   1.319   6.700
10774SOL    HW233222   3.024   1.443   6.678
10775SOL     OW33223   0.487   4.676   1.571
10775SOL    HW133224   0.552   4.743   1.605
10775SOL    HW233225   0.482   4.599   1.634
10776SOL     OW33226   6.833   0.770   6.718
10776SOL    HW133227   6.911   0.825   6.748
10776SOL    HW233228   6.826   0.687   6.774
10777SOL     OW33229   3.829   5.469   2.886
10777SOL    HW133230   3.915   5.520   2.889
10777SOL    HW233231   3.843   5.381   2.840
10778SOL     OW33232   5.825   0.049   4.241
10778SOL    HW133233   5.914   0.062   4.286
10778SOL    HW233234   5.818   6.983   4.206
10779SOL     OW33235   6.382   3.413   3.641
10779SOL    HW133236   6.403   3.503   3.678
10779SOL    HW233237   6.297   3.416   3.589
10780SOL     OW33238   2.197   1.039   3.613
10780SOL    HW133239   2.252   1.121   3.597
10780SOL    HW233240   2.242   0.983   3.683
10781SOL     OW33241   4.613   1.132   4.389
10781SOL    HW133242   4.604   1.098   4.482
10781SOL    HW233243   4.603   1.231   4.388
10782SOL     OW33244   6.346   1.891   1.540
10782SOL    HW133245   6.417   1.842   1.590
10782SOL    HW233246   6.273   1.918   1.603
10783SOL     OW33247   0.290   2.804   3.114
10783SOL    HW133248   0.281   2.903   3.107
10783SOL    HW233249   0.242   2.760   3.038
10784SOL     OW33250   3.712   6.528   4.007
10784SOL    HW133251   3.696   6.448   3.949
10784SOL    HW233252   3.656   6.604   3.974
10785SOL     OW33253   0.041   4.676   1.003
10785SOL    HW133254   0.051   4.672   0.903
10785SOL    HW233255   0.108   4.615   1.045
10786SOL     OW33256   5.711   4.491   3.283
10786SOL    HW133257   5.724   4.521   3.378
10786SOL    HW233258   5.613   4.476   3.266
10787SOL     OW33259   2.435   1.335   5.183
10787SOL    HW133260   2.506   1.329   5.253
10787SOL    HW233261   2.450   1.415   5.126
10788SOL     OW33262   1.892   4.473   5.857
10788SOL    HW133263   1.947   4.411   5.913
10788SOL    HW233264   1.943   4.557   5.840
10789SOL     OW33265   6.774   2.900   6.678
10789SOL    HW133266   6.743   2.839   6.751
10789SOL    HW233267   6.852   2.859   6.631
10790SOL     OW33268   1.021   0.289   1.916
10790SOL    HW133269   0.996   0.386   1.909
10790SOL    HW233270   1.095   0.269   1.852
10791SOL     OW33271   6.663   0.050   1.651
10791SOL    HW133272   6.749   0.094   1.678
10791SOL    HW233273   6.633   7.017   1.724
10792SOL     OW33274   3.144   3.764   4.705
10792SOL    HW133275   3.127   3.862   4.696
10792SOL    HW233276   3.080   3.725   4.771
10793SOL     OW33277   5.398   3.109   4.544
10793SOL    HW133278   5.350   3.110   4.457
10793SOL    HW233279   5.436   3.200   4.562
10794SOL     OW33280   3.253   3.218   4.167
10794SOL    HW133281   3.218   3.146   4.226
10794SOL    HW233282   3.225   3.200   4.073
10795SOL     OW33283   6.709   5.190   1.852
10795SOL    HW133284   6.653   5.253   1.906
10795SOL    HW233285   6.665   5.100   1.849
10796SOL     OW33286   5.700   0.469   5.909
10796SOL    HW133287   5.698   0.460   6.009
10796SOL    HW233288   5.769   0.407   5.871
10797SOL     OW33289   3.089   2.267   1.410
10797SOL    HW133290   3.178   2.225   1.394
10797SOL    HW233291   3.064   2.258   1.506
10798SOL     OW33292   2.667   0.369   0.092
10798SOL    HW133293   2.672   0.302   0.018
10798SOL    HW233294   2.715   0.333   0.172
10799SOL     OW33295   4.088   1.189   1.885
10799SOL    HW133296   4.081   1.174   1.786
10799SOL    HW233297   4.042   1.275   1.908
10800SOL     OW33298   6.972   6.468   6.134
10800SOL    HW133299   7.005   6.522   6.211
10800SOL    HW233300   6.919   6.390   6.168
10801SOL     OW33301   0.803   6.399   5.953
10801SOL    HW133302   0.893   6.390   5.911
10801SOL    HW233303   0.812   6.386   6.052
10802SOL     OW33304   0.892   0.342   2.704
10802SOL    HW133305   0.903   0.417   2.638
10802SOL    HW233306   0.806   0.293   2.685
10803SOL     OW33307   2.212   5.085   6.306
10803SOL    HW133308   2.249   5.004   6.260
10803SOL    HW233309   2.286   5.132   6.355
10804SOL     OW33310   5.722   3.357   2.419
10804SOL    HW133311   5.700   3.388   2.511
10804SOL    HW233312   5.720   3.435   2.356
10805SOL     OW33313   4.768   6.234   6.247
10805SOL    HW133314   4.744   6.301   6.177
10805SOL    HW233315   4.733   6.264   6.336
10806SOL     OW33316   4.490   4.284   6.610
10806SOL    HW133317   4.411   4.311   6.555
10806SOL    HW233318   4.486   4.186   6.628
10807SOL     OW33319   1.449   6.885   2.487
10807SOL    HW133320   1.471   6.901   2.391
10807SOL    HW233321   1.517   6.824   2.527
10808SOL     OW33322   0.004   2.968   6.028
10808SOL    HW133323   6.952   2.919   6.062
10808SOL    HW233324   0.014   2.951   5.930
10809SOL     OW33325   2.844   4.905   3.702
10809SOL    HW133326   2.776   4.905   3.629
10809SOL    HW233327   2.798   4.888   3.790
10810SOL     OW33328   1.304   0.221   3.820
10810SOL    HW133329   1.305   0.172   3.732
10810SOL    HW233330   1.394   0.260   3.837
10811SOL     OW33331   4.481   4.833   5.963
10811SOL    HW133332   4.432   4.886   6.032
10811SOL    HW233333   4.563   4.794   6.005
10812SOL     OW33334   0.710   3.827   0.867
10812SOL    HW133335   0.726   3.897   0.937
10812SOL    HW233336   0.637   3.858   0.805
10813SOL     OW33337   1.705   4.106   6.501
10813SOL    HW133338   1.769   4.161   6.447
10813SOL    HW233339   1.679   4.025   6.449
10814SOL     OW33340   1.665   6.754   6.288
10814SOL    HW133341   1.632   6.764   6.194
10814SOL    HW233342   1.677   6.844   6.329
10815SOL     OW33343   5.240   3.852   3.265
10815SOL    HW133344   5.227   3.769   3.210
10815SOL    HW233345   5.270   3.827   3.357
10816SOL     OW33346   3.334   3.845   3.161
10816SOL    HW133347   3.415   3.786   3.155
10816SOL    HW233348   3.313   3.862   3.258
10817SOL     OW33349   4.416   0.263   3.311
10817SOL    HW133350   4.422   0.164   3.325
10817SOL    HW233351   4.353   0.302   3.378
10818SOL     OW33352   4.681   4.540   5.303
10818SOL    HW133353   4.723   4.551   5.393
10818SOL    HW233354   4.750   4.554   5.232
10819SOL     OW33355   6.527   5.357   6.326
10819SOL    HW133356   6.594   5.355   6.252
10819SOL    HW233357   6.565   5.311   6.406
10820SOL     OW33358   7.024   5.020   4.254
10820SOL    HW133359   0.039   4.977   4.175
10820SOL    HW233360   6.995   4.950   4.319
10821SOL     OW33361   4.758   0.081   3.911
10821SOL    HW133362   4.731   0.040   3.824
10821SOL    HW233363   4.858   0.085   3.917
10822SOL     OW33364   6.334   2.133   3.072
10822SOL    HW133365   6.404   2.167   3.136
10822SOL    HW233366   6.256   2.196   3.071
10823SOL     OW33367   1.060   0.840   1.800
10823SOL    HW133368   1.077   0.777   1.724
10823SOL    HW233369   1.133   0.831   1.867
10824SOL     OW33370   6.916   1.205   2.701
10824SOL    HW133371   6.927   1.274   2.631
10824SOL    HW233372   7.006   1.176   2.735
10825SOL     OW33373   2.051   1.999   6.284
10825SOL    HW133374   2.046   2.099   6.286
10825SOL    HW233375   2.096   1.969   6.201
10826SOL     OW33376   0.520   2.413   3.372
10826SOL    HW133377   0.462   2.423   3.453
10826SOL    HW233378   0.601   2.358   3.395
10827SOL     OW33379   0.062   3.371   4.614
10827SOL    HW133380   0.058   3.371   4.514
10827SOL    HW233381   0.138   3.428   4.645
10828SOL     OW33382   1.375   4.534   0.937
10828SOL    HW133383   1.275   4.530   0.943
10828SOL    HW233384   1.401   4.538   0.840
10829SOL     OW33385   4.582   2.872   0.364
10829SOL    HW133386   4.676   2.840   0.373
10829SOL    HW233387   4.524   2.797   0.330
10830SOL     OW33388   4.458   1.919   3.027
10830SOL    HW133389   4.407   1.846   2.983
10830SOL    HW233390   4.441   1.918   3.126
10831SOL     OW33391   3.048   6.549   2.855
10831SOL    HW133392   3.012   6.497   2.778
10831SOL    HW233393   3.148   6.552   2.848
10832SOL     OW33394   0.591   3.414   6.096
10832SOL    HW133395   0.563   3.397   6.001
10832SOL    HW233396   0.662   3.484   6.098
10833SOL     OW33397   0.518   1.058   1.955
10833SOL    HW133398   0.443   1.005   1.995
10833SOL    HW233399   0.593   0.997   1.930
10834SOL     OW33400   6.800   1.643   0.605
10834SOL    HW133401   6.775   1.616   0.512
10834SOL    HW233402   6.839   1.735   0.604
10835SOL     OW33403   5.905   2.342   0.401
10835SOL    HW133404   5.807   2.347   0.418
10835SOL    HW233405   5.944   2.434   0.400
10836SOL     OW33406   6.496   1.367   4.896
10836SOL    HW133407   6.530   1.348   4.803
10836SOL    HW233408   6.566   1.417   4.947
10837SOL     OW33409   6.406   5.334   1.142
10837SOL    HW133410   6.329   5.280   1.175
10837SOL    HW233411   6.463   5.279   1.080
10838SOL     OW33412   6.759   6.198   3.660
10838SOL    HW133413   6.726   6.279   3.611
10838SOL    HW233414   6.859   6.202   3.666
10839SOL     OW33415   4.513   3.273   1.667
10839SOL    HW133416   4.427   3.225   1.652
10839SOL    HW233417   4.553   3.244   1.754
10840SOL     OW33418   3.239   6.454   2.533
10840SOL    HW133419   3.318   6.393   2.538
10840SOL    HW233420   3.262   6.532   2.475
10841SOL     OW33421   6.521   4.953   5.571
10841SOL    HW133422   6.582   4.930   5.648
10841SOL    HW233423   6.438   4.898   5.577
10842SOL     OW33424   5.081   2.097   1.317
10842SOL    HW133425   4.982   2.105   1.333
10842SOL    HW233426   5.125   2.185   1.334
10843SOL     OW33427   1.228   1.531   1.263
10843SOL    HW133428   1.157   1.542   1.193
10843SOL    HW233429   1.302   1.596   1.246
10844SOL     OW33430   0.545   5.937   3.157
10844SOL    HW133431   0.453   5.959   3.188
10844SOL    HW233432   0.611   5.992   3.208
10845SOL     OW33433   3.566   6.662   5.445
10845SOL    HW133434   3.561   6.625   5.538
10845SOL    HW233435   3.661   6.661   5.414
10846SOL     OW33436   5.773   0.799   0.199
10846SOL    HW133437   5.762   0.844   0.288
10846SOL    HW233438   5.870   0.782   0.182
10847SOL     OW33439   3.312   2.850   0.256
10847SOL    HW133440   3.271   2.895   0.336
10847SOL    HW233441   3.411   2.841   0.270
10848SOL     OW33442   2.349   3.930   0.912
10848SOL    HW133443   2.418   3.886   0.854
10848SOL    HW233444   2.332   3.872   0.991
10849SOL     OW33445   2.504   4.478   3.992
10849SOL    HW133446   2.438   4.404   4.010
10849SOL    HW233447   2.520   4.485   3.894
10850SOL     OW33448   2.486   6.597   5.896
10850SOL    HW133449   2.497   6.528   5.825
10850SOL    HW233450   2.562   6.591   5.960
10851SOL     OW33451   2.431   3.566   0.754
10851SOL    HW133452   2.420   3.573   0.655
10851SOL    HW233453   2.348   3.527   0.794
10852SOL     OW33454   1.119   0.340   7.014
10852SOL    HW133455   1.137   0.337   6.915
10852SOL    HW233456   1.137   0.432   0.020
10853SOL     OW33457   1.780   2.789   5.153
10853SOL    HW133458   1.823   2.864   5.102
10853SOL    HW233459   1.786   2.705   5.099
10854SOL     OW33460   4.800   4.848   5.600
10854SOL    HW133461   4.836   4.759   5.574
10854SOL    HW233462   4.702   4.841   5.616
10855SOL     OW33463   3.750   1.341   0.971
10855SOL    HW133464   3.823   1.340   0.902
10855SOL    HW233465   3.783   1.302   1.056
10856SOL     OW33466   5.154   1.172   0.325
10856SOL    HW133467   5.118   1.155   0.417
10856SOL    HW233468   5.081   1.166   0.258
10857SOL     OW33469   0.465   1.870   2.889
10857SOL    HW133470   0.366   1.867   2.900
10857SOL    HW233471   0.510   1.832   2.970
10858SOL     OW33472   0.763   1.371   0.003
10858SOL    HW133473   0.759   1.319   6.946
10858SOL    HW233474   0.808   1.458   7.015
10859SOL     OW33475   1.059   4.359   4.661
10859SOL    HW133476   1.115   4.302   4.601
10859SOL    HW233477   1.110   4.441   4.687
10860SOL     OW33478   0.218   3.347   4.960
10860SOL    HW133479   0.303   3.388   4.994
10860SOL    HW233480   0.234   3.309   4.869
10861SOL     OW33481   3.334   3.895   4.002
10861SOL    HW133482   3.347   3.797   3.991
10861SOL    HW233483   3.240   3.913   4.033
10862SOL     OW33484   2.084   1.335   6.505
10862SOL    HW133485   2.039   1.424   6.514
10862SOL    HW233486   2.092   1.292   6.595
10863SOL     OW33487   3.309   1.035   3.759
10863SOL    HW133488   3.298   1.016   3.857
10863SOL    HW233489   3.272   1.126   3.739
10864SOL     OW33490   2.269   6.539   0.285
10864SOL    HW133491   2.208   6.591   0.225
10864SOL    HW233492   2.356   6.588   0.294
10865SOL     OW33493   0.087   1.685   1.245
10865SOL    HW133494   0.005   1.632   1.230
10865SOL    HW233495   0.080   1.772   1.196
10866SOL     OW33496   5.602   4.142   0.487
10866SOL    HW133497   5.596   4.042   0.480
10866SOL    HW233498   5.510   4.180   0.495
10867SOL     OW33499   3.768   3.644   7.007
10867SOL    HW133500   3.769   3.646   0.079
10867SOL    HW233501   3.726   3.559   6.976
10868SOL     OW33502   5.091   1.251   3.714
10868SOL    HW133503   5.150   1.235   3.634
10868SOL    HW233504   5.144   1.295   3.786
10869NA      NA33505   6.455   3.001   5.492
10870NA      NA33506   4.476   4.595   5.179
10871NA      NA33507   1.778   2.957   2.119
10872NA      NA33508   5.099   3.829   4.845
10873NA      NA33509   4.220   2.372   5.291
10874NA      NA33510   3.475   4.888   1.818
10875NA      NA33511   6.981   4.789   0.364
10876NA      NA33512   3.577   3.521   4.512
10877NA      NA33513   4.957   6.170   0.099
10878NA      NA33514   3.472   6.615   5.210
10879NA      NA33515   5.924   5.298   1.740
10880NA      NA33516   2.098   0.105   4.065
10881NA      NA33517   3.715   5.346   2.530
10882NA      NA33518   3.815   3.897   2.333
   7.02812   7.02812   7.02812
