Generated by trjconv : CNT in water t= 196.00000
33518
    1C        C    1   2.846   2.772   4.749
    1C        C    2   2.898   2.720   4.870
    1C        C    3   2.845   2.773   4.988
    1C        C    4   2.854   2.778   4.264
    1C        C    5   2.907   2.730   4.386
    1C        C    6   2.845   2.770   4.507
    1C        C    7   3.015   2.642   4.626
    1C        C    8   2.896   2.719   4.628
    1C        C    9   3.080   2.608   4.746
    1C        C   10   3.011   2.635   4.867
    1C        C   11   3.181   2.495   4.976
    1C        C   12   3.056   2.559   4.975
    1C        C   13   2.856   2.775   3.776
    1C        C   14   2.910   2.725   3.897
    1C        C   15   2.860   2.777   4.018
    1C        C   16   3.023   2.647   4.141
    1C        C   17   2.907   2.729   4.143
    1C        C   18   3.085   2.611   4.263
    1C        C   19   3.022   2.648   4.384
    1C        C   20   3.210   2.554   4.504
    1C        C   21   3.079   2.606   4.506
    1C        C   22   3.279   2.536   4.626
    1C        C   23   3.212   2.554   4.749
    1C        C   24   3.416   2.490   4.866
    1C        C   25   3.275   2.513   4.870
    1C        C   26   3.491   2.486   4.985
    1C        C   27   2.854   2.772   3.284
    1C        C   28   2.908   2.729   3.407
    1C        C   29   2.859   2.777   3.530
    1C        C   30   3.025   2.647   3.650
    1C        C   31   2.911   2.731   3.654
    1C        C   32   3.083   2.606   3.772
    1C        C   33   3.023   2.640   3.895
    1C        C   34   3.211   2.551   4.019
    1C        C   35   3.081   2.607   4.019
    1C        C   36   3.284   2.539   4.140
    1C        C   37   3.217   2.562   4.262
    1C        C   38   3.421   2.505   4.386
    1C        C   39   3.283   2.536   4.384
    1C        C   40   3.492   2.502   4.508
    1C        C   41   3.416   2.504   4.627
    1C        C   42   3.633   2.485   4.750
    1C        C   43   3.491   2.485   4.745
    1C        C   44   3.710   2.487   4.868
    1C        C   45   3.630   2.479   4.983
    1C        C   46   2.841   2.757   2.796
    1C        C   47   2.896   2.714   2.919
    1C        C   48   2.846   2.765   3.041
    1C        C   49   3.022   2.643   3.164
    1C        C   50   2.903   2.720   3.162
    1C        C   51   3.085   2.607   3.285
    1C        C   52   3.022   2.646   3.406
    1C        C   53   3.212   2.548   3.530
    1C        C   54   3.085   2.611   3.527
    1C        C   55   3.280   2.528   3.652
    1C        C   56   3.212   2.549   3.774
    1C        C   57   3.418   2.510   3.896
    1C        C   58   3.278   2.527   3.897
    1C        C   59   3.488   2.508   4.018
    1C        C   60   3.423   2.513   4.143
    1C        C   61   3.634   2.500   4.261
    1C        C   62   3.493   2.498   4.265
    1C        C   63   3.705   2.503   4.383
    1C        C   64   3.633   2.498   4.505
    1C        C   65   3.837   2.546   4.624
    1C        C   66   3.702   2.505   4.628
    1C        C   67   3.911   2.558   4.744
    1C        C   68   3.846   2.522   4.864
    1C        C   69   4.053   2.589   4.982
    1C        C   70   3.929   2.525   4.977
    1C        C   71   2.826   2.738   2.311
    1C        C   72   2.884   2.695   2.432
    1C        C   73   2.833   2.749   2.553
    1C        C   74   3.007   2.628   2.675
    1C        C   75   2.887   2.703   2.674
    1C        C   76   3.074   2.598   2.796
    1C        C   77   3.015   2.638   2.918
    1C        C   78   3.207   2.547   3.038
    1C        C   79   3.078   2.604   3.040
    1C        C   80   3.275   2.525   3.160
    1C        C   81   3.211   2.544   3.285
    1C        C   82   3.417   2.501   3.404
    1C        C   83   3.278   2.524   3.408
    1C        C   84   3.486   2.495   3.527
    1C        C   85   3.420   2.507   3.651
    1C        C   86   3.630   2.503   3.772
    1C        C   87   3.489   2.500   3.774
    1C        C   88   3.699   2.513   3.895
    1C        C   89   3.630   2.507   4.018
    1C        C   90   3.839   2.553   4.138
    1C        C   91   3.703   2.515   4.138
    1C        C   92   3.904   2.573   4.262
    1C        C   93   3.840   2.544   4.384
    1C        C   94   4.035   2.630   4.503
    1C        C   95   3.910   2.566   4.505
    1C        C   96   4.101   2.668   4.622
    1C        C   97   4.036   2.626   4.740
    1C        C   98   4.194   2.764   4.865
    1C        C   99   4.098   2.658   4.865
    1C        C  100   4.211   2.847   4.976
    1C        C  101   2.824   2.735   2.073
    1C        C  102   2.994   2.597   2.192
    1C        C  103   2.880   2.684   2.190
    1C        C  104   3.064   2.575   2.314
    1C        C  105   3.001   2.617   2.433
    1C        C  106   3.202   2.541   2.553
    1C        C  107   3.070   2.593   2.554
    1C        C  108   3.273   2.521   2.674
    1C        C  109   3.202   2.539   2.795
    1C        C  110   3.413   2.498   2.917
    1C        C  111   3.273   2.521   2.916
    1C        C  112   3.485   2.495   3.038
    1C        C  113   3.414   2.503   3.160
    1C        C  114   3.628   2.502   3.282
    1C        C  115   3.487   2.495   3.281
    1C        C  116   3.697   2.512   3.405
    1C        C  117   3.627   2.499   3.528
    1C        C  118   3.835   2.549   3.649
    1C        C  119   3.699   2.511   3.649
    1C        C  120   3.900   2.576   3.772
    1C        C  121   3.835   2.553   3.895
    1C        C  122   4.032   2.638   4.016
    1C        C  123   3.905   2.576   4.015
    1C        C  124   4.090   2.677   4.138
    1C        C  125   4.029   2.639   4.260
    1C        C  126   4.200   2.765   4.378
    1C        C  127   4.091   2.676   4.381
    1C        C  128   4.249   2.819   4.499
    1C        C  129   4.203   2.766   4.621
    1C        C  130   4.326   2.937   4.743
    1C        C  131   4.245   2.820   4.745
    1C        C  132   4.359   3.005   4.862
    1C        C  133   4.289   2.963   4.975
    1C        C  134   3.171   2.470   2.087
    1C        C  135   3.037   2.511   2.086
    1C        C  136   3.262   2.482   2.193
    1C        C  137   3.196   2.522   2.311
    1C        C  138   3.405   2.480   2.431
    1C        C  139   3.266   2.506   2.433
    1C        C  140   3.479   2.484   2.551
    1C        C  141   3.412   2.496   2.674
    1C        C  142   3.625   2.496   2.793
    1C        C  143   3.484   2.491   2.795
    1C        C  144   3.695   2.504   2.915
    1C        C  145   3.627   2.496   3.039
    1C        C  146   3.835   2.545   3.157
    1C        C  147   3.698   2.509   3.160
    1C        C  148   3.901   2.566   3.280
    1C        C  149   3.833   2.547   3.403
    1C        C  150   4.027   2.632   3.525
    1C        C  151   3.900   2.570   3.525
    1C        C  152   4.084   2.675   3.648
    1C        C  153   4.026   2.640   3.772
    1C        C  154   4.201   2.763   3.889
    1C        C  155   4.090   2.676   3.893
    1C        C  156   4.255   2.809   4.011
    1C        C  157   4.200   2.766   4.134
    1C        C  158   4.343   2.921   4.253
    1C        C  159   4.252   2.813   4.256
    1C        C  160   4.375   2.986   4.375
    1C        C  161   4.333   2.933   4.499
    1C        C  162   4.436   3.118   4.620
    1C        C  163   4.371   2.993   4.621
    1C        C  164   4.471   3.186   4.739
    1C        C  165   4.437   3.123   4.861
    1C        C  166   4.514   3.322   4.977
    1C        C  167   4.472   3.189   4.979
    1C        C  168   3.477   2.435   2.077
    1C        C  169   3.401   2.457   2.193
    1C        C  170   3.619   2.470   2.308
    1C        C  171   3.478   2.457   2.311
    1C        C  172   3.691   2.494   2.427
    1C        C  173   3.621   2.485   2.550
    1C        C  174   3.829   2.543   2.668
    1C        C  175   3.693   2.504   2.669
    1C        C  176   3.897   2.569   2.789
    1C        C  177   3.830   2.545   2.911
    1C        C  178   4.025   2.630   3.031
    1C        C  179   3.898   2.568   3.033
    1C        C  180   4.084   2.665   3.155
    1C        C  181   4.028   2.627   3.279
    1C        C  182   4.200   2.750   3.399
    1C        C  183   4.089   2.663   3.402
    1C        C  184   4.251   2.802   3.520
    1C        C  185   4.199   2.757   3.644
    1C        C  186   4.340   2.918   3.765
    1C        C  187   4.251   2.807   3.765
    1C        C  188   4.381   2.976   3.887
    1C        C  189   4.343   2.920   4.010
    1C        C  190   4.449   3.106   4.129
    1C        C  191   4.384   2.980   4.132
    1C        C  192   4.471   3.174   4.251
    1C        C  193   4.440   3.112   4.373
    1C        C  194   4.505   3.314   4.493
    1C        C  195   4.463   3.179   4.495
    1C        C  196   4.524   3.387   4.612
    1C        C  197   4.518   3.320   4.737
    1C        C  198   4.553   3.535   4.854
    1C        C  199   4.532   3.393   4.858
    1C        C  200   4.584   3.621   4.963
    1C        C  201   3.616   2.414   2.080
    1C        C  202   3.829   2.515   2.186
    1C        C  203   3.695   2.464   2.188
    1C        C  204   3.899   2.544   2.305
    1C        C  205   3.828   2.528   2.427
    1C        C  206   4.021   2.629   2.542
    1C        C  207   3.898   2.559   2.546
    1C        C  208   4.086   2.661   2.663
    1C        C  209   4.025   2.629   2.787
    1C        C  210   4.201   2.746   2.909
    1C        C  211   4.087   2.663   2.909
    1C        C  212   4.249   2.798   3.031
    1C        C  213   4.196   2.751   3.153
    1C        C  214   4.337   2.909   3.275
    1C        C  215   4.248   2.799   3.276
    1C        C  216   4.372   2.973   3.396
    1C        C  217   4.336   2.915   3.520
    1C        C  218   4.432   3.105   3.640
    1C        C  219   4.375   2.976   3.642
    1C        C  220   4.460   3.171   3.762
    1C        C  221   4.445   3.103   3.885
    1C        C  222   4.503   3.308   4.006
    1C        C  223   4.471   3.171   4.006
    1C        C  224   4.517   3.382   4.126
    1C        C  225   4.508   3.310   4.247
    1C        C  226   4.514   3.523   4.368
    1C        C  227   4.515   3.382   4.369
    1C        C  228   4.515   3.597   4.489
    1C        C  229   4.530   3.528   4.611
    1C        C  230   4.492   3.740   4.728
    1C        C  231   4.531   3.603   4.731
    1C        C  232   4.493   3.820   4.845
    1C        C  233   4.547   3.756   4.957
    1C        C  234   4.024   2.603   2.064
    1C        C  235   3.900   2.541   2.068
    1C        C  236   4.088   2.647   2.181
    1C        C  237   4.023   2.614   2.302
    1C        C  238   4.205   2.736   2.421
    1C        C  239   4.085   2.659   2.420
    1C        C  240   4.257   2.786   2.542
    1C        C  241   4.201   2.743   2.664
    1C        C  242   4.342   2.902   2.783
    1C        C  243   4.254   2.792   2.786
    1C        C  244   4.382   2.960   2.905
    1C        C  245   4.342   2.905   3.029
    1C        C  246   4.439   3.091   3.149
    1C        C  247   4.380   2.962   3.152
    1C        C  248   4.456   3.160   3.271
    1C        C  249   4.432   3.101   3.397
    1C        C  250   4.499   3.305   3.515
    1C        C  251   4.459   3.169   3.517
    1C        C  252   4.510   3.373   3.638
    1C        C  253   4.497   3.307   3.762
    1C        C  254   4.522   3.519   3.878
    1C        C  255   4.514   3.378   3.884
    1C        C  256   4.514   3.590   4.000
    1C        C  257   4.519   3.523   4.125
    1C        C  258   4.488   3.734   4.242
    1C        C  259   4.514   3.595   4.247
    1C        C  260   4.466   3.802   4.363
    1C        C  261   4.482   3.734   4.486
    1C        C  262   4.418   3.939   4.605
    1C        C  263   4.464   3.806   4.606
    1C        C  264   4.396   4.010   4.725
    1C        C  265   4.436   3.949   4.846
    1C        C  266   4.323   4.136   4.957
    1C        C  267   4.395   4.017   4.962
    1C        C  268   4.268   2.777   2.065
    1C        C  269   4.197   2.738   2.179
    1C        C  270   4.352   2.889   2.299
    1C        C  271   4.256   2.783   2.298
    1C        C  272   4.388   2.953   2.419
    1C        C  273   4.342   2.899   2.541
    1C        C  274   4.452   3.084   2.661
    1C        C  275   4.383   2.960   2.661
    1C        C  276   4.476   3.151   2.782
    1C        C  277   4.450   3.084   2.904
    1C        C  278   4.509   3.287   3.028
    1C        C  279   4.475   3.150   3.026
    1C        C  280   4.511   3.363   3.148
    1C        C  281   4.496   3.296   3.271
    1C        C  282   4.513   3.511   3.390
    1C        C  283   4.512   3.370   3.390
    1C        C  284   4.510   3.583   3.512
    1C        C  285   4.513   3.514   3.635
    1C        C  286   4.486   3.727   3.753
    1C        C  287   4.516   3.589   3.755
    1C        C  288   4.468   3.796   3.875
    1C        C  289   4.486   3.728   3.997
    1C        C  290   4.419   3.931   4.118
    1C        C  291   4.470   3.799   4.118
    1C        C  292   4.391   3.998   4.239
    1C        C  293   4.426   3.938   4.362
    1C        C  294   4.325   4.127   4.479
    1C        C  295   4.393   4.004   4.482
    1C        C  296   4.282   4.191   4.598
    1C        C  297   4.324   4.133   4.719
    1C        C  298   4.201   4.316   4.841
    1C        C  299   4.284   4.199   4.839
    1C        C  300   4.168   4.402   4.950
    1C        C  301   4.358   2.883   2.060
    1C        C  302   4.476   3.067   2.178
    1C        C  303   4.403   2.944   2.178
    1C        C  304   4.486   3.144   2.297
    1C        C  305   4.454   3.078   2.418
    1C        C  306   4.515   3.284   2.538
    1C        C  307   4.484   3.146   2.538
    1C        C  308   4.517   3.355   2.660
    1C        C  309   4.506   3.289   2.784
    1C        C  310   4.523   3.499   2.901
    1C        C  311   4.522   3.358   2.907
    1C        C  312   4.519   3.573   3.021
    1C        C  313   4.516   3.504   3.144
    1C        C  314   4.483   3.716   3.264
    1C        C  315   4.508   3.577   3.265
    1C        C  316   4.472   3.786   3.387
    1C        C  317   4.492   3.723   3.512
    1C        C  318   4.427   3.931   3.629
    1C        C  319   4.470   3.796   3.631
    1C        C  320   4.396   3.995   3.751
    1C        C  321   4.424   3.931   3.873
    1C        C  322   4.321   4.117   3.992
    1C        C  323   4.390   3.993   3.995
    1C        C  324   4.278   4.174   4.114
    1C        C  325   4.323   4.122   4.237
    1C        C  326   4.186   4.288   4.354
    1C        C  327   4.284   4.186   4.357
    1C        C  328   4.136   4.342   4.475
    1C        C  329   4.193   4.301   4.597
    1C        C  330   4.032   4.443   4.712
    1C        C  331   4.146   4.359   4.717
    1C        C  332   3.972   4.493   4.829
    1C        C  333   4.054   4.483   4.942
    1C        C  334   4.549   3.269   2.060
    1C        C  335   4.536   3.129   2.064
    1C        C  336   4.532   3.351   2.172
    1C        C  337   4.515   3.283   2.294
    1C        C  338   4.530   3.496   2.412
    1C        C  339   4.525   3.355   2.416
    1C        C  340   4.522   3.567   2.534
    1C        C  341   4.524   3.496   2.656
    1C        C  342   4.492   3.707   2.774
    1C        C  343   4.516   3.567   2.777
    1C        C  344   4.472   3.778   2.894
    1C        C  345   4.492   3.712   3.018
    1C        C  346   4.428   3.915   3.140
    1C        C  347   4.465   3.779   3.139
    1C        C  348   4.397   3.981   3.261
    1C        C  349   4.424   3.918   3.384
    1C        C  350   4.320   4.108   3.503
    1C        C  351   4.396   3.988   3.504
    1C        C  352   4.275   4.168   3.623
    1C        C  353   4.316   4.112   3.746
    1C        C  354   4.177   4.269   3.867
    1C        C  355   4.279   4.171   3.869
    1C        C  356   4.125   4.320   3.988
    1C        C  357   4.183   4.279   4.110
    1C        C  358   4.018   4.411   4.230
    1C        C  359   4.137   4.335   4.231
    1C        C  360   3.957   4.455   4.350
    1C        C  361   4.019   4.421   4.472
    1C        C  362   3.831   4.523   4.592
    1C        C  363   3.960   4.465   4.592
    1C        C  364   3.766   4.552   4.714
    1C        C  365   3.842   4.548   4.833
    1C        C  366   3.630   4.594   4.951
    1C        C  367   3.768   4.574   4.949
    1C        C  368   4.512   3.566   2.052
    1C        C  369   4.528   3.492   2.170
    1C        C  370   4.505   3.707   2.290
    1C        C  371   4.526   3.567   2.290
    1C        C  372   4.486   3.777   2.411
    1C        C  373   4.498   3.706   2.533
    1C        C  374   4.424   3.909   2.651
    1C        C  375   4.474   3.777   2.653
    1C        C  376   4.390   3.974   2.772
    1C        C  377   4.423   3.911   2.894
    1C        C  378   4.317   4.093   3.014
    1C        C  379   4.396   3.976   3.016
    1C        C  380   4.272   4.152   3.134
    1C        C  381   4.317   4.097   3.257
    1C        C  382   4.177   4.258   3.378
    1C        C  383   4.273   4.154   3.379
    1C        C  384   4.126   4.313   3.497
    1C        C  385   4.179   4.272   3.622
    1C        C  386   4.017   4.406   3.740
    1C        C  387   4.127   4.319   3.744
    1C        C  388   3.952   4.438   3.861
    1C        C  389   4.009   4.400   3.985
    1C        C  390   3.822   4.496   4.105
    1C        C  391   3.951   4.438   4.108
    1C        C  392   3.757   4.525   4.227
    1C        C  393   3.828   4.512   4.349
    1C        C  394   3.621   4.558   4.474
    1C        C  395   3.761   4.538   4.470
    1C        C  396   3.550   4.560   4.596
    1C        C  397   3.625   4.561   4.715
    1C        C  398   3.414   4.549   4.840
    1C        C  399   3.553   4.569   4.836
    1C        C  400   3.344   4.519   4.958
    1C        C  401   4.517   3.705   2.050
    1C        C  402   4.450   3.911   2.167
    1C        C  403   4.494   3.777   2.168
    1C        C  404   4.407   3.973   2.287
    1C        C  405   4.436   3.909   2.409
    1C        C  406   4.329   4.098   2.526
    1C        C  407   4.400   3.975   2.529
    1C        C  408   4.279   4.152   2.647
    1C        C  409   4.317   4.095   2.770
    1C        C  410   4.177   4.252   2.890
    1C        C  411   4.278   4.154   2.893
    1C        C  412   4.125   4.303   3.011
    1C        C  413   4.175   4.254   3.134
    1C        C  414   4.009   4.386   3.255
    1C        C  415   4.124   4.304   3.256
    1C        C  416   3.946   4.424   3.376
    1C        C  417   4.010   4.394   3.498
    1C        C  418   3.818   4.486   3.620
    1C        C  419   3.951   4.437   3.619
    1C        C  420   3.750   4.510   3.741
    1C        C  421   3.819   4.487   3.862
    1C        C  422   3.613   4.537   3.987
    1C        C  423   3.752   4.514   3.984
    1C        C  424   3.544   4.539   4.110
    1C        C  425   3.616   4.536   4.231
    1C        C  426   3.407   4.540   4.358
    1C        C  427   3.548   4.551   4.354
    1C        C  428   3.335   4.540   4.480
    1C        C  429   3.409   4.550   4.600
    1C        C  430   3.198   4.518   4.724
    1C        C  431   3.337   4.546   4.722
    1C        C  432   3.127   4.498   4.846
    1C        C  433   3.207   4.494   4.960
    1C        C  434   4.391   4.123   2.056
    1C        C  435   4.451   3.996   2.056
    1C        C  436   4.306   4.163   2.163
    1C        C  437   4.339   4.098   2.285
    1C        C  438   4.184   4.250   2.401
    1C        C  439   4.288   4.155   2.404
    1C        C  440   4.129   4.299   2.521
    1C        C  441   4.180   4.253   2.645
    1C        C  442   4.012   4.381   2.766
    1C        C  443   4.127   4.300   2.767
    1C        C  444   3.946   4.414   2.886
    1C        C  445   4.007   4.382   3.010
    1C        C  446   3.818   4.475   3.132
    1C        C  447   3.947   4.418   3.132
    1C        C  448   3.750   4.498   3.253
    1C        C  449   3.816   4.479   3.377
    1C        C  450   3.609   4.529   3.497
    1C        C  451   3.748   4.504   3.499
    1C        C  452   3.543   4.539   3.621
    1C        C  453   3.611   4.538   3.745
    1C        C  454   3.398   4.541   3.867
    1C        C  455   3.540   4.546   3.866
    1C        C  456   3.332   4.529   3.991
    1C        C  457   3.403   4.533   4.113
    1C        C  458   3.199   4.493   4.238
    1C        C  459   3.335   4.530   4.237
    1C        C  460   3.132   4.475   4.361
    1C        C  461   3.198   4.506   4.482
    1C        C  462   3.003   4.428   4.607
    1C        C  463   3.129   4.491   4.604
    1C        C  464   2.936   4.400   4.728
    1C        C  465   2.991   4.451   4.848
    1C        C  466   2.803   4.341   4.961
    1C        C  467   2.911   4.430   4.965
    1C        C  468   4.130   4.289   2.042
    1C        C  469   4.191   4.249   2.162
    1C        C  470   4.009   4.373   2.279
    1C        C  471   4.131   4.300   2.280
    1C        C  472   3.946   4.405   2.401
    1C        C  473   4.011   4.376   2.523
    1C        C  474   3.819   4.470   2.644
    1C        C  475   3.949   4.415   2.644
    1C        C  476   3.751   4.495   2.765
    1C        C  477   3.819   4.475   2.887
    1C        C  478   3.613   4.525   3.008
    1C        C  479   3.751   4.497   3.009
    1C        C  480   3.541   4.531   3.129
    1C        C  481   3.611   4.527   3.252
    1C        C  482   3.399   4.535   3.378
    1C        C  483   3.541   4.537   3.374
    1C        C  484   3.331   4.529   3.501
    1C        C  485   3.402   4.536   3.623
    1C        C  486   3.193   4.492   3.747
    1C        C  487   3.329   4.528   3.744
    1C        C  488   3.128   4.470   3.870
    1C        C  489   3.196   4.494   3.992
    1C        C  490   3.003   4.413   4.117
    1C        C  491   3.130   4.474   4.116
    1C        C  492   2.944   4.380   4.241
    1C        C  493   3.002   4.418   4.364
    1C        C  494   2.831   4.296   4.488
    1C        C  495   2.940   4.386   4.487
    1C        C  496   2.772   4.257   4.610
    1C        C  497   2.822   4.315   4.729
    1C        C  498   2.666   4.165   4.848
    1C        C  499   2.755   4.275   4.847
    1C        C  500   2.592   4.121   4.959
    1C        C  501   4.010   4.359   2.040
    1C        C  502   3.818   4.463   2.156
    1C        C  503   3.945   4.402   2.156
    1C        C  504   3.748   4.481   2.278
    1C        C  505   3.815   4.460   2.400
    1C        C  506   3.611   4.513   2.520
    1C        C  507   3.750   4.487   2.522
    1C        C  508   3.541   4.515   2.643
    1C        C  509   3.611   4.517   2.766
    1C        C  510   3.399   4.520   2.888
    1C        C  511   3.540   4.529   2.887
    1C        C  512   3.329   4.514   3.011
    1C        C  513   3.399   4.528   3.133
    1C        C  514   3.193   4.487   3.257
    1C        C  515   3.330   4.522   3.256
    1C        C  516   3.128   4.463   3.380
    1C        C  517   3.194   4.492   3.501
    1C        C  518   3.002   4.404   3.628
    1C        C  519   3.128   4.468   3.623
    1C        C  520   2.941   4.369   3.750
    1C        C  521   3.001   4.407   3.872
    1C        C  522   2.834   4.283   3.997
    1C        C  523   2.943   4.373   3.996
    1C        C  524   2.785   4.238   4.122
    1C        C  525   2.835   4.290   4.243
    1C        C  526   2.696   4.133   4.367
    1C        C  527   2.784   4.243   4.366
    1C        C  528   2.653   4.077   4.489
    1C        C  529   2.686   4.145   4.609
    1C        C  530   2.582   3.961   4.735
    1C        C  531   2.638   4.092   4.731
    1C        C  532   2.541   3.903   4.857
    1C        C  533   2.526   3.998   4.964
    1C        C  534   3.621   4.552   2.039
    1C        C  535   3.758   4.520   2.043
    1C        C  536   3.539   4.534   2.155
    1C        C  537   3.610   4.515   2.277
    1C        C  538   3.398   4.514   2.402
    1C        C  539   3.539   4.516   2.399
    1C        C  540   3.325   4.508   2.523
    1C        C  541   3.400   4.510   2.643
    1C        C  542   3.192   4.478   2.768
    1C        C  543   3.329   4.512   2.765
    1C        C  544   3.126   4.461   2.891
    1C        C  545   3.191   4.486   3.014
    1C        C  546   3.000   4.394   3.135
    1C        C  547   3.124   4.462   3.136
    1C        C  548   2.942   4.361   3.260
    1C        C  549   3.001   4.400   3.382
    1C        C  550   2.829   4.281   3.507
    1C        C  551   2.942   4.366   3.505
    1C        C  552   2.777   4.233   3.630
    1C        C  553   2.832   4.280   3.752
    1C        C  554   2.695   4.122   3.877
    1C        C  555   2.784   4.231   3.875
    1C        C  556   2.655   4.067   4.001
    1C        C  557   2.697   4.128   4.121
    1C        C  558   2.591   3.947   4.249
    1C        C  559   2.659   4.071   4.245
    1C        C  560   2.562   3.884   4.371
    1C        C  561   2.589   3.952   4.492
    1C        C  562   2.536   3.749   4.619
    1C        C  563   2.564   3.888   4.615
    1C        C  564   2.522   3.682   4.742
    1C        C  565   2.524   3.760   4.861
    1C        C  566   2.536   3.545   4.981
    1C        C  567   2.526   3.684   4.978
    1C        C  568   3.331   4.478   2.041
    1C        C  569   3.398   4.513   2.158
    1C        C  570   3.189   4.472   2.281
    1C        C  571   3.327   4.505   2.281
    1C        C  572   3.121   4.450   2.403
    1C        C  573   3.187   4.475   2.526
    1C        C  574   2.992   4.397   2.650
    1C        C  575   3.119   4.458   2.648
    1C        C  576   2.934   4.358   2.773
    1C        C  577   3.000   4.397   2.892
    1C        C  578   2.827   4.272   3.017
    1C        C  579   2.938   4.359   3.013
    1C        C  580   2.778   4.224   3.141
    1C        C  581   2.834   4.270   3.262
    1C        C  582   2.692   4.118   3.387
    1C        C  583   2.781   4.227   3.386
    1C        C  584   2.656   4.059   3.510
    1C        C  585   2.692   4.121   3.632
    1C        C  586   2.583   3.941   3.760
    1C        C  587   2.652   4.064   3.755
    1C        C  588   2.560   3.876   3.883
    1C        C  589   2.590   3.942   4.004
    1C        C  590   2.534   3.741   4.129
    1C        C  591   2.566   3.878   4.128
    1C        C  592   2.526   3.674   4.254
    1C        C  593   2.533   3.745   4.375
    1C        C  594   2.516   3.536   4.501
    1C        C  595   2.520   3.677   4.498
    1C        C  596   2.522   3.466   4.624
    1C        C  597   2.522   3.540   4.744
    1C        C  598   2.533   3.326   4.866
    1C        C  599   2.527   3.467   4.865
    1C        C  600   2.543   3.248   4.982
    1C        C  601   3.198   4.440   2.047
    1C        C  602   2.983   4.392   2.160
    1C        C  603   3.118   4.442   2.162
    1C        C  604   2.927   4.359   2.286
    1C        C  605   2.991   4.395   2.407
    1C        C  606   2.816   4.277   2.529
    1C        C  607   2.929   4.362   2.529
    1C        C  608   2.769   4.223   2.651
    1C        C  609   2.823   4.271   2.772
    1C        C  610   2.687   4.110   2.896
    1C        C  611   2.777   4.219   2.896
    1C        C  612   2.650   4.054   3.020
    1C        C  613   2.688   4.114   3.142
    1C        C  614   2.591   3.930   3.267
    1C        C  615   2.651   4.058   3.266
    1C        C  616   2.562   3.870   3.392
    1C        C  617   2.590   3.934   3.515
    1C        C  618   2.527   3.735   3.641
    1C        C  619   2.561   3.872   3.639
    1C        C  620   2.516   3.667   3.764
    1C        C  621   2.526   3.739   3.886
    1C        C  622   2.512   3.528   4.013
    1C        C  623   2.519   3.669   4.009
    1C        C  624   2.518   3.458   4.136
    1C        C  625   2.518   3.533   4.255
    1C        C  626   2.541   3.327   4.381
    1C        C  627   2.515   3.466   4.379
    1C        C  628   2.563   3.256   4.501
    1C        C  629   2.544   3.326   4.622
    1C        C  630   2.596   3.121   4.744
    1C        C  631   2.555   3.257   4.745
    1C        C  632   2.617   3.051   4.867
    1C        C  633   2.563   3.110   4.986
    1C        C  634   2.787   4.301   2.057
    1C        C  635   2.897   4.387   2.046
    1C        C  636   2.754   4.226   2.171
    1C        C  637   2.812   4.275   2.290
    1C        C  638   2.681   4.108   2.412
    1C        C  639   2.758   4.226   2.410
    1C        C  640   2.635   4.051   2.534
    1C        C  641   2.681   4.113   2.653
    1C        C  642   2.582   3.925   2.779
    1C        C  643   2.648   4.050   2.775
    1C        C  644   2.560   3.860   2.902
    1C        C  645   2.586   3.928   3.023
    1C        C  646   2.524   3.727   3.151
    1C        C  647   2.565   3.862   3.146
    1C        C  648   2.512   3.660   3.275
    1C        C  649   2.529   3.732   3.395
    1C        C  650   2.511   3.524   3.522
    1C        C  651   2.517   3.665   3.518
    1C        C  652   2.515   3.456   3.646
    1C        C  653   2.511   3.526   3.768
    1C        C  654   2.539   3.318   3.891
    1C        C  655   2.516   3.457   3.891
    1C        C  656   2.558   3.252   4.015
    1C        C  657   2.539   3.318   4.138
    1C        C  658   2.613   3.122   4.258
    1C        C  659   2.558   3.253   4.262
    1C        C  660   2.642   3.060   4.381
    1C        C  661   2.611   3.123   4.504
    1C        C  662   2.718   2.940   4.627
    1C        C  663   2.636   3.056   4.625
    1C        C  664   2.752   2.879   4.750
    1C        C  665   2.699   2.934   4.869
    1C        C  666   2.744   2.869   4.985
    1C        C  667   2.675   4.026   2.052
    1C        C  668   2.683   4.104   2.168
    1C        C  669   2.591   3.914   2.292
    1C        C  670   2.651   4.042   2.291
    1C        C  671   2.558   3.851   2.415
    1C        C  672   2.577   3.923   2.535
    1C        C  673   2.517   3.721   2.660
    1C        C  674   2.554   3.857   2.658
    1C        C  675   2.506   3.652   2.783
    1C        C  676   2.522   3.724   2.904
    1C        C  677   2.504   3.516   3.034
    1C        C  678   2.515   3.657   3.029
    1C        C  679   2.505   3.446   3.156
    1C        C  680   2.504   3.519   3.277
    1C        C  681   2.533   3.311   3.402
    1C        C  682   2.513   3.451   3.401
    1C        C  683   2.560   3.246   3.525
    1C        C  684   2.542   3.317   3.646
    1C        C  685   2.610   3.118   3.771
    1C        C  686   2.557   3.249   3.768
    1C        C  687   2.643   3.057   3.894
    1C        C  688   2.610   3.121   4.015
    1C        C  689   2.721   2.939   4.138
    1C        C  690   2.648   3.059   4.137
    1C        C  691   2.759   2.882   4.262
    1C        C  692   2.715   2.939   4.384
    1C        C  693   2.758   2.881   4.506
    1C        C  694   2.624   3.896   2.057
    1C        C  695   2.529   3.704   2.176
    1C        C  696   2.576   3.837   2.175
    1C        C  697   2.507   3.640   2.300
    1C        C  698   2.522   3.715   2.420
    1C        C  699   2.491   3.506   2.546
    1C        C  700   2.498   3.647   2.541
    1C        C  701   2.502   3.437   2.669
    1C        C  702   2.504   3.511   2.789
    1C        C  703   2.532   3.304   2.913
    1C        C  704   2.503   3.442   2.913
    1C        C  705   2.547   3.236   3.036
    1C        C  706   2.535   3.308   3.156
    1C        C  707   2.606   3.111   3.281
    1C        C  708   2.552   3.242   3.280
    1C        C  709   2.636   3.048   3.404
    1C        C  710   2.610   3.114   3.526
    1C        C  711   2.718   2.935   3.652
    1C        C  712   2.638   3.052   3.650
    1C        C  713   2.761   2.879   3.775
    1C        C  714   2.721   2.939   3.896
    1C        C  715   2.762   2.879   4.017
    1C        C  716   2.450   3.500   2.062
    1C        C  717   2.485   3.635   2.062
    1C        C  718   2.465   3.425   2.183
    1C        C  719   2.479   3.501   2.303
    1C        C  720   2.513   3.292   2.426
    1C        C  721   2.490   3.431   2.426
    1C        C  722   2.537   3.225   2.547
    1C        C  723   2.525   3.298   2.668
    1C        C  724   2.595   3.101   2.792
    1C        C  725   2.545   3.233   2.792
    1C        C  726   2.627   3.038   2.915
    1C        C  727   2.596   3.103   3.037
    1C        C  728   2.708   2.924   3.162
    1C        C  729   2.631   3.043   3.160
    1C        C  730   2.760   2.877   3.284
    1C        C  731   2.715   2.931   3.407
    1C        C  732   2.761   2.878   3.530
    1C        C  733   2.491   3.202   2.074
    1C        C  734   2.481   3.283   2.187
    1C        C  735   2.577   3.086   2.310
    1C        C  736   2.518   3.215   2.307
    1C        C  737   2.600   3.016   2.431
    1C        C  738   2.582   3.091   2.549
    1C        C  739   2.698   2.914   2.672
    1C        C  740   2.618   3.031   2.672
    1C        C  741   2.743   2.859   2.794
    1C        C  742   2.705   2.920   2.916
    1C        C  743   2.750   2.869   3.039
    1C        C  744   2.542   3.072   2.077
    1C        C  745   2.688   2.904   2.190
    1C        C  746   2.608   3.021   2.189
    1C        C  747   2.732   2.844   2.310
    1C        C  748   2.683   2.901   2.429
    1C        C  749   2.735   2.851   2.551
    1C        C  750   2.735   2.842   2.073
    1C        C  751   3.661   2.314   1.980
    1C        O  752   3.631   2.192   1.989
    1C        O  753   3.676   2.360   1.849
    1C        C  754   4.635   3.047   1.991
    1C        O  755   4.624   3.050   1.866
    1C        O  756   4.724   2.960   2.056
    1C        C  757   4.447   4.225   1.964
    1C        O  758   4.550   4.285   2.004
    1C        O  759   4.461   4.199   1.827
    1C        C  760   3.578   4.641   1.930
    1C        O  761   3.586   4.766   1.947
    1C        O  762   3.595   4.598   1.798
    1C        C  763   2.898   4.471   1.924
    1C        O  764   2.937   4.436   1.809
    1C        O  765   2.798   4.567   1.907
    1C        C  766   2.342   3.475   1.964
    1C        O  767   2.345   3.526   1.849
    1C        O  768   2.211   3.486   2.012
    1C        C  769   4.712   3.601   5.034
    1C        O  770   4.716   3.597   5.160
    1C        O  771   4.836   3.641   4.983
    1C        C  772   4.272   4.474   5.026
    1C        O  773   4.254   4.500   5.148
    1C        O  774   4.391   4.522   4.972
    1C        C  775   4.147   2.527   5.079
    1C        O  776   4.255   2.469   5.053
    1C        O  777   4.125   2.539   5.216
    1C        C  778   2.879   4.544   5.054
    1C        O  779   2.797   4.634   5.019
    1C        O  780   2.925   4.570   5.184
    1C        C  781   2.487   3.033   5.086
    1C        O  782   2.365   3.015   5.060
    1C        O  783   2.510   3.063   5.220
    1C        C  784   2.412   3.987   5.058
    1C        O  785   2.295   4.021   5.027
    1C        O  786   2.435   4.004   5.195
    1C        C  787   2.942   2.422   2.015
    1C        O  788   2.885   2.454   1.907
    1C        O  789   2.877   2.317   2.079
    1C        C  790   3.177   2.358   5.033
    1C        O  791   3.140   2.264   4.958
    1C        O  792   3.146   2.332   5.167
    1C        H  793   4.261   3.036   5.049
    1C        H  794   4.193   2.804   5.072
    1C        H  795   4.478   3.136   5.072
    1C        H  796   4.531   3.371   5.070
    1C        H  797   4.554   3.813   5.048
    1C        H  798   4.444   4.002   5.056
    1C        H  799   4.273   4.160   5.049
    1C        H  800   4.057   4.569   5.005
    1C        H  801   3.828   4.611   5.030
    1C        H  802   3.588   4.663   5.021
    1C        H  803   3.395   4.541   5.050
    1C        H  804   3.164   4.447   5.046
    1C        H  805   3.905   2.454   5.054
    1C        H  806   3.673   2.423   5.064
    1C        H  807   2.990   2.543   5.058
    1C        H  808   3.450   2.546   5.063
    1C        H  809   2.849   2.709   5.073
    1C        H  810   2.695   2.890   5.078
    1C        H  811   2.595   3.297   5.062
    1C        H  812   2.490   3.503   5.068
    1C        H  813   2.551   3.731   5.071
    1C        H  814   2.558   4.202   5.020
    1C        H  815   2.738   4.349   5.046
    1C        H  816   2.685   2.864   1.982
    1C        H  817   2.842   2.688   1.978
    1C        H  818   3.202   2.402   2.011
    1C        H  819   3.428   2.421   1.984
    1C        H  820   3.861   2.499   1.977
    1C        H  821   4.051   2.654   1.974
    1C        H  822   4.270   2.708   1.983
    1C        H  823   4.391   2.921   1.966
    1C        H  824   4.595   3.312   1.973
    1C        H  825   4.463   3.524   1.968
    1C        H  826   4.556   3.759   1.966
    1C        H  827   3.796   4.493   1.947
    1C        H  828   3.982   4.398   1.944
    1C        H  829   4.155   4.237   1.952
    1C        H  830   4.540   3.985   1.997
    1C        H  831   2.660   3.829   1.982
    1C        H  832   2.747   4.048   1.976
    1C        H  833   2.710   4.303   1.982
    1C        H  834   3.383   4.461   1.949
    1C        H  835   3.162   4.392   1.958
    1C        H  836   2.503   3.000   2.008
    1C        H  837   2.414   3.221   2.002
    1C        H  838   2.513   3.674   1.966
    2V3OU   H29  839   2.808   3.547   1.971
    2V3OU   C27  840   2.789   3.500   2.071
    2V3OU   H27  841   2.734   3.570   2.139
    2V3OU   H28  842   2.730   3.405   2.059
    2V3OU   O11  843   2.911   3.482   2.142
    2V3OU   C15  844   2.928   3.399   2.251
    2V3OU   C13  845   3.054   3.373   2.308
    2V3OU   C14  846   3.081   3.264   2.392
    2V3OU   C16  847   2.977   3.185   2.438
    2V3OU    H6  848   2.993   3.105   2.512
    2V3OU   C12  849   3.220   3.231   2.432
    2V3OU    O2  850   3.242   3.130   2.501
    2V3OU   C10  851   3.333   3.312   2.384
    2V3OU    C8  852   3.463   3.275   2.418
    2V3OU   O10  853   3.495   3.166   2.493
    2V3OU   H26  854   3.412   3.116   2.503
    2V3OU    C6  855   3.570   3.355   2.368
    2V3OU    C5  856   3.540   3.469   2.294
    2V3OU    C4  857   3.708   3.300   2.361
    2V3OU    H4  858   3.733   3.230   2.447
    2V3OU    H5  859   3.714   3.235   2.269
    2V3OU    C2  860   3.822   3.403   2.361
    2V3OU    O6  861   3.809   3.474   2.485
    2V3OU   H21  862   3.764   3.558   2.463
    2V3OU    C3  863   3.786   3.497   2.246
    2V3OU    H2  864   3.869   3.571   2.242
    2V3OU    H3  865   3.783   3.440   2.149
    2V3OU   C25  866   3.958   3.335   2.349
    2V3OU    O7  867   4.003   3.297   2.241
    2V3OU   C26  868   4.033   3.294   2.475
    2V3OU   H22  869   4.062   3.390   2.524
    2V3OU   H23  870   4.126   3.238   2.447
    2V3OU    O8  871   3.965   3.207   2.563
    2V3OU   H24  872   3.931   3.265   2.633
    2V3OU    C1  873   3.651   3.565   2.262
    2V3OU    H1  874   3.624   3.616   2.165
    2V3OU    O3  875   3.664   3.661   2.368
    2V3OU   C19  876   3.624   3.796   2.345
    2V3OU    H9  877   3.529   3.808   2.286
    2V3OU    O4  878   3.722   3.852   2.260
    2V3OU   C20  879   3.850   3.873   2.320
    2V3OU   H10  880   3.899   3.774   2.344
    2V3OU   C24  881   3.612   3.857   2.485
    2V3OU   H16  882   3.542   3.798   2.549
    2V3OU   H17  883   3.569   3.959   2.468
    2V3OU   C23  884   3.749   3.877   2.550
    2V3OU   H15  885   3.793   3.774   2.568
    2V3OU    N1  886   3.738   3.952   2.674
    2V3OU   H19  887   3.807   3.916   2.736
    2V3OU   H20  888   3.654   3.931   2.724
    2V3OU   C21  889   3.846   3.950   2.452
    2V3OU   H11  890   3.952   3.935   2.490
    2V3OU    O5  891   3.819   4.090   2.453
    2V3OU   H18  892   3.783   4.100   2.543
    2V3OU   C22  893   3.918   3.953   2.210
    2V3OU   H12  894   3.862   4.049   2.195
    2V3OU   H13  895   3.911   3.899   2.113
    2V3OU   H14  896   4.028   3.961   2.231
    2V3OU   C11  897   3.161   3.473   2.296
    2V3OU    O1  898   3.135   3.591   2.262
    2V3OU    C9  899   3.301   3.428   2.309
    2V3OU    C7  900   3.406   3.505   2.260
    2V3OU    O9  901   3.388   3.617   2.182
    2V3OU   H25  902   3.293   3.630   2.170
    2V3OU   C17  903   2.821   3.319   2.296
    2V3OU    H7  904   2.722   3.346   2.259
    2V3OU   C18  905   2.852   3.220   2.389
    2V3OU    H8  906   2.776   3.165   2.446
    3SOL     OW  907   3.560   4.741   0.961
    3SOL    HW1  908   3.489   4.686   1.005
    3SOL    HW2  909   3.594   4.693   0.880
    4SOL     OW  910   6.794   5.970   1.678
    4SOL    HW1  911   6.886   5.946   1.710
    4SOL    HW2  912   6.739   5.886   1.671
    5SOL     OW  913   4.422   1.526   2.598
    5SOL    HW1  914   4.344   1.463   2.595
    5SOL    HW2  915   4.452   1.545   2.505
    6SOL     OW  916   3.896   1.335   1.039
    6SOL    HW1  917   3.837   1.255   1.041
    6SOL    HW2  918   3.953   1.333   0.957
    7SOL     OW  919   6.877   3.603   2.112
    7SOL    HW1  920   6.811   3.636   2.179
    7SOL    HW2  921   6.945   3.546   2.157
    8SOL     OW  922   2.608   0.234   6.159
    8SOL    HW1  923   2.668   0.162   6.191
    8SOL    HW2  924   2.528   0.240   6.218
    9SOL     OW  925   6.686   5.512   6.686
    9SOL    HW1  926   6.760   5.495   6.752
    9SOL    HW2  927   6.631   5.589   6.716
   10SOL     OW  928   0.738   5.282   5.906
   10SOL    HW1  929   0.824   5.333   5.903
   10SOL    HW2  930   0.710   5.259   5.813
   11SOL     OW  931   2.706   0.235   6.597
   11SOL    HW1  932   2.676   0.170   6.667
   11SOL    HW2  933   2.773   0.192   6.536
   12SOL     OW  934   3.648   6.382   4.384
   12SOL    HW1  935   3.707   6.378   4.303
   12SOL    HW2  936   3.594   6.299   4.390
   13SOL     OW  937   3.456   5.705   3.941
   13SOL    HW1  938   3.364   5.686   3.907
   13SOL    HW2  939   3.517   5.720   3.863
   14SOL     OW  940   4.773   4.846   6.424
   14SOL    HW1  941   4.862   4.868   6.465
   14SOL    HW2  942   4.777   4.863   6.326
   15SOL     OW  943   1.409   5.779   1.318
   15SOL    HW1  944   1.334   5.724   1.281
   15SOL    HW2  945   1.386   5.809   1.410
   16SOL     OW  946   5.413   2.945   5.961
   16SOL    HW1  947   5.479   2.993   6.019
   16SOL    HW2  948   5.452   2.929   5.871
   17SOL     OW  949   5.218   6.287   5.458
   17SOL    HW1  950   5.280   6.221   5.416
   17SOL    HW2  951   5.179   6.248   5.542
   18SOL     OW  952   3.320   0.966   6.036
   18SOL    HW1  953   3.339   1.002   5.945
   18SOL    HW2  954   3.241   0.904   6.031
   19SOL     OW  955   0.532   0.211   3.297
   19SOL    HW1  956   0.582   0.194   3.382
   19SOL    HW2  957   0.595   0.244   3.227
   20SOL     OW  958   5.322   2.789   4.659
   20SOL    HW1  959   5.390   2.740   4.605
   20SOL    HW2  960   5.365   2.868   4.703
   21SOL     OW  961   3.210   2.070   2.418
   21SOL    HW1  962   3.268   1.994   2.449
   21SOL    HW2  963   3.175   2.049   2.326
   22SOL     OW  964   2.268   6.885   0.027
   22SOL    HW1  965   2.337   6.953   0.049
   22SOL    HW2  966   2.181   6.931   0.006
   23SOL     OW  967   4.774   6.355   3.087
   23SOL    HW1  968   4.852   6.294   3.094
   23SOL    HW2  969   4.693   6.311   3.127
   24SOL     OW  970   4.741   1.069   3.499
   24SOL    HW1  971   4.800   1.001   3.543
   24SOL    HW2  972   4.780   1.160   3.514
   25SOL     OW  973   3.129   0.101   5.097
   25SOL    HW1  974   3.128   0.142   5.006
   25SOL    HW2  975   3.113   0.173   5.165
   26SOL     OW  976   6.548   0.912   0.377
   26SOL    HW1  977   6.604   0.842   0.422
   26SOL    HW2  978   6.554   0.998   0.428
   27SOL     OW  979   0.882   1.470   1.884
   27SOL    HW1  980   0.804   1.523   1.917
   27SOL    HW2  981   0.855   1.374   1.874
   28SOL     OW  982   3.496   1.552   6.546
   28SOL    HW1  983   3.497   1.629   6.610
   28SOL    HW2  984   3.462   1.583   6.457
   29SOL     OW  985   4.925   2.731   1.862
   29SOL    HW1  986   5.021   2.716   1.840
   29SOL    HW2  987   4.912   2.731   1.961
   30SOL     OW  988   3.467   1.255   4.264
   30SOL    HW1  989   3.459   1.178   4.201
   30SOL    HW2  990   3.529   1.230   4.339
   31SOL     OW  991   0.698   2.540   5.763
   31SOL    HW1  992   0.744   2.525   5.675
   31SOL    HW2  993   0.653   2.630   5.761
   32SOL     OW  994   0.460   1.646   3.163
   32SOL    HW1  995   0.470   1.588   3.082
   32SOL    HW2  996   0.533   1.625   3.228
   33SOL     OW  997   2.279   3.732   6.750
   33SOL    HW1  998   2.360   3.677   6.773
   33SOL    HW2  999   2.272   3.809   6.813
   34SOL     OW 1000   2.345   1.750   3.559
   34SOL    HW1 1001   2.431   1.716   3.598
   34SOL    HW2 1002   2.362   1.836   3.511
   35SOL     OW 1003   3.669   2.907   6.677
   35SOL    HW1 1004   3.612   2.974   6.726
   35SOL    HW2 1005   3.686   2.940   6.584
   36SOL     OW 1006   6.142   0.940   5.644
   36SOL    HW1 1007   6.067   0.919   5.707
   36SOL    HW2 1008   6.212   0.869   5.651
   37SOL     OW 1009   1.053   0.460   0.481
   37SOL    HW1 1010   1.128   0.394   0.484
   37SOL    HW2 1011   0.975   0.425   0.533
   38SOL     OW 1012   0.105   4.721   2.576
   38SOL    HW1 1013   0.096   4.820   2.569
   38SOL    HW2 1014   0.098   4.680   2.485
   39SOL     OW 1015   0.083   5.075   0.013
   39SOL    HW1 1016   7.011   5.064   0.030
   39SOL    HW2 1017   0.118   4.994   6.991
   40SOL     OW 1018   5.215   2.168   1.621
   40SOL    HW1 1019   5.195   2.263   1.647
   40SOL    HW2 1020   5.216   2.161   1.522
   41SOL     OW 1021   6.807   6.161   4.391
   41SOL    HW1 1022   6.890   6.214   4.374
   41SOL    HW2 1023   6.771   6.183   4.481
   42SOL     OW 1024   2.538   5.104   5.173
   42SOL    HW1 1025   2.473   5.049   5.226
   42SOL    HW2 1026   2.503   5.197   5.162
   43SOL     OW 1027   5.534   6.605   5.416
   43SOL    HW1 1028   5.507   6.552   5.497
   43SOL    HW2 1029   5.455   6.657   5.384
   44SOL     OW 1030   5.482   2.007   6.628
   44SOL    HW1 1031   5.495   2.104   6.604
   44SOL    HW2 1032   5.461   1.955   6.545
   45SOL     OW 1033   3.318   6.731   3.229
   45SOL    HW1 1034   3.349   6.698   3.140
   45SOL    HW2 1035   3.268   6.658   3.276
   46SOL     OW 1036   0.917   3.502   3.106
   46SOL    HW1 1037   0.988   3.530   3.170
   46SOL    HW2 1038   0.939   3.413   3.068
   47SOL     OW 1039   5.083   4.919   1.431
   47SOL    HW1 1040   5.148   4.870   1.372
   47SOL    HW2 1041   4.991   4.914   1.391
   48SOL     OW 1042   6.676   2.816   6.094
   48SOL    HW1 1043   6.675   2.785   6.189
   48SOL    HW2 1044   6.769   2.845   6.069
   49SOL     OW 1045   4.760   4.112   1.690
   49SOL    HW1 1046   4.687   4.046   1.707
   49SOL    HW2 1047   4.762   4.179   1.764
   50SOL     OW 1048   6.259   2.515   5.519
   50SOL    HW1 1049   6.253   2.463   5.434
   50SOL    HW2 1050   6.273   2.452   5.595
   51SOL     OW 1051   3.166   6.274   2.543
   51SOL    HW1 1052   3.075   6.262   2.504
   51SOL    HW2 1053   3.187   6.372   2.550
   52SOL     OW 1054   5.067   2.078   3.449
   52SOL    HW1 1055   5.135   2.049   3.383
   52SOL    HW2 1056   4.975   2.061   3.412
   53SOL     OW 1057   3.952   6.912   4.390
   53SOL    HW1 1058   4.048   6.898   4.367
   53SOL    HW2 1059   3.936   6.884   4.484
   54SOL     OW 1060   3.906   4.786   1.145
   54SOL    HW1 1061   3.888   4.790   1.047
   54SOL    HW2 1062   3.820   4.793   1.195
   55SOL     OW 1063   3.067   1.615   6.282
   55SOL    HW1 1064   3.087   1.562   6.364
   55SOL    HW2 1065   3.080   1.559   6.200
   56SOL     OW 1066   0.296   0.557   1.195
   56SOL    HW1 1067   0.236   0.566   1.274
   56SOL    HW2 1068   0.242   0.553   1.111
   57SOL     OW 1069   5.304   0.284   0.739
   57SOL    HW1 1070   5.318   0.185   0.737
   57SOL    HW2 1071   5.392   0.330   0.722
   58SOL     OW 1072   6.618   6.513   6.030
   58SOL    HW1 1073   6.716   6.518   6.047
   58SOL    HW2 1074   6.602   6.484   5.936
   59SOL     OW 1075   1.179   1.694   5.918
   59SOL    HW1 1076   1.155   1.610   5.868
   59SOL    HW2 1077   1.111   1.764   5.899
   60SOL     OW 1078   5.395   1.172   5.960
   60SOL    HW1 1079   5.309   1.213   5.991
   60SOL    HW2 1080   5.472   1.219   6.004
   61SOL     OW 1081   5.087   2.229   5.016
   61SOL    HW1 1082   5.046   2.138   5.020
   61SOL    HW2 1083   5.141   2.245   5.098
   62SOL     OW 1084   6.746   1.067   2.732
   62SOL    HW1 1085   6.787   1.051   2.821
   62SOL    HW2 1086   6.705   1.158   2.729
   63SOL     OW 1087   5.501   1.382   3.997
   63SOL    HW1 1088   5.401   1.383   3.995
   63SOL    HW2 1089   5.534   1.298   3.955
   64SOL     OW 1090   0.136   3.618   5.843
   64SOL    HW1 1091   0.175   3.709   5.856
   64SOL    HW2 1092   0.106   3.581   5.931
   65SOL     OW 1093   6.899   4.652   5.667
   65SOL    HW1 1094   6.892   4.586   5.742
   65SOL    HW2 1095   6.872   4.607   5.581
   66SOL     OW 1096   3.890   0.782   5.803
   66SOL    HW1 1097   3.808   0.762   5.749
   66SOL    HW2 1098   3.863   0.814   5.894
   67SOL     OW 1099   5.111   4.199   5.804
   67SOL    HW1 1100   5.174   4.153   5.868
   67SOL    HW2 1101   5.020   4.159   5.814
   68SOL     OW 1102   5.570   0.575   6.850
   68SOL    HW1 1103   5.583   0.674   6.847
   68SOL    HW2 1104   5.523   0.544   6.767
   69SOL     OW 1105   1.049   3.784   5.870
   69SOL    HW1 1106   0.980   3.716   5.844
   69SOL    HW2 1107   1.009   3.847   5.937
   70SOL     OW 1108   5.738   4.679   4.406
   70SOL    HW1 1109   5.705   4.645   4.494
   70SOL    HW2 1110   5.828   4.720   4.417
   71SOL     OW 1111   4.008   1.756   3.332
   71SOL    HW1 1112   4.057   1.773   3.246
   71SOL    HW2 1113   4.074   1.750   3.407
   72SOL     OW 1114   2.626   6.523   4.474
   72SOL    HW1 1115   2.535   6.483   4.481
   72SOL    HW2 1116   2.659   6.516   4.380
   73SOL     OW 1117   3.206   1.074   1.045
   73SOL    HW1 1118   3.288   1.131   1.036
   73SOL    HW2 1119   3.189   1.027   0.959
   74SOL     OW 1120   5.358   6.681   6.676
   74SOL    HW1 1121   5.260   6.700   6.668
   74SOL    HW2 1122   5.372   6.583   6.688
   75SOL     OW 1123   3.776   0.117   0.115
   75SOL    HW1 1124   3.742   0.023   0.121
   75SOL    HW2 1125   3.768   0.149   0.021
   76SOL     OW 1126   2.636   2.663   1.140
   76SOL    HW1 1127   2.663   2.567   1.145
   76SOL    HW2 1128   2.634   2.692   1.044
   77SOL     OW 1129   6.387   6.343   3.463
   77SOL    HW1 1130   6.415   6.438   3.472
   77SOL    HW2 1131   6.380   6.302   3.554
   78SOL     OW 1132   6.108   0.884   6.739
   78SOL    HW1 1133   6.118   0.796   6.692
   78SOL    HW2 1134   6.148   0.878   6.830
   79SOL     OW 1135   3.407   6.209   0.097
   79SOL    HW1 1136   3.378   6.158   0.015
   79SOL    HW2 1137   3.452   6.147   0.160
   80SOL     OW 1138   5.382   1.938   3.743
   80SOL    HW1 1139   5.401   1.943   3.841
   80SOL    HW2 1140   5.291   1.975   3.726
   81SOL     OW 1141   2.026   0.103   3.108
   81SOL    HW1 1142   1.991   0.127   3.198
   81SOL    HW2 1143   2.124   0.083   3.114
   82SOL     OW 1144   6.744   5.021   1.234
   82SOL    HW1 1145   6.712   4.938   1.187
   82SOL    HW2 1146   6.833   5.003   1.276
   83SOL     OW 1147   0.077   0.621   0.640
   83SOL    HW1 1148   0.121   0.552   0.698
   83SOL    HW2 1149   0.036   0.577   0.560
   84SOL     OW 1150   5.597   2.658   3.577
   84SOL    HW1 1151   5.574   2.725   3.647
   84SOL    HW2 1152   5.514   2.616   3.543
   85SOL     OW 1153   1.909   1.959   4.435
   85SOL    HW1 1154   2.001   1.921   4.428
   85SOL    HW2 1155   1.856   1.935   4.354
   86SOL     OW 1156   0.066   0.438   5.066
   86SOL    HW1 1157   0.079   0.422   4.968
   86SOL    HW2 1158   0.154   0.461   5.108
   87SOL     OW 1159   5.395   3.540   0.447
   87SOL    HW1 1160   5.295   3.539   0.448
   87SOL    HW2 1161   5.428   3.612   0.508
   88SOL     OW 1162   3.614   1.790   6.162
   88SOL    HW1 1163   3.547   1.792   6.087
   88SOL    HW2 1164   3.690   1.851   6.140
   89SOL     OW 1165   1.151   2.614   5.484
   89SOL    HW1 1166   1.080   2.674   5.521
   89SOL    HW2 1167   1.191   2.656   5.402
   90SOL     OW 1168   3.969   6.000   2.284
   90SOL    HW1 1169   3.926   5.950   2.359
   90SOL    HW2 1170   4.037   5.942   2.239
   91SOL     OW 1171   4.604   4.365   4.957
   91SOL    HW1 1172   4.645   4.362   5.048
   91SOL    HW2 1173   4.524   4.425   4.959
   92SOL     OW 1174   3.475   4.454   0.378
   92SOL    HW1 1175   3.434   4.546   0.374
   92SOL    HW2 1176   3.551   4.449   0.313
   93SOL     OW 1177   2.842   3.996   6.673
   93SOL    HW1 1178   2.790   3.966   6.753
   93SOL    HW2 1179   2.923   4.046   6.703
   94SOL     OW 1180   2.382   6.080   5.938
   94SOL    HW1 1181   2.369   6.001   5.878
   94SOL    HW2 1182   2.393   6.162   5.883
   95SOL     OW 1183   1.359   0.726   2.900
   95SOL    HW1 1184   1.340   0.683   2.811
   95SOL    HW2 1185   1.378   0.823   2.886
   96SOL     OW 1186   3.107   0.181   5.399
   96SOL    HW1 1187   3.053   0.117   5.454
   96SOL    HW2 1188   3.203   0.151   5.397
   97SOL     OW 1189   2.078   3.105   5.854
   97SOL    HW1 1190   2.080   3.013   5.815
   97SOL    HW2 1191   2.167   3.149   5.842
   98SOL     OW 1192   6.640   3.445   0.830
   98SOL    HW1 1193   6.707   3.487   0.769
   98SOL    HW2 1194   6.559   3.417   0.778
   99SOL     OW 1195   3.891   3.741   0.983
   99SOL    HW1 1196   3.850   3.662   1.029
   99SOL    HW2 1197   3.921   3.714   0.891
  100SOL     OW 1198   6.937   6.862   5.057
  100SOL    HW1 1199   6.929   6.960   5.038
  100SOL    HW2 1200   6.928   6.847   5.156
  101SOL     OW 1201   1.871   5.539   2.303
  101SOL    HW1 1202   1.915   5.508   2.219
  101SOL    HW2 1203   1.778   5.503   2.307
  102SOL     OW 1204   3.722   6.929   2.554
  102SOL    HW1 1205   3.803   6.911   2.498
  102SOL    HW2 1206   3.675   7.010   2.520
  103SOL     OW 1207   2.747   0.695   2.303
  103SOL    HW1 1208   2.830   0.723   2.255
  103SOL    HW2 1209   2.684   0.651   2.239
  104SOL     OW 1210   0.670   5.370   2.770
  104SOL    HW1 1211   0.586   5.423   2.775
  104SOL    HW2 1212   0.678   5.312   2.851
  105SOL     OW 1213   6.626   2.541   6.842
  105SOL    HW1 1214   6.607   2.486   6.761
  105SOL    HW2 1215   6.620   2.638   6.820
  106SOL     OW 1216   3.430   6.233   4.887
  106SOL    HW1 1217   3.376   6.149   4.890
  106SOL    HW2 1218   3.441   6.262   4.792
  107SOL     OW 1219   2.027   1.369   1.445
  107SOL    HW1 1220   2.051   1.274   1.463
  107SOL    HW2 1221   2.041   1.389   1.348
  108SOL     OW 1222   3.793   5.127   5.867
  108SOL    HW1 1223   3.857   5.083   5.931
  108SOL    HW2 1224   3.717   5.167   5.917
  109SOL     OW 1225   0.021   0.575   1.677
  109SOL    HW1 1226   0.087   0.525   1.621
  109SOL    HW2 1227   0.060   0.591   1.768
  110SOL     OW 1228   3.004   5.583   5.017
  110SOL    HW1 1229   3.055   5.501   5.045
  110SOL    HW2 1230   2.923   5.593   5.075
  111SOL     OW 1231   2.417   1.435   4.309
  111SOL    HW1 1232   2.404   1.401   4.403
  111SOL    HW2 1233   2.491   1.384   4.266
  112SOL     OW 1234   4.968   6.969   6.185
  112SOL    HW1 1235   5.031   0.019   6.193
  112SOL    HW2 1236   4.874   7.003   6.182
  113SOL     OW 1237   6.035   6.147   3.178
  113SOL    HW1 1238   5.987   6.060   3.168
  113SOL    HW2 1239   6.070   6.156   3.271
  114SOL     OW 1240   0.480   0.245   1.179
  114SOL    HW1 1241   0.495   0.322   1.241
  114SOL    HW2 1242   0.537   0.255   1.098
  115SOL     OW 1243   4.051   1.475   3.422
  115SOL    HW1 1244   4.000   1.559   3.444
  115SOL    HW2 1245   4.002   1.425   3.351
  116SOL     OW 1246   5.742   4.753   1.669
  116SOL    HW1 1247   5.707   4.847   1.670
  116SOL    HW2 1248   5.683   4.695   1.724
  117SOL     OW 1249   1.319   1.636   0.712
  117SOL    HW1 1250   1.405   1.669   0.753
  117SOL    HW2 1251   1.249   1.706   0.721
  118SOL     OW 1252   1.843   1.118   3.505
  118SOL    HW1 1253   1.812   1.163   3.421
  118SOL    HW2 1254   1.927   1.162   3.537
  119SOL     OW 1255   0.389   1.176   0.104
  119SOL    HW1 1256   0.399   1.265   0.059
  119SOL    HW2 1257   0.480   1.136   0.118
  120SOL     OW 1258   6.529   6.727   6.836
  120SOL    HW1 1259   6.498   6.821   6.838
  120SOL    HW2 1260   6.603   6.717   6.768
  121SOL     OW 1261   2.058   3.635   6.368
  121SOL    HW1 1262   1.993   3.597   6.303
  121SOL    HW2 1263   2.114   3.562   6.406
  122SOL     OW 1264   2.275   4.017   6.488
  122SOL    HW1 1265   2.260   4.024   6.587
  122SOL    HW2 1266   2.237   4.098   6.444
  123SOL     OW 1267   0.365   1.173   1.873
  123SOL    HW1 1268   0.300   1.132   1.808
  123SOL    HW2 1269   0.438   1.108   1.892
  124SOL     OW 1270   4.437   2.923   0.939
  124SOL    HW1 1271   4.518   2.921   0.880
  124SOL    HW2 1272   4.464   2.915   1.034
  125SOL     OW 1273   3.623   1.886   1.430
  125SOL    HW1 1274   3.576   1.974   1.440
  125SOL    HW2 1275   3.719   1.897   1.454
  126SOL     OW 1276   2.753   3.850   1.056
  126SOL    HW1 1277   2.757   3.750   1.067
  126SOL    HW2 1278   2.703   3.890   1.133
  127SOL     OW 1279   0.547   5.316   6.819
  127SOL    HW1 1280   0.457   5.316   6.862
  127SOL    HW2 1281   0.567   5.224   6.784
  128SOL     OW 1282   4.969   3.223   1.251
  128SOL    HW1 1283   5.001   3.180   1.166
  128SOL    HW2 1284   5.003   3.316   1.256
  129SOL     OW 1285   2.377   2.974   6.212
  129SOL    HW1 1286   2.404   2.977   6.115
  129SOL    HW2 1287   2.337   2.884   6.232
  130SOL     OW 1288   1.127   1.872   3.902
  130SOL    HW1 1289   1.060   1.798   3.901
  130SOL    HW2 1290   1.173   1.877   3.813
  131SOL     OW 1291   5.204   1.744   3.615
  131SOL    HW1 1292   5.254   1.815   3.665
  131SOL    HW2 1293   5.223   1.754   3.517
  132SOL     OW 1294   2.017   2.133   1.103
  132SOL    HW1 1295   2.099   2.177   1.065
  132SOL    HW2 1296   1.935   2.176   1.064
  133SOL     OW 1297   4.678   6.644   3.863
  133SOL    HW1 1298   4.752   6.701   3.900
  133SOL    HW2 1299   4.693   6.549   3.890
  134SOL     OW 1300   6.821   1.494   2.487
  134SOL    HW1 1301   6.798   1.585   2.520
  134SOL    HW2 1302   6.777   1.426   2.546
  135SOL     OW 1303   5.438   4.019   3.645
  135SOL    HW1 1304   5.422   3.924   3.673
  135SOL    HW2 1305   5.470   4.020   3.550
  136SOL     OW 1306   3.388   3.792   5.875
  136SOL    HW1 1307   3.379   3.885   5.910
  136SOL    HW2 1308   3.298   3.757   5.848
  137SOL     OW 1309   5.689   2.257   4.737
  137SOL    HW1 1310   5.611   2.250   4.674
  137SOL    HW2 1311   5.661   2.306   4.819
  138SOL     OW 1312   1.080   4.271   2.730
  138SOL    HW1 1313   1.005   4.301   2.671
  138SOL    HW2 1314   1.085   4.331   2.810
  139SOL     OW 1315   2.118   0.163   4.579
  139SOL    HW1 1316   2.036   0.194   4.531
  139SOL    HW2 1317   2.153   0.081   4.534
  140SOL     OW 1318   0.783   5.681   2.756
  140SOL    HW1 1319   0.690   5.713   2.737
  140SOL    HW2 1320   0.790   5.583   2.734
  141SOL     OW 1321   6.097   3.329   5.245
  141SOL    HW1 1322   6.102   3.278   5.330
  141SOL    HW2 1323   6.079   3.426   5.265
  142SOL     OW 1324   1.112   3.940   0.843
  142SOL    HW1 1325   1.025   3.937   0.893
  142SOL    HW2 1326   1.113   3.866   0.775
  143SOL     OW 1327   5.904   4.376   1.439
  143SOL    HW1 1328   5.968   4.306   1.408
  143SOL    HW2 1329   5.811   4.351   1.411
  144SOL     OW 1330   1.287   6.656   5.942
  144SOL    HW1 1331   1.288   6.671   5.844
  144SOL    HW2 1332   1.270   6.559   5.961
  145SOL     OW 1333   7.016   5.672   0.342
  145SOL    HW1 1334   6.960   5.594   0.314
  145SOL    HW2 1335   6.956   5.745   0.374
  146SOL     OW 1336   4.638   0.182   6.637
  146SOL    HW1 1337   4.680   0.272   6.647
  146SOL    HW2 1338   4.640   0.134   6.725
  147SOL     OW 1339   6.346   3.645   6.756
  147SOL    HW1 1340   6.260   3.622   6.802
  147SOL    HW2 1341   6.408   3.691   6.821
  148SOL     OW 1342   6.962   5.266   6.469
  148SOL    HW1 1343   6.882   5.281   6.411
  148SOL    HW2 1344   6.961   5.331   6.544
  149SOL     OW 1345   3.133   1.648   4.128
  149SOL    HW1 1346   3.172   1.601   4.208
  149SOL    HW2 1347   3.068   1.717   4.158
  150SOL     OW 1348   5.800   5.665   6.596
  150SOL    HW1 1349   5.841   5.747   6.637
  150SOL    HW2 1350   5.868   5.618   6.540
  151SOL     OW 1351   3.002   2.190   0.780
  151SOL    HW1 1352   2.943   2.110   0.788
  151SOL    HW2 1353   2.995   2.245   0.863
  152SOL     OW 1354   1.260   0.922   2.466
  152SOL    HW1 1355   1.236   0.953   2.558
  152SOL    HW2 1356   1.177   0.916   2.410
  153SOL     OW 1357   2.775   0.701   1.793
  153SOL    HW1 1358   2.707   0.759   1.749
  153SOL    HW2 1359   2.859   0.753   1.808
  154SOL     OW 1360   0.406   1.997   2.448
  154SOL    HW1 1361   0.423   1.971   2.353
  154SOL    HW2 1362   0.320   1.957   2.478
  155SOL     OW 1363   6.611   1.867   3.221
  155SOL    HW1 1364   6.564   1.921   3.151
  155SOL    HW2 1365   6.565   1.880   3.309
  156SOL     OW 1366   0.373   2.014   0.793
  156SOL    HW1 1367   0.445   2.081   0.776
  156SOL    HW2 1368   0.376   1.986   0.889
  157SOL     OW 1369   5.773   3.192   1.614
  157SOL    HW1 1370   5.796   3.281   1.653
  157SOL    HW2 1371   5.715   3.141   1.678
  158SOL     OW 1372   2.158   5.533   2.376
  158SOL    HW1 1373   2.182   5.574   2.287
  158SOL    HW2 1374   2.060   5.544   2.392
  159SOL     OW 1375   4.485   4.595   2.358
  159SOL    HW1 1376   4.452   4.524   2.420
  159SOL    HW2 1377   4.523   4.553   2.276
  160SOL     OW 1378   5.861   5.262   0.058
  160SOL    HW1 1379   5.831   5.207   7.006
  160SOL    HW2 1380   5.901   5.347   0.024
  161SOL     OW 1381   1.796   5.812   3.849
  161SOL    HW1 1382   1.701   5.833   3.824
  161SOL    HW2 1383   1.849   5.794   3.766
  162SOL     OW 1384   3.507   5.617   0.296
  162SOL    HW1 1385   3.430   5.613   0.232
  162SOL    HW2 1386   3.574   5.683   0.263
  163SOL     OW 1387   5.846   5.835   0.783
  163SOL    HW1 1388   5.747   5.828   0.799
  163SOL    HW2 1389   5.877   5.756   0.732
  164SOL     OW 1390   6.694   4.574   0.216
  164SOL    HW1 1391   6.778   4.542   0.259
  164SOL    HW2 1392   6.703   4.671   0.192
  165SOL     OW 1393   4.967   3.237   1.542
  165SOL    HW1 1394   4.978   3.203   1.449
  165SOL    HW2 1395   4.905   3.176   1.593
  166SOL     OW 1396   6.944   4.495   3.116
  166SOL    HW1 1397   6.989   4.470   3.202
  166SOL    HW2 1398   6.981   4.582   3.084
  167SOL     OW 1399   4.990   2.824   0.833
  167SOL    HW1 1400   5.079   2.814   0.788
  167SOL    HW2 1401   4.933   2.888   0.782
  168SOL     OW 1402   2.349   3.030   1.409
  168SOL    HW1 1403   2.430   3.086   1.426
  168SOL    HW2 1404   2.272   3.064   1.464
  169SOL     OW 1405   4.666   1.170   1.549
  169SOL    HW1 1406   4.751   1.119   1.537
  169SOL    HW2 1407   4.671   1.226   1.632
  170SOL     OW 1408   1.764   1.262   3.267
  170SOL    HW1 1409   1.828   1.336   3.288
  170SOL    HW2 1410   1.742   1.264   3.170
  171SOL     OW 1411   4.160   4.272   6.563
  171SOL    HW1 1412   4.248   4.320   6.564
  171SOL    HW2 1413   4.086   4.339   6.572
  172SOL     OW 1414   6.174   1.942   3.418
  172SOL    HW1 1415   6.077   1.945   3.441
  172SOL    HW2 1416   6.226   1.913   3.498
  173SOL     OW 1417   6.845   1.847   4.683
  173SOL    HW1 1418   6.785   1.768   4.694
  173SOL    HW2 1419   6.812   1.903   4.607
  174SOL     OW 1420   3.833   5.201   3.201
  174SOL    HW1 1421   3.916   5.151   3.176
  174SOL    HW2 1422   3.825   5.203   3.301
  175SOL     OW 1423   2.499   0.363   1.663
  175SOL    HW1 1424   2.489   0.282   1.606
  175SOL    HW2 1425   2.433   0.359   1.738
  176SOL     OW 1426   0.752   4.626   0.638
  176SOL    HW1 1427   0.693   4.662   0.566
  176SOL    HW2 1428   0.848   4.649   0.618
  177SOL     OW 1429   6.219   3.032   2.903
  177SOL    HW1 1430   6.180   3.092   2.972
  177SOL    HW2 1431   6.146   2.981   2.857
  178SOL     OW 1432   2.500   2.654   6.895
  178SOL    HW1 1433   2.543   2.620   6.978
  178SOL    HW2 1434   2.449   2.580   6.851
  179SOL     OW 1435   3.408   1.006   5.764
  179SOL    HW1 1436   3.409   0.906   5.767
  179SOL    HW2 1437   3.391   1.036   5.670
  180SOL     OW 1438   1.928   6.881   0.379
  180SOL    HW1 1439   1.844   6.829   0.388
  180SOL    HW2 1440   1.921   6.965   0.433
  181SOL     OW 1441   3.583   2.512   6.404
  181SOL    HW1 1442   3.567   2.567   6.321
  181SOL    HW2 1443   3.663   2.453   6.389
  182SOL     OW 1444   3.927   1.565   4.839
  182SOL    HW1 1445   3.922   1.468   4.861
  182SOL    HW2 1446   3.869   1.616   4.903
  183SOL     OW 1447   3.447   2.130   3.176
  183SOL    HW1 1448   3.398   2.131   3.263
  183SOL    HW2 1449   3.458   2.223   3.142
  184SOL     OW 1450   1.590   6.337   4.537
  184SOL    HW1 1451   1.530   6.337   4.458
  184SOL    HW2 1452   1.567   6.414   4.597
  185SOL     OW 1453   0.052   1.456   6.126
  185SOL    HW1 1454   0.141   1.414   6.109
  185SOL    HW2 1455   7.006   1.391   6.103
  186SOL     OW 1456   5.813   0.827   4.670
  186SOL    HW1 1457   5.727   0.780   4.690
  186SOL    HW2 1458   5.795   0.925   4.661
  187SOL     OW 1459   4.136   6.988   3.158
  187SOL    HW1 1460   4.137   6.915   3.226
  187SOL    HW2 1461   4.214   6.978   3.096
  188SOL     OW 1462   0.670   1.632   2.772
  188SOL    HW1 1463   0.693   1.542   2.735
  188SOL    HW2 1464   0.651   1.624   2.870
  189SOL     OW 1465   1.970   5.381   1.447
  189SOL    HW1 1466   1.896   5.402   1.511
  189SOL    HW2 1467   1.934   5.328   1.371
  190SOL     OW 1468   5.464   2.239   4.606
  190SOL    HW1 1469   5.414   2.180   4.669
  190SOL    HW2 1470   5.400   2.280   4.540
  191SOL     OW 1471   5.959   6.221   0.046
  191SOL    HW1 1472   5.990   6.132   0.079
  191SOL    HW2 1473   5.861   6.216   0.024
  192SOL     OW 1474   0.833   5.847   2.121
  192SOL    HW1 1475   0.882   5.893   2.047
  192SOL    HW2 1476   0.752   5.900   2.145
  193SOL     OW 1477   5.126   2.837   5.387
  193SOL    HW1 1478   5.159   2.769   5.452
  193SOL    HW2 1479   5.202   2.894   5.356
  194SOL     OW 1480   3.808   0.379   2.697
  194SOL    HW1 1481   3.804   0.462   2.753
  194SOL    HW2 1482   3.746   0.311   2.735
  195SOL     OW 1483   1.861   0.021   5.097
  195SOL    HW1 1484   1.895   0.075   5.020
  195SOL    HW2 1485   1.845   0.080   5.176
  196SOL     OW 1486   2.833   0.377   0.681
  196SOL    HW1 1487   2.853   0.281   0.661
  196SOL    HW2 1488   2.737   0.395   0.661
  197SOL     OW 1489   2.666   6.668   1.652
  197SOL    HW1 1490   2.743   6.729   1.668
  197SOL    HW2 1491   2.615   6.700   1.572
  198SOL     OW 1492   4.802   0.503   2.783
  198SOL    HW1 1493   4.826   0.420   2.833
  198SOL    HW2 1494   4.835   0.583   2.836
  199SOL     OW 1495   6.941   1.921   3.973
  199SOL    HW1 1496   6.847   1.905   3.945
  199SOL    HW2 1497   6.997   1.842   3.947
  200SOL     OW 1498   1.066   3.700   0.692
  200SOL    HW1 1499   1.159   3.663   0.696
  200SOL    HW2 1500   1.003   3.636   0.736
  201SOL     OW 1501   0.371   0.254   6.339
  201SOL    HW1 1502   0.387   0.156   6.351
  201SOL    HW2 1503   0.458   0.303   6.342
  202SOL     OW 1504   3.780   0.810   0.082
  202SOL    HW1 1505   3.798   0.727   0.135
  202SOL    HW2 1506   3.722   0.788   0.004
  203SOL     OW 1507   5.715   2.355   5.360
  203SOL    HW1 1508   5.715   2.395   5.452
  203SOL    HW2 1509   5.699   2.427   5.292
  204SOL     OW 1510   1.248   0.649   4.893
  204SOL    HW1 1511   1.217   0.655   4.798
  204SOL    HW2 1512   1.199   0.716   4.949
  205SOL     OW 1513   0.011   2.275   3.241
  205SOL    HW1 1514   6.989   2.282   3.154
  205SOL    HW2 1515   6.972   2.273   3.316
  206SOL     OW 1516   0.455   4.385   0.921
  206SOL    HW1 1517   0.419   4.478   0.931
  206SOL    HW2 1518   0.491   4.373   0.828
  207SOL     OW 1519   6.335   1.885   3.636
  207SOL    HW1 1520   6.350   1.789   3.659
  207SOL    HW2 1521   6.297   1.933   3.716
  208SOL     OW 1522   6.797   4.291   5.738
  208SOL    HW1 1523   6.794   4.239   5.824
  208SOL    HW2 1524   6.726   4.361   5.738
  209SOL     OW 1525   0.549   5.806   4.302
  209SOL    HW1 1526   0.551   5.874   4.375
  209SOL    HW2 1527   0.480   5.737   4.323
  210SOL     OW 1528   4.406   1.530   0.592
  210SOL    HW1 1529   4.466   1.461   0.633
  210SOL    HW2 1530   4.346   1.568   0.662
  211SOL     OW 1531   2.085   6.602   2.394
  211SOL    HW1 1532   1.999   6.587   2.442
  211SOL    HW2 1533   2.152   6.641   2.458
  212SOL     OW 1534   0.801   4.062   1.905
  212SOL    HW1 1535   0.758   4.061   1.815
  212SOL    HW2 1536   0.899   4.045   1.896
  213SOL     OW 1537   2.829   0.125   0.492
  213SOL    HW1 1538   2.762   0.156   0.425
  213SOL    HW2 1539   2.914   0.176   0.479
  214SOL     OW 1540   4.121   5.251   2.431
  214SOL    HW1 1541   4.173   5.167   2.450
  214SOL    HW2 1542   4.047   5.260   2.497
  215SOL     OW 1543   2.498   3.633   0.619
  215SOL    HW1 1544   2.528   3.727   0.612
  215SOL    HW2 1545   2.576   3.573   0.633
  216SOL     OW 1546   1.215   6.104   3.830
  216SOL    HW1 1547   1.157   6.131   3.906
  216SOL    HW2 1548   1.309   6.132   3.848
  217SOL     OW 1549   1.255   3.166   3.562
  217SOL    HW1 1550   1.156   3.172   3.573
  217SOL    HW2 1551   1.279   3.075   3.529
  218SOL     OW 1552   0.658   3.168   4.405
  218SOL    HW1 1553   0.738   3.166   4.346
  218SOL    HW2 1554   0.685   3.150   4.500
  219SOL     OW 1555   4.253   0.510   0.331
  219SOL    HW1 1556   4.318   0.509   0.255
  219SOL    HW2 1557   4.212   0.601   0.339
  220SOL     OW 1558   3.262   6.931   1.711
  220SOL    HW1 1559   3.195   6.900   1.644
  220SOL    HW2 1560   3.330   6.859   1.725
  221SOL     OW 1561   6.072   4.162   0.996
  221SOL    HW1 1562   6.168   4.172   1.024
  221SOL    HW2 1563   6.026   4.097   1.056
  222SOL     OW 1564   2.093   4.493   5.504
  222SOL    HW1 1565   2.154   4.460   5.431
  222SOL    HW2 1566   1.998   4.487   5.473
  223SOL     OW 1567   6.471   3.382   6.355
  223SOL    HW1 1568   6.529   3.438   6.295
  223SOL    HW2 1569   6.485   3.410   6.450
  224SOL     OW 1570   2.587   1.743   5.782
  224SOL    HW1 1571   2.672   1.723   5.734
  224SOL    HW2 1572   2.574   1.677   5.856
  225SOL     OW 1573   4.717   4.053   6.802
  225SOL    HW1 1574   4.706   3.997   6.721
  225SOL    HW2 1575   4.673   4.008   6.880
  226SOL     OW 1576   0.959   1.416   5.884
  226SOL    HW1 1577   0.901   1.439   5.806
  226SOL    HW2 1578   1.055   1.425   5.859
  227SOL     OW 1579   0.892   4.173   1.498
  227SOL    HW1 1580   0.857   4.237   1.429
  227SOL    HW2 1581   0.882   4.214   1.589
  228SOL     OW 1582   2.697   0.424   3.769
  228SOL    HW1 1583   2.685   0.446   3.866
  228SOL    HW2 1584   2.760   0.348   3.759
  229SOL     OW 1585   6.219   6.091   6.135
  229SOL    HW1 1586   6.290   6.099   6.204
  229SOL    HW2 1587   6.258   6.106   6.044
  230SOL     OW 1588   3.486   4.929   3.355
  230SOL    HW1 1589   3.526   4.960   3.441
  230SOL    HW2 1590   3.387   4.920   3.366
  231SOL     OW 1591   5.832   1.606   6.942
  231SOL    HW1 1592   5.849   1.568   6.851
  231SOL    HW2 1593   5.866   1.542   7.011
  232SOL     OW 1594   0.289   3.245   6.869
  232SOL    HW1 1595   0.361   3.195   6.820
  232SOL    HW2 1596   0.286   3.339   6.837
  233SOL     OW 1597   3.567   1.229   2.915
  233SOL    HW1 1598   3.543   1.326   2.924
  233SOL    HW2 1599   3.487   1.172   2.934
  234SOL     OW 1600   5.593   0.603   6.519
  234SOL    HW1 1601   5.643   0.563   6.442
  234SOL    HW2 1602   5.502   0.562   6.524
  235SOL     OW 1603   4.552   2.511   1.886
  235SOL    HW1 1604   4.570   2.606   1.862
  235SOL    HW2 1605   4.460   2.486   1.858
  236SOL     OW 1606   5.698   2.722   6.782
  236SOL    HW1 1607   5.662   2.727   6.689
  236SOL    HW2 1608   5.665   2.638   6.826
  237SOL     OW 1609   6.575   4.754   1.849
  237SOL    HW1 1610   6.629   4.802   1.780
  237SOL    HW2 1611   6.532   4.820   1.911
  238SOL     OW 1612   5.515   1.121   0.594
  238SOL    HW1 1613   5.485   1.040   0.644
  238SOL    HW2 1614   5.615   1.127   0.597
  239SOL     OW 1615   0.639   5.045   6.753
  239SOL    HW1 1616   0.724   4.994   6.744
  239SOL    HW2 1617   0.564   4.993   6.714
  240SOL     OW 1618   6.635   2.966   3.359
  240SOL    HW1 1619   6.569   2.913   3.413
  240SOL    HW2 1620   6.674   3.038   3.417
  241SOL     OW 1621   2.890   2.111   4.964
  241SOL    HW1 1622   2.979   2.151   4.982
  241SOL    HW2 1623   2.899   2.037   4.897
  242SOL     OW 1624   3.829   3.747   4.259
  242SOL    HW1 1625   3.732   3.766   4.273
  242SOL    HW2 1626   3.852   3.658   4.299
  243SOL     OW 1627   4.729   0.285   6.367
  243SOL    HW1 1628   4.730   0.343   6.449
  243SOL    HW2 1629   4.683   0.199   6.388
  244SOL     OW 1630   5.883   2.989   5.443
  244SOL    HW1 1631   5.878   3.011   5.345
  244SOL    HW2 1632   5.877   3.074   5.496
  245SOL     OW 1633   5.227   2.850   4.038
  245SOL    HW1 1634   5.174   2.927   4.074
  245SOL    HW2 1635   5.322   2.877   4.026
  246SOL     OW 1636   4.611   2.219   3.132
  246SOL    HW1 1637   4.541   2.289   3.121
  246SOL    HW2 1638   4.697   2.252   3.093
  247SOL     OW 1639   2.722   1.578   0.167
  247SOL    HW1 1640   2.816   1.593   0.199
  247SOL    HW2 1641   2.682   1.666   0.140
  248SOL     OW 1642   4.155   1.400   2.417
  248SOL    HW1 1643   4.162   1.336   2.494
  248SOL    HW2 1644   4.069   1.451   2.425
  249SOL     OW 1645   4.161   0.199   4.891
  249SOL    HW1 1646   4.174   0.264   4.966
  249SOL    HW2 1647   4.234   0.130   4.893
  250SOL     OW 1648   4.816   3.044   0.488
  250SOL    HW1 1649   4.753   3.080   0.420
  250SOL    HW2 1650   4.832   3.112   0.560
  251SOL     OW 1651   4.912   3.804   5.447
  251SOL    HW1 1652   4.886   3.739   5.520
  251SOL    HW2 1653   4.946   3.888   5.488
  252SOL     OW 1654   0.053   5.928   5.605
  252SOL    HW1 1655   6.983   5.908   5.588
  252SOL    HW2 1656   0.074   6.021   5.577
  253SOL     OW 1657   2.446   4.710   6.007
  253SOL    HW1 1658   2.428   4.697   6.105
  253SOL    HW2 1659   2.526   4.657   5.980
  254SOL     OW 1660   6.167   2.513   3.978
  254SOL    HW1 1661   6.170   2.520   4.077
  254SOL    HW2 1662   6.074   2.489   3.949
  255SOL     OW 1663   1.603   4.825   5.242
  255SOL    HW1 1664   1.552   4.839   5.326
  255SOL    HW2 1665   1.565   4.746   5.192
  256SOL     OW 1666   5.867   3.831   5.967
  256SOL    HW1 1667   5.895   3.917   5.924
  256SOL    HW2 1668   5.768   3.825   5.967
  257SOL     OW 1669   5.112   0.491   4.116
  257SOL    HW1 1670   5.027   0.461   4.159
  257SOL    HW2 1671   5.171   0.412   4.099
  258SOL     OW 1672   2.242   5.054   5.047
  258SOL    HW1 1673   2.190   5.087   5.126
  258SOL    HW2 1674   2.271   4.959   5.064
  259SOL     OW 1675   6.683   2.319   2.850
  259SOL    HW1 1676   6.748   2.354   2.782
  259SOL    HW2 1677   6.625   2.394   2.882
  260SOL     OW 1678   4.210   0.301   1.760
  260SOL    HW1 1679   4.185   0.296   1.856
  260SOL    HW2 1680   4.190   0.392   1.724
  261SOL     OW 1681   6.438   3.475   0.151
  261SOL    HW1 1682   6.347   3.511   0.131
  261SOL    HW2 1683   6.443   3.380   0.120
  262SOL     OW 1684   0.575   3.612   0.027
  262SOL    HW1 1685   0.597   3.544   0.097
  262SOL    HW2 1686   0.640   3.688   0.033
  263SOL     OW 1687   2.062   0.933   4.585
  263SOL    HW1 1688   1.985   0.965   4.641
  263SOL    HW2 1689   2.119   0.871   4.639
  264SOL     OW 1690   5.909   3.390   0.065
  264SOL    HW1 1691   5.820   3.418   0.027
  264SOL    HW2 1692   5.934   3.452   0.139
  265SOL     OW 1693   5.123   6.714   3.121
  265SOL    HW1 1694   5.206   6.661   3.140
  265SOL    HW2 1695   5.057   6.656   3.074
  266SOL     OW 1696   3.215   2.880   5.865
  266SOL    HW1 1697   3.163   2.934   5.799
  266SOL    HW2 1698   3.262   2.941   5.928
  267SOL     OW 1699   0.586   1.402   6.663
  267SOL    HW1 1700   0.487   1.399   6.645
  267SOL    HW2 1701   0.602   1.404   6.761
  268SOL     OW 1702   3.646   1.086   5.841
  268SOL    HW1 1703   3.550   1.063   5.827
  268SOL    HW2 1704   3.687   1.020   5.904
  269SOL     OW 1705   1.252   3.588   1.241
  269SOL    HW1 1706   1.159   3.575   1.273
  269SOL    HW2 1707   1.267   3.533   1.159
  270SOL     OW 1708   1.351   6.756   0.409
  270SOL    HW1 1709   1.306   6.682   0.460
  270SOL    HW2 1710   1.448   6.733   0.396
  271SOL     OW 1711   0.024   2.015   6.942
  271SOL    HW1 1712   0.077   2.032   6.859
  271SOL    HW2 1713   6.986   1.940   6.926
  272SOL     OW 1714   3.737   5.500   4.524
  272SOL    HW1 1715   3.699   5.496   4.431
  272SOL    HW2 1716   3.729   5.410   4.567
  273SOL     OW 1717   2.057   4.571   4.313
  273SOL    HW1 1718   2.114   4.522   4.380
  273SOL    HW2 1719   1.973   4.519   4.298
  274SOL     OW 1720   4.167   2.318   3.110
  274SOL    HW1 1721   4.122   2.271   3.185
  274SOL    HW2 1722   4.104   2.328   3.033
  275SOL     OW 1723   6.189   4.769   4.260
  275SOL    HW1 1724   6.157   4.675   4.246
  275SOL    HW2 1725   6.110   4.829   4.271
  276SOL     OW 1726   6.664   6.715   3.059
  276SOL    HW1 1727   6.731   6.783   3.027
  276SOL    HW2 1728   6.670   6.707   3.159
  277SOL     OW 1729   1.830   4.421   7.009
  277SOL    HW1 1730   1.752   4.479   0.005
  277SOL    HW2 1731   1.903   4.436   0.049
  278SOL     OW 1732   6.836   4.988   1.880
  278SOL    HW1 1733   6.816   4.925   1.805
  278SOL    HW2 1734   6.813   5.081   1.853
  279SOL     OW 1735   6.276   3.559   4.146
  279SOL    HW1 1736   6.193   3.615   4.148
  279SOL    HW2 1737   6.335   3.583   4.223
  280SOL     OW 1738   3.160   6.953   3.191
  280SOL    HW1 1739   3.211   6.871   3.217
  280SOL    HW2 1740   3.133   7.003   3.273
  281SOL     OW 1741   2.658   4.408   1.732
  281SOL    HW1 1742   2.728   4.371   1.670
  281SOL    HW2 1743   2.700   4.477   1.791
  282SOL     OW 1744   3.156   1.478   6.061
  282SOL    HW1 1745   3.155   1.472   5.961
  282SOL    HW2 1746   3.247   1.503   6.092
  283SOL     OW 1747   6.285   1.707   6.338
  283SOL    HW1 1748   6.185   1.706   6.347
  283SOL    HW2 1749   6.327   1.692   6.427
  284SOL     OW 1750   1.485   4.389   3.443
  284SOL    HW1 1751   1.528   4.306   3.407
  284SOL    HW2 1752   1.417   4.422   3.378
  285SOL     OW 1753   5.970   4.809   4.475
  285SOL    HW1 1754   5.968   4.873   4.399
  285SOL    HW2 1755   5.924   4.850   4.554
  286SOL     OW 1756   3.219   5.793   5.976
  286SOL    HW1 1757   3.254   5.848   5.900
  286SOL    HW2 1758   3.293   5.739   6.015
  287SOL     OW 1759   0.886   3.737   0.466
  287SOL    HW1 1760   0.789   3.714   0.474
  287SOL    HW2 1761   0.924   3.754   0.557
  288SOL     OW 1762   3.859   1.107   6.262
  288SOL    HW1 1763   3.761   1.120   6.247
  288SOL    HW2 1764   3.906   1.107   6.174
  289SOL     OW 1765   0.412   4.307   5.556
  289SOL    HW1 1766   0.373   4.373   5.492
  289SOL    HW2 1767   0.412   4.216   5.515
  290SOL     OW 1768   6.468   2.221   4.753
  290SOL    HW1 1769   6.556   2.177   4.736
  290SOL    HW2 1770   6.423   2.180   4.832
  291SOL     OW 1771   1.666   2.101   4.346
  291SOL    HW1 1772   1.686   2.004   4.330
  291SOL    HW2 1773   1.693   2.155   4.266
  292SOL     OW 1774   1.513   2.617   3.390
  292SOL    HW1 1775   1.538   2.665   3.306
  292SOL    HW2 1776   1.509   2.519   3.374
  293SOL     OW 1777   4.259   6.183   2.222
  293SOL    HW1 1778   4.294   6.132   2.143
  293SOL    HW2 1779   4.189   6.248   2.191
  294SOL     OW 1780   1.002   5.481   6.349
  294SOL    HW1 1781   0.975   5.473   6.445
  294SOL    HW2 1782   0.985   5.394   6.302
  295SOL     OW 1783   3.689   1.817   3.866
  295SOL    HW1 1784   3.751   1.850   3.937
  295SOL    HW2 1785   3.741   1.765   3.798
  296SOL     OW 1786   3.972   2.067   3.124
  296SOL    HW1 1787   4.005   1.985   3.076
  296SOL    HW2 1788   3.872   2.068   3.123
  297SOL     OW 1789   2.486   4.535   3.254
  297SOL    HW1 1790   2.501   4.633   3.251
  297SOL    HW2 1791   2.513   4.495   3.166
  298SOL     OW 1792   3.993   6.120   1.095
  298SOL    HW1 1793   3.907   6.167   1.074
  298SOL    HW2 1794   4.025   6.072   1.014
  299SOL     OW 1795   5.307   3.175   6.054
  299SOL    HW1 1796   5.328   3.099   5.992
  299SOL    HW2 1797   5.356   3.163   6.140
  300SOL     OW 1798   6.950   1.144   2.305
  300SOL    HW1 1799   6.955   1.239   2.277
  300SOL    HW2 1800   6.954   1.138   2.405
  301SOL     OW 1801   4.801   3.534   1.478
  301SOL    HW1 1802   4.832   3.450   1.433
  301SOL    HW2 1803   4.734   3.580   1.419
  302SOL     OW 1804   0.548   0.773   3.319
  302SOL    HW1 1805   0.549   0.829   3.401
  302SOL    HW2 1806   0.642   0.758   3.288
  303SOL     OW 1807   5.668   1.007   2.242
  303SOL    HW1 1808   5.743   1.044   2.187
  303SOL    HW2 1809   5.613   0.945   2.186
  304SOL     OW 1810   2.510   6.945   3.923
  304SOL    HW1 1811   2.508   6.852   3.887
  304SOL    HW2 1812   2.570   7.001   3.865
  305SOL     OW 1813   0.883   3.139   0.386
  305SOL    HW1 1814   0.933   3.140   0.299
  305SOL    HW2 1815   0.795   3.093   0.373
  306SOL     OW 1816   2.047   1.793   3.277
  306SOL    HW1 1817   1.984   1.848   3.221
  306SOL    HW2 1818   2.132   1.843   3.290
  307SOL     OW 1819   4.782   0.334   0.697
  307SOL    HW1 1820   4.776   0.430   0.724
  307SOL    HW2 1821   4.876   0.302   0.709
  308SOL     OW 1822   6.257   3.592   5.116
  308SOL    HW1 1823   6.187   3.615   5.183
  308SOL    HW2 1824   6.299   3.677   5.082
  309SOL     OW 1825   3.151   4.625   6.696
  309SOL    HW1 1826   3.159   4.575   6.609
  309SOL    HW2 1827   3.177   4.720   6.682
  310SOL     OW 1828   6.392   6.836   5.742
  310SOL    HW1 1829   6.449   6.918   5.735
  310SOL    HW2 1830   6.433   6.763   5.687
  311SOL     OW 1831   5.865   5.253   1.481
  311SOL    HW1 1832   5.810   5.306   1.417
  311SOL    HW2 1833   5.925   5.190   1.431
  312SOL     OW 1834   4.551   1.286   5.814
  312SOL    HW1 1835   4.562   1.221   5.890
  312SOL    HW2 1836   4.618   1.360   5.824
  313SOL     OW 1837   2.986   4.164   1.791
  313SOL    HW1 1838   2.961   4.131   1.700
  313SOL    HW2 1839   2.958   4.259   1.801
  314SOL     OW 1840   3.673   4.919   6.745
  314SOL    HW1 1841   3.621   4.954   6.668
  314SOL    HW2 1842   3.766   4.896   6.715
  315SOL     OW 1843   1.078   3.640   3.288
  315SOL    HW1 1844   1.109   3.554   3.329
  315SOL    HW2 1845   1.146   3.671   3.221
  316SOL     OW 1846   2.855   2.317   4.147
  316SOL    HW1 1847   2.914   2.273   4.079
  316SOL    HW2 1848   2.874   2.279   4.237
  317SOL     OW 1849   1.271   0.156   1.138
  317SOL    HW1 1850   1.180   0.174   1.178
  317SOL    HW2 1851   1.260   0.106   1.053
  318SOL     OW 1852   0.805   6.205   6.955
  318SOL    HW1 1853   0.827   6.297   6.986
  318SOL    HW2 1854   0.746   6.210   6.874
  319SOL     OW 1855   6.993   0.882   3.546
  319SOL    HW1 1856   6.988   0.852   3.641
  319SOL    HW2 1857   0.005   0.809   3.489
  320SOL     OW 1858   5.626   2.271   6.996
  320SOL    HW1 1859   5.622   2.173   6.976
  320SOL    HW2 1860   5.647   2.285   0.067
  321SOL     OW 1861   3.109   1.325   1.150
  321SOL    HW1 1862   3.150   1.242   1.111
  321SOL    HW2 1863   3.114   1.321   1.250
  322SOL     OW 1864   3.540   3.946   4.703
  322SOL    HW1 1865   3.615   3.893   4.662
  322SOL    HW2 1866   3.452   3.912   4.669
  323SOL     OW 1867   0.302   3.739   6.981
  323SOL    HW1 1868   0.298   3.838   6.992
  323SOL    HW2 1869   0.388   3.704   7.018
  324SOL     OW 1870   2.018   2.881   3.772
  324SOL    HW1 1871   1.968   2.967   3.775
  324SOL    HW2 1872   2.116   2.899   3.784
  325SOL     OW 1873   1.480   2.967   1.449
  325SOL    HW1 1874   1.533   2.989   1.530
  325SOL    HW2 1875   1.496   2.871   1.424
  326SOL     OW 1876   1.853   5.349   6.081
  326SOL    HW1 1877   1.896   5.433   6.047
  326SOL    HW2 1878   1.771   5.373   6.133
  327SOL     OW 1879   1.582   5.356   4.027
  327SOL    HW1 1880   1.520   5.433   4.015
  327SOL    HW2 1881   1.640   5.347   3.945
  328SOL     OW 1882   2.409   5.834   1.845
  328SOL    HW1 1883   2.495   5.798   1.880
  328SOL    HW2 1884   2.393   5.925   1.884
  329SOL     OW 1885   3.246   4.097   4.529
  329SOL    HW1 1886   3.277   4.115   4.435
  329SOL    HW2 1887   3.288   4.164   4.590
  330SOL     OW 1888   3.178   6.528   1.581
  330SOL    HW1 1889   3.120   6.479   1.645
  330SOL    HW2 1890   3.240   6.464   1.536
  331SOL     OW 1891   4.143   4.823   6.725
  331SOL    HW1 1892   4.089   4.859   6.801
  331SOL    HW2 1893   4.208   4.892   6.694
  332SOL     OW 1894   3.558   2.083   4.636
  332SOL    HW1 1895   3.466   2.118   4.615
  332SOL    HW2 1896   3.608   2.069   4.550
  333SOL     OW 1897   3.173   6.804   6.650
  333SOL    HW1 1898   3.145   6.866   6.577
  333SOL    HW2 1899   3.097   6.745   6.675
  334SOL     OW 1900   2.641   0.304   1.089
  334SOL    HW1 1901   2.687   0.243   1.024
  334SOL    HW2 1902   2.694   0.388   1.098
  335SOL     OW 1903   3.510   6.578   4.519
  335SOL    HW1 1904   3.419   6.536   4.520
  335SOL    HW2 1905   3.576   6.513   4.481
  336SOL     OW 1906   2.993   1.534   3.915
  336SOL    HW1 1907   3.053   1.589   3.974
  336SOL    HW2 1908   2.908   1.584   3.898
  337SOL     OW 1909   6.795   3.526   0.615
  337SOL    HW1 1910   6.824   3.458   0.546
  337SOL    HW2 1911   6.698   3.547   0.602
  338SOL     OW 1912   2.880   2.669   0.879
  338SOL    HW1 1913   2.820   2.639   0.804
  338SOL    HW2 1914   2.884   2.598   0.949
  339SOL     OW 1915   3.652   6.417   4.713
  339SOL    HW1 1916   3.584   6.476   4.669
  339SOL    HW2 1917   3.677   6.455   4.802
  340SOL     OW 1918   4.919   4.242   4.925
  340SOL    HW1 1919   4.829   4.217   4.889
  340SOL    HW2 1920   4.938   4.338   4.904
  341SOL     OW 1921   6.426   0.247   4.316
  341SOL    HW1 1922   6.345   0.190   4.328
  341SOL    HW2 1923   6.419   0.297   4.230
  342SOL     OW 1924   5.622   3.453   7.008
  342SOL    HW1 1925   5.539   3.483   0.029
  342SOL    HW2 1926   5.597   3.389   6.935
  343SOL     OW 1927   2.117   5.810   0.876
  343SOL    HW1 1928   2.138   5.774   0.785
  343SOL    HW2 1929   2.020   5.792   0.897
  344SOL     OW 1930   1.712   4.808   1.777
  344SOL    HW1 1931   1.643   4.880   1.771
  344SOL    HW2 1932   1.725   4.767   1.686
  345SOL     OW 1933   6.873   1.402   5.285
  345SOL    HW1 1934   6.970   1.427   5.279
  345SOL    HW2 1935   6.863   1.303   5.273
  346SOL     OW 1936   1.940   0.742   2.068
  346SOL    HW1 1937   1.983   0.755   1.979
  346SOL    HW2 1938   1.923   0.645   2.084
  347SOL     OW 1939   3.957   6.716   6.276
  347SOL    HW1 1940   3.873   6.770   6.280
  347SOL    HW2 1941   4.004   6.732   6.189
  348SOL     OW 1942   4.886   5.188   1.441
  348SOL    HW1 1943   4.845   5.211   1.530
  348SOL    HW2 1944   4.872   5.090   1.423
  349SOL     OW 1945   6.338   4.640   1.631
  349SOL    HW1 1946   6.297   4.569   1.575
  349SOL    HW2 1947   6.418   4.604   1.679
  350SOL     OW 1948   3.436   3.089   1.741
  350SOL    HW1 1949   3.511   3.027   1.717
  350SOL    HW2 1950   3.467   3.154   1.809
  351SOL     OW 1951   2.636   2.519   0.108
  351SOL    HW1 1952   2.576   2.589   0.148
  351SOL    HW2 1953   2.635   2.437   0.166
  352SOL     OW 1954   3.572   0.280   4.723
  352SOL    HW1 1955   3.522   0.284   4.637
  352SOL    HW2 1956   3.667   0.308   4.708
  353SOL     OW 1957   2.750   0.113   0.936
  353SOL    HW1 1958   2.843   0.135   0.910
  353SOL    HW2 1959   2.746   0.019   0.971
  354SOL     OW 1960   4.016   2.258   0.474
  354SOL    HW1 1961   3.934   2.256   0.530
  354SOL    HW2 1962   4.006   2.194   0.397
  355SOL     OW 1963   6.918   3.022   2.975
  355SOL    HW1 1964   6.825   2.993   2.949
  355SOL    HW2 1965   6.985   2.964   2.928
  356SOL     OW 1966   4.045   5.792   4.724
  356SOL    HW1 1967   3.963   5.777   4.779
  356SOL    HW2 1968   4.037   5.742   4.637
  357SOL     OW 1969   6.588   0.004   5.720
  357SOL    HW1 1970   6.597   0.069   5.795
  357SOL    HW2 1971   6.569   0.053   5.635
  358SOL     OW 1972   5.478   0.241   2.068
  358SOL    HW1 1973   5.429   0.303   2.129
  358SOL    HW2 1974   5.527   0.172   2.122
  359SOL     OW 1975   1.659   2.095   2.274
  359SOL    HW1 1976   1.698   2.053   2.192
  359SOL    HW2 1977   1.730   2.107   2.343
  360SOL     OW 1978   1.972   5.825   6.023
  360SOL    HW1 1979   2.045   5.884   6.059
  360SOL    HW2 1980   1.885   5.873   6.026
  361SOL     OW 1981   5.517   5.789   2.929
  361SOL    HW1 1982   5.455   5.814   2.855
  361SOL    HW2 1983   5.528   5.689   2.931
  362SOL     OW 1984   3.604   4.352   0.819
  362SOL    HW1 1985   3.601   4.271   0.761
  362SOL    HW2 1986   3.666   4.337   0.895
  363SOL     OW 1987   4.725   4.343   3.341
  363SOL    HW1 1988   4.807   4.387   3.375
  363SOL    HW2 1989   4.749   4.276   3.271
  364SOL     OW 1990   0.280   5.795   5.488
  364SOL    HW1 1991   0.299   5.839   5.400
  364SOL    HW2 1992   0.200   5.838   5.529
  365SOL     OW 1993   4.578   5.561   2.467
  365SOL    HW1 1994   4.529   5.474   2.476
  365SOL    HW2 1995   4.549   5.623   2.540
  366SOL     OW 1996   5.947   1.166   0.425
  366SOL    HW1 1997   5.990   1.083   0.462
  366SOL    HW2 1998   5.951   1.165   0.325
  367SOL     OW 1999   5.288   2.963   1.275
  367SOL    HW1 2000   5.315   2.967   1.371
  367SOL    HW2 2001   5.352   3.016   1.220
  368SOL     OW 2002   0.835   4.004   4.899
  368SOL    HW1 2003   0.818   3.944   4.977
  368SOL    HW2 2004   0.929   3.990   4.868
  369SOL     OW 2005   6.250   4.896   1.690
  369SOL    HW1 2006   6.268   4.803   1.658
  369SOL    HW2 2007   6.151   4.911   1.696
  370SOL     OW 2008   3.147   1.867   5.565
  370SOL    HW1 2009   3.150   1.967   5.565
  370SOL    HW2 2010   3.207   1.832   5.492
  371SOL     OW 2011   2.348   3.490   6.600
  371SOL    HW1 2012   2.375   3.586   6.598
  371SOL    HW2 2013   2.256   3.481   6.637
  372SOL     OW 2014   6.570   1.017   5.043
  372SOL    HW1 2015   6.603   0.958   4.969
  372SOL    HW2 2016   6.481   0.985   5.074
  373SOL     OW 2017   6.164   6.814   4.923
  373SOL    HW1 2018   6.186   6.880   4.995
  373SOL    HW2 2019   6.084   6.761   4.951
  374SOL     OW 2020   3.680   7.003   2.245
  374SOL    HW1 2021   3.749   6.930   2.251
  374SOL    HW2 2022   3.594   6.970   2.284
  375SOL     OW 2023   0.417   5.022   4.095
  375SOL    HW1 2024   0.479   5.093   4.130
  375SOL    HW2 2025   0.440   5.002   4.000
  376SOL     OW 2026   1.725   3.315   3.611
  376SOL    HW1 2027   1.633   3.286   3.636
  376SOL    HW2 2028   1.792   3.265   3.666
  377SOL     OW 2029   6.378   2.779   1.958
  377SOL    HW1 2030   6.332   2.745   1.876
  377SOL    HW2 2031   6.472   2.805   1.936
  378SOL     OW 2032   2.943   2.958   5.731
  378SOL    HW1 2033   2.918   2.872   5.774
  378SOL    HW2 2034   2.948   2.946   5.632
  379SOL     OW 2035   6.140   4.359   1.810
  379SOL    HW1 2036   6.104   4.451   1.823
  379SOL    HW2 2037   6.137   4.310   1.897
  380SOL     OW 2038   2.540   1.694   1.664
  380SOL    HW1 2039   2.530   1.777   1.609
  380SOL    HW2 2040   2.589   1.716   1.748
  381SOL     OW 2041   2.145   4.763   1.381
  381SOL    HW1 2042   2.230   4.718   1.356
  381SOL    HW2 2043   2.111   4.724   1.467
  382SOL     OW 2044   5.191   5.776   6.466
  382SOL    HW1 2045   5.148   5.686   6.470
  382SOL    HW2 2046   5.148   5.831   6.395
  383SOL     OW 2047   6.181   3.039   6.362
  383SOL    HW1 2048   6.131   3.097   6.427
  383SOL    HW2 2049   6.279   3.062   6.365
  384SOL     OW 2050   0.798   4.235   5.038
  384SOL    HW1 2051   0.797   4.155   4.978
  384SOL    HW2 2052   0.715   4.288   5.023
  385SOL     OW 2053   4.636   6.131   6.723
  385SOL    HW1 2054   4.627   6.032   6.722
  385SOL    HW2 2055   4.555   6.172   6.766
  386SOL     OW 2056   3.530   0.326   5.295
  386SOL    HW1 2057   3.477   0.310   5.212
  386SOL    HW2 2058   3.625   0.342   5.271
  387SOL     OW 2059   7.018   5.943   3.582
  387SOL    HW1 2060   0.005   5.844   3.579
  387SOL    HW2 2061   0.004   5.981   3.490
  388SOL     OW 2062   0.426   2.310   4.381
  388SOL    HW1 2063   0.475   2.223   4.386
  388SOL    HW2 2064   0.469   2.369   4.313
  389SOL     OW 2065   4.270   4.094   1.672
  389SOL    HW1 2066   4.286   3.998   1.697
  389SOL    HW2 2067   4.327   4.153   1.728
  390SOL     OW 2068   3.392   0.859   0.125
  390SOL    HW1 2069   3.327   0.787   0.152
  390SOL    HW2 2070   3.352   0.949   0.145
  391SOL     OW 2071   2.107   4.083   5.204
  391SOL    HW1 2072   2.032   4.110   5.143
  391SOL    HW2 2073   2.191   4.072   5.151
  392SOL     OW 2074   1.571   2.987   2.143
  392SOL    HW1 2075   1.575   3.048   2.222
  392SOL    HW2 2076   1.510   3.026   2.073
  393SOL     OW 2077   1.390   5.644   0.195
  393SOL    HW1 2078   1.423   5.691   0.276
  393SOL    HW2 2079   1.467   5.623   0.135
  394SOL     OW 2080   0.964   2.919   6.642
  394SOL    HW1 2081   1.010   3.007   6.629
  394SOL    HW2 2082   0.875   2.934   6.685
  395SOL     OW 2083   5.304   4.172   2.157
  395SOL    HW1 2084   5.334   4.077   2.155
  395SOL    HW2 2085   5.362   4.224   2.219
  396SOL     OW 2086   2.408   2.084   2.352
  396SOL    HW1 2087   2.358   2.008   2.311
  396SOL    HW2 2088   2.504   2.058   2.367
  397SOL     OW 2089   5.642   1.500   6.024
  397SOL    HW1 2090   5.708   1.425   6.028
  397SOL    HW2 2091   5.592   1.505   6.110
  398SOL     OW 2092   1.412   6.157   4.733
  398SOL    HW1 2093   1.386   6.064   4.706
  398SOL    HW2 2094   1.471   6.196   4.662
  399SOL     OW 2095   6.365   5.990   4.402
  399SOL    HW1 2096   6.272   6.023   4.419
  399SOL    HW2 2097   6.366   5.890   4.408
  400SOL     OW 2098   6.680   6.312   5.057
  400SOL    HW1 2099   6.596   6.257   5.065
  400SOL    HW2 2100   6.721   6.296   4.967
  401SOL     OW 2101   5.962   6.998   6.095
  401SOL    HW1 2102   5.878   6.997   6.041
  401SOL    HW2 2103   6.039   7.022   6.035
  402SOL     OW 2104   6.233   0.358   2.263
  402SOL    HW1 2105   6.222   0.310   2.177
  402SOL    HW2 2106   6.271   0.296   2.332
  403SOL     OW 2107   3.138   0.171   6.420
  403SOL    HW1 2108   3.143   0.071   6.414
  403SOL    HW2 2109   3.143   0.199   6.516
  404SOL     OW 2110   2.638   5.717   5.514
  404SOL    HW1 2111   2.728   5.759   5.530
  404SOL    HW2 2112   2.632   5.632   5.566
  405SOL     OW 2113   2.326   4.155   3.461
  405SOL    HW1 2114   2.285   4.166   3.551
  405SOL    HW2 2115   2.356   4.060   3.449
  406SOL     OW 2116   0.451   4.930   5.277
  406SOL    HW1 2117   0.405   5.017   5.291
  406SOL    HW2 2118   0.546   4.938   5.309
  407SOL     OW 2119   1.526   3.082   3.525
  407SOL    HW1 2120   1.437   3.127   3.535
  407SOL    HW2 2121   1.563   3.101   3.434
  408SOL     OW 2122   3.299   1.969   2.992
  408SOL    HW1 2123   3.338   2.047   3.043
  408SOL    HW2 2124   3.314   1.983   2.894
  409SOL     OW 2125   6.837   3.510   1.673
  409SOL    HW1 2126   6.799   3.430   1.628
  409SOL    HW2 2127   6.937   3.505   1.673
  410SOL     OW 2128   1.405   1.720   1.322
  410SOL    HW1 2129   1.368   1.703   1.413
  410SOL    HW2 2130   1.399   1.637   1.267
  411SOL     OW 2131   6.323   2.050   2.017
  411SOL    HW1 2132   6.374   1.978   2.062
  411SOL    HW2 2133   6.380   2.091   1.945
  412SOL     OW 2134   3.394   5.138   2.649
  412SOL    HW1 2135   3.304   5.134   2.690
  412SOL    HW2 2136   3.385   5.154   2.550
  413SOL     OW 2137   4.011   5.290   1.812
  413SOL    HW1 2138   3.926   5.239   1.799
  413SOL    HW2 2139   3.994   5.370   1.869
  414SOL     OW 2140   3.735   0.285   3.771
  414SOL    HW1 2141   3.651   0.305   3.822
  414SOL    HW2 2142   3.720   0.207   3.711
  415SOL     OW 2143   7.020   1.393   7.010
  415SOL    HW1 2144   6.979   1.484   6.999
  415SOL    HW2 2145   0.084   1.403   0.025
  416SOL     OW 2146   5.205   4.440   4.472
  416SOL    HW1 2147   5.137   4.396   4.414
  416SOL    HW2 2148   5.293   4.444   4.424
  417SOL     OW 2149   1.954   1.225   6.518
  417SOL    HW1 2150   1.910   1.180   6.441
  417SOL    HW2 2151   2.047   1.252   6.493
  418SOL     OW 2152   3.033   6.925   5.429
  418SOL    HW1 2153   3.104   6.928   5.358
  418SOL    HW2 2154   2.995   6.833   5.434
  419SOL     OW 2155   6.975   6.638   3.060
  419SOL    HW1 2156   0.024   6.594   3.111
  419SOL    HW2 2157   6.968   6.733   3.089
  420SOL     OW 2158   5.684   0.852   6.612
  420SOL    HW1 2159   5.603   0.895   6.651
  420SOL    HW2 2160   5.661   0.759   6.582
  421SOL     OW 2161   5.704   4.250   5.387
  421SOL    HW1 2162   5.618   4.214   5.423
  421SOL    HW2 2163   5.736   4.191   5.313
  422SOL     OW 2164   5.327   1.832   0.562
  422SOL    HW1 2165   5.426   1.833   0.551
  422SOL    HW2 2166   5.284   1.795   0.480
  423SOL     OW 2167   2.542   0.838   6.706
  423SOL    HW1 2168   2.517   0.911   6.770
  423SOL    HW2 2169   2.526   0.870   6.612
  424SOL     OW 2170   2.163   5.152   2.876
  424SOL    HW1 2171   2.080   5.126   2.826
  424SOL    HW2 2172   2.206   5.070   2.913
  425SOL     OW 2173   5.314   1.230   5.088
  425SOL    HW1 2174   5.371   1.275   5.157
  425SOL    HW2 2175   5.327   1.131   5.093
  426SOL     OW 2176   2.389   2.887   5.363
  426SOL    HW1 2177   2.340   2.922   5.442
  426SOL    HW2 2178   2.427   2.963   5.310
  427SOL     OW 2179   5.346   1.251   4.436
  427SOL    HW1 2180   5.339   1.222   4.531
  427SOL    HW2 2181   5.270   1.311   4.413
  428SOL     OW 2182   2.392   0.887   4.572
  428SOL    HW1 2183   2.326   0.918   4.640
  428SOL    HW2 2184   2.371   0.931   4.484
  429SOL     OW 2185   0.729   5.426   4.244
  429SOL    HW1 2186   0.664   5.424   4.321
  429SOL    HW2 2187   0.811   5.375   4.268
  430SOL     OW 2188   1.579   0.176   3.910
  430SOL    HW1 2189   1.662   0.224   3.938
  430SOL    HW2 2190   1.549   0.115   3.983
  431SOL     OW 2191   2.372   2.009   0.947
  431SOL    HW1 2192   2.438   2.040   1.015
  431SOL    HW2 2193   2.289   2.065   0.952
  432SOL     OW 2194   5.505   1.877   1.271
  432SOL    HW1 2195   5.557   1.793   1.260
  432SOL    HW2 2196   5.466   1.904   1.182
  433SOL     OW 2197   3.789   6.265   6.365
  433SOL    HW1 2198   3.797   6.230   6.458
  433SOL    HW2 2199   3.856   6.219   6.307
  434SOL     OW 2200   3.707   6.148   3.643
  434SOL    HW1 2201   3.747   6.066   3.602
  434SOL    HW2 2202   3.615   6.162   3.607
  435SOL     OW 2203   4.000   1.424   5.514
  435SOL    HW1 2204   3.905   1.443   5.536
  435SOL    HW2 2205   4.040   1.367   5.585
  436SOL     OW 2206   3.415   6.000   2.741
  436SOL    HW1 2207   3.495   6.052   2.711
  436SOL    HW2 2208   3.344   6.002   2.671
  437SOL     OW 2209   0.220   1.198   4.663
  437SOL    HW1 2210   0.245   1.138   4.587
  437SOL    HW2 2211   0.158   1.149   4.725
  438SOL     OW 2212   1.418   4.668   3.176
  438SOL    HW1 2213   1.419   4.706   3.084
  438SOL    HW2 2214   1.487   4.715   3.232
  439SOL     OW 2215   5.840   0.801   3.173
  439SOL    HW1 2216   5.864   0.770   3.265
  439SOL    HW2 2217   5.820   0.899   3.176
  440SOL     OW 2218   3.587   1.146   6.831
  440SOL    HW1 2219   3.524   1.220   6.804
  440SOL    HW2 2220   3.679   1.183   6.840
  441SOL     OW 2221   6.041   4.433   2.922
  441SOL    HW1 2222   6.113   4.460   2.985
  441SOL    HW2 2223   5.956   4.479   2.946
  442SOL     OW 2224   4.879   4.047   5.827
  442SOL    HW1 2225   4.780   4.058   5.825
  442SOL    HW2 2226   4.914   4.041   5.734
  443SOL     OW 2227   5.246   4.843   3.327
  443SOL    HW1 2228   5.211   4.793   3.247
  443SOL    HW2 2229   5.261   4.939   3.303
  444SOL     OW 2230   3.861   1.191   6.754
  444SOL    HW1 2231   3.840   1.252   6.678
  444SOL    HW2 2232   3.951   1.150   6.741
  445SOL     OW 2233   2.553   6.257   2.829
  445SOL    HW1 2234   2.479   6.325   2.833
  445SOL    HW2 2235   2.621   6.287   2.762
  446SOL     OW 2236   4.678   5.979   2.976
  446SOL    HW1 2237   4.716   5.960   2.886
  446SOL    HW2 2238   4.675   5.895   3.030
  447SOL     OW 2239   6.285   3.473   5.682
  447SOL    HW1 2240   6.366   3.434   5.638
  447SOL    HW2 2241   6.302   3.487   5.779
  448SOL     OW 2242   1.998   1.359   2.868
  448SOL    HW1 2243   1.918   1.300   2.862
  448SOL    HW2 2244   1.970   1.454   2.859
  449SOL     OW 2245   1.869   2.605   3.391
  449SOL    HW1 2246   1.893   2.546   3.468
  449SOL    HW2 2247   1.910   2.569   3.307
  450SOL     OW 2248   0.769   4.573   3.461
  450SOL    HW1 2249   0.702   4.515   3.508
  450SOL    HW2 2250   0.725   4.619   3.384
  451SOL     OW 2251   6.839   2.280   3.421
  451SOL    HW1 2252   6.786   2.218   3.478
  451SOL    HW2 2253   6.779   2.350   3.383
  452SOL     OW 2254   3.361   6.619   2.744
  452SOL    HW1 2255   3.438   6.567   2.781
  452SOL    HW2 2256   3.366   6.713   2.775
  453SOL     OW 2257   4.776   0.345   6.898
  453SOL    HW1 2258   4.863   0.313   6.861
  453SOL    HW2 2259   4.793   0.402   6.978
  454SOL     OW 2260   6.865   4.267   6.378
  454SOL    HW1 2261   6.884   4.280   6.280
  454SOL    HW2 2262   6.778   4.219   6.388
  455SOL     OW 2263   6.786   3.824   5.647
  455SOL    HW1 2264   6.730   3.857   5.571
  455SOL    HW2 2265   6.806   3.727   5.633
  456SOL     OW 2266   1.555   1.045   3.796
  456SOL    HW1 2267   1.617   0.971   3.823
  456SOL    HW2 2268   1.607   1.116   3.749
  457SOL     OW 2269   1.534   5.869   5.812
  457SOL    HW1 2270   1.496   5.823   5.893
  457SOL    HW2 2271   1.507   5.819   5.730
  458SOL     OW 2272   2.490   0.964   2.934
  458SOL    HW1 2273   2.480   1.062   2.949
  458SOL    HW2 2274   2.527   0.921   3.016
  459SOL     OW 2275   2.272   0.517   5.422
  459SOL    HW1 2276   2.286   0.426   5.461
  459SOL    HW2 2277   2.241   0.580   5.493
  460SOL     OW 2278   1.156   1.464   5.324
  460SOL    HW1 2279   1.245   1.452   5.367
  460SOL    HW2 2280   1.167   1.515   5.238
  461SOL     OW 2281   0.087   4.553   5.211
  461SOL    HW1 2282   0.146   4.503   5.275
  461SOL    HW2 2283   0.144   4.608   5.150
  462SOL     OW 2284   3.729   3.814   4.565
  462SOL    HW1 2285   3.800   3.745   4.549
  462SOL    HW2 2286   3.675   3.826   4.482
  463SOL     OW 2287   5.854   6.695   2.703
  463SOL    HW1 2288   5.902   6.701   2.791
  463SOL    HW2 2289   5.832   6.787   2.671
  464SOL     OW 2290   3.395   6.491   6.324
  464SOL    HW1 2291   3.414   6.465   6.419
  464SOL    HW2 2292   3.330   6.427   6.283
  465SOL     OW 2293   1.331   1.933   0.739
  465SOL    HW1 2294   1.344   1.940   0.838
  465SOL    HW2 2295   1.236   1.906   0.720
  466SOL     OW 2296   3.300   6.198   4.434
  466SOL    HW1 2297   3.393   6.178   4.404
  466SOL    HW2 2298   3.292   6.295   4.456
  467SOL     OW 2299   0.905   1.840   2.491
  467SOL    HW1 2300   0.815   1.816   2.529
  467SOL    HW2 2301   0.936   1.766   2.432
  468SOL     OW 2302   4.982   0.313   6.673
  468SOL    HW1 2303   4.903   0.356   6.629
  468SOL    HW2 2304   5.065   0.337   6.623
  469SOL     OW 2305   3.072   4.484   5.646
  469SOL    HW1 2306   2.997   4.418   5.640
  469SOL    HW2 2307   3.090   4.521   5.555
  470SOL     OW 2308   2.988   5.804   3.223
  470SOL    HW1 2309   2.891   5.814   3.201
  470SOL    HW2 2310   3.009   5.707   3.237
  471SOL     OW 2311   2.593   2.468   4.194
  471SOL    HW1 2312   2.686   2.489   4.164
  471SOL    HW2 2313   2.595   2.391   4.257
  472SOL     OW 2314   5.589   4.417   6.458
  472SOL    HW1 2315   5.629   4.337   6.503
  472SOL    HW2 2316   5.616   4.418   6.361
  473SOL     OW 2317   6.542   2.394   2.537
  473SOL    HW1 2318   6.544   2.418   2.440
  473SOL    HW2 2319   6.635   2.400   2.574
  474SOL     OW 2320   6.025   5.790   5.008
  474SOL    HW1 2321   5.956   5.800   4.937
  474SOL    HW2 2322   6.097   5.858   4.995
  475SOL     OW 2323   5.625   2.717   0.608
  475SOL    HW1 2324   5.665   2.653   0.543
  475SOL    HW2 2325   5.586   2.795   0.559
  476SOL     OW 2326   0.216   3.997   1.846
  476SOL    HW1 2327   0.126   3.959   1.872
  476SOL    HW2 2328   0.288   3.948   1.896
  477SOL     OW 2329   2.688   6.185   4.119
  477SOL    HW1 2330   2.744   6.106   4.095
  477SOL    HW2 2331   2.599   6.178   4.074
  478SOL     OW 2332   4.484   6.075   2.770
  478SOL    HW1 2333   4.504   6.145   2.839
  478SOL    HW2 2334   4.564   6.017   2.758
  479SOL     OW 2335   4.110   3.263   4.015
  479SOL    HW1 2336   4.113   3.362   4.008
  479SOL    HW2 2337   4.085   3.237   4.109
  480SOL     OW 2338   1.734   6.853   2.911
  480SOL    HW1 2339   1.663   6.799   2.867
  480SOL    HW2 2340   1.768   6.922   2.847
  481SOL     OW 2341   1.071   5.952   1.374
  481SOL    HW1 2342   1.066   5.928   1.277
  481SOL    HW2 2343   1.023   5.882   1.428
  482SOL     OW 2344   5.661   4.557   2.843
  482SOL    HW1 2345   5.695   4.463   2.848
  482SOL    HW2 2346   5.730   4.620   2.879
  483SOL     OW 2347   6.159   2.410   2.849
  483SOL    HW1 2348   6.061   2.392   2.858
  483SOL    HW2 2349   6.194   2.449   2.934
  484SOL     OW 2350   2.051   4.153   4.707
  484SOL    HW1 2351   2.032   4.182   4.614
  484SOL    HW2 2352   2.146   4.175   4.730
  485SOL     OW 2353   5.717   3.444   2.628
  485SOL    HW1 2354   5.746   3.510   2.559
  485SOL    HW2 2355   5.777   3.364   2.624
  486SOL     OW 2356   6.187   0.049   6.352
  486SOL    HW1 2357   6.090   0.042   6.329
  486SOL    HW2 2358   6.213   0.145   6.363
  487SOL     OW 2359   0.452   6.938   3.294
  487SOL    HW1 2360   0.484   0.005   3.279
  487SOL    HW2 2361   0.455   6.917   3.392
  488SOL     OW 2362   1.766   6.795   3.171
  488SOL    HW1 2363   1.731   6.829   3.083
  488SOL    HW2 2364   1.840   6.730   3.154
  489SOL     OW 2365   6.144   6.110   4.613
  489SOL    HW1 2366   6.235   6.139   4.642
  489SOL    HW2 2367   6.076   6.179   4.642
  490SOL     OW 2368   1.518   5.663   6.027
  490SOL    HW1 2369   1.461   5.585   6.054
  490SOL    HW2 2370   1.570   5.639   5.945
  491SOL     OW 2371   6.860   3.348   0.396
  491SOL    HW1 2372   6.847   3.250   0.386
  491SOL    HW2 2373   6.818   3.396   0.319
  492SOL     OW 2374   1.544   1.585   5.841
  492SOL    HW1 2375   1.500   1.495   5.830
  492SOL    HW2 2376   1.608   1.600   5.766
  493SOL     OW 2377   2.691   0.094   5.342
  493SOL    HW1 2378   2.767   0.060   5.286
  493SOL    HW2 2379   2.659   0.181   5.305
  494SOL     OW 2380   2.755   1.130   6.104
  494SOL    HW1 2381   2.804   1.043   6.096
  494SOL    HW2 2382   2.812   1.196   6.154
  495SOL     OW 2383   3.898   6.034   5.349
  495SOL    HW1 2384   3.949   6.118   5.364
  495SOL    HW2 2385   3.840   6.044   5.268
  496SOL     OW 2386   6.494   1.928   2.994
  496SOL    HW1 2387   6.480   2.000   2.926
  496SOL    HW2 2388   6.406   1.903   3.034
  497SOL     OW 2389   3.774   1.321   5.800
  497SOL    HW1 2390   3.739   1.230   5.822
  497SOL    HW2 2391   3.870   1.314   5.774
  498SOL     OW 2392   6.923   5.773   1.979
  498SOL    HW1 2393   6.832   5.743   1.951
  498SOL    HW2 2394   6.934   5.871   1.960
  499SOL     OW 2395   3.342   4.881   6.113
  499SOL    HW1 2396   3.401   4.813   6.069
  499SOL    HW2 2397   3.247   4.866   6.084
  500SOL     OW 2398   5.616   2.718   6.517
  500SOL    HW1 2399   5.543   2.776   6.482
  500SOL    HW2 2400   5.653   2.663   6.441
  501SOL     OW 2401   2.094   7.014   2.728
  501SOL    HW1 2402   2.038   6.947   2.776
  501SOL    HW2 2403   2.185   7.018   2.769
  502SOL     OW 2404   1.892   4.756   5.986
  502SOL    HW1 2405   1.861   4.762   5.891
  502SOL    HW2 2406   1.839   4.820   6.042
  503SOL     OW 2407   3.339   4.367   6.571
  503SOL    HW1 2408   3.382   4.295   6.517
  503SOL    HW2 2409   3.311   4.442   6.511
  504SOL     OW 2410   6.702   6.034   2.040
  504SOL    HW1 2411   6.749   6.025   1.952
  504SOL    HW2 2412   6.759   6.085   2.103
  505SOL     OW 2413   4.009   0.154   5.377
  505SOL    HW1 2414   3.984   0.129   5.284
  505SOL    HW2 2415   3.997   0.075   5.438
  506SOL     OW 2416   2.950   5.600   2.749
  506SOL    HW1 2417   2.898   5.668   2.696
  506SOL    HW2 2418   3.041   5.636   2.769
  507SOL     OW 2419   4.279   1.265   1.668
  507SOL    HW1 2420   4.281   1.196   1.596
  507SOL    HW2 2421   4.186   1.273   1.705
  508SOL     OW 2422   0.128   3.590   4.259
  508SOL    HW1 2423   0.133   3.500   4.303
  508SOL    HW2 2424   0.121   3.579   4.160
  509SOL     OW 2425   5.260   0.518   0.214
  509SOL    HW1 2426   5.241   0.468   0.298
  509SOL    HW2 2427   5.352   0.498   0.182
  510SOL     OW 2428   6.130   4.562   6.090
  510SOL    HW1 2429   6.121   4.483   6.030
  510SOL    HW2 2430   6.074   4.637   6.056
  511SOL     OW 2431   1.208   1.329   6.445
  511SOL    HW1 2432   1.223   1.230   6.441
  511SOL    HW2 2433   1.159   1.351   6.529
  512SOL     OW 2434   5.487   2.446   0.295
  512SOL    HW1 2435   5.552   2.489   0.357
  512SOL    HW2 2436   5.527   2.363   0.255
  513SOL     OW 2437   5.817   6.925   2.549
  513SOL    HW1 2438   5.728   6.952   2.514
  513SOL    HW2 2439   5.884   6.925   2.474
  514SOL     OW 2440   0.056   6.385   3.768
  514SOL    HW1 2441   0.105   6.449   3.711
  514SOL    HW2 2442   6.984   6.390   3.748
  515SOL     OW 2443   3.005   0.802   6.569
  515SOL    HW1 2444   3.083   0.749   6.537
  515SOL    HW2 2445   2.927   0.741   6.584
  516SOL     OW 2446   2.398   4.128   1.366
  516SOL    HW1 2447   2.341   4.058   1.323
  516SOL    HW2 2448   2.373   4.136   1.463
  517SOL     OW 2449   3.570   4.896   2.347
  517SOL    HW1 2450   3.660   4.888   2.304
  517SOL    HW2 2451   3.509   4.947   2.286
  518SOL     OW 2452   2.103   3.224   3.570
  518SOL    HW1 2453   2.116   3.224   3.669
  518SOL    HW2 2454   2.149   3.144   3.530
  519SOL     OW 2455   6.759   6.328   4.111
  519SOL    HW1 2456   6.826   6.336   4.185
  519SOL    HW2 2457   6.743   6.231   4.091
  520SOL     OW 2458   1.213   3.216   7.008
  520SOL    HW1 2459   1.220   3.123   6.973
  520SOL    HW2 2460   1.299   3.242   0.025
  521SOL     OW 2461   4.543   5.219   4.445
  521SOL    HW1 2462   4.628   5.235   4.396
  521SOL    HW2 2463   4.514   5.124   4.431
  522SOL     OW 2464   4.185   3.811   1.322
  522SOL    HW1 2465   4.281   3.782   1.327
  522SOL    HW2 2466   4.176   3.904   1.359
  523SOL     OW 2467   0.048   6.654   1.800
  523SOL    HW1 2468   0.017   6.673   1.893
  523SOL    HW2 2469   0.129   6.709   1.779
  524SOL     OW 2470   0.603   2.932   2.338
  524SOL    HW1 2471   0.664   3.010   2.324
  524SOL    HW2 2472   0.631   2.858   2.277
  525SOL     OW 2473   0.894   3.225   6.800
  525SOL    HW1 2474   0.865   3.311   6.841
  525SOL    HW2 2475   0.990   3.231   6.775
  526SOL     OW 2476   3.464   0.057   4.353
  526SOL    HW1 2477   3.457   6.988   4.383
  526SOL    HW2 2478   3.447   0.118   4.431
  527SOL     OW 2479   1.153   2.599   0.024
  527SOL    HW1 2480   1.152   2.659   6.971
  527SOL    HW2 2481   1.071   2.614   0.078
  528SOL     OW 2482   0.618   3.494   3.303
  528SOL    HW1 2483   0.639   3.428   3.231
  528SOL    HW2 2484   0.621   3.450   3.392
  529SOL     OW 2485   2.483   0.495   5.696
  529SOL    HW1 2486   2.575   0.528   5.715
  529SOL    HW2 2487   2.470   0.483   5.598
  530SOL     OW 2488   3.651   2.936   2.178
  530SOL    HW1 2489   3.702   2.876   2.117
  530SOL    HW2 2490   3.696   2.938   2.268
  531SOL     OW 2491   2.552   0.608   2.773
  531SOL    HW1 2492   2.597   0.615   2.683
  531SOL    HW2 2493   2.619   0.580   2.841
  532SOL     OW 2494   1.705   3.759   0.339
  532SOL    HW1 2495   1.615   3.801   0.351
  532SOL    HW2 2496   1.767   3.826   0.297
  533SOL     OW 2497   5.404   0.207   3.479
  533SOL    HW1 2498   5.383   0.110   3.469
  533SOL    HW2 2499   5.491   0.228   3.434
  534SOL     OW 2500   0.957   5.679   1.427
  534SOL    HW1 2501   0.874   5.727   1.400
  534SOL    HW2 2502   0.939   5.580   1.431
  535SOL     OW 2503   6.806   4.187   3.217
  535SOL    HW1 2504   6.788   4.262   3.153
  535SOL    HW2 2505   6.759   4.204   3.303
  536SOL     OW 2506   6.516   5.542   3.384
  536SOL    HW1 2507   6.508   5.452   3.340
  536SOL    HW2 2508   6.586   5.596   3.338
  537SOL     OW 2509   3.766   6.767   4.203
  537SOL    HW1 2510   3.803   6.676   4.221
  537SOL    HW2 2511   3.818   6.836   4.254
  538SOL     OW 2512   1.506   5.512   5.352
  538SOL    HW1 2513   1.568   5.521   5.431
  538SOL    HW2 2514   1.454   5.427   5.361
  539SOL     OW 2515   1.256   5.597   1.746
  539SOL    HW1 2516   1.157   5.612   1.736
  539SOL    HW2 2517   1.299   5.682   1.777
  540SOL     OW 2518   1.914   1.091   4.119
  540SOL    HW1 2519   1.866   1.041   4.047
  540SOL    HW2 2520   1.928   1.186   4.090
  541SOL     OW 2521   4.131   5.913   3.683
  541SOL    HW1 2522   4.175   5.915   3.773
  541SOL    HW2 2523   4.044   5.866   3.690
  542SOL     OW 2524   3.887   5.868   6.437
  542SOL    HW1 2525   3.963   5.807   6.413
  542SOL    HW2 2526   3.808   5.813   6.462
  543SOL     OW 2527   5.618   3.768   3.991
  543SOL    HW1 2528   5.543   3.768   3.925
  543SOL    HW2 2529   5.581   3.768   4.084
  544SOL     OW 2530   0.410   4.889   0.091
  544SOL    HW1 2531   0.335   4.900   0.026
  544SOL    HW2 2532   0.476   4.963   0.078
  545SOL     OW 2533   4.443   1.120   1.118
  545SOL    HW1 2534   4.404   1.037   1.077
  545SOL    HW2 2535   4.371   1.190   1.126
  546SOL     OW 2536   0.380   4.416   1.654
  546SOL    HW1 2537   0.298   4.466   1.682
  546SOL    HW2 2538   0.384   4.411   1.554
  547SOL     OW 2539   3.119   2.503   0.381
  547SOL    HW1 2540   3.138   2.447   0.462
  547SOL    HW2 2541   3.028   2.481   0.347
  548SOL     OW 2542   3.016   3.384   0.498
  548SOL    HW1 2543   3.095   3.440   0.470
  548SOL    HW2 2544   2.937   3.411   0.444
  549SOL     OW 2545   4.984   2.492   1.157
  549SOL    HW1 2546   4.910   2.553   1.182
  549SOL    HW2 2547   4.999   2.494   1.058
  550SOL     OW 2548   6.714   4.858   3.434
  550SOL    HW1 2549   6.628   4.839   3.386
  550SOL    HW2 2550   6.702   4.939   3.492
  551SOL     OW 2551   6.946   0.788   0.750
  551SOL    HW1 2552   6.969   0.878   0.713
  551SOL    HW2 2553   7.011   0.720   0.716
  552SOL     OW 2554   5.055   5.019   5.288
  552SOL    HW1 2555   5.148   5.057   5.284
  552SOL    HW2 2556   4.989   5.094   5.286
  553SOL     OW 2557   3.915   0.616   4.217
  553SOL    HW1 2558   3.905   0.522   4.183
  553SOL    HW2 2559   3.829   0.645   4.259
  554SOL     OW 2560   5.752   5.483   6.848
  554SOL    HW1 2561   5.688   5.556   6.872
  554SOL    HW2 2562   5.832   5.487   6.908
  555SOL     OW 2563   3.401   5.577   5.181
  555SOL    HW1 2564   3.445   5.490   5.202
  555SOL    HW2 2565   3.424   5.606   5.089
  556SOL     OW 2566   5.424   1.841   4.570
  556SOL    HW1 2567   5.327   1.863   4.562
  556SOL    HW2 2568   5.438   1.743   4.555
  557SOL     OW 2569   6.731   4.788   6.262
  557SOL    HW1 2570   6.800   4.795   6.190
  557SOL    HW2 2571   6.749   4.707   6.318
  558SOL     OW 2572   4.090   3.229   3.700
  558SOL    HW1 2573   4.109   3.179   3.785
  558SOL    HW2 2574   4.090   3.164   3.624
  559SOL     OW 2575   6.499   6.222   5.564
  559SOL    HW1 2576   6.454   6.235   5.476
  559SOL    HW2 2577   6.491   6.305   5.619
  560SOL     OW 2578   6.684   3.474   3.248
  560SOL    HW1 2579   6.687   3.538   3.171
  560SOL    HW2 2580   6.748   3.399   3.232
  561SOL     OW 2581   6.603   2.556   6.434
  561SOL    HW1 2582   6.682   2.616   6.451
  561SOL    HW2 2583   6.630   2.461   6.450
  562SOL     OW 2584   4.748   6.862   5.604
  562SOL    HW1 2585   4.797   6.810   5.673
  562SOL    HW2 2586   4.672   6.807   5.569
  563SOL     OW 2587   2.233   1.480   3.639
  563SOL    HW1 2588   2.292   1.439   3.708
  563SOL    HW2 2589   2.213   1.575   3.665
  564SOL     OW 2590   6.960   1.546   6.363
  564SOL    HW1 2591   6.930   1.641   6.355
  564SOL    HW2 2592   0.002   1.526   6.293
  565SOL     OW 2593   2.908   3.326   3.670
  565SOL    HW1 2594   2.955   3.303   3.755
  565SOL    HW2 2595   2.810   3.324   3.684
  566SOL     OW 2596   2.266   4.589   3.030
  566SOL    HW1 2597   2.234   4.572   3.123
  566SOL    HW2 2598   2.342   4.527   3.009
  567SOL     OW 2599   2.679   2.537   0.710
  567SOL    HW1 2600   2.622   2.589   0.774
  567SOL    HW2 2601   2.676   2.581   0.620
  568SOL     OW 2602   5.929   6.906   0.868
  568SOL    HW1 2603   6.022   6.881   0.894
  568SOL    HW2 2604   5.924   7.005   0.854
  569SOL     OW 2605   0.868   2.675   1.186
  569SOL    HW1 2606   0.958   2.710   1.209
  569SOL    HW2 2607   0.838   2.611   1.257
  570SOL     OW 2608   3.439   6.925   6.671
  570SOL    HW1 2609   3.358   6.873   6.644
  570SOL    HW2 2610   3.493   6.872   6.736
  571SOL     OW 2611   2.805   4.804   3.562
  571SOL    HW1 2612   2.888   4.844   3.600
  571SOL    HW2 2613   2.786   4.846   3.473
  572SOL     OW 2614   2.049   5.627   5.067
  572SOL    HW1 2615   2.063   5.722   5.094
  572SOL    HW2 2616   2.079   5.614   4.973
  573SOL     OW 2617   6.321   1.297   5.537
  573SOL    HW1 2618   6.351   1.385   5.502
  573SOL    HW2 2619   6.371   1.274   5.620
  574SOL     OW 2620   3.671   0.521   5.514
  574SOL    HW1 2621   3.592   0.497   5.458
  574SOL    HW2 2622   3.733   0.443   5.519
  575SOL     OW 2623   4.496   2.720   1.294
  575SOL    HW1 2624   4.402   2.708   1.261
  575SOL    HW2 2625   4.515   2.654   1.366
  576SOL     OW 2626   1.680   2.875   2.734
  576SOL    HW1 2627   1.732   2.935   2.794
  576SOL    HW2 2628   1.637   2.928   2.661
  577SOL     OW 2629   1.248   0.557   2.418
  577SOL    HW1 2630   1.206   0.498   2.349
  577SOL    HW2 2631   1.309   0.622   2.373
  578SOL     OW 2632   1.748   5.978   6.008
  578SOL    HW1 2633   1.686   5.952   5.934
  578SOL    HW2 2634   1.696   6.024   6.080
  579SOL     OW 2635   1.660   4.779   2.534
  579SOL    HW1 2636   1.752   4.811   2.511
  579SOL    HW2 2637   1.665   4.717   2.613
  580SOL     OW 2638   4.214   4.913   5.409
  580SOL    HW1 2639   4.258   4.981   5.350
  580SOL    HW2 2640   4.255   4.915   5.500
  581SOL     OW 2641   1.151   3.398   3.405
  581SOL    HW1 2642   1.058   3.361   3.408
  581SOL    HW2 2643   1.217   3.323   3.418
  582SOL     OW 2644   4.827   5.730   3.381
  582SOL    HW1 2645   4.832   5.806   3.446
  582SOL    HW2 2646   4.736   5.727   3.340
  583SOL     OW 2647   2.402   5.608   5.323
  583SOL    HW1 2648   2.376   5.511   5.328
  583SOL    HW2 2649   2.498   5.618   5.350
  584SOL     OW 2650   3.608   0.088   6.517
  584SOL    HW1 2651   3.549   0.147   6.462
  584SOL    HW2 2652   3.553   0.032   6.579
  585SOL     OW 2653   4.331   0.460   1.228
  585SOL    HW1 2654   4.292   0.398   1.296
  585SOL    HW2 2655   4.289   0.550   1.238
  586SOL     OW 2656   3.521   0.382   1.317
  586SOL    HW1 2657   3.591   0.313   1.300
  586SOL    HW2 2658   3.566   0.470   1.334
  587SOL     OW 2659   5.184   2.098   2.532
  587SOL    HW1 2660   5.189   2.147   2.619
  587SOL    HW2 2661   5.088   2.073   2.513
  588SOL     OW 2662   1.795   5.344   0.803
  588SOL    HW1 2663   1.768   5.317   0.896
  588SOL    HW2 2664   1.718   5.328   0.741
  589SOL     OW 2665   3.236   5.633   1.475
  589SOL    HW1 2666   3.275   5.572   1.544
  589SOL    HW2 2667   3.302   5.643   1.400
  590SOL     OW 2668   5.547   1.270   1.002
  590SOL    HW1 2669   5.491   1.189   1.011
  590SOL    HW2 2670   5.624   1.251   0.941
  591SOL     OW 2671   3.853   6.011   3.459
  591SOL    HW1 2672   3.793   6.000   3.379
  591SOL    HW2 2673   3.894   6.102   3.458
  592SOL     OW 2674   4.411   0.257   3.368
  592SOL    HW1 2675   4.463   0.333   3.328
  592SOL    HW2 2676   4.329   0.241   3.313
  593SOL     OW 2677   4.697   2.155   5.019
  593SOL    HW1 2678   4.789   2.114   5.015
  593SOL    HW2 2679   4.670   2.183   4.927
  594SOL     OW 2680   6.287   1.160   0.529
  594SOL    HW1 2681   6.263   1.128   0.621
  594SOL    HW2 2682   6.384   1.181   0.525
  595SOL     OW 2683   5.945   6.907   3.427
  595SOL    HW1 2684   5.957   6.812   3.399
  595SOL    HW2 2685   5.866   6.914   3.487
  596SOL     OW 2686   6.949   4.981   3.266
  596SOL    HW1 2687   6.884   4.958   3.338
  596SOL    HW2 2688   7.018   4.910   3.258
  597SOL     OW 2689   2.761   6.636   5.967
  597SOL    HW1 2690   2.705   6.562   5.929
  597SOL    HW2 2691   2.856   6.622   5.941
  598SOL     OW 2692   3.432   4.031   4.968
  598SOL    HW1 2693   3.483   4.107   5.008
  598SOL    HW2 2694   3.483   3.993   4.891
  599SOL     OW 2695   2.042   5.932   2.543
  599SOL    HW1 2696   2.003   6.021   2.522
  599SOL    HW2 2697   1.984   5.860   2.504
  600SOL     OW 2698   6.752   3.375   6.195
  600SOL    HW1 2699   6.744   3.366   6.294
  600SOL    HW2 2700   6.720   3.466   6.167
  601SOL     OW 2701   1.425   1.223   4.645
  601SOL    HW1 2702   1.501   1.159   4.643
  601SOL    HW2 2703   1.353   1.191   4.583
  602SOL     OW 2704   3.051   0.532   5.987
  602SOL    HW1 2705   3.027   0.623   6.018
  602SOL    HW2 2706   3.053   0.469   6.065
  603SOL     OW 2707   1.786   2.067   5.197
  603SOL    HW1 2708   1.885   2.078   5.193
  603SOL    HW2 2709   1.762   2.010   5.276
  604SOL     OW 2710   0.746   2.194   1.594
  604SOL    HW1 2711   0.748   2.151   1.684
  604SOL    HW2 2712   0.821   2.157   1.539
  605SOL     OW 2713   6.973   4.717   1.582
  605SOL    HW1 2714   0.039   4.753   1.597
  605SOL    HW2 2715   6.973   4.618   1.595
  606SOL     OW 2716   4.696   6.374   5.664
  606SOL    HW1 2717   4.682   6.360   5.566
  606SOL    HW2 2718   4.793   6.372   5.684
  607SOL     OW 2719   0.210   4.835   5.381
  607SOL    HW1 2720   0.177   4.830   5.475
  607SOL    HW2 2721   0.298   4.882   5.379
  608SOL     OW 2722   3.832   6.681   6.975
  608SOL    HW1 2723   3.875   6.616   0.011
  608SOL    HW2 2724   3.892   6.697   6.897
  609SOL     OW 2725   3.657   2.623   1.744
  609SOL    HW1 2726   3.673   2.695   1.811
  609SOL    HW2 2727   3.647   2.535   1.790
  610SOL     OW 2728   4.578   2.129   0.232
  610SOL    HW1 2729   4.659   2.184   0.212
  610SOL    HW2 2730   4.496   2.186   0.226
  611SOL     OW 2731   3.274   6.826   2.511
  611SOL    HW1 2732   3.353   6.835   2.450
  611SOL    HW2 2733   3.279   6.896   2.582
  612SOL     OW 2734   2.936   5.664   4.750
  612SOL    HW1 2735   2.944   5.641   4.847
  612SOL    HW2 2736   2.844   5.640   4.718
  613SOL     OW 2737   5.226   4.639   4.817
  613SOL    HW1 2738   5.174   4.658   4.734
  613SOL    HW2 2739   5.189   4.558   4.862
  614SOL     OW 2740   5.515   5.372   4.612
  614SOL    HW1 2741   5.541   5.320   4.692
  614SOL    HW2 2742   5.531   5.470   4.628
  615SOL     OW 2743   6.765   2.028   1.464
  615SOL    HW1 2744   6.786   1.982   1.550
  615SOL    HW2 2745   6.841   2.015   1.400
  616SOL     OW 2746   6.316   2.185   2.565
  616SOL    HW1 2747   6.353   2.186   2.472
  616SOL    HW2 2748   6.270   2.272   2.583
  617SOL     OW 2749   1.473   5.046   6.262
  617SOL    HW1 2750   1.395   5.054   6.324
  617SOL    HW2 2751   1.447   4.990   6.183
  618SOL     OW 2752   1.410   2.350   1.368
  618SOL    HW1 2753   1.380   2.264   1.410
  618SOL    HW2 2754   1.497   2.335   1.322
  619SOL     OW 2755   1.826   2.229   0.627
  619SOL    HW1 2756   1.740   2.215   0.675
  619SOL    HW2 2757   1.818   2.308   0.566
  620SOL     OW 2758   4.422   1.938   0.383
  620SOL    HW1 2759   4.461   1.978   0.300
  620SOL    HW2 2760   4.361   2.005   0.426
  621SOL     OW 2761   5.258   5.203   6.561
  621SOL    HW1 2762   5.293   5.138   6.494
  621SOL    HW2 2763   5.267   5.296   6.526
  622SOL     OW 2764   1.400   1.272   6.842
  622SOL    HW1 2765   1.416   1.285   6.940
  622SOL    HW2 2766   1.449   1.342   6.790
  623SOL     OW 2767   0.754   5.921   6.063
  623SOL    HW1 2768   0.772   5.823   6.073
  623SOL    HW2 2769   0.659   5.936   6.037
  624SOL     OW 2770   0.425   2.803   2.030
  624SOL    HW1 2771   0.512   2.797   2.079
  624SOL    HW2 2772   0.442   2.800   1.931
  625SOL     OW 2773   2.460   2.265   1.389
  625SOL    HW1 2774   2.360   2.265   1.386
  625SOL    HW2 2775   2.491   2.278   1.483
  626SOL     OW 2776   2.460   5.655   3.578
  626SOL    HW1 2777   2.554   5.687   3.561
  626SOL    HW2 2778   2.403   5.733   3.604
  627SOL     OW 2779   5.086   0.046   0.995
  627SOL    HW1 2780   5.095   0.100   1.079
  627SOL    HW2 2781   5.097   6.975   1.017
  628SOL     OW 2782   4.658   4.769   4.953
  628SOL    HW1 2783   4.728   4.823   5.000
  628SOL    HW2 2784   4.569   4.784   4.996
  629SOL     OW 2785   0.300   0.234   0.990
  629SOL    HW1 2786   0.313   0.151   0.937
  629SOL    HW2 2787   0.362   0.234   1.069
  630SOL     OW 2788   5.607   2.069   2.609
  630SOL    HW1 2789   5.699   2.079   2.570
  630SOL    HW2 2790   5.567   1.983   2.577
  631SOL     OW 2791   3.021   0.371   5.601
  631SOL    HW1 2792   3.106   0.336   5.562
  631SOL    HW2 2793   2.946   0.310   5.575
  632SOL     OW 2794   2.643   1.382   0.346
  632SOL    HW1 2795   2.729   1.332   0.363
  632SOL    HW2 2796   2.661   1.459   0.286
  633SOL     OW 2797   3.713   5.069   0.049
  633SOL    HW1 2798   3.660   5.074   0.133
  633SOL    HW2 2799   3.651   5.060   6.997
  634SOL     OW 2800   4.120   4.597   1.670
  634SOL    HW1 2801   4.172   4.551   1.597
  634SOL    HW2 2802   4.066   4.671   1.630
  635SOL     OW 2803   4.852   6.844   2.871
  635SOL    HW1 2804   4.929   6.900   2.902
  635SOL    HW2 2805   4.851   6.758   2.922
  636SOL     OW 2806   5.458   5.584   6.131
  636SOL    HW1 2807   5.361   5.571   6.149
  636SOL    HW2 2808   5.478   5.554   6.037
  637SOL     OW 2809   5.396   4.591   1.601
  637SOL    HW1 2810   5.306   4.575   1.640
  637SOL    HW2 2811   5.458   4.516   1.627
  638SOL     OW 2812   5.042   1.251   2.639
  638SOL    HW1 2813   5.089   1.338   2.626
  638SOL    HW2 2814   4.972   1.240   2.569
  639SOL     OW 2815   5.199   4.545   1.816
  639SOL    HW1 2816   5.115   4.504   1.782
  639SOL    HW2 2817   5.255   4.475   1.861
  640SOL     OW 2818   2.210   4.805   5.389
  640SOL    HW1 2819   2.209   4.806   5.489
  640SOL    HW2 2820   2.159   4.726   5.356
  641SOL     OW 2821   0.475   5.542   4.675
  641SOL    HW1 2822   0.402   5.533   4.743
  641SOL    HW2 2823   0.537   5.616   4.702
  642SOL     OW 2824   0.218   4.041   4.315
  642SOL    HW1 2825   0.275   3.959   4.310
  642SOL    HW2 2826   0.227   4.093   4.230
  643SOL     OW 2827   6.021   5.122   4.992
  643SOL    HW1 2828   5.996   5.119   4.896
  643SOL    HW2 2829   6.047   5.031   5.024
  644SOL     OW 2830   0.906   5.328   2.486
  644SOL    HW1 2831   0.868   5.268   2.556
  644SOL    HW2 2832   0.972   5.278   2.431
  645SOL     OW 2833   5.141   2.514   4.311
  645SOL    HW1 2834   5.075   2.588   4.321
  645SOL    HW2 2835   5.190   2.524   4.224
  646SOL     OW 2836   2.013   2.233   3.124
  646SOL    HW1 2837   2.009   2.133   3.116
  646SOL    HW2 2838   2.067   2.271   3.049
  647SOL     OW 2839   6.076   2.767   5.860
  647SOL    HW1 2840   6.089   2.716   5.945
  647SOL    HW2 2841   6.165   2.797   5.825
  648SOL     OW 2842   6.143   3.396   2.607
  648SOL    HW1 2843   6.089   3.374   2.525
  648SOL    HW2 2844   6.200   3.476   2.588
  649SOL     OW 2845   4.127   4.116   0.475
  649SOL    HW1 2846   4.107   4.211   0.495
  649SOL    HW2 2847   4.195   4.111   0.402
  650SOL     OW 2848   4.841   4.509   0.045
  650SOL    HW1 2849   4.867   4.506   0.142
  650SOL    HW2 2850   4.851   4.417   0.006
  651SOL     OW 2851   0.827   6.612   0.369
  651SOL    HW1 2852   0.870   6.627   0.458
  651SOL    HW2 2853   0.754   6.544   0.378
  652SOL     OW 2854   5.013   6.580   3.422
  652SOL    HW1 2855   5.007   6.669   3.377
  652SOL    HW2 2856   4.933   6.525   3.398
  653SOL     OW 2857   3.720   5.462   5.749
  653SOL    HW1 2858   3.651   5.464   5.822
  653SOL    HW2 2859   3.727   5.368   5.713
  654SOL     OW 2860   6.852   4.311   6.020
  654SOL    HW1 2861   6.888   4.387   5.965
  654SOL    HW2 2862   6.755   4.326   6.037
  655SOL     OW 2863   0.549   0.037   2.076
  655SOL    HW1 2864   0.523   0.133   2.092
  655SOL    HW2 2865   0.619   0.010   2.141
  656SOL     OW 2866   2.158   5.588   1.449
  656SOL    HW1 2867   2.163   5.631   1.539
  656SOL    HW2 2868   2.093   5.512   1.452
  657SOL     OW 2869   1.971   1.910   1.719
  657SOL    HW1 2870   2.046   1.857   1.757
  657SOL    HW2 2871   1.965   1.998   1.766
  658SOL     OW 2872   3.397   3.063   6.327
  658SOL    HW1 2873   3.338   2.983   6.333
  658SOL    HW2 2874   3.347   3.144   6.357
  659SOL     OW 2875   3.421   6.386   6.569
  659SOL    HW1 2876   3.457   6.295   6.547
  659SOL    HW2 2877   3.441   6.407   6.665
  660SOL     OW 2878   4.253   5.175   1.772
  660SOL    HW1 2879   4.267   5.162   1.674
  660SOL    HW2 2880   4.160   5.207   1.789
  661SOL     OW 2881   4.437   6.620   3.752
  661SOL    HW1 2882   4.530   6.614   3.789
  661SOL    HW2 2883   4.407   6.528   3.725
  662SOL     OW 2884   3.699   1.022   5.581
  662SOL    HW1 2885   3.686   0.929   5.615
  662SOL    HW2 2886   3.681   1.087   5.654
  663SOL     OW 2887   2.343   3.922   5.744
  663SOL    HW1 2888   2.263   3.868   5.720
  663SOL    HW2 2889   2.335   3.954   5.839
  664SOL     OW 2890   0.314   6.228   6.016
  664SOL    HW1 2891   0.378   6.305   6.012
  664SOL    HW2 2892   0.363   6.144   5.992
  665SOL     OW 2893   3.928   5.228   2.643
  665SOL    HW1 2894   3.930   5.292   2.720
  665SOL    HW2 2895   3.838   5.230   2.600
  666SOL     OW 2896   4.724   0.742   1.670
  666SOL    HW1 2897   4.822   0.741   1.649
  666SOL    HW2 2898   4.684   0.653   1.648
  667SOL     OW 2899   0.918   5.198   2.141
  667SOL    HW1 2900   1.014   5.221   2.126
  667SOL    HW2 2901   0.913   5.115   2.198
  668SOL     OW 2902   5.146   6.162   5.691
  668SOL    HW1 2903   5.115   6.070   5.667
  668SOL    HW2 2904   5.211   6.157   5.767
  669SOL     OW 2905   6.262   0.674   3.600
  669SOL    HW1 2906   6.212   0.591   3.625
  669SOL    HW2 2907   6.340   0.686   3.660
  670SOL     OW 2908   2.673   1.962   2.367
  670SOL    HW1 2909   2.602   1.897   2.342
  670SOL    HW2 2910   2.751   1.953   2.305
  671SOL     OW 2911   3.257   5.968   0.854
  671SOL    HW1 2912   3.326   5.970   0.783
  671SOL    HW2 2913   3.166   5.959   0.813
  672SOL     OW 2914   6.510   5.363   2.146
  672SOL    HW1 2915   6.597   5.326   2.180
  672SOL    HW2 2916   6.478   5.435   2.208
  673SOL     OW 2917   5.953   6.874   1.233
  673SOL    HW1 2918   5.888   6.829   1.294
  673SOL    HW2 2919   5.905   6.941   1.176
  674SOL     OW 2920   0.415   1.141   4.462
  674SOL    HW1 2921   0.478   1.196   4.516
  674SOL    HW2 2922   0.465   1.065   4.420
  675SOL     OW 2923   5.400   2.466   2.609
  675SOL    HW1 2924   5.497   2.488   2.615
  675SOL    HW2 2925   5.374   2.455   2.513
  676SOL     OW 2926   2.362   5.129   4.409
  676SOL    HW1 2927   2.263   5.117   4.417
  676SOL    HW2 2928   2.407   5.040   4.412
  677SOL     OW 2929   5.067   0.836   1.303
  677SOL    HW1 2930   5.080   0.800   1.210
  677SOL    HW2 2931   5.133   0.909   1.320
  678SOL     OW 2932   2.617   5.570   4.801
  678SOL    HW1 2933   2.533   5.565   4.856
  678SOL    HW2 2934   2.634   5.665   4.776
  679SOL     OW 2935   5.117   1.429   4.851
  679SOL    HW1 2936   5.092   1.525   4.843
  679SOL    HW2 2937   5.217   1.420   4.847
  680SOL     OW 2938   4.584   6.072   4.392
  680SOL    HW1 2939   4.672   6.041   4.356
  680SOL    HW2 2940   4.581   6.057   4.491
  681SOL     OW 2941   4.429   6.072   1.781
  681SOL    HW1 2942   4.467   6.114   1.698
  681SOL    HW2 2943   4.380   5.988   1.756
  682SOL     OW 2944   6.070   1.504   2.192
  682SOL    HW1 2945   6.140   1.470   2.129
  682SOL    HW2 2946   6.047   1.598   2.168
  683SOL     OW 2947   4.695   2.860   0.831
  683SOL    HW1 2948   4.726   2.824   0.742
  683SOL    HW2 2949   4.684   2.784   0.895
  684SOL     OW 2950   6.284   0.660   0.215
  684SOL    HW1 2951   6.351   0.689   0.147
  684SOL    HW2 2952   6.330   0.612   0.290
  685SOL     OW 2953   3.430   1.881   3.950
  685SOL    HW1 2954   3.437   1.919   4.043
  685SOL    HW2 2955   3.521   1.875   3.910
  686SOL     OW 2956   4.672   1.822   4.352
  686SOL    HW1 2957   4.703   1.913   4.323
  686SOL    HW2 2958   4.685   1.813   4.451
  687SOL     OW 2959   0.932   2.008   4.116
  687SOL    HW1 2960   1.001   1.974   4.051
  687SOL    HW2 2961   0.959   2.098   4.150
  688SOL     OW 2962   6.799   1.327   6.365
  688SOL    HW1 2963   6.841   1.416   6.346
  688SOL    HW2 2964   6.700   1.338   6.372
  689SOL     OW 2965   1.922   4.533   6.164
  689SOL    HW1 2966   1.902   4.439   6.135
  689SOL    HW2 2967   1.934   4.591   6.084
  690SOL     OW 2968   0.146   3.805   3.218
  690SOL    HW1 2969   0.149   3.903   3.197
  690SOL    HW2 2970   0.151   3.753   3.133
  691SOL     OW 2971   3.262   1.744   0.894
  691SOL    HW1 2972   3.239   1.712   0.986
  691SOL    HW2 2973   3.353   1.784   0.894
  692SOL     OW 2974   4.199   1.990   4.861
  692SOL    HW1 2975   4.186   2.089   4.856
  692SOL    HW2 2976   4.238   1.965   4.950
  693SOL     OW 2977   4.810   6.968   4.180
  693SOL    HW1 2978   4.732   7.006   4.229
  693SOL    HW2 2979   4.861   0.016   4.135
  694SOL     OW 2980   4.112   6.173   4.838
  694SOL    HW1 2981   4.015   6.153   4.852
  694SOL    HW2 2982   4.154   6.199   4.925
  695SOL     OW 2983   3.868   6.127   4.326
  695SOL    HW1 2984   3.936   6.144   4.255
  695SOL    HW2 2985   3.909   6.077   4.401
  696SOL     OW 2986   4.937   4.489   3.433
  696SOL    HW1 2987   4.988   4.458   3.513
  696SOL    HW2 2988   4.902   4.581   3.450
  697SOL     OW 2989   1.686   3.295   2.284
  697SOL    HW1 2990   1.638   3.379   2.310
  697SOL    HW2 2991   1.725   3.305   2.193
  698SOL     OW 2992   5.381   6.520   0.928
  698SOL    HW1 2993   5.394   6.422   0.921
  698SOL    HW2 2994   5.327   6.542   1.010
  699SOL     OW 2995   1.491   3.152   6.740
  699SOL    HW1 2996   1.468   3.098   6.821
  699SOL    HW2 2997   1.590   3.157   6.730
  700SOL     OW 2998   3.264   0.126   1.868
  700SOL    HW1 2999   3.352   0.169   1.888
  700SOL    HW2 3000   3.279   0.043   1.815
  701SOL     OW 3001   0.166   4.275   6.865
  701SOL    HW1 3002   0.086   4.335   6.856
  701SOL    HW2 3003   0.234   4.301   6.797
  702SOL     OW 3004   2.192   6.958   4.365
  702SOL    HW1 3005   2.191   0.004   4.296
  702SOL    HW2 3006   2.121   6.892   4.345
  703SOL     OW 3007   3.308   3.045   5.539
  703SOL    HW1 3008   3.353   3.058   5.451
  703SOL    HW2 3009   3.235   3.113   5.550
  704SOL     OW 3010   1.963   2.325   6.518
  704SOL    HW1 3011   2.042   2.353   6.573
  704SOL    HW2 3012   1.940   2.230   6.540
  705SOL     OW 3013   6.123   5.422   3.349
  705SOL    HW1 3014   6.174   5.507   3.336
  705SOL    HW2 3015   6.035   5.443   3.392
  706SOL     OW 3016   4.443   2.087   5.443
  706SOL    HW1 3017   4.344   2.101   5.437
  706SOL    HW2 3018   4.465   2.044   5.530
  707SOL     OW 3019   4.087   4.812   2.912
  707SOL    HW1 3020   4.161   4.773   2.858
  707SOL    HW2 3021   4.019   4.854   2.851
  708SOL     OW 3022   2.736   1.530   3.180
  708SOL    HW1 3023   2.812   1.554   3.241
  708SOL    HW2 3024   2.689   1.613   3.151
  709SOL     OW 3025   1.458   6.387   1.261
  709SOL    HW1 3026   1.428   6.293   1.241
  709SOL    HW2 3027   1.515   6.386   1.343
  710SOL     OW 3028   4.876   2.177   1.691
  710SOL    HW1 3029   4.876   2.080   1.667
  710SOL    HW2 3030   4.797   2.198   1.748
  711SOL     OW 3031   0.071   2.577   6.566
  711SOL    HW1 3032   0.148   2.626   6.526
  711SOL    HW2 3033   0.073   2.587   6.665
  712SOL     OW 3034   4.444   2.095   0.780
  712SOL    HW1 3035   4.499   2.026   0.733
  712SOL    HW2 3036   4.500   2.139   0.850
  713SOL     OW 3037   4.197   2.918   5.377
  713SOL    HW1 3038   4.220   3.012   5.354
  713SOL    HW2 3039   4.099   2.903   5.362
  714SOL     OW 3040   6.638   5.440   3.836
  714SOL    HW1 3041   6.709   5.375   3.808
  714SOL    HW2 3042   6.682   5.523   3.870
  715SOL     OW 3043   5.832   5.330   6.177
  715SOL    HW1 3044   5.931   5.313   6.176
  715SOL    HW2 3045   5.795   5.304   6.266
  716SOL     OW 3046   1.246   1.322   2.956
  716SOL    HW1 3047   1.302   1.351   3.034
  716SOL    HW2 3048   1.208   1.231   2.975
  717SOL     OW 3049   6.612   4.914   4.421
  717SOL    HW1 3050   6.599   4.882   4.515
  717SOL    HW2 3051   6.651   4.840   4.366
  718SOL     OW 3052   4.728   2.736   4.827
  718SOL    HW1 3053   4.780   2.771   4.749
  718SOL    HW2 3054   4.762   2.646   4.852
  719SOL     OW 3055   5.827   0.210   3.133
  719SOL    HW1 3056   5.752   0.147   3.154
  719SOL    HW2 3057   5.879   0.173   3.056
  720SOL     OW 3058   2.115   0.271   6.066
  720SOL    HW1 3059   2.097   0.198   6.000
  720SOL    HW2 3060   2.097   0.238   6.159
  721SOL     OW 3061   1.914   0.971   2.178
  721SOL    HW1 3062   1.923   0.894   2.115
  721SOL    HW2 3063   2.000   1.023   2.181
  722SOL     OW 3064   3.270   1.142   5.154
  722SOL    HW1 3065   3.221   1.215   5.203
  722SOL    HW2 3066   3.335   1.183   5.090
  723SOL     OW 3067   1.928   5.601   3.641
  723SOL    HW1 3068   1.938   5.599   3.541
  723SOL    HW2 3069   2.017   5.581   3.683
  724SOL     OW 3070   0.335   1.428   3.455
  724SOL    HW1 3071   0.251   1.472   3.424
  724SOL    HW2 3072   0.389   1.494   3.508
  725SOL     OW 3073   1.905   4.868   2.522
  725SOL    HW1 3074   1.986   4.919   2.490
  725SOL    HW2 3075   1.919   4.841   2.617
  726SOL     OW 3076   2.516   5.150   0.984
  726SOL    HW1 3077   2.463   5.232   1.007
  726SOL    HW2 3078   2.592   5.176   0.924
  727SOL     OW 3079   4.909   4.597   6.395
  727SOL    HW1 3080   4.862   4.685   6.388
  727SOL    HW2 3081   4.858   4.527   6.345
  728SOL     OW 3082   6.739   3.568   4.428
  728SOL    HW1 3083   6.767   3.603   4.517
  728SOL    HW2 3084   6.818   3.569   4.366
  729SOL     OW 3085   0.388   2.856   0.925
  729SOL    HW1 3086   0.376   2.894   0.834
  729SOL    HW2 3087   0.305   2.870   0.978
  730SOL     OW 3088   5.881   0.669   3.845
  730SOL    HW1 3089   5.854   0.612   3.768
  730SOL    HW2 3090   5.814   0.659   3.919
  731SOL     OW 3091   4.990   5.067   0.058
  731SOL    HW1 3092   5.026   5.072   0.152
  731SOL    HW2 3093   4.939   4.981   0.047
  732SOL     OW 3094   5.919   2.765   2.532
  732SOL    HW1 3095   5.920   2.728   2.625
  732SOL    HW2 3096   5.855   2.712   2.476
  733SOL     OW 3097   5.793   0.512   4.793
  733SOL    HW1 3098   5.761   0.436   4.850
  733SOL    HW2 3099   5.777   0.490   4.696
  734SOL     OW 3100   6.404   4.953   3.046
  734SOL    HW1 3101   6.430   4.979   2.953
  734SOL    HW2 3102   6.384   5.035   3.100
  735SOL     OW 3103   3.943   1.187   0.462
  735SOL    HW1 3104   3.862   1.129   0.453
  735SOL    HW2 3105   3.982   1.176   0.554
  736SOL     OW 3106   1.857   1.434   3.707
  736SOL    HW1 3107   1.913   1.364   3.752
  736SOL    HW2 3108   1.896   1.524   3.727
  737SOL     OW 3109   5.780   1.967   6.467
  737SOL    HW1 3110   5.691   1.921   6.466
  737SOL    HW2 3111   5.824   1.956   6.378
  738SOL     OW 3112   2.549   3.867   1.610
  738SOL    HW1 3113   2.643   3.862   1.644
  738SOL    HW2 3114   2.486   3.834   1.680
  739SOL     OW 3115   3.579   0.582   5.048
  739SOL    HW1 3116   3.624   0.669   5.031
  739SOL    HW2 3117   3.647   0.515   5.079
  740SOL     OW 3118   5.696   1.911   2.902
  740SOL    HW1 3119   5.760   1.981   2.934
  740SOL    HW2 3120   5.663   1.934   2.811
  741SOL     OW 3121   2.172   0.729   3.982
  741SOL    HW1 3122   2.128   0.655   3.932
  741SOL    HW2 3123   2.192   0.804   3.919
  742SOL     OW 3124   2.392   5.948   1.568
  742SOL    HW1 3125   2.401   6.047   1.581
  742SOL    HW2 3126   2.385   5.903   1.657
  743SOL     OW 3127   0.222   6.041   3.079
  743SOL    HW1 3128   0.312   6.075   3.052
  743SOL    HW2 3129   0.226   6.010   3.175
  744SOL     OW 3130   6.037   0.999   0.687
  744SOL    HW1 3131   6.070   0.904   0.679
  744SOL    HW2 3132   6.108   1.054   0.732
  745SOL     OW 3133   2.062   5.914   5.333
  745SOL    HW1 3134   1.987   5.917   5.267
  745SOL    HW2 3135   2.039   5.851   5.407
  746SOL     OW 3136   5.658   4.092   5.904
  746SOL    HW1 3137   5.677   4.069   6.000
  746SOL    HW2 3138   5.642   4.009   5.852
  747SOL     OW 3139   4.515   5.758   4.561
  747SOL    HW1 3140   4.543   5.668   4.528
  747SOL    HW2 3141   4.420   5.776   4.535
  748SOL     OW 3142   4.595   5.588   2.204
  748SOL    HW1 3143   4.601   5.585   2.304
  748SOL    HW2 3144   4.687   5.602   2.166
  749SOL     OW 3145   6.024   3.766   4.108
  749SOL    HW1 3146   5.953   3.714   4.059
  749SOL    HW2 3147   5.989   3.793   4.198
  750SOL     OW 3148   2.419   0.914   0.745
  750SOL    HW1 3149   2.444   0.995   0.798
  750SOL    HW2 3150   2.463   0.834   0.784
  751SOL     OW 3151   4.282   1.333   1.086
  751SOL    HW1 3152   4.214   1.327   1.013
  751SOL    HW2 3153   4.356   1.394   1.058
  752SOL     OW 3154   3.175   2.358   6.984
  752SOL    HW1 3155   3.217   2.333   6.897
  752SOL    HW2 3156   3.132   2.278   7.025
  753SOL     OW 3157   2.312   3.496   5.972
  753SOL    HW1 3158   2.216   3.521   5.959
  753SOL    HW2 3159   2.364   3.525   5.892
  754SOL     OW 3160   4.110   1.099   0.239
  754SOL    HW1 3161   4.108   1.117   0.338
  754SOL    HW2 3162   4.182   1.153   0.197
  755SOL     OW 3163   3.005   4.932   5.481
  755SOL    HW1 3164   3.096   4.968   5.463
  755SOL    HW2 3165   3.005   4.881   5.567
  756SOL     OW 3166   3.403   4.863   0.162
  756SOL    HW1 3167   3.446   4.945   0.199
  756SOL    HW2 3168   3.474   4.802   0.125
  757SOL     OW 3169   2.140   6.235   2.707
  757SOL    HW1 3170   2.206   6.161   2.719
  757SOL    HW2 3171   2.143   6.296   2.786
  758SOL     OW 3172   4.175   1.220   4.157
  758SOL    HW1 3173   4.204   1.128   4.185
  758SOL    HW2 3174   4.247   1.286   4.177
  759SOL     OW 3175   6.946   3.259   2.448
  759SOL    HW1 3176   0.002   3.208   2.424
  759SOL    HW2 3177   6.885   3.263   2.368
  760SOL     OW 3178   6.272   6.735   4.321
  760SOL    HW1 3179   6.289   6.722   4.223
  760SOL    HW2 3180   6.350   6.782   4.362
  761SOL     OW 3181   5.606   4.603   6.026
  761SOL    HW1 3182   5.623   4.659   5.945
  761SOL    HW2 3183   5.562   4.517   5.998
  762SOL     OW 3184   2.606   6.955   5.554
  762SOL    HW1 3185   2.691   6.948   5.606
  762SOL    HW2 3186   2.621   7.010   5.472
  763SOL     OW 3187   4.895   6.747   6.670
  763SOL    HW1 3188   4.862   6.801   6.593
  763SOL    HW2 3189   4.863   6.788   6.755
  764SOL     OW 3190   5.676   1.041   5.659
  764SOL    HW1 3191   5.738   1.080   5.591
  764SOL    HW2 3192   5.668   0.943   5.644
  765SOL     OW 3193   1.804   6.514   0.615
  765SOL    HW1 3194   1.828   6.479   0.524
  765SOL    HW2 3195   1.753   6.600   0.605
  766SOL     OW 3196   2.955   2.406   5.343
  766SOL    HW1 3197   2.974   2.314   5.377
  766SOL    HW2 3198   3.023   2.431   5.274
  767SOL     OW 3199   6.112   6.447   3.725
  767SOL    HW1 3200   6.136   6.516   3.657
  767SOL    HW2 3201   6.019   6.416   3.709
  768SOL     OW 3202   2.126   5.822   3.642
  768SOL    HW1 3203   2.127   5.724   3.661
  768SOL    HW2 3204   2.182   5.841   3.561
  769SOL     OW 3205   3.095   1.495   5.145
  769SOL    HW1 3206   3.190   1.523   5.164
  769SOL    HW2 3207   3.073   1.511   5.049
  770SOL     OW 3208   1.710   4.768   4.265
  770SOL    HW1 3209   1.768   4.687   4.255
  770SOL    HW2 3210   1.705   4.793   4.362
  771SOL     OW 3211   1.081   4.811   3.122
  771SOL    HW1 3212   1.142   4.862   3.062
  771SOL    HW2 3213   1.134   4.763   3.192
  772SOL     OW 3214   5.720   4.390   6.179
  772SOL    HW1 3215   5.657   4.417   6.106
  772SOL    HW2 3216   5.739   4.292   6.170
  773SOL     OW 3217   0.581   3.837   2.603
  773SOL    HW1 3218   0.628   3.807   2.520
  773SOL    HW2 3219   0.499   3.889   2.577
  774SOL     OW 3220   1.976   1.084   2.615
  774SOL    HW1 3221   1.935   1.172   2.589
  774SOL    HW2 3222   2.071   1.081   2.584
  775SOL     OW 3223   2.226   2.117   4.257
  775SOL    HW1 3224   2.209   2.178   4.334
  775SOL    HW2 3225   2.191   2.026   4.279
  776SOL     OW 3226   0.109   0.323   6.272
  776SOL    HW1 3227   0.190   0.272   6.302
  776SOL    HW2 3228   0.130   0.420   6.268
  777SOL     OW 3229   1.402   3.936   1.297
  777SOL    HW1 3230   1.341   3.911   1.373
  777SOL    HW2 3231   1.346   3.966   1.219
  778SOL     OW 3232   2.484   0.121   1.526
  778SOL    HW1 3233   2.404   0.124   1.466
  778SOL    HW2 3234   2.566   0.139   1.472
  779SOL     OW 3235   6.719   1.987   1.870
  779SOL    HW1 3236   6.777   2.010   1.791
  779SOL    HW2 3237   6.650   2.058   1.882
  780SOL     OW 3238   0.894   2.730   4.623
  780SOL    HW1 3239   0.964   2.666   4.590
  780SOL    HW2 3240   0.831   2.751   4.548
  781SOL     OW 3241   6.707   5.217   0.757
  781SOL    HW1 3242   6.661   5.181   0.675
  781SOL    HW2 3243   6.792   5.262   0.731
  782SOL     OW 3244   2.229   3.654   5.508
  782SOL    HW1 3245   2.260   3.712   5.432
  782SOL    HW2 3246   2.140   3.687   5.540
  783SOL     OW 3247   5.948   4.629   1.551
  783SOL    HW1 3248   5.963   4.534   1.524
  783SOL    HW2 3249   5.852   4.642   1.575
  784SOL     OW 3250   2.985   5.442   1.777
  784SOL    HW1 3251   2.987   5.504   1.855
  784SOL    HW2 3252   2.899   5.392   1.775
  785SOL     OW 3253   0.513   1.602   3.655
  785SOL    HW1 3254   0.479   1.634   3.744
  785SOL    HW2 3255   0.574   1.671   3.616
  786SOL     OW 3256   6.983   1.126   2.574
  786SOL    HW1 3257   6.890   1.127   2.611
  786SOL    HW2 3258   0.023   1.125   2.649
  787SOL     OW 3259   2.374   6.847   6.561
  787SOL    HW1 3260   2.400   6.895   6.478
  787SOL    HW2 3261   2.456   6.809   6.604
  788SOL     OW 3262   3.921   2.781   1.611
  788SOL    HW1 3263   3.907   2.687   1.581
  788SOL    HW2 3264   4.017   2.794   1.636
  789SOL     OW 3265   4.536   5.815   2.646
  789SOL    HW1 3266   4.445   5.818   2.688
  789SOL    HW2 3267   4.529   5.840   2.550
  790SOL     OW 3268   1.962   1.143   1.901
  790SOL    HW1 3269   1.896   1.199   1.851
  790SOL    HW2 3270   1.994   1.194   1.981
  791SOL     OW 3271   2.592   6.186   5.469
  791SOL    HW1 3272   2.495   6.187   5.492
  791SOL    HW2 3273   2.607   6.127   5.390
  792SOL     OW 3274   0.568   1.238   1.560
  792SOL    HW1 3275   0.654   1.231   1.611
  792SOL    HW2 3276   0.587   1.278   1.470
  793SOL     OW 3277   4.857   5.867   4.983
  793SOL    HW1 3278   4.851   5.767   4.979
  793SOL    HW2 3279   4.768   5.905   5.010
  794SOL     OW 3280   3.513   3.714   5.651
  794SOL    HW1 3281   3.475   3.730   5.742
  794SOL    HW2 3282   3.457   3.647   5.602
  795SOL     OW 3283   3.563   0.518   5.801
  795SOL    HW1 3284   3.554   0.431   5.849
  795SOL    HW2 3285   3.583   0.501   5.705
  796SOL     OW 3286   1.877   2.848   0.443
  796SOL    HW1 3287   1.965   2.810   0.415
  796SOL    HW2 3288   1.805   2.813   0.382
  797SOL     OW 3289   4.253   0.148   0.760
  797SOL    HW1 3290   4.176   0.212   0.766
  797SOL    HW2 3291   4.302   0.163   0.674
  798SOL     OW 3292   3.081   6.219   1.307
  798SOL    HW1 3293   2.990   6.209   1.347
  798SOL    HW2 3294   3.098   6.144   1.243
  799SOL     OW 3295   0.290   1.692   6.291
  799SOL    HW1 3296   0.327   1.767   6.346
  799SOL    HW2 3297   0.330   1.605   6.323
  800SOL     OW 3298   6.578   2.028   2.491
  800SOL    HW1 3299   6.520   2.093   2.541
  800SOL    HW2 3300   6.648   1.992   2.552
  801SOL     OW 3301   2.055   4.463   4.966
  801SOL    HW1 3302   2.068   4.553   4.924
  801SOL    HW2 3303   2.141   4.412   4.963
  802SOL     OW 3304   3.939   2.342   6.847
  802SOL    HW1 3305   3.948   2.346   6.947
  802SOL    HW2 3306   3.850   2.379   6.820
  803SOL     OW 3307   1.953   6.835   5.999
  803SOL    HW1 3308   1.950   6.931   5.969
  803SOL    HW2 3309   1.860   6.797   5.996
  804SOL     OW 3310   6.664   6.692   1.779
  804SOL    HW1 3311   6.577   6.734   1.755
  804SOL    HW2 3312   6.658   6.649   1.869
  805SOL     OW 3313   1.329   0.376   4.115
  805SOL    HW1 3314   1.392   0.345   4.044
  805SOL    HW2 3315   1.275   0.453   4.081
  806SOL     OW 3316   6.715   0.387   5.753
  806SOL    HW1 3317   6.700   0.307   5.811
  806SOL    HW2 3318   6.727   0.358   5.658
  807SOL     OW 3319   0.474   0.114   3.848
  807SOL    HW1 3320   0.380   0.081   3.855
  807SOL    HW2 3321   0.480   0.185   3.778
  808SOL     OW 3322   5.499   2.769   7.017
  808SOL    HW1 3323   5.557   2.820   6.954
  808SOL    HW2 3324   5.532   2.675   7.024
  809SOL     OW 3325   1.024   5.039   0.308
  809SOL    HW1 3326   0.939   4.996   0.276
  809SOL    HW2 3327   1.102   4.991   0.268
  810SOL     OW 3328   2.592   3.202   0.535
  810SOL    HW1 3329   2.669   3.182   0.596
  810SOL    HW2 3330   2.599   3.143   0.454
  811SOL     OW 3331   5.677   5.295   4.435
  811SOL    HW1 3332   5.664   5.202   4.400
  811SOL    HW2 3333   5.600   5.319   4.494
  812SOL     OW 3334   0.543   2.140   2.130
  812SOL    HW1 3335   0.540   2.239   2.117
  812SOL    HW2 3336   0.628   2.115   2.179
  813SOL     OW 3337   2.836   0.214   4.551
  813SOL    HW1 3338   2.819   0.150   4.625
  813SOL    HW2 3339   2.919   0.187   4.502
  814SOL     OW 3340   6.339   5.875   2.309
  814SOL    HW1 3341   6.392   5.862   2.393
  814SOL    HW2 3342   6.402   5.881   2.231
  815SOL     OW 3343   5.403   2.521   3.447
  815SOL    HW1 3344   5.347   2.596   3.411
  815SOL    HW2 3345   5.352   2.436   3.443
  816SOL     OW 3346   4.619   4.640   0.151
  816SOL    HW1 3347   4.656   4.726   0.187
  816SOL    HW2 3348   4.690   4.591   0.100
  817SOL     OW 3349   0.960   5.111   1.698
  817SOL    HW1 3350   0.897   5.037   1.721
  817SOL    HW2 3351   0.910   5.198   1.695
  818SOL     OW 3352   5.795   2.741   3.884
  818SOL    HW1 3353   5.867   2.799   3.845
  818SOL    HW2 3354   5.825   2.706   3.973
  819SOL     OW 3355   5.588   2.977   1.704
  819SOL    HW1 3356   5.532   2.997   1.785
  819SOL    HW2 3357   5.528   2.947   1.629
  820SOL     OW 3358   3.356   1.896   4.763
  820SOL    HW1 3359   3.436   1.940   4.722
  820SOL    HW2 3360   3.292   1.966   4.795
  821SOL     OW 3361   5.689   4.820   5.349
  821SOL    HW1 3362   5.650   4.846   5.438
  821SOL    HW2 3363   5.783   4.854   5.344
  822SOL     OW 3364   0.532   4.444   2.952
  822SOL    HW1 3365   0.592   4.399   3.017
  822SOL    HW2 3366   0.543   4.402   2.862
  823SOL     OW 3367   6.411   4.305   5.987
  823SOL    HW1 3368   6.402   4.262   5.897
  823SOL    HW2 3369   6.340   4.375   5.997
  824SOL     OW 3370   5.404   1.182   5.684
  824SOL    HW1 3371   5.485   1.145   5.639
  824SOL    HW2 3372   5.415   1.173   5.783
  825SOL     OW 3373   6.251   5.862   0.423
  825SOL    HW1 3374   6.219   5.919   0.498
  825SOL    HW2 3375   6.281   5.773   0.458
  826SOL     OW 3376   3.510   2.347   5.689
  826SOL    HW1 3377   3.524   2.436   5.646
  826SOL    HW2 3378   3.413   2.336   5.713
  827SOL     OW 3379   2.891   4.332   5.339
  827SOL    HW1 3380   2.800   4.334   5.379
  827SOL    HW2 3381   2.900   4.405   5.271
  828SOL     OW 3382   6.289   5.840   5.802
  828SOL    HW1 3383   6.251   5.837   5.895
  828SOL    HW2 3384   6.388   5.850   5.807
  829SOL     OW 3385   3.048   3.262   1.935
  829SOL    HW1 3386   3.106   3.197   1.982
  829SOL    HW2 3387   3.079   3.355   1.954
  830SOL     OW 3388   5.964   4.887   6.771
  830SOL    HW1 3389   5.974   4.803   6.719
  830SOL    HW2 3390   6.049   4.940   6.765
  831SOL     OW 3391   6.198   6.989   1.316
  831SOL    HW1 3392   6.241   0.022   1.248
  831SOL    HW2 3393   6.109   6.958   1.281
  832SOL     OW 3394   4.473   1.269   4.578
  832SOL    HW1 3395   4.551   1.320   4.543
  832SOL    HW2 3396   4.505   1.187   4.626
  833SOL     OW 3397   1.758   3.466   6.752
  833SOL    HW1 3398   1.731   3.425   6.665
  833SOL    HW2 3399   1.810   3.550   6.734
  834SOL     OW 3400   5.088   2.675   0.309
  834SOL    HW1 3401   5.051   2.768   0.313
  834SOL    HW2 3402   5.124   2.649   0.398
  835SOL     OW 3403   2.093   0.352   5.181
  835SOL    HW1 3404   2.137   0.417   5.243
  835SOL    HW2 3405   2.159   0.321   5.113
  836SOL     OW 3406   3.023   1.297   5.300
  836SOL    HW1 3407   3.065   1.307   5.390
  836SOL    HW2 3408   3.040   1.379   5.246
  837SOL     OW 3409   0.846   0.157   0.849
  837SOL    HW1 3410   0.924   0.131   0.907
  837SOL    HW2 3411   0.792   0.075   0.827
  838SOL     OW 3412   2.070   6.268   4.333
  838SOL    HW1 3413   1.983   6.249   4.381
  838SOL    HW2 3414   2.087   6.367   4.335
  839SOL     OW 3415   2.081   1.614   1.531
  839SOL    HW1 3416   1.992   1.621   1.576
  839SOL    HW2 3417   2.081   1.535   1.469
  840SOL     OW 3418   6.294   5.432   6.763
  840SOL    HW1 3419   6.218   5.401   6.707
  840SOL    HW2 3420   6.331   5.355   6.816
  841SOL     OW 3421   3.755   5.869   6.012
  841SOL    HW1 3422   3.769   5.782   6.059
  841SOL    HW2 3423   3.829   5.883   5.946
  842SOL     OW 3424   3.672   6.377   6.947
  842SOL    HW1 3425   3.665   6.410   0.015
  842SOL    HW2 3426   3.596   6.413   6.894
  843SOL     OW 3427   2.456   1.921   1.966
  843SOL    HW1 3428   2.369   1.909   1.918
  843SOL    HW2 3429   2.529   1.874   1.916
  844SOL     OW 3430   0.167   6.389   1.502
  844SOL    HW1 3431   0.208   6.306   1.465
  844SOL    HW2 3432   0.111   6.434   1.432
  845SOL     OW 3433   5.055   2.663   3.409
  845SOL    HW1 3434   5.069   2.757   3.441
  845SOL    HW2 3435   4.958   2.639   3.417
  846SOL     OW 3436   3.117   0.481   6.649
  846SOL    HW1 3437   3.142   0.559   6.707
  846SOL    HW2 3438   3.089   0.404   6.706
  847SOL     OW 3439   2.032   3.316   1.909
  847SOL    HW1 3440   2.104   3.377   1.942
  847SOL    HW2 3441   2.022   3.240   1.973
  848SOL     OW 3442   6.813   6.794   5.687
  848SOL    HW1 3443   6.905   6.795   5.649
  848SOL    HW2 3444   6.762   6.873   5.655
  849SOL     OW 3445   6.194   3.993   6.725
  849SOL    HW1 3446   6.153   4.083   6.711
  849SOL    HW2 3447   6.150   3.926   6.666
  850SOL     OW 3448   0.250   0.040   5.005
  850SOL    HW1 3449   0.179   0.049   4.936
  850SOL    HW2 3450   0.339   0.033   4.960
  851SOL     OW 3451   6.371   2.758   0.040
  851SOL    HW1 3452   6.452   2.700   0.032
  851SOL    HW2 3453   6.329   2.743   0.129
  852SOL     OW 3454   0.397   4.695   0.870
  852SOL    HW1 3455   0.311   4.742   0.890
  852SOL    HW2 3456   0.400   4.671   0.773
  853SOL     OW 3457   1.893   4.089   6.349
  853SOL    HW1 3458   1.896   3.991   6.369
  853SOL    HW2 3459   1.842   4.136   6.422
  854SOL     OW 3460   5.490   6.370   0.054
  854SOL    HW1 3461   5.416   6.431   0.079
  854SOL    HW2 3462   5.469   6.277   0.084
  855SOL     OW 3463   6.014   0.228   0.535
  855SOL    HW1 3464   6.040   0.306   0.593
  855SOL    HW2 3465   6.080   0.154   0.546
  856SOL     OW 3466   1.469   0.350   5.744
  856SOL    HW1 3467   1.454   0.311   5.835
  856SOL    HW2 3468   1.445   0.282   5.675
  857SOL     OW 3469   6.697   5.701   1.859
  857SOL    HW1 3470   6.716   5.630   1.792
  857SOL    HW2 3471   6.602   5.693   1.891
  858SOL     OW 3472   3.139   4.092   1.104
  858SOL    HW1 3473   3.159   4.190   1.115
  858SOL    HW2 3474   3.221   4.039   1.126
  859SOL     OW 3475   5.364   6.057   5.363
  859SOL    HW1 3476   5.337   5.963   5.340
  859SOL    HW2 3477   5.386   6.107   5.279
  860SOL     OW 3478   5.834   2.944   6.525
  860SOL    HW1 3479   5.756   2.882   6.527
  860SOL    HW2 3480   5.801   3.037   6.511
  861SOL     OW 3481   2.396   5.452   3.158
  861SOL    HW1 3482   2.381   5.512   3.237
  861SOL    HW2 3483   2.308   5.421   3.122
  862SOL     OW 3484   2.080   4.984   3.315
  862SOL    HW1 3485   2.019   4.907   3.335
  862SOL    HW2 3486   2.110   5.025   3.401
  863SOL     OW 3487   5.840   1.104   5.854
  863SOL    HW1 3488   5.786   1.072   5.776
  863SOL    HW2 3489   5.879   1.026   5.902
  864SOL     OW 3490   3.911   6.855   4.935
  864SOL    HW1 3491   3.935   6.942   4.978
  864SOL    HW2 3492   3.829   6.818   4.978
  865SOL     OW 3493   2.087   0.357   5.668
  865SOL    HW1 3494   2.131   0.445   5.686
  865SOL    HW2 3495   2.157   0.288   5.645
  866SOL     OW 3496   3.548   6.798   1.100
  866SOL    HW1 3497   3.591   6.736   1.165
  866SOL    HW2 3498   3.510   6.877   1.149
  867SOL     OW 3499   5.150   3.123   0.592
  867SOL    HW1 3500   5.152   3.024   0.582
  867SOL    HW2 3501   5.224   3.164   0.539
  868SOL     OW 3502   0.118   1.730   2.267
  868SOL    HW1 3503   0.109   1.828   2.250
  868SOL    HW2 3504   0.181   1.714   2.342
  869SOL     OW 3505   6.728   3.940   3.099
  869SOL    HW1 3506   6.760   4.027   3.137
  869SOL    HW2 3507   6.667   3.895   3.164
  870SOL     OW 3508   4.176   4.213   1.201
  870SOL    HW1 3509   4.229   4.180   1.279
  870SOL    HW2 3510   4.088   4.165   1.197
  871SOL     OW 3511   5.259   2.481   3.825
  871SOL    HW1 3512   5.344   2.437   3.796
  871SOL    HW2 3513   5.193   2.481   3.750
  872SOL     OW 3514   6.981   2.066   4.523
  872SOL    HW1 3515   0.030   2.107   4.472
  872SOL    HW2 3516   6.935   1.999   4.465
  873SOL     OW 3517   4.151   5.915   5.173
  873SOL    HW1 3518   4.053   5.916   5.192
  873SOL    HW2 3519   4.166   5.884   5.079
  874SOL     OW 3520   6.262   4.175   0.666
  874SOL    HW1 3521   6.172   4.157   0.705
  874SOL    HW2 3522   6.304   4.088   0.640
  875SOL     OW 3523   5.192   5.378   0.851
  875SOL    HW1 3524   5.144   5.416   0.772
  875SOL    HW2 3525   5.143   5.403   0.935
  876SOL     OW 3526   0.611   5.600   1.573
  876SOL    HW1 3527   0.567   5.523   1.618
  876SOL    HW2 3528   0.609   5.680   1.634
  877SOL     OW 3529   3.351   4.431   5.717
  877SOL    HW1 3530   3.387   4.339   5.697
  877SOL    HW2 3531   3.251   4.429   5.712
  878SOL     OW 3532   4.481   6.909   3.722
  878SOL    HW1 3533   4.576   6.901   3.752
  878SOL    HW2 3534   4.441   6.818   3.713
  879SOL     OW 3535   3.822   0.476   1.752
  879SOL    HW1 3536   3.772   0.542   1.808
  879SOL    HW2 3537   3.757   0.417   1.704
  880SOL     OW 3538   3.722   3.690   3.898
  880SOL    HW1 3539   3.676   3.725   3.816
  880SOL    HW2 3540   3.655   3.644   3.956
  881SOL     OW 3541   5.237   2.928   4.977
  881SOL    HW1 3542   5.185   2.987   4.916
  881SOL    HW2 3543   5.199   2.836   4.977
  882SOL     OW 3544   0.986   3.341   3.928
  882SOL    HW1 3545   0.908   3.283   3.908
  882SOL    HW2 3546   1.069   3.302   3.887
  883SOL     OW 3547   3.021   0.992   1.619
  883SOL    HW1 3548   3.005   0.933   1.698
  883SOL    HW2 3549   3.021   1.088   1.649
  884SOL     OW 3550   5.699   3.504   5.599
  884SOL    HW1 3551   5.747   3.417   5.591
  884SOL    HW2 3552   5.670   3.518   5.693
  885SOL     OW 3553   3.260   0.880   5.079
  885SOL    HW1 3554   3.248   0.975   5.107
  885SOL    HW2 3555   3.194   0.857   5.007
  886SOL     OW 3556   3.478   6.956   7.011
  886SOL    HW1 3557   3.423   0.008   0.013
  886SOL    HW2 3558   3.567   6.959   0.031
  887SOL     OW 3559   3.830   6.614   3.631
  887SOL    HW1 3560   3.824   6.629   3.730
  887SOL    HW2 3561   3.909   6.663   3.594
  888SOL     OW 3562   6.839   6.105   3.717
  888SOL    HW1 3563   6.922   6.066   3.678
  888SOL    HW2 3564   6.838   6.091   3.816
  889SOL     OW 3565   0.001   2.731   0.592
  889SOL    HW1 3566   6.988   2.641   0.608
  889SOL    HW2 3567   6.957   2.801   0.607
  890SOL     OW 3568   1.565   5.120   2.667
  890SOL    HW1 3569   1.621   5.072   2.734
  890SOL    HW2 3570   1.473   5.081   2.666
  891SOL     OW 3571   5.607   4.365   1.426
  891SOL    HW1 3572   5.528   4.307   1.404
  891SOL    HW2 3573   5.594   4.455   1.386
  892SOL     OW 3574   2.640   3.905   5.296
  892SOL    HW1 3575   2.708   3.922   5.226
  892SOL    HW2 3576   2.552   3.944   5.269
  893SOL     OW 3577   2.048   6.238   3.107
  893SOL    HW1 3578   2.128   6.182   3.089
  893SOL    HW2 3579   2.060   6.288   3.192
  894SOL     OW 3580   0.553   3.034   1.601
  894SOL    HW1 3581   0.575   2.968   1.529
  894SOL    HW2 3582   0.629   3.039   1.666
  895SOL     OW 3583   0.878   5.203   3.966
  895SOL    HW1 3584   0.896   5.200   4.064
  895SOL    HW2 3585   0.944   5.146   3.917
  896SOL     OW 3586   5.307   4.549   1.297
  896SOL    HW1 3587   5.393   4.595   1.324
  896SOL    HW2 3588   5.280   4.580   1.206
  897SOL     OW 3589   4.101   1.521   6.907
  897SOL    HW1 3590   4.012   1.555   6.876
  897SOL    HW2 3591   4.087   1.439   6.963
  898SOL     OW 3592   3.640   6.407   3.013
  898SOL    HW1 3593   3.550   6.444   3.035
  898SOL    HW2 3594   3.650   6.402   2.913
  899SOL     OW 3595   0.445   6.672   0.123
  899SOL    HW1 3596   0.411   6.610   0.052
  899SOL    HW2 3597   0.477   6.757   0.081
  900SOL     OW 3598   5.961   6.986   0.397
  900SOL    HW1 3599   6.050   7.012   0.433
  900SOL    HW2 3600   5.957   6.887   0.383
  901SOL     OW 3601   2.247   6.884   3.632
  901SOL    HW1 3602   2.237   6.962   3.694
  901SOL    HW2 3603   2.200   6.903   3.546
  902SOL     OW 3604   0.990   1.841   1.002
  902SOL    HW1 3605   1.006   1.939   0.989
  902SOL    HW2 3606   1.014   1.815   1.095
  903SOL     OW 3607   0.350   2.367   6.417
  903SOL    HW1 3608   0.350   2.467   6.409
  903SOL    HW2 3609   0.434   2.331   6.376
  904SOL     OW 3610   2.179   2.091   2.524
  904SOL    HW1 3611   2.218   2.013   2.476
  904SOL    HW2 3612   2.250   2.159   2.541
  905SOL     OW 3613   5.030   2.054   6.524
  905SOL    HW1 3614   5.033   2.153   6.511
  905SOL    HW2 3615   5.061   2.031   6.616
  906SOL     OW 3616   0.279   1.798   6.966
  906SOL    HW1 3617   0.220   1.831   0.013
  906SOL    HW2 3618   0.370   1.837   6.976
  907SOL     OW 3619   5.489   3.083   0.952
  907SOL    HW1 3620   5.578   3.098   0.908
  907SOL    HW2 3621   5.466   2.985   0.948
  908SOL     OW 3622   2.580   4.614   2.815
  908SOL    HW1 3623   2.638   4.685   2.853
  908SOL    HW2 3624   2.566   4.630   2.717
  909SOL     OW 3625   4.323   6.208   1.473
  909SOL    HW1 3626   4.298   6.174   1.382
  909SOL    HW2 3627   4.246   6.258   1.512
  910SOL     OW 3628   3.335   2.072   0.966
  910SOL    HW1 3629   3.313   2.034   1.055
  910SOL    HW2 3630   3.254   2.072   0.908
  911SOL     OW 3631   0.816   6.324   6.180
  911SOL    HW1 3632   0.818   6.421   6.201
  911SOL    HW2 3633   0.797   6.311   6.083
  912SOL     OW 3634   6.293   2.605   3.158
  912SOL    HW1 3635   6.338   2.667   3.094
  912SOL    HW2 3636   6.318   2.511   3.136
  913SOL     OW 3637   3.794   6.967   3.208
  913SOL    HW1 3638   3.799   6.948   3.110
  913SOL    HW2 3639   3.879   7.009   3.238
  914SOL     OW 3640   2.434   0.517   6.216
  914SOL    HW1 3641   2.426   0.477   6.307
  914SOL    HW2 3642   2.470   0.448   6.153
  915SOL     OW 3643   6.041   4.269   7.016
  915SOL    HW1 3644   6.071   4.218   0.071
  915SOL    HW2 3645   6.026   4.365   0.014
  916SOL     OW 3646   1.643   2.735   1.749
  916SOL    HW1 3647   1.594   2.736   1.836
  916SOL    HW2 3648   1.726   2.680   1.759
  917SOL     OW 3649   0.621   6.573   1.283
  917SOL    HW1 3650   0.591   6.488   1.239
  917SOL    HW2 3651   0.602   6.650   1.222
  918SOL     OW 3652   3.518   0.496   0.636
  918SOL    HW1 3653   3.525   0.446   0.550
  918SOL    HW2 3654   3.566   0.446   0.708
  919SOL     OW 3655   5.915   1.622   2.658
  919SOL    HW1 3656   5.977   1.671   2.596
  919SOL    HW2 3657   5.930   1.653   2.752
  920SOL     OW 3658   2.374   4.087   1.645
  920SOL    HW1 3659   2.301   4.046   1.700
  920SOL    HW2 3660   2.455   4.028   1.648
  921SOL     OW 3661   4.447   5.916   4.245
  921SOL    HW1 3662   4.350   5.920   4.270
  921SOL    HW2 3663   4.500   5.974   4.306
  922SOL     OW 3664   3.814   3.249   4.190
  922SOL    HW1 3665   3.750   3.173   4.198
  922SOL    HW2 3666   3.798   3.297   4.103
  923SOL     OW 3667   2.091   3.277   6.899
  923SOL    HW1 3668   2.067   3.207   6.831
  923SOL    HW2 3669   2.165   3.243   6.957
  924SOL     OW 3670   6.593   4.062   1.754
  924SOL    HW1 3671   6.530   4.087   1.828
  924SOL    HW2 3672   6.540   4.042   1.671
  925SOL     OW 3673   0.060   2.550   0.326
  925SOL    HW1 3674   7.020   2.624   0.319
  925SOL    HW2 3675   0.135   2.577   0.387
  926SOL     OW 3676   6.158   1.067   1.143
  926SOL    HW1 3677   6.112   0.988   1.103
  926SOL    HW2 3678   6.245   1.038   1.183
  927SOL     OW 3679   5.502   3.464   3.061
  927SOL    HW1 3680   5.554   3.439   3.143
  927SOL    HW2 3681   5.407   3.433   3.071
  928SOL     OW 3682   2.222   6.277   0.302
  928SOL    HW1 3683   2.202   6.207   0.370
  928SOL    HW2 3684   2.236   6.235   0.212
  929SOL     OW 3685   0.421   0.798   0.027
  929SOL    HW1 3686   0.425   0.894   7.025
  929SOL    HW2 3687   0.377   0.744   6.982
  930SOL     OW 3688   5.522   6.663   6.267
  930SOL    HW1 3689   5.510   6.572   6.305
  930SOL    HW2 3690   5.456   6.726   6.308
  931SOL     OW 3691   6.794   1.214   4.498
  931SOL    HW1 3692   6.845   1.130   4.480
  931SOL    HW2 3693   6.697   1.199   4.478
  932SOL     OW 3694   2.731   1.309   3.028
  932SOL    HW1 3695   2.693   1.247   3.097
  932SOL    HW2 3696   2.753   1.396   3.071
  933SOL     OW 3697   1.294   4.952   3.034
  933SOL    HW1 3698   1.343   4.956   3.120
  933SOL    HW2 3699   1.353   4.911   2.964
  934SOL     OW 3700   2.606   5.634   6.214
  934SOL    HW1 3701   2.602   5.563   6.284
  934SOL    HW2 3702   2.700   5.641   6.179
  935SOL     OW 3703   5.444   4.521   4.349
  935SOL    HW1 3704   5.517   4.464   4.386
  935SOL    HW2 3705   5.477   4.571   4.270
  936SOL     OW 3706   0.837   6.802   6.075
  936SOL    HW1 3707   0.787   6.761   5.999
  936SOL    HW2 3708   0.924   6.838   6.042
  937SOL     OW 3709   5.812   1.559   6.300
  937SOL    HW1 3710   5.724   1.587   6.339
  937SOL    HW2 3711   5.812   1.459   6.286
  938SOL     OW 3712   6.179   5.329   5.024
  938SOL    HW1 3713   6.134   5.396   4.965
  938SOL    HW2 3714   6.120   5.249   5.034
  939SOL     OW 3715   0.170   6.966   3.413
  939SOL    HW1 3716   0.093   6.904   3.429
  939SOL    HW2 3717   0.241   6.949   3.481
  940SOL     OW 3718   0.462   3.492   0.406
  940SOL    HW1 3719   0.492   3.415   0.351
  940SOL    HW2 3720   0.376   3.528   0.371
  941SOL     OW 3721   5.213   0.434   0.452
  941SOL    HW1 3722   5.284   0.489   0.496
  941SOL    HW2 3723   5.237   0.337   0.459
  942SOL     OW 3724   5.802   0.254   2.417
  942SOL    HW1 3725   5.845   0.258   2.508
  942SOL    HW2 3726   5.861   0.297   2.350
  943SOL     OW 3727   1.171   4.669   2.411
  943SOL    HW1 3728   1.160   4.620   2.324
  943SOL    HW2 3729   1.250   4.631   2.460
  944SOL     OW 3730   0.270   5.954   5.236
  944SOL    HW1 3731   0.328   6.033   5.215
  944SOL    HW2 3732   0.296   5.877   5.177
  945SOL     OW 3733   0.388   4.906   5.726
  945SOL    HW1 3734   0.468   4.912   5.666
  945SOL    HW2 3735   0.328   4.984   5.710
  946SOL     OW 3736   4.896   4.204   4.569
  946SOL    HW1 3737   4.828   4.261   4.615
  946SOL    HW2 3738   4.969   4.180   4.633
  947SOL     OW 3739   3.703   3.272   3.699
  947SOL    HW1 3740   3.715   3.297   3.603
  947SOL    HW2 3741   3.736   3.178   3.713
  948SOL     OW 3742   4.435   1.292   3.122
  948SOL    HW1 3743   4.418   1.249   3.210
  948SOL    HW2 3744   4.387   1.241   3.050
  949SOL     OW 3745   3.070   5.891   0.439
  949SOL    HW1 3746   3.054   5.857   0.346
  949SOL    HW2 3747   3.098   5.815   0.498
  950SOL     OW 3748   6.140   5.583   2.592
  950SOL    HW1 3749   6.142   5.599   2.493
  950SOL    HW2 3750   6.168   5.667   2.640
  951SOL     OW 3751   1.048   0.189   3.424
  951SOL    HW1 3752   1.005   0.101   3.443
  951SOL    HW2 3753   1.124   0.203   3.489
  952SOL     OW 3754   4.592   2.465   2.521
  952SOL    HW1 3755   4.606   2.457   2.620
  952SOL    HW2 3756   4.605   2.560   2.493
  953SOL     OW 3757   6.002   5.220   4.515
  953SOL    HW1 3758   5.946   5.161   4.573
  953SOL    HW2 3759   5.998   5.187   4.420
  954SOL     OW 3760   3.459   6.153   2.172
  954SOL    HW1 3761   3.514   6.192   2.097
  954SOL    HW2 3762   3.372   6.201   2.178
  955SOL     OW 3763   1.987   4.391   0.223
  955SOL    HW1 3764   1.914   4.331   0.254
  955SOL    HW2 3765   2.058   4.398   0.293
  956SOL     OW 3766   6.703   0.642   1.927
  956SOL    HW1 3767   6.746   0.731   1.911
  956SOL    HW2 3768   6.766   0.582   1.975
  957SOL     OW 3769   5.724   2.089   1.831
  957SOL    HW1 3770   5.667   2.137   1.898
  957SOL    HW2 3771   5.819   2.087   1.863
  958SOL     OW 3772   4.207   6.898   1.741
  958SOL    HW1 3773   4.143   6.966   1.706
  958SOL    HW2 3774   4.274   6.942   1.801
  959SOL     OW 3775   3.241   6.930   5.233
  959SOL    HW1 3776   3.322   6.972   5.274
  959SOL    HW2 3777   3.207   6.987   5.159
  960SOL     OW 3778   1.547   0.147   1.032
  960SOL    HW1 3779   1.461   0.160   1.081
  960SOL    HW2 3780   1.530   0.101   0.945
  961SOL     OW 3781   4.465   6.418   3.201
  961SOL    HW1 3782   4.413   6.502   3.188
  961SOL    HW2 3783   4.403   6.341   3.214
  962SOL     OW 3784   6.569   0.923   4.195
  962SOL    HW1 3785   6.590   1.006   4.142
  962SOL    HW2 3786   6.472   0.921   4.216
  963SOL     OW 3787   4.404   0.878   0.266
  963SOL    HW1 3788   4.328   0.883   0.331
  963SOL    HW2 3789   4.390   0.945   0.193
  964SOL     OW 3790   4.854   4.823   5.702
  964SOL    HW1 3791   4.814   4.817   5.610
  964SOL    HW2 3792   4.952   4.840   5.694
  965SOL     OW 3793   6.472   1.756   2.677
  965SOL    HW1 3794   6.458   1.849   2.641
  965SOL    HW2 3795   6.384   1.716   2.701
  966SOL     OW 3796   5.638   3.272   3.495
  966SOL    HW1 3797   5.615   3.176   3.479
  966SOL    HW2 3798   5.736   3.281   3.512
  967SOL     OW 3799   3.050   4.582   0.259
  967SOL    HW1 3800   3.001   4.498   0.281
  967SOL    HW2 3801   3.042   4.601   0.161
  968SOL     OW 3802   4.076   6.649   1.746
  968SOL    HW1 3803   4.122   6.738   1.739
  968SOL    HW2 3804   3.998   6.647   1.684
  969SOL     OW 3805   2.406   4.980   5.870
  969SOL    HW1 3806   2.442   4.889   5.854
  969SOL    HW2 3807   2.310   4.974   5.899
  970SOL     OW 3808   5.441   0.400   6.188
  970SOL    HW1 3809   5.443   0.367   6.093
  970SOL    HW2 3810   5.416   0.325   6.249
  971SOL     OW 3811   0.097   3.580   2.357
  971SOL    HW1 3812   0.192   3.606   2.378
  971SOL    HW2 3813   0.097   3.518   2.279
  972SOL     OW 3814   6.253   2.252   1.720
  972SOL    HW1 3815   6.158   2.277   1.704
  972SOL    HW2 3816   6.302   2.329   1.760
  973SOL     OW 3817   1.002   5.720   6.713
  973SOL    HW1 3818   0.909   5.705   6.746
  973SOL    HW2 3819   1.042   5.799   6.760
  974SOL     OW 3820   0.337   5.606   2.152
  974SOL    HW1 3821   0.285   5.678   2.107
  974SOL    HW2 3822   0.396   5.646   2.223
  975SOL     OW 3823   2.482   0.023   0.058
  975SOL    HW1 3824   2.577   0.036   0.086
  975SOL    HW2 3825   2.467   0.070   6.997
  976SOL     OW 3826   6.800   3.499   1.389
  976SOL    HW1 3827   6.838   3.571   1.447
  976SOL    HW2 3828   6.701   3.512   1.381
  977SOL     OW 3829   0.479   0.586   2.134
  977SOL    HW1 3830   0.409   0.601   2.203
  977SOL    HW2 3831   0.465   0.650   2.058
  978SOL     OW 3832   5.007   1.667   1.259
  978SOL    HW1 3833   4.918   1.710   1.247
  978SOL    HW2 3834   4.997   1.568   1.261
  979SOL     OW 3835   0.573   2.976   6.994
  979SOL    HW1 3836   0.485   2.979   6.947
  979SOL    HW2 3837   0.647   2.976   6.927
  980SOL     OW 3838   4.888   1.292   4.788
  980SOL    HW1 3839   4.983   1.323   4.782
  980SOL    HW2 3840   4.846   1.332   4.869
  981SOL     OW 3841   0.201   0.926   4.554
  981SOL    HW1 3842   0.269   0.921   4.626
  981SOL    HW2 3843   0.206   0.843   4.498
  982SOL     OW 3844   1.012   1.580   5.545
  982SOL    HW1 3845   1.077   1.652   5.569
  982SOL    HW2 3846   1.015   1.564   5.446
  983SOL     OW 3847   0.087   3.629   2.653
  983SOL    HW1 3848   0.098   3.547   2.708
  983SOL    HW2 3849   0.100   3.606   2.556
  984SOL     OW 3850   1.591   2.360   2.970
  984SOL    HW1 3851   1.664   2.427   2.955
  984SOL    HW2 3852   1.630   2.268   2.973
  985SOL     OW 3853   6.821   3.970   4.534
  985SOL    HW1 3854   6.807   4.067   4.519
  985SOL    HW2 3855   6.903   3.940   4.486
  986SOL     OW 3856   4.590   5.177   1.538
  986SOL    HW1 3857   4.493   5.153   1.550
  986SOL    HW2 3858   4.613   5.179   1.441
  987SOL     OW 3859   5.202   6.266   2.534
  987SOL    HW1 3860   5.232   6.360   2.520
  987SOL    HW2 3861   5.245   6.206   2.467
  988SOL     OW 3862   3.316   4.115   1.970
  988SOL    HW1 3863   3.223   4.080   1.974
  988SOL    HW2 3864   3.334   4.171   2.051
  989SOL     OW 3865   6.510   1.694   0.294
  989SOL    HW1 3866   6.476   1.742   0.213
  989SOL    HW2 3867   6.439   1.632   0.328
  990SOL     OW 3868   3.289   1.055   2.191
  990SOL    HW1 3869   3.320   1.127   2.129
  990SOL    HW2 3870   3.306   1.082   2.286
  991SOL     OW 3871   0.252   4.213   4.093
  991SOL    HW1 3872   0.181   4.272   4.055
  991SOL    HW2 3873   0.332   4.214   4.033
  992SOL     OW 3874   0.018   3.292   1.084
  992SOL    HW1 3875   0.012   3.376   1.138
  992SOL    HW2 3876   6.976   3.227   1.116
  993SOL     OW 3877   0.164   3.876   0.400
  993SOL    HW1 3878   0.168   3.826   0.486
  993SOL    HW2 3879   0.080   3.931   0.398
  994SOL     OW 3880   3.770   5.223   1.740
  994SOL    HW1 3881   3.712   5.294   1.779
  994SOL    HW2 3882   3.737   5.199   1.648
  995SOL     OW 3883   4.334   3.038   6.208
  995SOL    HW1 3884   4.288   2.950   6.212
  995SOL    HW2 3885   4.270   3.108   6.178
  996SOL     OW 3886   3.358   5.278   4.991
  996SOL    HW1 3887   3.370   5.183   4.960
  996SOL    HW2 3888   3.261   5.296   5.006
  997SOL     OW 3889   1.040   6.913   3.382
  997SOL    HW1 3890   1.111   6.954   3.324
  997SOL    HW2 3891   0.984   6.851   3.328
  998SOL     OW 3892   6.596   0.068   6.150
  998SOL    HW1 3893   6.501   0.036   6.148
  998SOL    HW2 3894   6.658   7.016   6.160
  999SOL     OW 3895   4.978   3.772   1.507
  999SOL    HW1 3896   4.892   3.776   1.557
  999SOL    HW2 3897   4.959   3.750   1.411
 1000SOL     OW 3898   4.244   1.297   1.364
 1000SOL    HW1 3899   4.249   1.345   1.277
 1000SOL    HW2 3900   4.329   1.246   1.380
 1001SOL     OW 3901   3.945   5.938   1.802
 1001SOL    HW1 3902   3.848   5.942   1.776
 1001SOL    HW2 3903   3.997   5.894   1.729
 1002SOL     OW 3904   5.373   2.534   1.475
 1002SOL    HW1 3905   5.385   2.509   1.379
 1002SOL    HW2 3906   5.397   2.456   1.533
 1003SOL     OW 3907   1.877   5.991   3.107
 1003SOL    HW1 3908   1.938   6.070   3.113
 1003SOL    HW2 3909   1.880   5.954   3.013
 1004SOL     OW 3910   0.049   1.038   2.088
 1004SOL    HW1 3911   0.009   1.072   2.173
 1004SOL    HW2 3912   7.003   0.999   2.030
 1005SOL     OW 3913   1.897   4.145   4.084
 1005SOL    HW1 3914   1.966   4.106   4.145
 1005SOL    HW2 3915   1.938   4.219   4.030
 1006SOL     OW 3916   1.505   4.174   0.370
 1006SOL    HW1 3917   1.492   4.272   0.355
 1006SOL    HW2 3918   1.419   4.126   0.354
 1007SOL     OW 3919   4.876   0.450   5.815
 1007SOL    HW1 3920   4.865   0.456   5.914
 1007SOL    HW2 3921   4.835   0.365   5.782
 1008SOL     OW 3922   6.907   3.220   5.356
 1008SOL    HW1 3923   6.987   3.196   5.411
 1008SOL    HW2 3924   6.852   3.139   5.339
 1009SOL     OW 3925   5.937   4.072   5.807
 1009SOL    HW1 3926   5.918   4.060   5.710
 1009SOL    HW2 3927   5.882   4.148   5.843
 1010SOL     OW 3928   2.637   2.565   1.506
 1010SOL    HW1 3929   2.583   2.506   1.566
 1010SOL    HW2 3930   2.576   2.609   1.440
 1011SOL     OW 3931   0.620   5.515   3.576
 1011SOL    HW1 3932   0.606   5.456   3.655
 1011SOL    HW2 3933   0.534   5.561   3.554
 1012SOL     OW 3934   6.870   6.209   2.194
 1012SOL    HW1 3935   6.966   6.220   2.220
 1012SOL    HW2 3936   6.812   6.254   2.262
 1013SOL     OW 3937   6.839   1.267   6.632
 1013SOL    HW1 3938   6.862   1.307   6.543
 1013SOL    HW2 3939   6.759   1.315   6.670
 1014SOL     OW 3940   0.758   3.911   5.161
 1014SOL    HW1 3941   0.813   3.845   5.213
 1014SOL    HW2 3942   0.663   3.883   5.161
 1015SOL     OW 3943   2.589   0.751   6.256
 1015SOL    HW1 3944   2.545   0.661   6.254
 1015SOL    HW2 3945   2.519   0.823   6.255
 1016SOL     OW 3946   4.556   5.189   1.260
 1016SOL    HW1 3947   4.577   5.211   1.165
 1016SOL    HW2 3948   4.461   5.157   1.267
 1017SOL     OW 3949   3.024   1.938   1.046
 1017SOL    HW1 3950   3.102   1.944   1.109
 1017SOL    HW2 3951   3.058   1.939   0.952
 1018SOL     OW 3952   0.648   5.144   4.229
 1018SOL    HW1 3953   0.652   5.242   4.249
 1018SOL    HW2 3954   0.739   5.111   4.203
 1019SOL     OW 3955   6.923   5.625   0.762
 1019SOL    HW1 3956   6.903   5.538   0.807
 1019SOL    HW2 3957   6.929   5.698   0.830
 1020SOL     OW 3958   6.136   1.334   1.605
 1020SOL    HW1 3959   6.072   1.258   1.596
 1020SOL    HW2 3960   6.085   1.418   1.623
 1021SOL     OW 3961   6.057   6.343   1.971
 1021SOL    HW1 3962   6.133   6.360   2.035
 1021SOL    HW2 3963   6.036   6.245   1.970
 1022SOL     OW 3964   3.156   5.473   5.751
 1022SOL    HW1 3965   3.101   5.390   5.742
 1022SOL    HW2 3966   3.098   5.553   5.738
 1023SOL     OW 3967   0.213   0.870   3.093
 1023SOL    HW1 3968   0.250   0.785   3.131
 1023SOL    HW2 3969   0.143   0.848   3.025
 1024SOL     OW 3970   0.780   1.606   4.214
 1024SOL    HW1 3971   0.698   1.627   4.267
 1024SOL    HW2 3972   0.769   1.516   4.172
 1025SOL     OW 3973   4.485   2.945   0.568
 1025SOL    HW1 3974   4.525   2.996   0.492
 1025SOL    HW2 3975   4.558   2.902   0.621
 1026SOL     OW 3976   2.787   2.814   1.572
 1026SOL    HW1 3977   2.856   2.841   1.505
 1026SOL    HW2 3978   2.795   2.716   1.590
 1027SOL     OW 3979   2.092   6.960   1.972
 1027SOL    HW1 3980   2.166   7.005   2.021
 1027SOL    HW2 3981   2.127   6.919   1.888
 1028SOL     OW 3982   1.278   6.835   2.873
 1028SOL    HW1 3983   1.259   6.933   2.880
 1028SOL    HW2 3984   1.285   6.810   2.776
 1029SOL     OW 3985   1.179   2.159   6.196
 1029SOL    HW1 3986   1.224   2.127   6.279
 1029SOL    HW2 3987   1.199   2.096   6.121
 1030SOL     OW 3988   3.176   3.034   1.611
 1030SOL    HW1 3989   3.218   2.996   1.528
 1030SOL    HW2 3990   3.248   3.054   1.678
 1031SOL     OW 3991   4.617   3.230   1.099
 1031SOL    HW1 3992   4.681   3.212   1.024
 1031SOL    HW2 3993   4.587   3.144   1.138
 1032SOL     OW 3994   2.148   1.373   5.324
 1032SOL    HW1 3995   2.234   1.411   5.291
 1032SOL    HW2 3996   2.153   1.362   5.423
 1033SOL     OW 3997   1.249   5.809   1.976
 1033SOL    HW1 3998   1.228   5.713   1.991
 1033SOL    HW2 3999   1.244   5.858   2.063
 1034SOL     OW 4000   1.357   5.863   4.015
 1034SOL    HW1 4001   1.301   5.891   3.936
 1034SOL    HW2 4002   1.379   5.766   4.006
 1035SOL     OW 4003   6.999   2.133   6.638
 1035SOL    HW1 4004   0.066   2.123   6.671
 1035SOL    HW2 4005   6.999   2.184   6.552
 1036SOL     OW 4006   4.311   1.041   1.500
 1036SOL    HW1 4007   4.272   1.001   1.417
 1036SOL    HW2 4008   4.395   0.992   1.524
 1037SOL     OW 4009   1.327   1.999   3.438
 1037SOL    HW1 4010   1.246   2.035   3.393
 1037SOL    HW2 4011   1.404   2.060   3.423
 1038SOL     OW 4012   1.713   0.928   5.777
 1038SOL    HW1 4013   1.644   0.866   5.815
 1038SOL    HW2 4014   1.761   0.883   5.702
 1039SOL     OW 4015   3.212   3.445   3.894
 1039SOL    HW1 4016   3.241   3.539   3.907
 1039SOL    HW2 4017   3.291   3.387   3.874
 1040SOL     OW 4018   4.761   1.428   2.169
 1040SOL    HW1 4019   4.675   1.474   2.145
 1040SOL    HW2 4020   4.783   1.360   2.099
 1041SOL     OW 4021   0.157   6.473   3.168
 1041SOL    HW1 4022   0.116   6.406   3.106
 1041SOL    HW2 4023   0.132   6.449   3.263
 1042SOL     OW 4024   4.311   5.561   2.833
 1042SOL    HW1 4025   4.276   5.470   2.810
 1042SOL    HW2 4026   4.288   5.624   2.759
 1043SOL     OW 4027   4.033   2.077   3.575
 1043SOL    HW1 4028   3.948   2.025   3.579
 1043SOL    HW2 4029   4.105   2.027   3.624
 1044SOL     OW 4030   5.833   5.534   1.944
 1044SOL    HW1 4031   5.911   5.474   1.960
 1044SOL    HW2 4032   5.816   5.590   2.025
 1045SOL     OW 4033   3.773   0.641   2.812
 1045SOL    HW1 4034   3.795   0.726   2.859
 1045SOL    HW2 4035   3.685   0.651   2.765
 1046SOL     OW 4036   1.748   1.879   6.919
 1046SOL    HW1 4037   1.818   1.951   6.923
 1046SOL    HW2 4038   1.717   1.857   7.012
 1047SOL     OW 4039   3.413   0.571   3.814
 1047SOL    HW1 4040   3.332   0.608   3.860
 1047SOL    HW2 4041   3.418   0.472   3.831
 1048SOL     OW 4042   2.738   5.558   2.122
 1048SOL    HW1 4043   2.741   5.579   2.220
 1048SOL    HW2 4044   2.814   5.497   2.099
 1049SOL     OW 4045   5.583   0.009   3.870
 1049SOL    HW1 4046   5.512   6.973   3.838
 1049SOL    HW2 4047   5.635   0.044   3.792
 1050SOL     OW 4048   3.752   5.743   2.177
 1050SOL    HW1 4049   3.759   5.648   2.209
 1050SOL    HW2 4050   3.744   5.804   2.256
 1051SOL     OW 4051   0.545   5.898   0.085
 1051SOL    HW1 4052   0.454   5.903   0.044
 1051SOL    HW2 4053   0.574   5.990   0.111
 1052SOL     OW 4054   4.799   0.868   5.566
 1052SOL    HW1 4055   4.889   0.838   5.535
 1052SOL    HW2 4056   4.761   0.801   5.629
 1053SOL     OW 4057   5.810   4.217   2.591
 1053SOL    HW1 4058   5.754   4.249   2.668
 1053SOL    HW2 4059   5.900   4.189   2.625
 1054SOL     OW 4060   2.675   3.448   0.677
 1054SOL    HW1 4061   2.657   3.373   0.613
 1054SOL    HW2 4062   2.646   3.421   0.769
 1055SOL     OW 4063   4.676   5.886   5.653
 1055SOL    HW1 4064   4.645   5.966   5.602
 1055SOL    HW2 4065   4.668   5.904   5.751
 1056SOL     OW 4066   0.805   3.808   0.014
 1056SOL    HW1 4067   0.888   3.767   7.000
 1056SOL    HW2 4068   0.757   3.860   6.970
 1057SOL     OW 4069   3.570   2.744   1.295
 1057SOL    HW1 4070   3.593   2.671   1.359
 1057SOL    HW2 4071   3.652   2.797   1.273
 1058SOL     OW 4072   5.107   2.896   3.541
 1058SOL    HW1 4073   5.064   2.987   3.542
 1058SOL    HW2 4074   5.110   2.860   3.634
 1059SOL     OW 4075   2.335   6.561   2.101
 1059SOL    HW1 4076   2.306   6.645   2.146
 1059SOL    HW2 4077   2.347   6.578   2.003
 1060SOL     OW 4078   0.569   4.993   4.453
 1060SOL    HW1 4079   0.582   5.063   4.383
 1060SOL    HW2 4080   0.475   4.960   4.449
 1061SOL     OW 4081   6.228   3.773   6.320
 1061SOL    HW1 4082   6.205   3.686   6.277
 1061SOL    HW2 4083   6.327   3.786   6.319
 1062SOL     OW 4084   4.314   5.735   5.309
 1062SOL    HW1 4085   4.294   5.734   5.407
 1062SOL    HW2 4086   4.259   5.806   5.264
 1063SOL     OW 4087   6.965   6.477   0.277
 1063SOL    HW1 4088   7.004   6.425   0.354
 1063SOL    HW2 4089   0.008   6.540   0.241
 1064SOL     OW 4090   1.212   4.424   1.784
 1064SOL    HW1 4091   1.191   4.500   1.722
 1064SOL    HW2 4092   1.128   4.392   1.828
 1065SOL     OW 4093   3.911   0.194   3.388
 1065SOL    HW1 4094   3.981   0.139   3.434
 1065SOL    HW2 4095   3.955   0.255   3.322
 1066SOL     OW 4096   4.353   6.857   2.431
 1066SOL    HW1 4097   4.435   6.812   2.395
 1066SOL    HW2 4098   4.321   6.925   2.365
 1067SOL     OW 4099   2.114   1.209   6.943
 1067SOL    HW1 4100   2.065   1.190   0.001
 1067SOL    HW2 4101   2.058   1.182   6.865
 1068SOL     OW 4102   6.367   4.119   1.514
 1068SOL    HW1 4103   6.324   4.131   1.604
 1068SOL    HW2 4104   6.300   4.136   1.442
 1069SOL     OW 4105   5.561   5.992   0.657
 1069SOL    HW1 4106   5.578   6.063   0.590
 1069SOL    HW2 4107   5.520   5.912   0.612
 1070SOL     OW 4108   2.254   6.696   2.590
 1070SOL    HW1 4109   2.346   6.657   2.586
 1070SOL    HW2 4110   2.258   6.794   2.567
 1071SOL     OW 4111   2.127   1.900   4.001
 1071SOL    HW1 4112   2.106   1.992   3.968
 1071SOL    HW2 4113   2.109   1.833   3.929
 1072SOL     OW 4114   2.358   1.074   1.417
 1072SOL    HW1 4115   2.357   0.983   1.460
 1072SOL    HW2 4116   2.453   1.104   1.406
 1073SOL     OW 4117   5.272   1.753   3.351
 1073SOL    HW1 4118   5.200   1.687   3.331
 1073SOL    HW2 4119   5.256   1.836   3.297
 1074SOL     OW 4120   2.426   4.898   1.934
 1074SOL    HW1 4121   2.433   4.977   1.874
 1074SOL    HW2 4122   2.374   4.923   2.016
 1075SOL     OW 4123   6.059   1.113   3.418
 1075SOL    HW1 4124   6.061   1.017   3.448
 1075SOL    HW2 4125   5.964   1.145   3.416
 1076SOL     OW 4126   0.399   2.670   5.195
 1076SOL    HW1 4127   0.399   2.571   5.179
 1076SOL    HW2 4128   0.398   2.717   5.106
 1077SOL     OW 4129   6.897   6.186   0.722
 1077SOL    HW1 4130   6.804   6.180   0.687
 1077SOL    HW2 4131   6.898   6.240   0.806
 1078SOL     OW 4132   6.545   0.566   2.939
 1078SOL    HW1 4133   6.464   0.620   2.913
 1078SOL    HW2 4134   6.548   0.557   3.039
 1079SOL     OW 4135   1.137   4.938   2.059
 1079SOL    HW1 4136   1.147   4.935   1.960
 1079SOL    HW2 4137   1.055   4.887   2.086
 1080SOL     OW 4138   2.427   5.925   3.643
 1080SOL    HW1 4139   2.451   6.022   3.638
 1080SOL    HW2 4140   2.403   5.901   3.737
 1081SOL     OW 4141   6.455   5.305   5.270
 1081SOL    HW1 4142   6.398   5.354   5.336
 1081SOL    HW2 4143   6.404   5.226   5.234
 1082SOL     OW 4144   5.957   1.948   6.235
 1082SOL    HW1 4145   5.932   1.923   6.141
 1082SOL    HW2 4146   6.022   2.024   6.233
 1083SOL     OW 4147   4.559   3.067   6.975
 1083SOL    HW1 4148   4.522   3.000   0.013
 1083SOL    HW2 4149   4.509   3.153   6.984
 1084SOL     OW 4150   6.746   6.719   6.628
 1084SOL    HW1 4151   6.840   6.692   6.606
 1084SOL    HW2 4152   6.689   6.707   6.547
 1085SOL     OW 4153   2.151   3.186   3.831
 1085SOL    HW1 4154   2.209   3.106   3.843
 1085SOL    HW2 4155   2.143   3.234   3.917
 1086SOL     OW 4156   6.581   5.122   6.484
 1086SOL    HW1 4157   6.585   5.035   6.533
 1086SOL    HW2 4158   6.598   5.197   6.547
 1087SOL     OW 4159   1.063   2.211   5.261
 1087SOL    HW1 4160   1.008   2.130   5.283
 1087SOL    HW2 4161   1.092   2.206   5.165
 1088SOL     OW 4162   0.390   4.792   3.285
 1088SOL    HW1 4163   0.456   4.753   3.348
 1088SOL    HW2 4164   0.397   4.746   3.196
 1089SOL     OW 4165   0.896   5.925   4.841
 1089SOL    HW1 4166   0.979   5.874   4.864
 1089SOL    HW2 4167   0.920   6.008   4.791
 1090SOL     OW 4168   4.240   2.000   2.658
 1090SOL    HW1 4169   4.312   1.961   2.715
 1090SOL    HW2 4170   4.219   1.937   2.583
 1091SOL     OW 4171   1.913   3.688   3.418
 1091SOL    HW1 4172   1.848   3.618   3.449
 1091SOL    HW2 4173   1.982   3.702   3.488
 1092SOL     OW 4174   0.983   5.495   0.387
 1092SOL    HW1 4175   1.041   5.576   0.380
 1092SOL    HW2 4176   0.962   5.476   0.483
 1093SOL     OW 4177   2.447   6.797   1.813
 1093SOL    HW1 4178   2.519   6.757   1.756
 1093SOL    HW2 4179   2.358   6.763   1.783
 1094SOL     OW 4180   0.987   6.594   2.680
 1094SOL    HW1 4181   0.935   6.523   2.727
 1094SOL    HW2 4182   0.928   6.673   2.663
 1095SOL     OW 4183   0.655   2.342   6.813
 1095SOL    HW1 4184   0.677   2.347   6.911
 1095SOL    HW2 4185   0.661   2.433   6.773
 1096SOL     OW 4186   3.555   4.190   1.366
 1096SOL    HW1 4187   3.586   4.215   1.458
 1096SOL    HW2 4188   3.578   4.264   1.302
 1097SOL     OW 4189   1.946   4.822   2.773
 1097SOL    HW1 4190   2.031   4.776   2.798
 1097SOL    HW2 4191   1.869   4.776   2.818
 1098SOL     OW 4192   5.955   3.800   6.258
 1098SOL    HW1 4193   5.915   3.799   6.166
 1098SOL    HW2 4194   6.055   3.803   6.251
 1099SOL     OW 4195   4.290   0.883   6.451
 1099SOL    HW1 4196   4.325   0.896   6.543
 1099SOL    HW2 4197   4.243   0.795   6.445
 1100SOL     OW 4198   3.920   1.317   4.965
 1100SOL    HW1 4199   4.003   1.362   4.998
 1100SOL    HW2 4200   3.857   1.304   5.041
 1101SOL     OW 4201   5.362   4.091   5.018
 1101SOL    HW1 4202   5.423   4.117   5.093
 1101SOL    HW2 4203   5.278   4.051   5.055
 1102SOL     OW 4204   2.093   1.239   4.737
 1102SOL    HW1 4205   2.033   1.162   4.716
 1102SOL    HW2 4206   2.075   1.313   4.672
 1103SOL     OW 4207   2.217   1.973   0.079
 1103SOL    HW1 4208   2.276   2.053   0.077
 1103SOL    HW2 4209   2.228   1.925   0.166
 1104SOL     OW 4210   1.832   4.143   3.731
 1104SOL    HW1 4211   1.831   4.126   3.633
 1104SOL    HW2 4212   1.742   4.126   3.770
 1105SOL     OW 4213   5.381   2.980   4.335
 1105SOL    HW1 4214   5.396   2.995   4.237
 1105SOL    HW2 4215   5.284   2.985   4.356
 1106SOL     OW 4216   0.445   1.692   1.396
 1106SOL    HW1 4217   0.527   1.701   1.452
 1106SOL    HW2 4218   0.470   1.654   1.307
 1107SOL     OW 4219   1.169   0.636   0.081
 1107SOL    HW1 4220   1.227   0.566   0.123
 1107SOL    HW2 4221   1.134   0.602   7.020
 1108SOL     OW 4222   3.356   6.595   5.278
 1108SOL    HW1 4223   3.420   6.553   5.213
 1108SOL    HW2 4224   3.278   6.633   5.227
 1109SOL     OW 4225   5.750   0.961   4.014
 1109SOL    HW1 4226   5.839   0.925   3.986
 1109SOL    HW2 4227   5.750   0.981   4.112
 1110SOL     OW 4228   3.745   1.331   3.445
 1110SOL    HW1 4229   3.650   1.317   3.416
 1110SOL    HW2 4230   3.752   1.417   3.495
 1111SOL     OW 4231   5.672   4.759   6.247
 1111SOL    HW1 4232   5.717   4.722   6.329
 1111SOL    HW2 4233   5.652   4.684   6.184
 1112SOL     OW 4234   6.467   0.523   3.259
 1112SOL    HW1 4235   6.544   0.565   3.308
 1112SOL    HW2 4236   6.481   0.425   3.252
 1113SOL     OW 4237   6.220   4.404   1.533
 1113SOL    HW1 4238   6.263   4.323   1.494
 1113SOL    HW2 4239   6.182   4.383   1.623
 1114SOL     OW 4240   2.908   2.113   6.250
 1114SOL    HW1 4241   2.920   2.100   6.151
 1114SOL    HW2 4242   2.839   2.049   6.283
 1115SOL     OW 4243   4.139   3.654   5.461
 1115SOL    HW1 4244   4.043   3.674   5.477
 1115SOL    HW2 4245   4.175   3.716   5.391
 1116SOL     OW 4246   6.060   0.081   0.097
 1116SOL    HW1 4247   6.076   0.147   0.170
 1116SOL    HW2 4248   6.036   0.129   0.013
 1117SOL     OW 4249   0.602   1.814   1.748
 1117SOL    HW1 4250   0.595   1.735   1.686
 1117SOL    HW2 4251   0.564   1.790   1.837
 1118SOL     OW 4252   2.644   5.097   0.545
 1118SOL    HW1 4253   2.616   5.193   0.541
 1118SOL    HW2 4254   2.728   5.084   0.493
 1119SOL     OW 4255   4.304   4.401   1.506
 1119SOL    HW1 4256   4.395   4.360   1.514
 1119SOL    HW2 4257   4.259   4.364   1.424
 1120SOL     OW 4258   6.592   5.621   1.281
 1120SOL    HW1 4259   6.577   5.627   1.182
 1120SOL    HW2 4260   6.664   5.554   1.300
 1121SOL     OW 4261   0.156   4.716   4.924
 1121SOL    HW1 4262   0.226   4.739   4.992
 1121SOL    HW2 4263   0.199   4.670   4.846
 1122SOL     OW 4264   6.016   2.916   2.044
 1122SOL    HW1 4265   5.918   2.909   2.058
 1122SOL    HW2 4266   6.058   2.826   2.053
 1123SOL     OW 4267   5.069   2.307   3.958
 1123SOL    HW1 4268   5.141   2.368   3.926
 1123SOL    HW2 4269   5.002   2.292   3.885
 1124SOL     OW 4270   0.149   4.557   5.781
 1124SOL    HW1 4271   0.208   4.477   5.788
 1124SOL    HW2 4272   0.191   4.634   5.831
 1125SOL     OW 4273   1.759   2.419   3.908
 1125SOL    HW1 4274   1.829   2.489   3.902
 1125SOL    HW2 4275   1.668   2.461   3.900
 1126SOL     OW 4276   5.680   6.312   5.594
 1126SOL    HW1 4277   5.764   6.355   5.560
 1126SOL    HW2 4278   5.652   6.240   5.531
 1127SOL     OW 4279   5.536   6.261   4.828
 1127SOL    HW1 4280   5.501   6.173   4.861
 1127SOL    HW2 4281   5.460   6.317   4.796
 1128SOL     OW 4282   6.503   1.616   4.916
 1128SOL    HW1 4283   6.540   1.568   4.995
 1128SOL    HW2 4284   6.421   1.568   4.884
 1129SOL     OW 4285   2.143   6.461   0.722
 1129SOL    HW1 4286   2.142   6.504   0.632
 1129SOL    HW2 4287   2.095   6.373   0.717
 1130SOL     OW 4288   1.880   4.983   0.922
 1130SOL    HW1 4289   1.970   4.977   0.965
 1130SOL    HW2 4290   1.815   4.928   0.974
 1131SOL     OW 4291   1.859   0.401   5.070
 1131SOL    HW1 4292   1.898   0.480   5.023
 1131SOL    HW2 4293   1.933   0.337   5.095
 1132SOL     OW 4294   4.027   0.399   3.215
 1132SOL    HW1 4295   4.124   0.412   3.234
 1132SOL    HW2 4296   4.009   0.418   3.118
 1133SOL     OW 4297   0.901   0.734   6.979
 1133SOL    HW1 4298   0.972   0.671   6.949
 1133SOL    HW2 4299   0.864   0.783   6.901
 1134SOL     OW 4300   5.262   0.060   3.000
 1134SOL    HW1 4301   5.292   0.136   3.059
 1134SOL    HW2 4302   5.327   7.010   3.009
 1135SOL     OW 4303   2.375   6.372   3.816
 1135SOL    HW1 4304   2.420   6.286   3.840
 1135SOL    HW2 4305   2.315   6.357   3.737
 1136SOL     OW 4306   3.713   4.860   2.587
 1136SOL    HW1 4307   3.673   4.892   2.501
 1136SOL    HW2 4308   3.654   4.790   2.627
 1137SOL     OW 4309   1.059   6.279   0.679
 1137SOL    HW1 4310   0.967   6.300   0.711
 1137SOL    HW2 4311   1.125   6.303   0.750
 1138SOL     OW 4312   0.434   1.556   5.225
 1138SOL    HW1 4313   0.469   1.557   5.319
 1138SOL    HW2 4314   0.403   1.463   5.203
 1139SOL     OW 4315   2.635   4.758   3.795
 1139SOL    HW1 4316   2.677   4.751   3.704
 1139SOL    HW2 4317   2.547   4.712   3.794
 1140SOL     OW 4318   2.701   0.212   2.608
 1140SOL    HW1 4319   2.701   0.306   2.575
 1140SOL    HW2 4320   2.792   0.188   2.640
 1141SOL     OW 4321   6.834   6.027   7.023
 1141SOL    HW1 4322   6.753   6.067   6.982
 1141SOL    HW2 4323   6.883   5.973   6.955
 1142SOL     OW 4324   3.400   0.231   4.186
 1142SOL    HW1 4325   3.300   0.234   4.179
 1142SOL    HW2 4326   3.428   0.145   4.229
 1143SOL     OW 4327   1.701   3.131   2.500
 1143SOL    HW1 4328   1.685   3.199   2.429
 1143SOL    HW2 4329   1.793   3.144   2.539
 1144SOL     OW 4330   5.778   4.315   3.352
 1144SOL    HW1 4331   5.687   4.319   3.311
 1144SOL    HW2 4332   5.788   4.386   3.421
 1145SOL     OW 4333   1.071   2.919   0.712
 1145SOL    HW1 4334   1.053   3.006   0.667
 1145SOL    HW2 4335   1.156   2.925   0.765
 1146SOL     OW 4336   0.859   1.905   1.712
 1146SOL    HW1 4337   0.878   1.822   1.660
 1146SOL    HW2 4338   0.766   1.901   1.749
 1147SOL     OW 4339   2.646   6.119   0.825
 1147SOL    HW1 4340   2.563   6.068   0.847
 1147SOL    HW2 4341   2.679   6.092   0.735
 1148SOL     OW 4342   4.510   6.128   0.719
 1148SOL    HW1 4343   4.574   6.098   0.790
 1148SOL    HW2 4344   4.548   6.208   0.672
 1149SOL     OW 4345   5.325   2.918   2.213
 1149SOL    HW1 4346   5.300   3.015   2.214
 1149SOL    HW2 4347   5.244   2.862   2.231
 1150SOL     OW 4348   0.663   3.878   0.303
 1150SOL    HW1 4349   0.568   3.883   0.273
 1150SOL    HW2 4350   0.720   3.843   0.229
 1151SOL     OW 4351   5.964   4.966   4.255
 1151SOL    HW1 4352   5.888   4.938   4.197
 1151SOL    HW2 4353   6.010   5.045   4.214
 1152SOL     OW 4354   5.337   6.334   6.236
 1152SOL    HW1 4355   5.284   6.306   6.156
 1152SOL    HW2 4356   5.277   6.382   6.301
 1153SOL     OW 4357   6.420   0.090   1.549
 1153SOL    HW1 4358   6.436   7.025   1.588
 1153SOL    HW2 4359   6.443   0.088   1.451
 1154SOL     OW 4360   0.463   3.881   0.530
 1154SOL    HW1 4361   0.377   3.850   0.571
 1154SOL    HW2 4362   0.445   3.917   0.438
 1155SOL     OW 4363   3.225   5.154   5.767
 1155SOL    HW1 4364   3.157   5.197   5.709
 1155SOL    HW2 4365   3.262   5.073   5.721
 1156SOL     OW 4366   4.597   2.277   4.813
 1156SOL    HW1 4367   4.665   2.342   4.780
 1156SOL    HW2 4368   4.508   2.322   4.821
 1157SOL     OW 4369   5.026   0.993   5.982
 1157SOL    HW1 4370   5.067   1.084   5.987
 1157SOL    HW2 4371   4.928   1.002   5.965
 1158SOL     OW 4372   6.490   5.740   4.811
 1158SOL    HW1 4373   6.406   5.795   4.814
 1158SOL    HW2 4374   6.566   5.795   4.847
 1159SOL     OW 4375   6.070   6.935   3.097
 1159SOL    HW1 4376   6.006   7.011   3.103
 1159SOL    HW2 4377   6.128   6.933   3.178
 1160SOL     OW 4378   4.325   5.433   1.942
 1160SOL    HW1 4379   4.269   5.515   1.952
 1160SOL    HW2 4380   4.277   5.366   1.886
 1161SOL     OW 4381   0.666   5.792   6.617
 1161SOL    HW1 4382   0.623   5.707   6.648
 1161SOL    HW2 4383   0.725   5.773   6.539
 1162SOL     OW 4384   2.405   2.511   5.676
 1162SOL    HW1 4385   2.477   2.575   5.649
 1162SOL    HW2 4386   2.390   2.444   5.603
 1163SOL     OW 4387   5.798   4.693   2.190
 1163SOL    HW1 4388   5.822   4.609   2.141
 1163SOL    HW2 4389   5.703   4.686   2.221
 1164SOL     OW 4390   4.997   2.620   5.209
 1164SOL    HW1 4391   4.906   2.604   5.248
 1164SOL    HW2 4392   5.049   2.681   5.268
 1165SOL     OW 4393   4.021   5.955   3.191
 1165SOL    HW1 4394   3.926   5.945   3.222
 1165SOL    HW2 4395   4.066   5.866   3.193
 1166SOL     OW 4396   2.511   5.816   6.958
 1166SOL    HW1 4397   2.454   5.774   6.887
 1166SOL    HW2 4398   2.566   5.890   6.918
 1167SOL     OW 4399   5.012   5.123   0.612
 1167SOL    HW1 4400   5.062   5.038   0.626
 1167SOL    HW2 4401   4.915   5.104   0.598
 1168SOL     OW 4402   6.263   2.807   1.256
 1168SOL    HW1 4403   6.209   2.885   1.228
 1168SOL    HW2 4404   6.224   2.765   1.338
 1169SOL     OW 4405   4.853   1.630   5.405
 1169SOL    HW1 4406   4.856   1.726   5.432
 1169SOL    HW2 4407   4.767   1.589   5.437
 1170SOL     OW 4408   5.660   0.251   3.368
 1170SOL    HW1 4409   5.703   0.322   3.312
 1170SOL    HW2 4410   5.711   0.166   3.358
 1171SOL     OW 4411   2.751   6.580   0.441
 1171SOL    HW1 4412   2.742   6.501   0.501
 1171SOL    HW2 4413   2.738   6.664   0.494
 1172SOL     OW 4414   5.269   4.191   0.653
 1172SOL    HW1 4415   5.284   4.131   0.732
 1172SOL    HW2 4416   5.181   4.237   0.662
 1173SOL     OW 4417   3.254   1.626   1.153
 1173SOL    HW1 4418   3.193   1.549   1.135
 1173SOL    HW2 4419   3.343   1.609   1.112
 1174SOL     OW 4420   3.547   3.922   2.001
 1174SOL    HW1 4421   3.609   3.931   2.078
 1174SOL    HW2 4422   3.550   4.004   1.944
 1175SOL     OW 4423   5.117   3.347   6.655
 1175SOL    HW1 4424   5.078   3.307   6.572
 1175SOL    HW2 4425   5.111   3.447   6.650
 1176SOL     OW 4426   5.054   3.413   0.367
 1176SOL    HW1 4427   4.971   3.372   0.404
 1176SOL    HW2 4428   5.071   3.501   0.411
 1177SOL     OW 4429   6.777   3.636   5.022
 1177SOL    HW1 4430   6.868   3.654   5.060
 1177SOL    HW2 4431   6.782   3.556   4.962
 1178SOL     OW 4432   2.539   3.902   0.629
 1178SOL    HW1 4433   2.637   3.921   0.633
 1178SOL    HW2 4434   2.499   3.947   0.550
 1179SOL     OW 4435   2.166   5.856   0.454
 1179SOL    HW1 4436   2.213   5.823   0.372
 1179SOL    HW2 4437   2.116   5.781   0.497
 1180SOL     OW 4438   2.732   6.508   3.911
 1180SOL    HW1 4439   2.720   6.469   3.820
 1180SOL    HW2 4440   2.642   6.526   3.952
 1181SOL     OW 4441   0.421   5.273   5.693
 1181SOL    HW1 4442   0.389   5.360   5.655
 1181SOL    HW2 4443   0.344   5.210   5.702
 1182SOL     OW 4444   4.072   5.044   3.110
 1182SOL    HW1 4445   4.160   5.054   3.156
 1182SOL    HW2 4446   4.053   4.947   3.094
 1183SOL     OW 4447   2.206   3.903   0.282
 1183SOL    HW1 4448   2.254   3.826   0.325
 1183SOL    HW2 4449   2.143   3.869   0.213
 1184SOL     OW 4450   6.859   0.762   4.650
 1184SOL    HW1 4451   6.792   0.690   4.634
 1184SOL    HW2 4452   6.948   0.721   4.670
 1185SOL     OW 4453   0.744   0.747   0.930
 1185SOL    HW1 4454   0.722   0.832   0.882
 1185SOL    HW2 4455   0.660   0.705   0.965
 1186SOL     OW 4456   5.787   6.751   5.837
 1186SOL    HW1 4457   5.723   6.825   5.858
 1186SOL    HW2 4458   5.760   6.669   5.887
 1187SOL     OW 4459   6.192   0.072   6.722
 1187SOL    HW1 4460   6.113   0.104   6.774
 1187SOL    HW2 4461   6.270   0.133   6.739
 1188SOL     OW 4462   3.749   6.153   5.620
 1188SOL    HW1 4463   3.785   6.154   5.526
 1188SOL    HW2 4464   3.716   6.062   5.642
 1189SOL     OW 4465   6.178   2.678   1.503
 1189SOL    HW1 4466   6.226   2.597   1.469
 1189SOL    HW2 4467   6.096   2.693   1.449
 1190SOL     OW 4468   3.199   5.250   3.605
 1190SOL    HW1 4469   3.225   5.325   3.665
 1190SOL    HW2 4470   3.100   5.248   3.595
 1191SOL     OW 4471   4.327   5.352   3.923
 1191SOL    HW1 4472   4.424   5.366   3.901
 1191SOL    HW2 4473   4.284   5.441   3.938
 1192SOL     OW 4474   4.406   5.334   2.406
 1192SOL    HW1 4475   4.308   5.350   2.421
 1192SOL    HW2 4476   4.421   5.306   2.311
 1193SOL     OW 4477   6.509   2.657   5.429
 1193SOL    HW1 4478   6.468   2.748   5.418
 1193SOL    HW2 4479   6.449   2.601   5.488
 1194SOL     OW 4480   6.002   0.208   1.795
 1194SOL    HW1 4481   5.979   0.301   1.766
 1194SOL    HW2 4482   6.015   0.150   1.714
 1195SOL     OW 4483   6.603   3.994   0.796
 1195SOL    HW1 4484   6.587   4.090   0.773
 1195SOL    HW2 4485   6.561   3.974   0.884
 1196SOL     OW 4486   0.331   5.526   2.864
 1196SOL    HW1 4487   0.235   5.498   2.860
 1196SOL    HW2 4488   0.336   5.621   2.896
 1197SOL     OW 4489   4.503   0.714   4.863
 1197SOL    HW1 4490   4.441   0.653   4.813
 1197SOL    HW2 4491   4.449   0.779   4.916
 1198SOL     OW 4492   1.182   2.823   2.576
 1198SOL    HW1 4493   1.190   2.774   2.663
 1198SOL    HW2 4494   1.271   2.861   2.550
 1199SOL     OW 4495   3.941   3.660   1.277
 1199SOL    HW1 4496   3.995   3.733   1.321
 1199SOL    HW2 4497   3.908   3.597   1.347
 1200SOL     OW 4498   3.356   3.764   4.311
 1200SOL    HW1 4499   3.338   3.674   4.350
 1200SOL    HW2 4500   3.272   3.817   4.310
 1201SOL     OW 4501   1.017   0.724   4.303
 1201SOL    HW1 4502   1.106   0.690   4.272
 1201SOL    HW2 4503   1.001   0.694   4.397
 1202SOL     OW 4504   0.379   5.511   5.516
 1202SOL    HW1 4505   0.341   5.596   5.479
 1202SOL    HW2 4506   0.458   5.531   5.573
 1203SOL     OW 4507   6.672   6.130   6.587
 1203SOL    HW1 4508   6.760   6.166   6.555
 1203SOL    HW2 4509   6.680   6.031   6.603
 1204SOL     OW 4510   3.413   6.659   1.366
 1204SOL    HW1 4511   3.375   6.569   1.345
 1204SOL    HW2 4512   3.369   6.728   1.309
 1205SOL     OW 4513   4.944   3.636   0.705
 1205SOL    HW1 4514   4.855   3.591   0.716
 1205SOL    HW2 4515   5.017   3.570   0.724
 1206SOL     OW 4516   2.561   2.956   5.664
 1206SOL    HW1 4517   2.611   3.022   5.608
 1206SOL    HW2 4518   2.464   2.961   5.643
 1207SOL     OW 4519   2.288   6.383   1.098
 1207SOL    HW1 4520   2.348   6.451   1.143
 1207SOL    HW2 4521   2.344   6.319   1.045
 1208SOL     OW 4522   3.355   3.740   1.354
 1208SOL    HW1 4523   3.265   3.714   1.388
 1208SOL    HW2 4524   3.426   3.699   1.412
 1209SOL     OW 4525   4.882   1.064   4.958
 1209SOL    HW1 4526   4.854   0.990   4.897
 1209SOL    HW2 4527   4.891   1.149   4.906
 1210SOL     OW 4528   2.975   0.638   3.543
 1210SOL    HW1 4529   3.036   0.711   3.511
 1210SOL    HW2 4530   2.978   0.635   3.643
 1211SOL     OW 4531   0.812   3.754   1.966
 1211SOL    HW1 4532   0.841   3.670   2.013
 1211SOL    HW2 4533   0.873   3.773   1.890
 1212SOL     OW 4534   6.148   0.402   0.183
 1212SOL    HW1 4535   6.192   0.492   0.186
 1212SOL    HW2 4536   6.071   0.400   0.246
 1213SOL     OW 4537   6.711   2.311   0.385
 1213SOL    HW1 4538   6.629   2.256   0.402
 1213SOL    HW2 4539   6.777   2.256   0.334
 1214SOL     OW 4540   0.889   2.726   6.470
 1214SOL    HW1 4541   0.921   2.816   6.499
 1214SOL    HW2 4542   0.964   2.675   6.428
 1215SOL     OW 4543   0.581   4.429   3.532
 1215SOL    HW1 4544   0.516   4.398   3.463
 1215SOL    HW2 4545   0.620   4.350   3.580
 1216SOL     OW 4546   4.712   0.527   0.910
 1216SOL    HW1 4547   4.772   0.483   0.977
 1216SOL    HW2 4548   4.621   0.484   0.913
 1217SOL     OW 4549   2.405   4.471   0.129
 1217SOL    HW1 4550   2.320   4.419   0.121
 1217SOL    HW2 4551   2.384   4.568   0.144
 1218SOL     OW 4552   2.293   4.296   4.671
 1218SOL    HW1 4553   2.308   4.220   4.608
 1218SOL    HW2 4554   2.375   4.353   4.675
 1219SOL     OW 4555   5.577   6.387   1.778
 1219SOL    HW1 4556   5.558   6.336   1.694
 1219SOL    HW2 4557   5.671   6.421   1.776
 1220SOL     OW 4558   1.210   4.827   3.428
 1220SOL    HW1 4559   1.164   4.744   3.460
 1220SOL    HW2 4560   1.174   4.905   3.480
 1221SOL     OW 4561   5.695   3.713   6.299
 1221SOL    HW1 4562   5.645   3.740   6.217
 1221SOL    HW2 4563   5.790   3.741   6.291
 1222SOL     OW 4564   6.436   6.983   6.429
 1222SOL    HW1 4565   6.357   0.016   6.410
 1222SOL    HW2 4566   6.488   7.021   6.506
 1223SOL     OW 4567   4.044   1.159   0.717
 1223SOL    HW1 4568   4.077   1.074   0.757
 1223SOL    HW2 4569   4.075   1.237   0.771
 1224SOL     OW 4570   3.591   5.367   0.226
 1224SOL    HW1 4571   3.534   5.448   0.231
 1224SOL    HW2 4572   3.668   5.384   0.164
 1225SOL     OW 4573   3.361   3.423   6.661
 1225SOL    HW1 4574   3.364   3.435   6.760
 1225SOL    HW2 4575   3.286   3.477   6.623
 1226SOL     OW 4576   2.305   5.043   1.290
 1226SOL    HW1 4577   2.301   5.113   1.360
 1226SOL    HW2 4578   2.300   4.952   1.333
 1227SOL     OW 4579   6.682   3.969   7.019
 1227SOL    HW1 4580   6.722   3.898   6.961
 1227SOL    HW2 4581   6.585   3.978   6.997
 1228SOL     OW 4582   3.852   1.809   6.409
 1228SOL    HW1 4583   3.893   1.756   6.335
 1228SOL    HW2 4584   3.770   1.763   6.442
 1229SOL     OW 4585   4.006   5.066   6.051
 1229SOL    HW1 4586   4.071   5.142   6.048
 1229SOL    HW2 4587   4.054   4.980   6.032
 1230SOL     OW 4588   4.635   0.200   2.982
 1230SOL    HW1 4589   4.691   0.205   2.899
 1230SOL    HW2 4590   4.676   0.134   3.046
 1231SOL     OW 4591   1.978   3.475   4.341
 1231SOL    HW1 4592   1.953   3.517   4.254
 1231SOL    HW2 4593   1.937   3.527   4.416
 1232SOL     OW 4594   0.535   2.266   5.291
 1232SOL    HW1 4595   0.543   2.358   5.251
 1232SOL    HW2 4596   0.561   2.270   5.387
 1233SOL     OW 4597   1.337   3.863   4.092
 1233SOL    HW1 4598   1.244   3.842   4.063
 1233SOL    HW2 4599   1.402   3.832   4.022
 1234SOL     OW 4600   6.671   3.932   4.984
 1234SOL    HW1 4601   6.728   3.867   5.035
 1234SOL    HW2 4602   6.667   4.019   5.034
 1235SOL     OW 4603   6.702   5.901   2.607
 1235SOL    HW1 4604   6.779   5.902   2.544
 1235SOL    HW2 4605   6.729   5.857   2.693
 1236SOL     OW 4606   5.086   1.094   0.389
 1236SOL    HW1 4607   5.103   1.018   0.452
 1236SOL    HW2 4608   5.082   1.179   0.440
 1237SOL     OW 4609   1.793   4.791   5.730
 1237SOL    HW1 4610   1.768   4.697   5.753
 1237SOL    HW2 4611   1.848   4.791   5.646
 1238SOL     OW 4612   2.790   0.701   0.240
 1238SOL    HW1 4613   2.719   0.768   0.264
 1238SOL    HW2 4614   2.777   0.618   0.294
 1239SOL     OW 4615   6.893   6.629   6.078
 1239SOL    HW1 4616   6.911   6.572   6.158
 1239SOL    HW2 4617   6.956   6.707   6.078
 1240SOL     OW 4618   5.304   5.969   2.049
 1240SOL    HW1 4619   5.397   6.003   2.038
 1240SOL    HW2 4620   5.257   5.970   1.961
 1241SOL     OW 4621   6.560   4.254   4.149
 1241SOL    HW1 4622   6.549   4.212   4.059
 1241SOL    HW2 4623   6.615   4.195   4.208
 1242SOL     OW 4624   6.517   3.479   1.435
 1242SOL    HW1 4625   6.443   3.524   1.485
 1242SOL    HW2 4626   6.483   3.447   1.346
 1243SOL     OW 4627   0.143   6.739   5.344
 1243SOL    HW1 4628   0.120   6.660   5.287
 1243SOL    HW2 4629   0.225   6.718   5.398
 1244SOL     OW 4630   6.697   6.768   3.909
 1244SOL    HW1 4631   6.620   6.712   3.879
 1244SOL    HW2 4632   6.779   6.743   3.858
 1245SOL     OW 4633   4.821   4.264   6.204
 1245SOL    HW1 4634   4.760   4.342   6.214
 1245SOL    HW2 4635   4.889   4.283   6.133
 1246SOL     OW 4636   2.162   6.233   1.366
 1246SOL    HW1 4637   2.218   6.288   1.304
 1246SOL    HW2 4638   2.067   6.238   1.338
 1247SOL     OW 4639   2.080   0.830   6.597
 1247SOL    HW1 4640   2.055   0.845   6.501
 1247SOL    HW2 4641   2.010   0.774   6.641
 1248SOL     OW 4642   2.441   0.383   4.454
 1248SOL    HW1 4643   2.439   0.474   4.496
 1248SOL    HW2 4644   2.475   0.316   4.520
 1249SOL     OW 4645   5.479   2.660   2.170
 1249SOL    HW1 4646   5.468   2.567   2.206
 1249SOL    HW2 4647   5.389   2.703   2.162
 1250SOL     OW 4648   6.556   5.176   4.642
 1250SOL    HW1 4649   6.508   5.222   4.567
 1250SOL    HW2 4650   6.569   5.239   4.718
 1251SOL     OW 4651   2.965   6.880   4.040
 1251SOL    HW1 4652   2.877   6.887   4.086
 1251SOL    HW2 4653   2.982   6.785   4.014
 1252SOL     OW 4654   3.770   3.499   5.457
 1252SOL    HW1 4655   3.731   3.427   5.515
 1252SOL    HW2 4656   3.699   3.534   5.396
 1253SOL     OW 4657   3.250   4.876   1.460
 1253SOL    HW1 4658   3.349   4.870   1.475
 1253SOL    HW2 4659   3.225   4.970   1.442
 1254SOL     OW 4660   6.831   2.974   2.621
 1254SOL    HW1 4661   6.763   3.002   2.688
 1254SOL    HW2 4662   6.907   3.039   2.622
 1255SOL     OW 4663   6.713   2.085   4.749
 1255SOL    HW1 4664   6.768   2.003   4.766
 1255SOL    HW2 4665   6.771   2.159   4.716
 1256SOL     OW 4666   6.734   6.406   3.221
 1256SOL    HW1 4667   6.639   6.384   3.199
 1256SOL    HW2 4668   6.770   6.470   3.153
 1257SOL     OW 4669   7.001   6.865   4.136
 1257SOL    HW1 4670   7.011   6.776   4.092
 1257SOL    HW2 4671   0.061   6.916   4.128
 1258SOL     OW 4672   1.579   5.214   3.585
 1258SOL    HW1 4673   1.533   5.190   3.500
 1258SOL    HW2 4674   1.520   5.190   3.663
 1259SOL     OW 4675   3.914   1.208   4.218
 1259SOL    HW1 4676   3.997   1.245   4.177
 1259SOL    HW2 4677   3.840   1.274   4.206
 1260SOL     OW 4678   1.496   1.483   6.706
 1260SOL    HW1 4679   1.497   1.579   6.734
 1260SOL    HW2 4680   1.552   1.472   6.624
 1261SOL     OW 4681   6.983   5.703   6.421
 1261SOL    HW1 4682   0.007   5.744   6.344
 1261SOL    HW2 4683   0.017   5.639   6.469
 1262SOL     OW 4684   5.170   5.477   1.135
 1262SOL    HW1 4685   5.217   5.395   1.167
 1262SOL    HW2 4686   5.219   5.558   1.168
 1263SOL     OW 4687   0.375   1.445   2.459
 1263SOL    HW1 4688   0.366   1.386   2.378
 1263SOL    HW2 4689   0.403   1.537   2.430
 1264SOL     OW 4690   0.272   4.741   5.926
 1264SOL    HW1 4691   0.337   4.783   5.863
 1264SOL    HW2 4692   0.286   4.777   6.018
 1265SOL     OW 4693   5.865   5.431   4.305
 1265SOL    HW1 4694   5.946   5.437   4.362
 1265SOL    HW2 4695   5.795   5.376   4.351
 1266SOL     OW 4696   0.539   0.702   4.220
 1266SOL    HW1 4697   0.478   0.633   4.261
 1266SOL    HW2 4698   0.631   0.664   4.213
 1267SOL     OW 4699   5.255   1.010   1.374
 1267SOL    HW1 4700   5.271   1.092   1.318
 1267SOL    HW2 4701   5.227   1.039   1.466
 1268SOL     OW 4702   2.910   3.019   6.880
 1268SOL    HW1 4703   3.009   3.023   6.886
 1268SOL    HW2 4704   2.881   2.926   6.860
 1269SOL     OW 4705   5.952   3.170   3.903
 1269SOL    HW1 4706   6.004   3.128   3.978
 1269SOL    HW2 4707   5.984   3.263   3.888
 1270SOL     OW 4708   2.275   4.913   2.705
 1270SOL    HW1 4709   2.371   4.899   2.681
 1270SOL    HW2 4710   2.244   4.839   2.765
 1271SOL     OW 4711   3.275   1.529   1.713
 1271SOL    HW1 4712   3.338   1.595   1.755
 1271SOL    HW2 4713   3.224   1.574   1.640
 1272SOL     OW 4714   5.849   4.476   6.606
 1272SOL    HW1 4715   5.804   4.393   6.638
 1272SOL    HW2 4716   5.879   4.464   6.511
 1273SOL     OW 4717   1.617   3.827   5.486
 1273SOL    HW1 4718   1.671   3.829   5.401
 1273SOL    HW2 4719   1.620   3.735   5.524
 1274SOL     OW 4720   0.211   4.405   0.480
 1274SOL    HW1 4721   0.133   4.355   0.516
 1274SOL    HW2 4722   0.293   4.347   0.486
 1275SOL     OW 4723   3.359   1.112   3.032
 1275SOL    HW1 4724   3.279   1.096   2.975
 1275SOL    HW2 4725   3.365   1.042   3.103
 1276SOL     OW 4726   5.422   5.290   5.005
 1276SOL    HW1 4727   5.340   5.265   4.953
 1276SOL    HW2 4728   5.424   5.389   5.020
 1277SOL     OW 4729   1.621   5.234   6.558
 1277SOL    HW1 4730   1.697   5.257   6.618
 1277SOL    HW2 4731   1.596   5.313   6.502
 1278SOL     OW 4732   1.669   0.402   4.344
 1278SOL    HW1 4733   1.631   0.341   4.275
 1278SOL    HW2 4734   1.609   0.481   4.355
 1279SOL     OW 4735   2.383   4.415   6.306
 1279SOL    HW1 4736   2.482   4.399   6.306
 1279SOL    HW2 4737   2.366   4.513   6.303
 1280SOL     OW 4738   4.417   0.140   3.783
 1280SOL    HW1 4739   4.432   0.151   3.882
 1280SOL    HW2 4740   4.447   0.048   3.755
 1281SOL     OW 4741   2.536   6.182   3.626
 1281SOL    HW1 4742   2.626   6.168   3.585
 1281SOL    HW2 4743   2.520   6.280   3.639
 1282SOL     OW 4744   6.862   2.583   7.022
 1282SOL    HW1 4745   6.798   2.575   6.946
 1282SOL    HW2 4746   6.869   2.495   0.044
 1283SOL     OW 4747   6.496   3.372   5.555
 1283SOL    HW1 4748   6.514   3.275   5.565
 1283SOL    HW2 4749   6.555   3.410   5.482
 1284SOL     OW 4750   3.944   0.774   1.316
 1284SOL    HW1 4751   3.946   0.699   1.383
 1284SOL    HW2 4752   3.859   0.826   1.326
 1285SOL     OW 4753   4.807   1.135   5.501
 1285SOL    HW1 4754   4.781   1.044   5.533
 1285SOL    HW2 4755   4.859   1.128   5.416
 1286SOL     OW 4756   4.227   2.310   0.861
 1286SOL    HW1 4757   4.237   2.353   0.950
 1286SOL    HW2 4758   4.306   2.251   0.843
 1287SOL     OW 4759   5.149   4.568   5.645
 1287SOL    HW1 4760   5.065   4.552   5.696
 1287SOL    HW2 4761   5.182   4.661   5.663
 1288SOL     OW 4762   4.056   4.821   5.691
 1288SOL    HW1 4763   4.139   4.866   5.723
 1288SOL    HW2 4764   4.040   4.738   5.745
 1289SOL     OW 4765   0.473   0.796   1.952
 1289SOL    HW1 4766   0.508   0.762   1.864
 1289SOL    HW2 4767   0.383   0.837   1.938
 1290SOL     OW 4768   1.560   6.836   0.619
 1290SOL    HW1 4769   1.564   6.895   0.539
 1290SOL    HW2 4770   1.556   6.741   0.591
 1291SOL     OW 4771   0.154   4.808   4.539
 1291SOL    HW1 4772   0.166   4.715   4.572
 1291SOL    HW2 4773   0.162   4.809   4.439
 1292SOL     OW 4774   0.809   5.544   2.389
 1292SOL    HW1 4775   0.889   5.602   2.379
 1292SOL    HW2 4776   0.837   5.456   2.427
 1293SOL     OW 4777   2.717   2.050   0.359
 1293SOL    HW1 4778   2.770   2.036   0.275
 1293SOL    HW2 4779   2.719   1.967   0.415
 1294SOL     OW 4780   1.144   3.895   6.313
 1294SOL    HW1 4781   1.213   3.851   6.256
 1294SOL    HW2 4782   1.144   3.994   6.296
 1295SOL     OW 4783   0.130   3.140   0.867
 1295SOL    HW1 4784   0.108   3.046   0.890
 1295SOL    HW2 4785   0.062   3.201   0.908
 1296SOL     OW 4786   4.662   6.671   5.113
 1296SOL    HW1 4787   4.678   6.701   5.019
 1296SOL    HW2 4788   4.639   6.750   5.169
 1297SOL     OW 4789   1.372   6.409   1.840
 1297SOL    HW1 4790   1.388   6.501   1.874
 1297SOL    HW2 4791   1.416   6.398   1.751
 1298SOL     OW 4792   4.972   6.341   3.693
 1298SOL    HW1 4793   4.939   6.400   3.618
 1298SOL    HW2 4794   5.038   6.392   3.748
 1299SOL     OW 4795   1.965   2.438   3.599
 1299SOL    HW1 4796   1.970   2.437   3.698
 1299SOL    HW2 4797   2.036   2.378   3.561
 1300SOL     OW 4798   1.551   3.269   1.701
 1300SOL    HW1 4799   1.568   3.328   1.622
 1300SOL    HW2 4800   1.573   3.174   1.676
 1301SOL     OW 4801   0.965   6.538   1.805
 1301SOL    HW1 4802   0.987   6.498   1.894
 1301SOL    HW2 4803   0.878   6.500   1.772
 1302SOL     OW 4804   5.565   0.332   5.231
 1302SOL    HW1 4805   5.621   0.258   5.268
 1302SOL    HW2 4806   5.536   0.392   5.306
 1303SOL     OW 4807   4.127   0.946   1.856
 1303SOL    HW1 4808   4.105   1.039   1.885
 1303SOL    HW2 4809   4.093   0.931   1.763
 1304SOL     OW 4810   1.996   0.422   1.305
 1304SOL    HW1 4811   2.089   0.438   1.273
 1304SOL    HW2 4812   1.943   0.506   1.297
 1305SOL     OW 4813   5.428   4.123   6.589
 1305SOL    HW1 4814   5.495   4.158   6.655
 1305SOL    HW2 4815   5.357   4.073   6.637
 1306SOL     OW 4816   1.907   5.949   4.338
 1306SOL    HW1 4817   1.925   5.959   4.240
 1306SOL    HW2 4818   1.875   5.856   4.356
 1307SOL     OW 4819   2.167   3.380   4.054
 1307SOL    HW1 4820   2.220   3.309   4.099
 1307SOL    HW2 4821   2.086   3.401   4.108
 1308SOL     OW 4822   0.040   6.896   6.064
 1308SOL    HW1 4823   0.000   6.979   6.103
 1308SOL    HW2 4824   0.059   6.910   5.967
 1309SOL     OW 4825   5.462   4.151   5.454
 1309SOL    HW1 4826   5.465   4.060   5.495
 1309SOL    HW2 4827   5.381   4.199   5.487
 1310SOL     OW 4828   0.289   4.417   3.064
 1310SOL    HW1 4829   0.242   4.419   2.976
 1310SOL    HW2 4830   0.387   4.433   3.049
 1311SOL     OW 4831   6.655   5.671   6.422
 1311SOL    HW1 4832   6.619   5.578   6.431
 1311SOL    HW2 4833   6.755   5.669   6.431
 1312SOL     OW 4834   2.040   7.001   6.947
 1312SOL    HW1 4835   2.070   0.062   6.986
 1312SOL    HW2 4836   1.960   7.016   6.889
 1313SOL     OW 4837   6.683   5.125   2.546
 1313SOL    HW1 4838   6.671   5.219   2.512
 1313SOL    HW2 4839   6.670   5.124   2.645
 1314SOL     OW 4840   3.305   2.164   4.581
 1314SOL    HW1 4841   3.231   2.208   4.631
 1314SOL    HW2 4842   3.281   2.157   4.484
 1315SOL     OW 4843   6.788   0.970   3.029
 1315SOL    HW1 4844   6.697   0.943   3.059
 1315SOL    HW2 4845   6.820   1.047   3.085
 1316SOL     OW 4846   3.089   0.434   5.273
 1316SOL    HW1 4847   3.166   0.496   5.255
 1316SOL    HW2 4848   3.112   0.375   5.350
 1317SOL     OW 4849   1.500   4.011   4.880
 1317SOL    HW1 4850   1.566   4.034   4.951
 1317SOL    HW2 4851   1.430   4.083   4.876
 1318SOL     OW 4852   1.513   2.783   0.125
 1318SOL    HW1 4853   1.539   2.766   0.220
 1318SOL    HW2 4854   1.525   2.699   0.071
 1319SOL     OW 4855   0.297   5.447   0.254
 1319SOL    HW1 4856   0.266   5.530   0.207
 1319SOL    HW2 4857   0.226   5.377   0.251
 1320SOL     OW 4858   3.152   3.122   6.924
 1320SOL    HW1 4859   3.168   3.138   6.827
 1320SOL    HW2 4860   3.218   3.054   6.957
 1321SOL     OW 4861   4.768   2.359   6.737
 1321SOL    HW1 4862   4.818   2.273   6.742
 1321SOL    HW2 4863   4.735   2.384   6.827
 1322SOL     OW 4864   4.259   1.879   4.599
 1322SOL    HW1 4865   4.236   1.908   4.691
 1322SOL    HW2 4866   4.241   1.781   4.589
 1323SOL     OW 4867   3.658   6.494   0.170
 1323SOL    HW1 4868   3.584   6.561   0.168
 1323SOL    HW2 4869   3.631   6.417   0.229
 1324SOL     OW 4870   0.606   3.400   0.180
 1324SOL    HW1 4871   0.580   3.307   0.154
 1324SOL    HW2 4872   0.706   3.407   0.186
 1325SOL     OW 4873   3.976   6.271   5.161
 1325SOL    HW1 4874   3.955   6.315   5.248
 1325SOL    HW2 4875   3.897   6.278   5.099
 1326SOL     OW 4876   4.843   4.026   5.069
 1326SOL    HW1 4877   4.879   4.103   5.017
 1326SOL    HW2 4878   4.839   3.945   5.011
 1327SOL     OW 4879   1.168   6.177   1.222
 1327SOL    HW1 4880   1.132   6.207   1.310
 1327SOL    HW2 4881   1.095   6.133   1.169
 1328SOL     OW 4882   2.269   3.167   0.063
 1328SOL    HW1 4883   2.362   3.189   0.032
 1328SOL    HW2 4884   2.263   3.178   0.162
 1329SOL     OW 4885   0.064   2.264   2.472
 1329SOL    HW1 4886   0.076   2.336   2.540
 1329SOL    HW2 4887   0.078   2.303   2.380
 1330SOL     OW 4888   1.157   1.968   1.224
 1330SOL    HW1 4889   1.099   2.046   1.245
 1330SOL    HW2 4890   1.182   1.921   1.308
 1331SOL     OW 4891   4.588   2.645   2.965
 1331SOL    HW1 4892   4.616   2.693   3.048
 1331SOL    HW2 4893   4.516   2.579   2.988
 1332SOL     OW 4894   3.115   6.844   0.778
 1332SOL    HW1 4895   3.158   6.879   0.695
 1332SOL    HW2 4896   3.181   6.847   0.853
 1333SOL     OW 4897   2.877   3.510   3.064
 1333SOL    HW1 4898   2.816   3.588   3.081
 1333SOL    HW2 4899   2.869   3.483   2.968
 1334SOL     OW 4900   6.819   1.540   4.121
 1334SOL    HW1 4901   6.839   1.498   4.209
 1334SOL    HW2 4902   6.813   1.468   4.051
 1335SOL     OW 4903   2.371   2.302   2.060
 1335SOL    HW1 4904   2.459   2.256   2.058
 1335SOL    HW2 4905   2.308   2.250   2.118
 1336SOL     OW 4906   4.004   1.608   5.269
 1336SOL    HW1 4907   3.979   1.585   5.363
 1336SOL    HW2 4908   4.043   1.528   5.224
 1337SOL     OW 4909   0.134   1.449   3.079
 1337SOL    HW1 4910   0.067   1.479   3.011
 1337SOL    HW2 4911   0.224   1.484   3.055
 1338SOL     OW 4912   0.063   3.577   3.919
 1338SOL    HW1 4913   0.107   3.658   3.959
 1338SOL    HW2 4914   0.092   3.568   3.823
 1339SOL     OW 4915   6.315   1.264   6.867
 1339SOL    HW1 4916   6.330   1.247   6.769
 1339SOL    HW2 4917   6.336   1.181   6.918
 1340SOL     OW 4918   5.429   1.194   2.542
 1340SOL    HW1 4919   5.453   1.202   2.445
 1340SOL    HW2 4920   5.508   1.163   2.594
 1341SOL     OW 4921   4.707   6.206   0.300
 1341SOL    HW1 4922   4.651   6.188   0.219
 1341SOL    HW2 4923   4.794   6.247   0.273
 1342SOL     OW 4924   2.841   5.550   6.457
 1342SOL    HW1 4925   2.829   5.550   6.556
 1342SOL    HW2 4926   2.836   5.456   6.423
 1343SOL     OW 4927   5.381   5.487   2.904
 1343SOL    HW1 4928   5.285   5.512   2.917
 1343SOL    HW2 4929   5.399   5.470   2.807
 1344SOL     OW 4930   0.623   6.699   4.101
 1344SOL    HW1 4931   0.554   6.769   4.120
 1344SOL    HW2 4932   0.616   6.670   4.006
 1345SOL     OW 4933   0.783   4.874   1.772
 1345SOL    HW1 4934   0.794   4.821   1.856
 1345SOL    HW2 4935   0.686   4.892   1.756
 1346SOL     OW 4936   2.519   5.611   5.842
 1346SOL    HW1 4937   2.486   5.702   5.814
 1346SOL    HW2 4938   2.552   5.562   5.762
 1347SOL     OW 4939   0.686   6.571   6.793
 1347SOL    HW1 4940   0.667   6.474   6.805
 1347SOL    HW2 4941   0.785   6.584   6.782
 1348SOL     OW 4942   0.054   6.567   5.177
 1348SOL    HW1 4943   0.062   6.591   5.080
 1348SOL    HW2 4944   6.984   6.558   5.201
 1349SOL     OW 4945   5.076   2.656   4.682
 1349SOL    HW1 4946   5.085   2.563   4.647
 1349SOL    HW2 4947   5.167   2.698   4.689
 1350SOL     OW 4948   4.801   5.314   5.621
 1350SOL    HW1 4949   4.847   5.377   5.558
 1350SOL    HW2 4950   4.862   5.294   5.698
 1351SOL     OW 4951   5.240   2.565   4.067
 1351SOL    HW1 4952   5.270   2.534   3.976
 1351SOL    HW2 4953   5.249   2.664   4.073
 1352SOL     OW 4954   6.481   6.436   4.273
 1352SOL    HW1 4955   6.567   6.414   4.228
 1352SOL    HW2 4956   6.439   6.516   4.229
 1353SOL     OW 4957   0.819   2.009   0.410
 1353SOL    HW1 4958   0.840   2.102   0.440
 1353SOL    HW2 4959   0.720   1.995   0.411
 1354SOL     OW 4960   6.836   4.687   2.297
 1354SOL    HW1 4961   6.786   4.645   2.222
 1354SOL    HW2 4962   6.796   4.776   2.318
 1355SOL     OW 4963   6.193   4.285   4.057
 1355SOL    HW1 4964   6.238   4.372   4.039
 1355SOL    HW2 4965   6.219   4.251   4.147
 1356SOL     OW 4966   3.618   3.132   1.962
 1356SOL    HW1 4967   3.703   3.171   1.926
 1356SOL    HW2 4968   3.636   3.088   2.050
 1357SOL     OW 4969   6.951   4.690   6.425
 1357SOL    HW1 4970   0.005   4.633   6.405
 1357SOL    HW2 4971   6.963   4.780   6.382
 1358SOL     OW 4972   6.302   6.627   6.999
 1358SOL    HW1 4973   6.325   6.694   0.043
 1358SOL    HW2 4974   6.372   6.629   6.928
 1359SOL     OW 4975   6.103   4.447   2.268
 1359SOL    HW1 4976   6.003   4.448   2.272
 1359SOL    HW2 4977   6.137   4.372   2.325
 1360SOL     OW 4978   2.248   3.221   0.391
 1360SOL    HW1 4979   2.306   3.300   0.413
 1360SOL    HW2 4980   2.281   3.141   0.441
 1361SOL     OW 4981   6.656   4.505   4.679
 1361SOL    HW1 4982   6.756   4.501   4.683
 1361SOL    HW2 4983   6.624   4.588   4.724
 1362SOL     OW 4984   4.009   3.882   2.868
 1362SOL    HW1 4985   4.031   3.959   2.807
 1362SOL    HW2 4986   4.025   3.796   2.819
 1363SOL     OW 4987   0.365   5.693   4.479
 1363SOL    HW1 4988   0.418   5.645   4.549
 1363SOL    HW2 4989   0.285   5.639   4.455
 1364SOL     OW 4990   5.192   4.148   0.396
 1364SOL    HW1 4991   5.215   4.147   0.494
 1364SOL    HW2 4992   5.197   4.241   0.362
 1365SOL     OW 4993   0.972   4.504   6.144
 1365SOL    HW1 4994   1.051   4.545   6.190
 1365SOL    HW2 4995   0.900   4.488   6.211
 1366SOL     OW 4996   1.786   6.510   6.335
 1366SOL    HW1 4997   1.700   6.536   6.379
 1366SOL    HW2 4998   1.790   6.410   6.329
 1367SOL     OW 4999   2.281   0.183   2.370
 1367SOL    HW1 5000   2.368   0.231   2.355
 1367SOL    HW2 5001   2.213   0.247   2.404
 1368SOL     OW 5002   5.074   6.864   4.761
 1368SOL    HW1 5003   5.160   6.853   4.812
 1368SOL    HW2 5004   5.053   6.779   4.713
 1369SOL     OW 5005   1.574   6.322   3.060
 1369SOL    HW1 5006   1.521   6.362   2.986
 1369SOL    HW2 5007   1.599   6.393   3.126
 1370SOL     OW 5008   3.749   1.093   1.843
 1370SOL    HW1 5009   3.657   1.055   1.850
 1370SOL    HW2 5010   3.746   1.175   1.786
 1371SOL     OW 5011   4.720   1.414   4.607
 1371SOL    HW1 5012   4.761   1.363   4.682
 1371SOL    HW2 5013   4.784   1.486   4.578
 1372SOL     OW 5014   1.597   3.449   1.248
 1372SOL    HW1 5015   1.547   3.365   1.269
 1372SOL    HW2 5016   1.668   3.430   1.180
 1373SOL     OW 5017   6.518   4.251   0.742
 1373SOL    HW1 5018   6.477   4.287   0.826
 1373SOL    HW2 5019   6.452   4.256   0.668
 1374SOL     OW 5020   4.065   2.133   0.738
 1374SOL    HW1 5021   3.970   2.163   0.730
 1374SOL    HW2 5022   4.118   2.202   0.786
 1375SOL     OW 5023   0.019   5.125   6.056
 1375SOL    HW1 5024   0.080   5.202   6.068
 1375SOL    HW2 5025   7.009   5.125   5.962
 1376SOL     OW 5026   4.750   2.827   3.416
 1376SOL    HW1 5027   4.709   2.827   3.507
 1376SOL    HW2 5028   4.794   2.915   3.399
 1377SOL     OW 5029   6.904   4.040   6.126
 1377SOL    HW1 5030   6.853   4.117   6.086
 1377SOL    HW2 5031   6.923   3.973   6.054
 1378SOL     OW 5032   0.254   2.524   4.900
 1378SOL    HW1 5033   0.301   2.611   4.881
 1378SOL    HW2 5034   0.264   2.463   4.822
 1379SOL     OW 5035   3.131   6.565   2.567
 1379SOL    HW1 5036   3.214   6.600   2.610
 1379SOL    HW2 5037   3.100   6.628   2.496
 1380SOL     OW 5038   6.886   7.007   2.662
 1380SOL    HW1 5039   6.882   0.018   2.569
 1380SOL    HW2 5040   6.871   6.909   2.659
 1381SOL     OW 5041   5.266   2.526   0.135
 1381SOL    HW1 5042   5.209   2.573   0.202
 1381SOL    HW2 5043   5.352   2.499   0.178
 1382SOL     OW 5044   6.021   4.818   6.335
 1382SOL    HW1 5045   6.111   4.792   6.298
 1382SOL    HW2 5046   5.991   4.902   6.291
 1383SOL     OW 5047   0.663   1.088   0.122
 1383SOL    HW1 5048   0.731   1.015   0.116
 1383SOL    HW2 5049   0.662   1.141   0.037
 1384SOL     OW 5050   3.422   1.307   3.592
 1384SOL    HW1 5051   3.431   1.327   3.690
 1384SOL    HW2 5052   3.342   1.248   3.578
 1385SOL     OW 5053   6.790   2.722   3.235
 1385SOL    HW1 5054   6.725   2.794   3.260
 1385SOL    HW2 5055   6.883   2.752   3.254
 1386SOL     OW 5056   2.152   3.098   4.150
 1386SOL    HW1 5057   2.183   3.014   4.106
 1386SOL    HW2 5058   2.175   3.095   4.248
 1387SOL     OW 5059   3.200   0.837   4.209
 1387SOL    HW1 5060   3.290   0.833   4.253
 1387SOL    HW2 5061   3.180   0.931   4.181
 1388SOL     OW 5062   6.205   6.928   4.111
 1388SOL    HW1 5063   6.241   6.847   4.064
 1388SOL    HW2 5064   6.200   7.004   4.046
 1389SOL     OW 5065   6.943   0.429   4.440
 1389SOL    HW1 5066   6.872   0.483   4.487
 1389SOL    HW2 5067   6.901   0.351   4.395
 1390SOL     OW 5068   3.740   1.397   0.027
 1390SOL    HW1 5069   3.704   1.438   0.111
 1390SOL    HW2 5070   3.760   1.469   6.987
 1391SOL     OW 5071   6.323   1.288   5.161
 1391SOL    HW1 5072   6.380   1.233   5.222
 1391SOL    HW2 5073   6.320   1.245   5.071
 1392SOL     OW 5074   4.899   5.709   5.692
 1392SOL    HW1 5075   4.817   5.757   5.660
 1392SOL    HW2 5076   4.878   5.660   5.776
 1393SOL     OW 5077   6.388   1.702   6.672
 1393SOL    HW1 5078   6.358   1.796   6.657
 1393SOL    HW2 5079   6.422   1.693   6.766
 1394SOL     OW 5080   4.077   6.328   3.181
 1394SOL    HW1 5081   3.988   6.374   3.186
 1394SOL    HW2 5082   4.097   6.285   3.269
 1395SOL     OW 5083   0.335   3.915   2.537
 1395SOL    HW1 5084   0.334   3.820   2.505
 1395SOL    HW2 5085   0.256   3.964   2.499
 1396SOL     OW 5086   1.624   1.033   4.544
 1396SOL    HW1 5087   1.631   0.944   4.497
 1396SOL    HW2 5088   1.661   1.104   4.485
 1397SOL     OW 5089   0.253   5.527   4.847
 1397SOL    HW1 5090   0.248   5.626   4.829
 1397SOL    HW2 5091   0.242   5.512   4.945
 1398SOL     OW 5092   2.026   1.284   0.180
 1398SOL    HW1 5093   2.116   1.325   0.187
 1398SOL    HW2 5094   1.962   1.349   0.141
 1399SOL     OW 5095   4.415   6.968   0.597
 1399SOL    HW1 5096   4.435   0.008   0.669
 1399SOL    HW2 5097   4.321   6.981   0.565
 1400SOL     OW 5098   6.625   0.540   3.980
 1400SOL    HW1 5099   6.595   0.553   4.074
 1400SOL    HW2 5100   6.583   0.456   3.943
 1401SOL     OW 5101   5.568   6.913   4.575
 1401SOL    HW1 5102   5.633   6.984   4.603
 1401SOL    HW2 5103   5.480   6.955   4.555
 1402SOL     OW 5104   5.574   3.960   0.619
 1402SOL    HW1 5105   5.508   3.886   0.619
 1402SOL    HW2 5106   5.539   4.037   0.566
 1403SOL     OW 5107   3.246   3.521   0.438
 1403SOL    HW1 5108   3.266   3.445   0.376
 1403SOL    HW2 5109   3.284   3.606   0.402
 1404SOL     OW 5110   4.799   0.479   1.372
 1404SOL    HW1 5111   4.814   0.434   1.284
 1404SOL    HW2 5112   4.706   0.460   1.404
 1405SOL     OW 5113   1.881   3.654   0.989
 1405SOL    HW1 5114   1.918   3.564   0.966
 1405SOL    HW2 5115   1.781   3.649   0.991
 1406SOL     OW 5116   2.330   3.611   1.433
 1406SOL    HW1 5117   2.271   3.680   1.473
 1406SOL    HW2 5118   2.348   3.634   1.337
 1407SOL     OW 5119   0.680   3.614   1.737
 1407SOL    HW1 5120   0.690   3.702   1.690
 1407SOL    HW2 5121   0.735   3.615   1.821
 1408SOL     OW 5122   6.108   5.811   6.497
 1408SOL    HW1 5123   6.044   5.776   6.427
 1408SOL    HW2 5124   6.156   5.891   6.461
 1409SOL     OW 5125   6.999   1.288   5.762
 1409SOL    HW1 5126   6.985   1.210   5.702
 1409SOL    HW2 5127   0.033   1.262   5.838
 1410SOL     OW 5128   2.703   2.956   6.005
 1410SOL    HW1 5129   2.699   2.859   5.981
 1410SOL    HW2 5130   2.636   3.006   5.951
 1411SOL     OW 5131   3.877   5.698   6.765
 1411SOL    HW1 5132   3.915   5.662   6.850
 1411SOL    HW2 5133   3.824   5.781   6.784
 1412SOL     OW 5134   0.832   2.857   0.809
 1412SOL    HW1 5135   0.916   2.849   0.755
 1412SOL    HW2 5136   0.855   2.877   0.904
 1413SOL     OW 5137   2.051   2.162   5.301
 1413SOL    HW1 5138   2.108   2.231   5.257
 1413SOL    HW2 5139   2.100   2.124   5.379
 1414SOL     OW 5140   0.867   3.330   2.406
 1414SOL    HW1 5141   0.816   3.289   2.481
 1414SOL    HW2 5142   0.957   3.358   2.438
 1415SOL     OW 5143   2.640   2.274   4.421
 1415SOL    HW1 5144   2.647   2.269   4.521
 1415SOL    HW2 5145   2.730   2.259   4.380
 1416SOL     OW 5146   4.391   0.077   5.576
 1416SOL    HW1 5147   4.359   0.155   5.524
 1416SOL    HW2 5148   4.387   7.021   5.519
 1417SOL     OW 5149   2.958   3.112   6.028
 1417SOL    HW1 5150   2.861   3.085   6.022
 1417SOL    HW2 5151   2.995   3.084   6.116
 1418SOL     OW 5152   3.437   3.893   0.178
 1418SOL    HW1 5153   3.404   3.957   0.109
 1418SOL    HW2 5154   3.492   3.941   0.246
 1419SOL     OW 5155   1.951   4.904   4.038
 1419SOL    HW1 5156   1.861   4.932   4.005
 1419SOL    HW2 5157   2.016   4.904   3.963
 1420SOL     OW 5158   3.962   4.822   2.444
 1420SOL    HW1 5159   3.899   4.832   2.521
 1420SOL    HW2 5160   4.043   4.772   2.473
 1421SOL     OW 5161   1.098   4.569   5.413
 1421SOL    HW1 5162   1.143   4.658   5.409
 1421SOL    HW2 5163   1.160   4.498   5.378
 1422SOL     OW 5164   2.245   4.268   6.094
 1422SOL    HW1 5165   2.219   4.316   6.010
 1422SOL    HW2 5166   2.317   4.318   6.141
 1423SOL     OW 5167   4.195   1.656   4.827
 1423SOL    HW1 5168   4.211   1.751   4.855
 1423SOL    HW2 5169   4.099   1.644   4.803
 1424SOL     OW 5170   6.230   2.890   6.684
 1424SOL    HW1 5171   6.262   2.818   6.622
 1424SOL    HW2 5172   6.309   2.935   6.725
 1425SOL     OW 5173   3.828   6.159   4.846
 1425SOL    HW1 5174   3.858   6.209   4.764
 1425SOL    HW2 5175   3.783   6.074   4.819
 1426SOL     OW 5176   2.520   1.760   6.490
 1426SOL    HW1 5177   2.537   1.695   6.564
 1426SOL    HW2 5178   2.507   1.711   6.404
 1427SOL     OW 5179   1.114   1.083   2.995
 1427SOL    HW1 5180   1.134   1.055   3.089
 1427SOL    HW2 5181   1.021   1.056   2.971
 1428SOL     OW 5182   0.156   2.819   2.577
 1428SOL    HW1 5183   0.200   2.732   2.555
 1428SOL    HW2 5184   0.091   2.843   2.505
 1429SOL     OW 5185   6.283   1.547   0.410
 1429SOL    HW1 5186   6.275   1.508   0.501
 1429SOL    HW2 5187   6.212   1.508   0.351
 1430SOL     OW 5188   2.335   4.325   4.008
 1430SOL    HW1 5189   2.348   4.369   3.920
 1430SOL    HW2 5190   2.327   4.226   3.995
 1431SOL     OW 5191   2.584   1.549   5.957
 1431SOL    HW1 5192   2.578   1.453   5.929
 1431SOL    HW2 5193   2.653   1.559   6.028
 1432SOL     OW 5194   2.271   1.014   1.075
 1432SOL    HW1 5195   2.337   1.040   1.006
 1432SOL    HW2 5196   2.179   1.042   1.047
 1433SOL     OW 5197   3.209   0.717   3.943
 1433SOL    HW1 5198   3.168   0.804   3.915
 1433SOL    HW2 5199   3.225   0.718   4.041
 1434SOL     OW 5200   0.036   2.369   6.381
 1434SOL    HW1 5201   0.133   2.372   6.355
 1434SOL    HW2 5202   0.023   2.417   6.468
 1435SOL     OW 5203   0.515   0.606   3.636
 1435SOL    HW1 5204   0.612   0.618   3.614
 1435SOL    HW2 5205   0.463   0.685   3.603
 1436SOL     OW 5206   5.996   2.558   0.647
 1436SOL    HW1 5207   6.042   2.543   0.560
 1436SOL    HW2 5208   5.951   2.648   0.647
 1437SOL     OW 5209   4.594   1.083   6.029
 1437SOL    HW1 5210   4.578   0.990   6.065
 1437SOL    HW2 5211   4.654   1.078   5.950
 1438SOL     OW 5212   2.643   1.157   1.526
 1438SOL    HW1 5213   2.628   1.255   1.529
 1438SOL    HW2 5214   2.687   1.132   1.440
 1439SOL     OW 5215   0.153   5.482   7.003
 1439SOL    HW1 5216   0.054   5.469   7.011
 1439SOL    HW2 5217   0.194   5.401   6.960
 1440SOL     OW 5218   3.236   2.950   3.944
 1440SOL    HW1 5219   3.209   2.887   3.871
 1440SOL    HW2 5220   3.197   3.041   3.926
 1441SOL     OW 5221   6.271   3.049   4.280
 1441SOL    HW1 5222   6.256   3.094   4.368
 1441SOL    HW2 5223   6.323   3.110   4.220
 1442SOL     OW 5224   5.802   4.156   0.332
 1442SOL    HW1 5225   5.803   4.130   0.429
 1442SOL    HW2 5226   5.895   4.153   0.295
 1443SOL     OW 5227   0.900   0.784   3.408
 1443SOL    HW1 5228   0.906   0.876   3.444
 1443SOL    HW2 5229   0.937   0.782   3.315
 1444SOL     OW 5230   4.657   0.141   3.531
 1444SOL    HW1 5231   4.737   0.184   3.491
 1444SOL    HW2 5232   4.574   0.177   3.488
 1445SOL     OW 5233   6.949   2.233   1.493
 1445SOL    HW1 5234   6.905   2.166   1.552
 1445SOL    HW2 5235   0.018   2.247   1.523
 1446SOL     OW 5236   3.806   2.275   1.290
 1446SOL    HW1 5237   3.870   2.253   1.363
 1446SOL    HW2 5238   3.714   2.246   1.316
 1447SOL     OW 5239   6.934   0.664   5.116
 1447SOL    HW1 5240   6.951   0.723   5.037
 1447SOL    HW2 5241   6.959   0.570   5.093
 1448SOL     OW 5242   5.596   1.790   0.534
 1448SOL    HW1 5243   5.577   1.708   0.588
 1448SOL    HW2 5244   5.639   1.764   0.448
 1449SOL     OW 5245   5.604   6.541   0.795
 1449SOL    HW1 5246   5.529   6.574   0.852
 1449SOL    HW2 5247   5.566   6.495   0.715
 1450SOL     OW 5248   5.735   3.105   2.895
 1450SOL    HW1 5249   5.728   3.150   2.984
 1450SOL    HW2 5250   5.649   3.118   2.845
 1451SOL     OW 5251   2.209   6.687   2.957
 1451SOL    HW1 5252   2.138   6.736   2.906
 1451SOL    HW2 5253   2.294   6.687   2.905
 1452SOL     OW 5254   5.258   0.723   4.942
 1452SOL    HW1 5255   5.187   0.685   5.000
 1452SOL    HW2 5256   5.225   0.729   4.848
 1453SOL     OW 5257   5.264   4.257   4.674
 1453SOL    HW1 5258   5.236   4.348   4.641
 1453SOL    HW2 5259   5.250   4.190   4.601
 1454SOL     OW 5260   5.766   2.976   2.120
 1454SOL    HW1 5261   5.741   3.070   2.097
 1454SOL    HW2 5262   5.692   2.933   2.171
 1455SOL     OW 5263   1.286   0.889   1.978
 1455SOL    HW1 5264   1.317   0.816   1.917
 1455SOL    HW2 5265   1.351   0.965   1.975
 1456SOL     OW 5266   6.667   0.019   4.477
 1456SOL    HW1 5267   6.628   0.094   4.531
 1456SOL    HW2 5268   6.592   6.992   4.436
 1457SOL     OW 5269   1.266   0.267   3.592
 1457SOL    HW1 5270   1.304   0.247   3.502
 1457SOL    HW2 5271   1.334   0.317   3.646
 1458SOL     OW 5272   5.210   6.968   5.620
 1458SOL    HW1 5273   5.148   6.908   5.568
 1458SOL    HW2 5274   5.279   6.912   5.666
 1459SOL     OW 5275   2.877   6.172   6.916
 1459SOL    HW1 5276   2.925   6.238   6.858
 1459SOL    HW2 5277   2.788   6.208   6.941
 1460SOL     OW 5278   0.880   6.453   0.031
 1460SOL    HW1 5279   0.785   6.464   0.062
 1460SOL    HW2 5280   0.901   6.523   6.989
 1461SOL     OW 5281   6.041   4.499   3.462
 1461SOL    HW1 5282   5.947   4.488   3.491
 1461SOL    HW2 5283   6.050   4.584   3.410
 1462SOL     OW 5284   6.014   1.340   1.064
 1462SOL    HW1 5285   6.114   1.344   1.063
 1462SOL    HW2 5286   5.985   1.250   1.097
 1463SOL     OW 5287   0.875   0.483   5.136
 1463SOL    HW1 5288   0.949   0.457   5.073
 1463SOL    HW2 5289   0.790   0.440   5.107
 1464SOL     OW 5290   0.192   6.707   0.233
 1464SOL    HW1 5291   0.142   6.791   0.213
 1464SOL    HW2 5292   0.276   6.704   0.179
 1465SOL     OW 5293   0.255   0.628   3.777
 1465SOL    HW1 5294   0.189   0.652   3.848
 1465SOL    HW2 5295   0.348   0.632   3.814
 1466SOL     OW 5296   6.525   5.531   2.767
 1466SOL    HW1 5297   6.548   5.509   2.672
 1466SOL    HW2 5298   6.436   5.492   2.789
 1467SOL     OW 5299   1.917   0.956   3.217
 1467SOL    HW1 5300   1.903   0.873   3.270
 1467SOL    HW2 5301   1.832   0.980   3.170
 1468SOL     OW 5302   5.863   5.383   3.452
 1468SOL    HW1 5303   5.918   5.312   3.407
 1468SOL    HW2 5304   5.798   5.421   3.386
 1469SOL     OW 5305   0.436   0.390   2.796
 1469SOL    HW1 5306   0.409   0.483   2.769
 1469SOL    HW2 5307   0.535   0.385   2.802
 1470SOL     OW 5308   1.362   0.999   2.885
 1470SOL    HW1 5309   1.267   1.027   2.901
 1470SOL    HW2 5310   1.409   1.070   2.833
 1471SOL     OW 5311   6.731   0.325   6.940
 1471SOL    HW1 5312   6.684   0.343   6.853
 1471SOL    HW2 5313   6.789   0.403   6.963
 1472SOL     OW 5314   4.593   0.237   4.947
 1472SOL    HW1 5315   4.584   0.320   4.893
 1472SOL    HW2 5316   4.675   0.242   5.003
 1473SOL     OW 5317   6.288   5.570   3.054
 1473SOL    HW1 5318   6.286   5.612   3.145
 1473SOL    HW2 5319   6.344   5.487   3.056
 1474SOL     OW 5320   6.422   5.381   3.993
 1474SOL    HW1 5321   6.435   5.420   4.084
 1474SOL    HW2 5322   6.495   5.412   3.932
 1475SOL     OW 5323   0.191   0.500   2.507
 1475SOL    HW1 5324   0.092   0.509   2.497
 1475SOL    HW2 5325   0.213   0.409   2.542
 1476SOL     OW 5326   1.642   0.714   1.991
 1476SOL    HW1 5327   1.705   0.645   1.955
 1476SOL    HW2 5328   1.548   0.691   1.964
 1477SOL     OW 5329   3.307   0.351   5.640
 1477SOL    HW1 5330   3.389   0.297   5.622
 1477SOL    HW2 5331   3.295   0.363   5.739
 1478SOL     OW 5332   6.356   5.254   0.869
 1478SOL    HW1 5333   6.339   5.191   0.794
 1478SOL    HW2 5334   6.402   5.336   0.835
 1479SOL     OW 5335   1.977   4.698   0.065
 1479SOL    HW1 5336   2.030   4.631   0.014
 1479SOL    HW2 5337   1.944   4.769   0.003
 1480SOL     OW 5338   2.208   1.321   6.432
 1480SOL    HW1 5339   2.211   1.421   6.436
 1480SOL    HW2 5340   2.248   1.284   6.516
 1481SOL     OW 5341   5.756   2.098   5.620
 1481SOL    HW1 5342   5.853   2.110   5.639
 1481SOL    HW2 5343   5.704   2.169   5.666
 1482SOL     OW 5344   5.453   0.914   1.003
 1482SOL    HW1 5345   5.544   0.877   1.025
 1482SOL    HW2 5346   5.388   0.838   0.993
 1483SOL     OW 5347   6.436   2.434   0.209
 1483SOL    HW1 5348   6.468   2.361   0.150
 1483SOL    HW2 5349   6.512   2.496   0.231
 1484SOL     OW 5350   6.417   4.728   2.570
 1484SOL    HW1 5351   6.488   4.657   2.572
 1484SOL    HW2 5352   6.328   4.686   2.553
 1485SOL     OW 5353   5.662   2.607   2.953
 1485SOL    HW1 5354   5.694   2.695   2.988
 1485SOL    HW2 5355   5.569   2.591   2.985
 1486SOL     OW 5356   4.423   2.417   3.014
 1486SOL    HW1 5357   4.386   2.376   2.931
 1486SOL    HW2 5358   4.360   2.400   3.090
 1487SOL     OW 5359   6.311   1.494   6.084
 1487SOL    HW1 5360   6.227   1.515   6.135
 1487SOL    HW2 5361   6.324   1.564   6.013
 1488SOL     OW 5362   4.661   1.267   3.320
 1488SOL    HW1 5363   4.670   1.178   3.364
 1488SOL    HW2 5364   4.664   1.256   3.221
 1489SOL     OW 5365   3.565   4.974   4.723
 1489SOL    HW1 5366   3.659   4.940   4.731
 1489SOL    HW2 5367   3.544   4.989   4.626
 1490SOL     OW 5368   1.202   1.455   0.164
 1490SOL    HW1 5369   1.249   1.367   0.179
 1490SOL    HW2 5370   1.257   1.511   0.101
 1491SOL     OW 5371   6.915   3.839   2.943
 1491SOL    HW1 5372   6.953   3.757   2.986
 1491SOL    HW2 5373   6.851   3.883   3.006
 1492SOL     OW 5374   5.130   1.928   1.739
 1492SOL    HW1 5375   5.144   2.027   1.750
 1492SOL    HW2 5376   5.156   1.901   1.647
 1493SOL     OW 5377   4.551   0.423   4.744
 1493SOL    HW1 5378   4.574   0.354   4.675
 1493SOL    HW2 5379   4.477   0.481   4.710
 1494SOL     OW 5380   3.732   2.444   5.851
 1494SOL    HW1 5381   3.658   2.406   5.795
 1494SOL    HW2 5382   3.704   2.445   5.947
 1495SOL     OW 5383   0.496   3.753   3.299
 1495SOL    HW1 5384   0.515   3.789   3.390
 1495SOL    HW2 5385   0.504   3.653   3.300
 1496SOL     OW 5386   6.543   0.243   2.155
 1496SOL    HW1 5387   6.571   0.335   2.184
 1496SOL    HW2 5388   6.495   0.249   2.067
 1497SOL     OW 5389   0.303   5.294   4.190
 1497SOL    HW1 5390   0.313   5.263   4.285
 1497SOL    HW2 5391   0.368   5.368   4.173
 1498SOL     OW 5392   2.731   4.624   6.083
 1498SOL    HW1 5393   2.727   4.626   5.983
 1498SOL    HW2 5394   2.792   4.696   6.115
 1499SOL     OW 5395   1.193   3.788   5.107
 1499SOL    HW1 5396   1.289   3.817   5.109
 1499SOL    HW2 5397   1.134   3.868   5.114
 1500SOL     OW 5398   5.417   7.022   0.583
 1500SOL    HW1 5399   5.507   6.979   0.589
 1500SOL    HW2 5400   5.377   0.002   0.675
 1501SOL     OW 5401   4.115   0.269   6.627
 1501SOL    HW1 5402   4.105   0.294   6.723
 1501SOL    HW2 5403   4.058   0.189   6.608
 1502SOL     OW 5404   6.603   6.452   6.950
 1502SOL    HW1 5405   6.609   6.551   6.963
 1502SOL    HW2 5406   6.617   6.429   6.854
 1503SOL     OW 5407   2.111   2.653   0.390
 1503SOL    HW1 5408   2.080   2.626   0.299
 1503SOL    HW2 5409   2.047   2.619   0.459
 1504SOL     OW 5410   3.117   0.067   4.685
 1504SOL    HW1 5411   3.128   0.118   4.600
 1504SOL    HW2 5412   3.045   0.109   4.740
 1505SOL     OW 5413   5.866   0.373   5.343
 1505SOL    HW1 5414   5.884   0.440   5.271
 1505SOL    HW2 5415   5.862   0.420   5.432
 1506SOL     OW 5416   1.128   5.063   3.572
 1506SOL    HW1 5417   1.041   5.101   3.604
 1506SOL    HW2 5418   1.182   5.136   3.529
 1507SOL     OW 5419   1.808   1.950   4.687
 1507SOL    HW1 5420   1.813   2.019   4.759
 1507SOL    HW2 5421   1.810   1.995   4.598
 1508SOL     OW 5422   4.555   0.152   0.807
 1508SOL    HW1 5423   4.602   0.237   0.785
 1508SOL    HW2 5424   4.609   0.100   0.873
 1509SOL     OW 5425   4.583   2.956   6.145
 1509SOL    HW1 5426   4.603   2.966   6.047
 1509SOL    HW2 5427   4.498   3.003   6.167
 1510SOL     OW 5428   6.831   2.283   4.582
 1510SOL    HW1 5429   6.896   2.358   4.572
 1510SOL    HW2 5430   6.870   2.200   4.542
 1511SOL     OW 5431   2.628   1.528   6.685
 1511SOL    HW1 5432   2.716   1.512   6.728
 1511SOL    HW2 5433   2.560   1.552   6.754
 1512SOL     OW 5434   0.496   0.313   1.572
 1512SOL    HW1 5435   0.536   0.284   1.658
 1512SOL    HW2 5436   0.461   0.406   1.581
 1513SOL     OW 5437   3.924   0.132   4.136
 1513SOL    HW1 5438   3.884   0.190   4.206
 1513SOL    HW2 5439   4.020   0.113   4.159
 1514SOL     OW 5440   5.619   1.783   5.224
 1514SOL    HW1 5441   5.698   1.758   5.280
 1514SOL    HW2 5442   5.536   1.779   5.279
 1515SOL     OW 5443   6.906   4.059   5.484
 1515SOL    HW1 5444   6.963   4.072   5.402
 1515SOL    HW2 5445   6.815   4.029   5.457
 1516SOL     OW 5446   0.697   0.977   0.824
 1516SOL    HW1 5447   0.602   1.001   0.801
 1516SOL    HW2 5448   0.756   0.999   0.747
 1517SOL     OW 5449   4.663   5.517   3.687
 1517SOL    HW1 5450   4.674   5.520   3.588
 1517SOL    HW2 5451   4.591   5.582   3.714
 1518SOL     OW 5452   6.327   4.159   0.151
 1518SOL    HW1 5453   6.329   4.217   0.070
 1518SOL    HW2 5454   6.371   4.207   0.227
 1519SOL     OW 5455   6.923   4.649   1.201
 1519SOL    HW1 5456   6.951   4.582   1.132
 1519SOL    HW2 5457   6.827   4.632   1.226
 1520SOL     OW 5458   2.111   3.376   2.246
 1520SOL    HW1 5459   2.158   3.422   2.170
 1520SOL    HW2 5460   2.154   3.287   2.263
 1521SOL     OW 5461   1.650   3.272   0.366
 1521SOL    HW1 5462   1.670   3.367   0.389
 1521SOL    HW2 5463   1.596   3.231   0.439
 1522SOL     OW 5464   6.890   1.831   6.366
 1522SOL    HW1 5465   6.952   1.909   6.360
 1522SOL    HW2 5466   6.807   1.858   6.415
 1523SOL     OW 5467   6.041   3.020   7.003
 1523SOL    HW1 5468   6.047   2.933   0.026
 1523SOL    HW2 5469   5.961   3.018   6.943
 1524SOL     OW 5470   0.640   1.604   1.569
 1524SOL    HW1 5471   0.625   1.518   1.521
 1524SOL    HW2 5472   0.729   1.603   1.613
 1525SOL     OW 5473   4.095   1.531   5.953
 1525SOL    HW1 5474   4.117   1.620   5.993
 1525SOL    HW2 5475   3.999   1.529   5.926
 1526SOL     OW 5476   7.000   1.515   1.183
 1526SOL    HW1 5477   0.011   1.562   1.262
 1526SOL    HW2 5478   7.023   1.418   1.187
 1527SOL     OW 5479   3.491   1.786   4.976
 1527SOL    HW1 5480   3.431   1.789   4.896
 1527SOL    HW2 5481   3.533   1.876   4.989
 1528SOL     OW 5482   4.781   6.240   2.776
 1528SOL    HW1 5483   4.784   6.141   2.764
 1528SOL    HW2 5484   4.739   6.262   2.864
 1529SOL     OW 5485   4.539   0.817   6.063
 1529SOL    HW1 5486   4.586   0.769   6.137
 1529SOL    HW2 5487   4.444   0.787   6.060
 1530SOL     OW 5488   2.930   6.327   1.960
 1530SOL    HW1 5489   3.014   6.344   1.909
 1530SOL    HW2 5490   2.856   6.383   1.922
 1531SOL     OW 5491   5.970   0.722   4.847
 1531SOL    HW1 5492   5.940   0.627   4.834
 1531SOL    HW2 5493   5.911   0.782   4.793
 1532SOL     OW 5494   3.308   2.278   5.358
 1532SOL    HW1 5495   3.252   2.313   5.283
 1532SOL    HW2 5496   3.295   2.179   5.366
 1533SOL     OW 5497   6.719   3.209   6.663
 1533SOL    HW1 5498   6.675   3.258   6.738
 1533SOL    HW2 5499   6.817   3.225   6.666
 1534SOL     OW 5500   1.707   5.761   0.327
 1534SOL    HW1 5501   1.724   5.671   0.366
 1534SOL    HW2 5502   1.620   5.797   0.363
 1535SOL     OW 5503   5.364   5.125   4.362
 1535SOL    HW1 5504   5.346   5.143   4.265
 1535SOL    HW2 5505   5.450   5.075   4.371
 1536SOL     OW 5506   2.552   5.329   4.385
 1536SOL    HW1 5507   2.465   5.281   4.381
 1536SOL    HW2 5508   2.539   5.418   4.429
 1537SOL     OW 5509   3.191   5.438   3.818
 1537SOL    HW1 5510   3.199   5.538   3.826
 1537SOL    HW2 5511   3.282   5.397   3.821
 1538SOL     OW 5512   3.055   3.859   6.468
 1538SOL    HW1 5513   3.057   3.802   6.386
 1538SOL    HW2 5514   3.012   3.947   6.447
 1539SOL     OW 5515   3.625   4.397   1.638
 1539SOL    HW1 5516   3.708   4.356   1.676
 1539SOL    HW2 5517   3.603   4.481   1.687
 1540SOL     OW 5518   0.788   0.580   4.187
 1540SOL    HW1 5519   0.776   0.573   4.088
 1540SOL    HW2 5520   0.881   0.614   4.206
 1541SOL     OW 5521   3.643   3.060   1.300
 1541SOL    HW1 5522   3.672   3.018   1.214
 1541SOL    HW2 5523   3.544   3.070   1.301
 1542SOL     OW 5524   0.446   5.862   1.575
 1542SOL    HW1 5525   0.528   5.854   1.633
 1542SOL    HW2 5526   0.380   5.792   1.602
 1543SOL     OW 5527   3.377   3.257   3.780
 1543SOL    HW1 5528   3.375   3.300   3.690
 1543SOL    HW2 5529   3.472   3.249   3.811
 1544SOL     OW 5530   3.062   3.827   2.344
 1544SOL    HW1 5531   3.139   3.871   2.296
 1544SOL    HW2 5532   3.059   3.730   2.320
 1545SOL     OW 5533   6.152   0.907   5.348
 1545SOL    HW1 5534   6.149   0.921   5.447
 1545SOL    HW2 5535   6.112   0.987   5.302
 1546SOL     OW 5536   6.226   0.368   6.272
 1546SOL    HW1 5537   6.212   0.458   6.232
 1546SOL    HW2 5538   6.323   0.345   6.271
 1547SOL     OW 5539   2.535   4.703   2.517
 1547SOL    HW1 5540   2.514   4.730   2.423
 1547SOL    HW2 5541   2.546   4.785   2.573
 1548SOL     OW 5542   3.979   4.550   5.552
 1548SOL    HW1 5543   4.027   4.633   5.582
 1548SOL    HW2 5544   3.931   4.509   5.629
 1549SOL     OW 5545   6.461   1.619   1.671
 1549SOL    HW1 5546   6.497   1.572   1.751
 1549SOL    HW2 5547   6.491   1.714   1.670
 1550SOL     OW 5548   2.602   6.546   5.259
 1550SOL    HW1 5549   2.543   6.627   5.259
 1550SOL    HW2 5550   2.696   6.573   5.241
 1551SOL     OW 5551   1.653   2.876   1.232
 1551SOL    HW1 5552   1.751   2.880   1.214
 1551SOL    HW2 5553   1.616   2.969   1.238
 1552SOL     OW 5554   1.285   6.847   1.103
 1552SOL    HW1 5555   1.304   6.749   1.104
 1552SOL    HW2 5556   1.341   6.893   1.171
 1553SOL     OW 5557   6.178   1.401   0.023
 1553SOL    HW1 5558   6.235   1.362   6.977
 1553SOL    HW2 5559   6.207   1.365   0.112
 1554SOL     OW 5560   4.117   2.226   2.678
 1554SOL    HW1 5561   4.169   2.140   2.672
 1554SOL    HW2 5562   4.168   2.299   2.632
 1555SOL     OW 5563   4.761   1.791   5.124
 1555SOL    HW1 5564   4.839   1.734   5.150
 1555SOL    HW2 5565   4.706   1.811   5.205
 1556SOL     OW 5566   4.018   0.299   0.748
 1556SOL    HW1 5567   4.040   0.389   0.709
 1556SOL    HW2 5568   3.932   0.266   0.710
 1557SOL     OW 5569   1.936   2.432   1.156
 1557SOL    HW1 5570   1.898   2.448   1.064
 1557SOL    HW2 5571   1.883   2.484   1.223
 1558SOL     OW 5572   6.776   2.677   5.346
 1558SOL    HW1 5573   6.685   2.695   5.383
 1558SOL    HW2 5574   6.823   2.610   5.402
 1559SOL     OW 5575   0.779   3.978   2.370
 1559SOL    HW1 5576   0.713   3.927   2.315
 1559SOL    HW2 5577   0.872   3.959   2.337
 1560SOL     OW 5578   3.649   1.510   0.267
 1560SOL    HW1 5579   3.732   1.506   0.322
 1560SOL    HW2 5580   3.609   1.602   0.274
 1561SOL     OW 5581   5.780   6.466   2.047
 1561SOL    HW1 5582   5.871   6.441   2.014
 1561SOL    HW2 5583   5.784   6.486   2.145
 1562SOL     OW 5584   2.904   6.663   2.341
 1562SOL    HW1 5585   2.978   6.603   2.311
 1562SOL    HW2 5586   2.829   6.608   2.378
 1563SOL     OW 5587   3.081   2.212   4.722
 1563SOL    HW1 5588   3.115   2.239   4.812
 1563SOL    HW2 5589   3.074   2.113   4.717
 1564SOL     OW 5590   1.609   1.797   2.472
 1564SOL    HW1 5591   1.546   1.874   2.480
 1564SOL    HW2 5592   1.559   1.717   2.439
 1565SOL     OW 5593   4.242   6.117   4.159
 1565SOL    HW1 5594   4.159   6.102   4.105
 1565SOL    HW2 5595   4.224   6.096   4.255
 1566SOL     OW 5596   5.203   4.840   3.791
 1566SOL    HW1 5597   5.140   4.911   3.757
 1566SOL    HW2 5598   5.296   4.875   3.788
 1567SOL     OW 5599   6.054   5.499   6.370
 1567SOL    HW1 5600   6.091   5.440   6.298
 1567SOL    HW2 5601   6.027   5.587   6.331
 1568SOL     OW 5602   2.052   6.527   3.847
 1568SOL    HW1 5603   2.100   6.483   3.772
 1568SOL    HW2 5604   2.118   6.558   3.915
 1569SOL     OW 5605   3.357   0.584   3.045
 1569SOL    HW1 5606   3.447   0.607   3.008
 1569SOL    HW2 5607   3.322   0.501   3.002
 1570SOL     OW 5608   3.176   6.574   0.061
 1570SOL    HW1 5609   3.221   6.645   0.007
 1570SOL    HW2 5610   3.103   6.614   0.116
 1571SOL     OW 5611   1.262   2.172   3.677
 1571SOL    HW1 5612   1.227   2.224   3.755
 1571SOL    HW2 5613   1.254   2.226   3.594
 1572SOL     OW 5614   1.773   5.392   1.647
 1572SOL    HW1 5615   1.692   5.429   1.600
 1572SOL    HW2 5616   1.775   5.293   1.636
 1573SOL     OW 5617   4.953   5.596   1.724
 1573SOL    HW1 5618   4.917   5.688   1.738
 1573SOL    HW2 5619   5.022   5.598   1.652
 1574SOL     OW 5620   6.424   3.098   2.220
 1574SOL    HW1 5621   6.489   3.172   2.202
 1574SOL    HW2 5622   6.413   3.086   2.319
 1575SOL     OW 5623   1.383   0.579   1.602
 1575SOL    HW1 5624   1.318   0.604   1.530
 1575SOL    HW2 5625   1.464   0.538   1.561
 1576SOL     OW 5626   0.642   6.116   2.428
 1576SOL    HW1 5627   0.564   6.088   2.485
 1576SOL    HW2 5628   0.610   6.178   2.356
 1577SOL     OW 5629   3.050   0.335   6.204
 1577SOL    HW1 5630   3.082   0.263   6.266
 1577SOL    HW2 5631   3.017   0.413   6.258
 1578SOL     OW 5632   4.125   0.776   0.325
 1578SOL    HW1 5633   4.182   0.846   0.370
 1578SOL    HW2 5634   4.146   0.774   0.228
 1579SOL     OW 5635   1.019   2.717   1.563
 1579SOL    HW1 5636   0.943   2.652   1.568
 1579SOL    HW2 5637   1.068   2.717   1.650
 1580SOL     OW 5638   3.203   3.754   3.357
 1580SOL    HW1 5639   3.237   3.674   3.309
 1580SOL    HW2 5640   3.232   3.837   3.310
 1581SOL     OW 5641   0.093   4.850   5.624
 1581SOL    HW1 5642   0.138   4.889   5.704
 1581SOL    HW2 5643   0.035   4.774   5.652
 1582SOL     OW 5644   4.501   5.950   5.255
 1582SOL    HW1 5645   4.472   5.854   5.255
 1582SOL    HW2 5646   4.447   6.001   5.322
 1583SOL     OW 5647   0.928   6.211   5.045
 1583SOL    HW1 5648   0.858   6.203   5.117
 1583SOL    HW2 5649   0.917   6.300   4.999
 1584SOL     OW 5650   1.281   5.363   6.558
 1584SOL    HW1 5651   1.286   5.427   6.482
 1584SOL    HW2 5652   1.191   5.368   6.601
 1585SOL     OW 5653   3.740   1.161   3.701
 1585SOL    HW1 5654   3.726   1.219   3.621
 1585SOL    HW2 5655   3.693   1.073   3.686
 1586SOL     OW 5656   3.254   5.125   3.179
 1586SOL    HW1 5657   3.264   5.032   3.144
 1586SOL    HW2 5658   3.341   5.173   3.172
 1587SOL     OW 5659   2.117   5.719   5.774
 1587SOL    HW1 5660   2.046   5.750   5.838
 1587SOL    HW2 5661   2.153   5.631   5.805
 1588SOL     OW 5662   4.742   0.185   2.558
 1588SOL    HW1 5663   4.809   0.145   2.495
 1588SOL    HW2 5664   4.682   0.248   2.508
 1589SOL     OW 5665   6.344   3.885   2.721
 1589SOL    HW1 5666   6.295   3.896   2.807
 1589SOL    HW2 5667   6.380   3.973   2.691
 1590SOL     OW 5668   5.241   2.028   3.235
 1590SOL    HW1 5669   5.212   2.041   3.140
 1590SOL    HW2 5670   5.336   2.058   3.245
 1591SOL     OW 5671   6.722   5.574   1.633
 1591SOL    HW1 5672   6.778   5.544   1.556
 1591SOL    HW2 5673   6.631   5.532   1.626
 1592SOL     OW 5674   1.471   4.511   6.444
 1592SOL    HW1 5675   1.542   4.581   6.453
 1592SOL    HW2 5676   1.507   4.434   6.390
 1593SOL     OW 5677   1.061   0.107   6.341
 1593SOL    HW1 5678   1.152   0.067   6.328
 1593SOL    HW2 5679   1.037   0.106   6.438
 1594SOL     OW 5680   0.052   0.022   1.961
 1594SOL    HW1 5681   7.010   0.085   1.924
 1594SOL    HW2 5682   0.143   0.048   1.929
 1595SOL     OW 5683   1.823   4.154   6.921
 1595SOL    HW1 5684   1.845   4.249   6.942
 1595SOL    HW2 5685   1.755   4.120   6.985
 1596SOL     OW 5686   5.872   3.838   3.356
 1596SOL    HW1 5687   5.862   3.804   3.263
 1596SOL    HW2 5688   5.822   3.778   3.419
 1597SOL     OW 5689   2.618   5.398   0.483
 1597SOL    HW1 5690   2.644   5.400   0.387
 1597SOL    HW2 5691   2.696   5.426   0.539
 1598SOL     OW 5692   1.512   5.751   6.611
 1598SOL    HW1 5693   1.428   5.772   6.562
 1598SOL    HW2 5694   1.508   5.790   6.703
 1599SOL     OW 5695   3.672   5.043   4.314
 1599SOL    HW1 5696   3.586   5.059   4.267
 1599SOL    HW2 5697   3.655   5.022   4.410
 1600SOL     OW 5698   3.214   0.809   2.850
 1600SOL    HW1 5699   3.170   0.761   2.926
 1600SOL    HW2 5700   3.214   0.751   2.769
 1601SOL     OW 5701   6.642   6.434   3.898
 1601SOL    HW1 5702   6.711   6.399   3.960
 1601SOL    HW2 5703   6.566   6.369   3.892
 1602SOL     OW 5704   4.614   5.254   3.965
 1602SOL    HW1 5705   4.641   5.158   3.960
 1602SOL    HW2 5706   4.680   5.310   3.915
 1603SOL     OW 5707   2.925   5.352   4.362
 1603SOL    HW1 5708   2.977   5.435   4.340
 1603SOL    HW2 5709   2.876   5.366   4.448
 1604SOL     OW 5710   4.101   4.892   2.029
 1604SOL    HW1 5711   4.184   4.947   2.040
 1604SOL    HW2 5712   4.053   4.922   1.946
 1605SOL     OW 5713   5.557   5.630   1.676
 1605SOL    HW1 5714   5.498   5.552   1.658
 1605SOL    HW2 5715   5.651   5.599   1.690
 1606SOL     OW 5716   3.734   5.492   5.100
 1606SOL    HW1 5717   3.782   5.414   5.140
 1606SOL    HW2 5718   3.755   5.575   5.151
 1607SOL     OW 5719   4.060   0.060   2.163
 1607SOL    HW1 5720   4.021   0.025   2.078
 1607SOL    HW2 5721   3.989   0.064   2.233
 1608SOL     OW 5722   0.005   0.710   3.270
 1608SOL    HW1 5723   6.959   0.700   3.202
 1608SOL    HW2 5724   0.089   0.740   3.225
 1609SOL     OW 5725   3.233   6.190   0.587
 1609SOL    HW1 5726   3.147   6.149   0.557
 1609SOL    HW2 5727   3.242   6.281   0.547
 1610SOL     OW 5728   5.037   6.283   0.397
 1610SOL    HW1 5729   5.056   6.368   0.446
 1610SOL    HW2 5730   4.998   6.304   0.307
 1611SOL     OW 5731   1.196   4.027   1.115
 1611SOL    HW1 5732   1.180   4.124   1.130
 1611SOL    HW2 5733   1.203   4.009   1.017
 1612SOL     OW 5734   3.254   6.030   1.429
 1612SOL    HW1 5735   3.192   6.107   1.413
 1612SOL    HW2 5736   3.293   6.000   1.342
 1613SOL     OW 5737   0.573   5.653   2.300
 1613SOL    HW1 5738   0.605   5.697   2.217
 1613SOL    HW2 5739   0.644   5.594   2.337
 1614SOL     OW 5740   5.315   2.158   6.321
 1614SOL    HW1 5741   5.381   2.209   6.266
 1614SOL    HW2 5742   5.313   2.196   6.414
 1615SOL     OW 5743   6.991   5.002   6.478
 1615SOL    HW1 5744   6.934   4.993   6.560
 1615SOL    HW2 5745   6.994   5.099   6.450
 1616SOL     OW 5746   3.718   0.842   5.067
 1616SOL    HW1 5747   3.810   0.880   5.075
 1616SOL    HW2 5748   3.657   0.889   5.131
 1617SOL     OW 5749   4.820   0.274   3.361
 1617SOL    HW1 5750   4.790   0.363   3.327
 1617SOL    HW2 5751   4.920   0.268   3.356
 1618SOL     OW 5752   1.536   6.035   2.629
 1618SOL    HW1 5753   1.495   5.950   2.664
 1618SOL    HW2 5754   1.584   6.081   2.703
 1619SOL     OW 5755   1.136   5.162   6.727
 1619SOL    HW1 5756   1.073   5.168   6.804
 1619SOL    HW2 5757   1.228   5.141   6.759
 1620SOL     OW 5758   2.761   5.023   1.143
 1620SOL    HW1 5759   2.857   5.049   1.135
 1620SOL    HW2 5760   2.752   4.925   1.126
 1621SOL     OW 5761   6.070   6.815   1.602
 1621SOL    HW1 5762   6.045   6.845   1.694
 1621SOL    HW2 5763   6.164   6.783   1.601
 1622SOL     OW 5764   0.374   4.420   6.054
 1622SOL    HW1 5765   0.297   4.359   6.073
 1622SOL    HW2 5766   0.342   4.514   6.044
 1623SOL     OW 5767   0.398   2.587   4.633
 1623SOL    HW1 5768   0.416   2.499   4.590
 1623SOL    HW2 5769   0.315   2.627   4.596
 1624SOL     OW 5770   3.555   1.228   0.412
 1624SOL    HW1 5771   3.566   1.301   0.345
 1624SOL    HW2 5772   3.572   1.140   0.368
 1625SOL     OW 5773   1.509   5.054   6.993
 1625SOL    HW1 5774   1.470   5.060   6.902
 1625SOL    HW2 5775   1.589   4.994   6.991
 1626SOL     OW 5776   2.627   1.789   2.627
 1626SOL    HW1 5777   2.587   1.841   2.551
 1626SOL    HW2 5778   2.570   1.800   2.709
 1627SOL     OW 5779   5.472   2.967   4.069
 1627SOL    HW1 5780   5.479   3.024   3.987
 1627SOL    HW2 5781   5.563   2.935   4.095
 1628SOL     OW 5782   5.135   6.187   6.497
 1628SOL    HW1 5783   5.212   6.229   6.545
 1628SOL    HW2 5784   5.168   6.114   6.438
 1629SOL     OW 5785   2.660   1.781   3.011
 1629SOL    HW1 5786   2.564   1.765   2.985
 1629SOL    HW2 5787   2.696   1.859   2.960
 1630SOL     OW 5788   0.103   4.018   6.542
 1630SOL    HW1 5789   0.185   4.020   6.485
 1630SOL    HW2 5790   0.073   4.112   6.561
 1631SOL     OW 5791   6.308   3.620   1.145
 1631SOL    HW1 5792   6.304   3.526   1.178
 1631SOL    HW2 5793   6.262   3.680   1.210
 1632SOL     OW 5794   5.150   4.212   3.010
 1632SOL    HW1 5795   5.118   4.257   3.094
 1632SOL    HW2 5796   5.113   4.260   2.930
 1633SOL     OW 5797   4.716   4.195   4.145
 1633SOL    HW1 5798   4.682   4.250   4.221
 1633SOL    HW2 5799   4.769   4.118   4.181
 1634SOL     OW 5800   4.054   0.341   4.373
 1634SOL    HW1 5801   3.981   0.275   4.392
 1634SOL    HW2 5802   4.039   0.423   4.429
 1635SOL     OW 5803   2.471   5.052   6.402
 1635SOL    HW1 5804   2.406   5.003   6.345
 1635SOL    HW2 5805   2.485   5.003   6.488
 1636SOL     OW 5806   3.722   5.886   0.771
 1636SOL    HW1 5807   3.702   5.902   0.675
 1636SOL    HW2 5808   3.820   5.891   0.786
 1637SOL     OW 5809   6.923   6.486   3.440
 1637SOL    HW1 5810   6.867   6.443   3.370
 1637SOL    HW2 5811   6.889   6.460   3.531
 1638SOL     OW 5812   0.351   2.970   1.243
 1638SOL    HW1 5813   0.374   3.058   1.201
 1638SOL    HW2 5814   0.287   2.921   1.184
 1639SOL     OW 5815   6.775   4.020   1.970
 1639SOL    HW1 5816   6.731   4.031   1.881
 1639SOL    HW2 5817   6.842   3.946   1.966
 1640SOL     OW 5818   6.524   6.922   0.836
 1640SOL    HW1 5819   6.477   6.996   0.884
 1640SOL    HW2 5820   6.567   6.861   0.902
 1641SOL     OW 5821   6.993   2.073   3.554
 1641SOL    HW1 5822   6.912   2.046   3.503
 1641SOL    HW2 5823   0.020   2.139   3.500
 1642SOL     OW 5824   6.639   2.370   6.606
 1642SOL    HW1 5825   6.730   2.403   6.632
 1642SOL    HW2 5826   6.649   2.285   6.553
 1643SOL     OW 5827   3.319   4.883   3.073
 1643SOL    HW1 5828   3.272   4.798   3.049
 1643SOL    HW2 5829   3.415   4.876   3.046
 1644SOL     OW 5830   6.068   2.830   0.172
 1644SOL    HW1 5831   6.132   2.758   0.196
 1644SOL    HW2 5832   6.024   2.865   0.254
 1645SOL     OW 5833   2.863   0.155   5.959
 1645SOL    HW1 5834   2.786   0.159   5.896
 1645SOL    HW2 5835   2.838   0.201   6.045
 1646SOL     OW 5836   1.939   6.398   6.705
 1646SOL    HW1 5837   1.917   6.495   6.694
 1646SOL    HW2 5838   1.993   6.368   6.626
 1647SOL     OW 5839   5.530   2.509   4.199
 1647SOL    HW1 5840   5.438   2.522   4.161
 1647SOL    HW2 5841   5.561   2.416   4.179
 1648SOL     OW 5842   5.645   6.569   0.151
 1648SOL    HW1 5843   5.736   6.530   0.166
 1648SOL    HW2 5844   5.583   6.497   0.120
 1649SOL     OW 5845   3.129   0.862   3.502
 1649SOL    HW1 5846   3.125   0.900   3.409
 1649SOL    HW2 5847   3.224   0.855   3.531
 1650SOL     OW 5848   1.355   5.445   6.108
 1650SOL    HW1 5849   1.273   5.481   6.153
 1650SOL    HW2 5850   1.340   5.350   6.080
 1651SOL     OW 5851   0.033   2.492   2.994
 1651SOL    HW1 5852   7.012   2.404   2.992
 1651SOL    HW2 5853   0.087   2.499   3.078
 1652SOL     OW 5854   0.789   3.209   1.505
 1652SOL    HW1 5855   0.841   3.127   1.482
 1652SOL    HW2 5856   0.712   3.219   1.441
 1653SOL     OW 5857   7.004   5.588   2.546
 1653SOL    HW1 5858   7.022   5.630   2.457
 1653SOL    HW2 5859   6.961   5.499   2.532
 1654SOL     OW 5860   0.352   3.353   1.474
 1654SOL    HW1 5861   0.442   3.316   1.449
 1654SOL    HW2 5862   0.292   3.278   1.504
 1655SOL     OW 5863   0.081   0.789   4.260
 1655SOL    HW1 5864   0.082   0.726   4.338
 1655SOL    HW2 5865   0.068   0.882   4.293
 1656SOL     OW 5866   2.818   5.542   4.011
 1656SOL    HW1 5867   2.778   5.458   4.049
 1656SOL    HW2 5868   2.853   5.524   3.919
 1657SOL     OW 5869   6.407   1.406   4.632
 1657SOL    HW1 5870   6.494   1.388   4.679
 1657SOL    HW2 5871   6.339   1.438   4.698
 1658SOL     OW 5872   6.762   0.140   0.353
 1658SOL    HW1 5873   6.738   0.138   0.256
 1658SOL    HW2 5874   6.684   0.109   0.408
 1659SOL     OW 5875   4.032   6.816   0.234
 1659SOL    HW1 5876   4.111   6.792   0.177
 1659SOL    HW2 5877   3.975   6.881   0.184
 1660SOL     OW 5878   1.607   0.082   2.203
 1660SOL    HW1 5879   1.654   0.062   2.289
 1660SOL    HW2 5880   1.508   0.069   2.216
 1661SOL     OW 5881   2.612   5.196   2.019
 1661SOL    HW1 5882   2.578   5.219   2.110
 1661SOL    HW2 5883   2.688   5.132   2.026
 1662SOL     OW 5884   6.712   1.138   5.208
 1662SOL    HW1 5885   6.659   1.093   5.136
 1662SOL    HW2 5886   6.649   1.179   5.275
 1663SOL     OW 5887   4.899   5.524   2.758
 1663SOL    HW1 5888   4.948   5.457   2.702
 1663SOL    HW2 5889   4.843   5.475   2.825
 1664SOL     OW 5890   1.625   0.530   5.139
 1664SOL    HW1 5891   1.602   0.555   5.233
 1664SOL    HW2 5892   1.721   0.499   5.136
 1665SOL     OW 5893   1.054   3.646   1.664
 1665SOL    HW1 5894   1.037   3.744   1.661
 1665SOL    HW2 5895   1.000   3.605   1.738
 1666SOL     OW 5896   5.803   6.697   6.963
 1666SOL    HW1 5897   5.872   6.764   6.992
 1666SOL    HW2 5898   5.751   6.666   0.016
 1667SOL     OW 5899   6.825   6.360   1.286
 1667SOL    HW1 5900   6.793   6.388   1.196
 1667SOL    HW2 5901   6.896   6.422   1.318
 1668SOL     OW 5902   5.081   4.946   3.520
 1668SOL    HW1 5903   5.153   4.907   3.462
 1668SOL    HW2 5904   5.106   5.039   3.546
 1669SOL     OW 5905   6.994   4.347   5.581
 1669SOL    HW1 5906   6.916   4.342   5.643
 1669SOL    HW2 5907   0.028   4.422   5.608
 1670SOL     OW 5908   1.166   4.888   5.698
 1670SOL    HW1 5909   1.257   4.925   5.720
 1670SOL    HW2 5910   1.103   4.907   5.773
 1671SOL     OW 5911   5.409   1.835   2.870
 1671SOL    HW1 5912   5.500   1.872   2.853
 1671SOL    HW2 5913   5.412   1.735   2.866
 1672SOL     OW 5914   1.239   3.917   6.611
 1672SOL    HW1 5915   1.263   3.873   6.524
 1672SOL    HW2 5916   1.140   3.936   6.613
 1673SOL     OW 5917   2.303   1.833   4.912
 1673SOL    HW1 5918   2.221   1.814   4.965
 1673SOL    HW2 5919   2.384   1.809   4.965
 1674SOL     OW 5920   6.179   2.639   2.423
 1674SOL    HW1 5921   6.118   2.716   2.439
 1674SOL    HW2 5922   6.259   2.670   2.372
 1675SOL     OW 5923   4.840   0.376   1.098
 1675SOL    HW1 5924   4.913   0.325   1.052
 1675SOL    HW2 5925   4.767   0.312   1.124
 1676SOL     OW 5926   2.162   2.194   2.224
 1676SOL    HW1 5927   2.201   2.175   2.314
 1676SOL    HW2 5928   2.089   2.261   2.233
 1677SOL     OW 5929   3.993   3.857   3.307
 1677SOL    HW1 5930   4.056   3.799   3.256
 1677SOL    HW2 5931   3.995   3.831   3.404
 1678SOL     OW 5932   0.772   6.014   1.521
 1678SOL    HW1 5933   0.808   6.101   1.554
 1678SOL    HW2 5934   0.720   6.029   1.437
 1679SOL     OW 5935   1.433   1.277   5.138
 1679SOL    HW1 5936   1.379   1.195   5.152
 1679SOL    HW2 5937   1.378   1.346   5.091
 1680SOL     OW 5938   5.382   3.206   4.950
 1680SOL    HW1 5939   5.462   3.188   5.008
 1680SOL    HW2 5940   5.336   3.120   4.930
 1681SOL     OW 5941   1.767   5.448   4.803
 1681SOL    HW1 5942   1.844   5.398   4.765
 1681SOL    HW2 5943   1.788   5.546   4.804
 1682SOL     OW 5944   2.217   0.529   6.070
 1682SOL    HW1 5945   2.297   0.515   6.129
 1682SOL    HW2 5946   2.171   0.442   6.056
 1683SOL     OW 5947   5.645   6.340   2.993
 1683SOL    HW1 5948   5.744   6.325   2.989
 1683SOL    HW2 5949   5.622   6.386   3.079
 1684SOL     OW 5950   0.755   4.630   1.408
 1684SOL    HW1 5951   0.728   4.583   1.492
 1684SOL    HW2 5952   0.796   4.564   1.345
 1685SOL     OW 5953   1.865   2.188   5.500
 1685SOL    HW1 5954   1.887   2.226   5.590
 1685SOL    HW2 5955   1.944   2.199   5.440
 1686SOL     OW 5956   3.790   5.602   3.523
 1686SOL    HW1 5957   3.803   5.525   3.586
 1686SOL    HW2 5958   3.819   5.575   3.431
 1687SOL     OW 5959   0.385   4.144   1.655
 1687SOL    HW1 5960   0.368   4.089   1.737
 1687SOL    HW2 5961   0.365   4.240   1.674
 1688SOL     OW 5962   1.431   2.707   3.633
 1688SOL    HW1 5963   1.447   2.681   3.538
 1688SOL    HW2 5964   1.508   2.763   3.665
 1689SOL     OW 5965   6.661   0.976   2.469
 1689SOL    HW1 5966   6.698   0.988   2.561
 1689SOL    HW2 5967   6.621   1.062   2.437
 1690SOL     OW 5968   1.218   3.249   4.065
 1690SOL    HW1 5969   1.289   3.247   4.136
 1690SOL    HW2 5970   1.178   3.340   4.061
 1691SOL     OW 5971   5.036   3.481   4.259
 1691SOL    HW1 5972   5.086   3.519   4.182
 1691SOL    HW2 5973   4.955   3.537   4.277
 1692SOL     OW 5974   5.489   5.210   1.188
 1692SOL    HW1 5975   5.392   5.219   1.210
 1692SOL    HW2 5976   5.541   5.282   1.234
 1693SOL     OW 5977   7.012   1.622   4.538
 1693SOL    HW1 5978   6.974   1.703   4.583
 1693SOL    HW2 5979   0.075   1.644   4.500
 1694SOL     OW 5980   6.120   1.057   4.716
 1694SOL    HW1 5981   6.097   1.014   4.628
 1694SOL    HW2 5982   6.104   1.156   4.709
 1695SOL     OW 5983   3.655   0.452   7.001
 1695SOL    HW1 5984   3.611   0.522   6.946
 1695SOL    HW2 5985   3.658   0.366   6.950
 1696SOL     OW 5986   4.170   5.757   0.928
 1696SOL    HW1 5987   4.131   5.665   0.938
 1696SOL    HW2 5988   4.216   5.783   1.013
 1697SOL     OW 5989   5.798   2.393   0.752
 1697SOL    HW1 5990   5.854   2.464   0.709
 1697SOL    HW2 5991   5.709   2.389   0.707
 1698SOL     OW 5992   3.628   0.663   1.827
 1698SOL    HW1 5993   3.538   0.662   1.870
 1698SOL    HW2 5994   3.621   0.710   1.738
 1699SOL     OW 5995   2.548   2.025   6.142
 1699SOL    HW1 5996   2.583   2.117   6.121
 1699SOL    HW2 5997   2.580   1.997   6.232
 1700SOL     OW 5998   5.613   3.459   3.710
 1700SOL    HW1 5999   5.712   3.467   3.716
 1700SOL    HW2 6000   5.589   3.388   3.644
 1701SOL     OW 6001   6.220   5.136   4.689
 1701SOL    HW1 6002   6.302   5.193   4.702
 1701SOL    HW2 6003   6.147   5.192   4.649
 1702SOL     OW 6004   1.518   1.184   6.080
 1702SOL    HW1 6005   1.453   1.201   6.154
 1702SOL    HW2 6006   1.611   1.196   6.113
 1703SOL     OW 6007   4.221   1.275   6.012
 1703SOL    HW1 6008   4.180   1.366   6.014
 1703SOL    HW2 6009   4.313   1.280   6.051
 1704SOL     OW 6010   0.990   1.746   6.825
 1704SOL    HW1 6011   1.044   1.665   6.802
 1704SOL    HW2 6012   0.969   1.797   6.741
 1705SOL     OW 6013   3.923   1.699   1.921
 1705SOL    HW1 6014   3.840   1.750   1.945
 1705SOL    HW2 6015   3.899   1.603   1.905
 1706SOL     OW 6016   4.059   1.877   0.852
 1706SOL    HW1 6017   4.022   1.902   0.941
 1706SOL    HW2 6018   4.065   1.958   0.794
 1707SOL     OW 6019   5.011   1.859   3.036
 1707SOL    HW1 6020   5.101   1.903   3.037
 1707SOL    HW2 6021   4.971   1.868   2.944
 1708SOL     OW 6022   3.900   5.545   1.901
 1708SOL    HW1 6023   3.935   5.615   1.963
 1708SOL    HW2 6024   3.806   5.567   1.876
 1709SOL     OW 6025   4.593   6.418   0.580
 1709SOL    HW1 6026   4.688   6.440   0.599
 1709SOL    HW2 6027   4.533   6.488   0.620
 1710SOL     OW 6028   4.188   4.763   3.167
 1710SOL    HW1 6029   4.237   4.676   3.166
 1710SOL    HW2 6030   4.157   4.785   3.074
 1711SOL     OW 6031   2.594   4.850   5.699
 1711SOL    HW1 6032   2.653   4.924   5.730
 1711SOL    HW2 6033   2.564   4.867   5.605
 1712SOL     OW 6034   0.246   2.275   4.779
 1712SOL    HW1 6035   0.203   2.184   4.777
 1712SOL    HW2 6036   0.344   2.265   4.762
 1713SOL     OW 6037   3.629   1.400   2.086
 1713SOL    HW1 6038   3.591   1.483   2.127
 1713SOL    HW2 6039   3.555   1.337   2.063
 1714SOL     OW 6040   2.876   2.009   0.148
 1714SOL    HW1 6041   2.852   1.974   0.058
 1714SOL    HW2 6042   2.926   1.939   0.199
 1715SOL     OW 6043   1.835   5.808   2.335
 1715SOL    HW1 6044   1.835   5.852   2.245
 1715SOL    HW2 6045   1.873   5.716   2.328
 1716SOL     OW 6046   4.953   0.173   4.116
 1716SOL    HW1 6047   4.930   0.261   4.157
 1716SOL    HW2 6048   5.048   0.150   4.138
 1717SOL     OW 6049   3.871   5.267   5.298
 1717SOL    HW1 6050   3.918   5.182   5.276
 1717SOL    HW2 6051   3.931   5.345   5.279
 1718SOL     OW 6052   2.493   2.109   2.655
 1718SOL    HW1 6053   2.576   2.136   2.703
 1718SOL    HW2 6054   2.446   2.191   2.621
 1719SOL     OW 6055   1.446   4.917   1.077
 1719SOL    HW1 6056   1.458   5.016   1.075
 1719SOL    HW2 6057   1.530   4.874   1.108
 1720SOL     OW 6058   0.121   3.110   6.001
 1720SOL    HW1 6059   0.064   3.098   6.082
 1720SOL    HW2 6060   0.205   3.158   6.026
 1721SOL     OW 6061   1.215   0.438   2.013
 1721SOL    HW1 6062   1.217   0.361   1.950
 1721SOL    HW2 6063   1.194   0.406   2.106
 1722SOL     OW 6064   2.896   1.828   3.145
 1722SOL    HW1 6065   2.804   1.825   3.104
 1722SOL    HW2 6066   2.907   1.750   3.207
 1723SOL     OW 6067   4.775   2.026   6.899
 1723SOL    HW1 6068   4.782   1.945   6.957
 1723SOL    HW2 6069   4.867   2.059   6.876
 1724SOL     OW 6070   6.358   2.040   1.583
 1724SOL    HW1 6071   6.286   2.012   1.520
 1724SOL    HW2 6072   6.330   2.121   1.633
 1725SOL     OW 6073   1.961   4.427   6.743
 1725SOL    HW1 6074   1.917   4.442   6.832
 1725SOL    HW2 6075   2.030   4.356   6.751
 1726SOL     OW 6076   5.659   4.109   3.928
 1726SOL    HW1 6077   5.577   4.069   3.887
 1726SOL    HW2 6078   5.739   4.061   3.894
 1727SOL     OW 6079   3.649   3.553   3.124
 1727SOL    HW1 6080   3.565   3.521   3.169
 1727SOL    HW2 6081   3.721   3.561   3.192
 1728SOL     OW 6082   4.736   4.052   5.499
 1728SOL    HW1 6083   4.834   4.042   5.520
 1728SOL    HW2 6084   4.692   3.963   5.499
 1729SOL     OW 6085   0.911   3.827   2.718
 1729SOL    HW1 6086   0.988   3.887   2.739
 1729SOL    HW2 6087   0.827   3.880   2.710
 1730SOL     OW 6088   3.050   6.116   5.313
 1730SOL    HW1 6089   3.122   6.128   5.382
 1730SOL    HW2 6090   2.978   6.057   5.350
 1731SOL     OW 6091   5.475   4.889   3.760
 1731SOL    HW1 6092   5.517   4.960   3.703
 1731SOL    HW2 6093   5.529   4.875   3.842
 1732SOL     OW 6094   2.167   4.258   6.426
 1732SOL    HW1 6095   2.224   4.283   6.505
 1732SOL    HW2 6096   2.191   4.316   6.348
 1733SOL     OW 6097   2.431   4.268   0.375
 1733SOL    HW1 6098   2.463   4.294   0.466
 1733SOL    HW2 6099   2.431   4.348   0.315
 1734SOL     OW 6100   6.248   3.158   1.351
 1734SOL    HW1 6101   6.319   3.087   1.355
 1734SOL    HW2 6102   6.165   3.119   1.311
 1735SOL     OW 6103   4.750   5.325   6.628
 1735SOL    HW1 6104   4.720   5.240   6.671
 1735SOL    HW2 6105   4.721   5.325   6.532
 1736SOL     OW 6106   4.457   3.745   1.285
 1736SOL    HW1 6107   4.488   3.830   1.328
 1736SOL    HW2 6108   4.480   3.747   1.187
 1737SOL     OW 6109   5.794   0.688   4.177
 1737SOL    HW1 6110   5.733   0.741   4.237
 1737SOL    HW2 6111   5.740   0.624   4.123
 1738SOL     OW 6112   2.132   3.598   4.678
 1738SOL    HW1 6113   2.231   3.599   4.690
 1738SOL    HW2 6114   2.088   3.596   4.768
 1739SOL     OW 6115   6.062   0.231   4.251
 1739SOL    HW1 6116   6.050   0.324   4.216
 1739SOL    HW2 6117   6.038   0.228   4.348
 1740SOL     OW 6118   0.159   1.830   4.939
 1740SOL    HW1 6119   0.094   1.895   4.897
 1740SOL    HW2 6120   0.249   1.843   4.897
 1741SOL     OW 6121   1.802   1.771   3.459
 1741SOL    HW1 6122   1.740   1.696   3.435
 1741SOL    HW2 6123   1.887   1.762   3.407
 1742SOL     OW 6124   5.895   0.719   6.491
 1742SOL    HW1 6125   5.850   0.744   6.576
 1742SOL    HW2 6126   5.974   0.778   6.476
 1743SOL     OW 6127   1.242   1.773   2.974
 1743SOL    HW1 6128   1.270   1.858   2.929
 1743SOL    HW2 6129   1.142   1.766   2.971
 1744SOL     OW 6130   5.049   2.433   3.614
 1744SOL    HW1 6131   5.088   2.347   3.581
 1744SOL    HW2 6132   5.045   2.500   3.540
 1745SOL     OW 6133   6.308   5.998   1.416
 1745SOL    HW1 6134   6.280   6.042   1.331
 1745SOL    HW2 6135   6.367   6.059   1.468
 1746SOL     OW 6136   2.171   3.705   3.723
 1746SOL    HW1 6137   2.126   3.619   3.700
 1746SOL    HW2 6138   2.237   3.729   3.652
 1747SOL     OW 6139   3.480   1.655   2.102
 1747SOL    HW1 6140   3.498   1.684   2.008
 1747SOL    HW2 6141   3.381   1.643   2.114
 1748SOL     OW 6142   6.579   1.602   4.434
 1748SOL    HW1 6143   6.628   1.524   4.395
 1748SOL    HW2 6144   6.583   1.679   4.371
 1749SOL     OW 6145   2.972   6.104   0.546
 1749SOL    HW1 6146   3.006   6.027   0.492
 1749SOL    HW2 6147   2.872   6.107   0.542
 1750SOL     OW 6148   3.827   0.655   4.879
 1750SOL    HW1 6149   3.832   0.701   4.790
 1750SOL    HW2 6150   3.780   0.714   4.945
 1751SOL     OW 6151   5.935   2.630   4.938
 1751SOL    HW1 6152   5.989   2.695   4.885
 1751SOL    HW2 6153   5.864   2.589   4.880
 1752SOL     OW 6154   6.554   1.260   1.166
 1752SOL    HW1 6155   6.487   1.189   1.190
 1752SOL    HW2 6156   6.598   1.293   1.249
 1753SOL     OW 6157   6.767   1.725   1.934
 1753SOL    HW1 6158   6.840   1.691   1.875
 1753SOL    HW2 6159   6.746   1.820   1.910
 1754SOL     OW 6160   2.866   6.047   5.880
 1754SOL    HW1 6161   2.946   6.040   5.940
 1754SOL    HW2 6162   2.783   6.032   5.933
 1755SOL     OW 6163   6.382   6.689   5.014
 1755SOL    HW1 6164   6.315   6.616   5.032
 1755SOL    HW2 6165   6.335   6.767   4.972
 1756SOL     OW 6166   5.055   0.283   6.008
 1756SOL    HW1 6167   4.982   0.311   6.070
 1756SOL    HW2 6168   5.127   0.237   6.060
 1757SOL     OW 6169   2.143   5.234   4.059
 1757SOL    HW1 6170   2.116   5.201   3.969
 1757SOL    HW2 6171   2.191   5.161   4.108
 1758SOL     OW 6172   1.785   6.649   5.216
 1758SOL    HW1 6173   1.745   6.636   5.125
 1758SOL    HW2 6174   1.845   6.572   5.237
 1759SOL     OW 6175   1.569   6.064   6.198
 1759SOL    HW1 6176   1.511   6.114   6.133
 1759SOL    HW2 6177   1.514   6.037   6.278
 1760SOL     OW 6178   6.057   1.106   5.147
 1760SOL    HW1 6179   6.089   1.037   5.082
 1760SOL    HW2 6180   5.980   1.156   5.107
 1761SOL     OW 6181   6.737   1.101   0.985
 1761SOL    HW1 6182   6.701   1.173   1.045
 1761SOL    HW2 6183   6.756   1.139   0.895
 1762SOL     OW 6184   0.645   1.408   4.891
 1762SOL    HW1 6185   0.721   1.370   4.943
 1762SOL    HW2 6186   0.609   1.489   4.938
 1763SOL     OW 6187   1.234   4.178   4.924
 1763SOL    HW1 6188   1.227   4.103   4.991
 1763SOL    HW2 6189   1.226   4.141   4.832
 1764SOL     OW 6190   1.093   3.908   2.357
 1764SOL    HW1 6191   1.107   3.866   2.267
 1764SOL    HW2 6192   1.179   3.948   2.388
 1765SOL     OW 6193   4.877   2.651   1.570
 1765SOL    HW1 6194   4.953   2.590   1.547
 1765SOL    HW2 6195   4.900   2.704   1.652
 1766SOL     OW 6196   4.806   4.444   3.739
 1766SOL    HW1 6197   4.780   4.534   3.705
 1766SOL    HW2 6198   4.725   4.397   3.773
 1767SOL     OW 6199   0.466   5.439   2.530
 1767SOL    HW1 6200   0.562   5.418   2.510
 1767SOL    HW2 6201   0.429   5.370   2.593
 1768SOL     OW 6202   4.313   6.840   1.176
 1768SOL    HW1 6203   4.367   6.762   1.144
 1768SOL    HW2 6204   4.353   6.877   1.259
 1769SOL     OW 6205   6.079   0.567   6.739
 1769SOL    HW1 6206   6.059   0.512   6.658
 1769SOL    HW2 6207   6.010   0.548   6.809
 1770SOL     OW 6208   1.092   4.440   5.725
 1770SOL    HW1 6209   1.111   4.475   5.634
 1770SOL    HW2 6210   1.066   4.344   5.719
 1771SOL     OW 6211   1.100   4.377   6.822
 1771SOL    HW1 6212   1.054   4.444   6.881
 1771SOL    HW2 6213   1.180   4.340   6.870
 1772SOL     OW 6214   3.585   5.446   4.008
 1772SOL    HW1 6215   3.522   5.523   4.016
 1772SOL    HW2 6216   3.671   5.469   4.054
 1773SOL     OW 6217   1.130   0.847   5.031
 1773SOL    HW1 6218   1.058   0.911   5.002
 1773SOL    HW2 6219   1.104   0.804   5.117
 1774SOL     OW 6220   6.046   6.767   1.988
 1774SOL    HW1 6221   5.962   6.762   2.042
 1774SOL    HW2 6222   6.113   6.824   2.036
 1775SOL     OW 6223   2.192   5.186   6.350
 1775SOL    HW1 6224   2.258   5.228   6.288
 1775SOL    HW2 6225   2.105   5.234   6.343
 1776SOL     OW 6226   5.154   1.177   5.641
 1776SOL    HW1 6227   5.137   1.213   5.549
 1776SOL    HW2 6228   5.251   1.184   5.663
 1777SOL     OW 6229   4.603   6.831   6.282
 1777SOL    HW1 6230   4.677   6.764   6.288
 1777SOL    HW2 6231   4.515   6.783   6.278
 1778SOL     OW 6232   5.557   1.324   4.264
 1778SOL    HW1 6233   5.493   1.276   4.325
 1778SOL    HW2 6234   5.510   1.351   4.181
 1779SOL     OW 6235   4.898   0.285   5.029
 1779SOL    HW1 6236   4.938   0.244   4.947
 1779SOL    HW2 6237   4.951   0.365   5.056
 1780SOL     OW 6238   1.450   5.559   4.694
 1780SOL    HW1 6239   1.527   5.552   4.630
 1780SOL    HW2 6240   1.422   5.467   4.723
 1781SOL     OW 6241   4.664   0.238   4.585
 1781SOL    HW1 6242   4.760   0.265   4.574
 1781SOL    HW2 6243   4.660   0.148   4.629
 1782SOL     OW 6244   1.639   1.426   2.766
 1782SOL    HW1 6245   1.628   1.524   2.781
 1782SOL    HW2 6246   1.695   1.410   2.685
 1783SOL     OW 6247   2.401   3.663   6.149
 1783SOL    HW1 6248   2.384   3.597   6.077
 1783SOL    HW2 6249   2.314   3.702   6.180
 1784SOL     OW 6250   2.533   0.587   1.294
 1784SOL    HW1 6251   2.590   0.574   1.376
 1784SOL    HW2 6252   2.440   0.557   1.313
 1785SOL     OW 6253   0.339   6.530   4.203
 1785SOL    HW1 6254   0.323   6.592   4.279
 1785SOL    HW2 6255   0.402   6.458   4.232
 1786SOL     OW 6256   1.875   5.659   0.867
 1786SOL    HW1 6257   1.884   5.622   0.960
 1786SOL    HW2 6258   1.822   5.595   0.811
 1787SOL     OW 6259   1.411   2.497   5.503
 1787SOL    HW1 6260   1.404   2.399   5.485
 1787SOL    HW2 6261   1.320   2.538   5.504
 1788SOL     OW 6262   4.324   4.009   0.650
 1788SOL    HW1 6263   4.407   4.025   0.595
 1788SOL    HW2 6264   4.244   4.017   0.591
 1789SOL     OW 6265   6.323   3.437   1.901
 1789SOL    HW1 6266   6.334   3.339   1.915
 1789SOL    HW2 6267   6.263   3.452   1.822
 1790SOL     OW 6268   3.005   1.659   4.462
 1790SOL    HW1 6269   3.081   1.721   4.440
 1790SOL    HW2 6270   3.038   1.585   4.520
 1791SOL     OW 6271   6.238   1.050   3.747
 1791SOL    HW1 6272   6.325   1.020   3.785
 1791SOL    HW2 6273   6.253   1.107   3.667
 1792SOL     OW 6274   6.901   2.064   5.591
 1792SOL    HW1 6275   6.923   2.083   5.495
 1792SOL    HW2 6276   6.801   2.060   5.601
 1793SOL     OW 6277   0.085   1.242   5.249
 1793SOL    HW1 6278   0.062   1.241   5.152
 1793SOL    HW2 6279   0.035   1.168   5.295
 1794SOL     OW 6280   6.624   0.385   6.508
 1794SOL    HW1 6281   6.716   0.346   6.495
 1794SOL    HW2 6282   6.628   0.484   6.498
 1795SOL     OW 6283   5.971   4.971   0.461
 1795SOL    HW1 6284   5.877   4.938   0.473
 1795SOL    HW2 6285   6.030   4.928   0.529
 1796SOL     OW 6286   1.817   0.315   5.632
 1796SOL    HW1 6287   1.796   0.274   5.544
 1796SOL    HW2 6288   1.913   0.340   5.636
 1797SOL     OW 6289   1.654   6.693   4.962
 1797SOL    HW1 6290   1.656   6.693   4.862
 1797SOL    HW2 6291   1.605   6.774   4.995
 1798SOL     OW 6292   3.721   3.048   4.384
 1798SOL    HW1 6293   3.746   3.014   4.475
 1798SOL    HW2 6294   3.624   3.074   4.383
 1799SOL     OW 6295   3.507   0.436   6.667
 1799SOL    HW1 6296   3.529   0.375   6.592
 1799SOL    HW2 6297   3.587   0.491   6.690
 1800SOL     OW 6298   5.296   4.330   4.098
 1800SOL    HW1 6299   5.225   4.370   4.040
 1800SOL    HW2 6300   5.369   4.397   4.114
 1801SOL     OW 6301   1.371   1.121   1.906
 1801SOL    HW1 6302   1.451   1.175   1.931
 1801SOL    HW2 6303   1.304   1.179   1.861
 1802SOL     OW 6304   6.628   4.498   3.538
 1802SOL    HW1 6305   6.589   4.578   3.584
 1802SOL    HW2 6306   6.724   4.489   3.562
 1803SOL     OW 6307   6.565   6.067   2.438
 1803SOL    HW1 6308   6.604   6.010   2.510
 1803SOL    HW2 6309   6.476   6.103   2.468
 1804SOL     OW 6310   3.471   3.514   5.944
 1804SOL    HW1 6311   3.475   3.612   5.923
 1804SOL    HW2 6312   3.377   3.481   5.929
 1805SOL     OW 6313   1.106   6.859   6.065
 1805SOL    HW1 6314   1.167   6.810   6.003
 1805SOL    HW2 6315   1.158   6.893   6.143
 1806SOL     OW 6316   6.592   2.567   2.313
 1806SOL    HW1 6317   6.583   2.663   2.338
 1806SOL    HW2 6318   6.530   2.546   2.238
 1807SOL     OW 6319   6.457   3.916   1.013
 1807SOL    HW1 6320   6.470   3.820   0.988
 1807SOL    HW2 6321   6.454   3.924   1.113
 1808SOL     OW 6322   4.946   2.516   5.526
 1808SOL    HW1 6323   5.019   2.575   5.562
 1808SOL    HW2 6324   4.890   2.569   5.463
 1809SOL     OW 6325   3.834   2.293   5.441
 1809SOL    HW1 6326   3.739   2.294   5.407
 1809SOL    HW2 6327   3.836   2.255   5.533
 1810SOL     OW 6328   0.200   0.355   3.669
 1810SOL    HW1 6329   0.186   0.452   3.690
 1810SOL    HW2 6330   0.204   0.343   3.570
 1811SOL     OW 6331   3.850   5.241   2.180
 1811SOL    HW1 6332   3.839   5.157   2.234
 1811SOL    HW2 6333   3.947   5.262   2.170
 1812SOL     OW 6334   4.174   6.992   6.234
 1812SOL    HW1 6335   4.195   0.056   6.271
 1812SOL    HW2 6336   4.242   6.967   6.166
 1813SOL     OW 6337   4.861   4.715   2.641
 1813SOL    HW1 6338   4.957   4.744   2.638
 1813SOL    HW2 6339   4.842   4.657   2.562
 1814SOL     OW 6340   7.003   0.212   0.489
 1814SOL    HW1 6341   6.922   0.168   0.451
 1814SOL    HW2 6342   0.032   0.250   0.415
 1815SOL     OW 6343   5.719   5.892   2.300
 1815SOL    HW1 6344   5.764   5.849   2.222
 1815SOL    HW2 6345   5.714   5.991   2.284
 1816SOL     OW 6346   4.318   6.098   5.460
 1816SOL    HW1 6347   4.285   6.105   5.554
 1816SOL    HW2 6348   4.253   6.143   5.399
 1817SOL     OW 6349   3.052   1.735   2.932
 1817SOL    HW1 6350   3.047   1.798   2.854
 1817SOL    HW2 6351   2.990   1.766   3.004
 1818SOL     OW 6352   1.704   6.616   0.046
 1818SOL    HW1 6353   1.684   6.525   0.009
 1818SOL    HW2 6354   1.789   6.650   0.007
 1819SOL     OW 6355   0.801   4.635   2.743
 1819SOL    HW1 6356   0.718   4.681   2.711
 1819SOL    HW2 6357   0.776   4.552   2.793
 1820SOL     OW 6358   3.676   0.127   3.548
 1820SOL    HW1 6359   3.645   0.033   3.532
 1820SOL    HW2 6360   3.750   0.149   3.485
 1821SOL     OW 6361   3.647   1.034   2.104
 1821SOL    HW1 6362   3.678   1.096   2.033
 1821SOL    HW2 6363   3.585   0.966   2.065
 1822SOL     OW 6364   0.934   2.986   2.249
 1822SOL    HW1 6365   0.977   2.896   2.251
 1822SOL    HW2 6366   0.942   3.026   2.158
 1823SOL     OW 6367   3.763   6.603   2.656
 1823SOL    HW1 6368   3.807   6.618   2.745
 1823SOL    HW2 6369   3.714   6.686   2.628
 1824SOL     OW 6370   4.158   4.075   1.434
 1824SOL    HW1 6371   4.201   4.090   1.523
 1824SOL    HW2 6372   4.058   4.073   1.446
 1825SOL     OW 6373   1.529   2.347   4.948
 1825SOL    HW1 6374   1.570   2.340   5.039
 1825SOL    HW2 6375   1.520   2.443   4.923
 1826SOL     OW 6376   3.599   2.176   1.460
 1826SOL    HW1 6377   3.668   2.169   1.533
 1826SOL    HW2 6378   3.517   2.221   1.497
 1827SOL     OW 6379   5.448   5.294   0.732
 1827SOL    HW1 6380   5.358   5.326   0.762
 1827SOL    HW2 6381   5.512   5.295   0.809
 1828SOL     OW 6382   1.346   3.257   6.194
 1828SOL    HW1 6383   1.308   3.346   6.219
 1828SOL    HW2 6384   1.430   3.241   6.246
 1829SOL     OW 6385   4.229   0.335   4.021
 1829SOL    HW1 6386   4.279   0.377   3.945
 1829SOL    HW2 6387   4.130   0.346   4.006
 1830SOL     OW 6388   5.721   0.015   4.951
 1830SOL    HW1 6389   5.743   6.961   5.007
 1830SOL    HW2 6390   5.660   0.075   5.003
 1831SOL     OW 6391   5.126   5.528   2.952
 1831SOL    HW1 6392   5.066   5.477   2.890
 1831SOL    HW2 6393   5.071   5.586   3.012
 1832SOL     OW 6394   2.180   3.897   0.640
 1832SOL    HW1 6395   2.165   3.991   0.612
 1832SOL    HW2 6396   2.103   3.841   0.610
 1833SOL     OW 6397   4.935   0.285   2.183
 1833SOL    HW1 6398   4.836   0.270   2.191
 1833SOL    HW2 6399   4.956   0.379   2.210
 1834SOL     OW 6400   3.055   2.208   0.160
 1834SOL    HW1 6401   2.986   2.135   0.154
 1834SOL    HW2 6402   3.014   2.289   0.202
 1835SOL     OW 6403   0.423   5.018   1.363
 1835SOL    HW1 6404   0.382   5.038   1.274
 1835SOL    HW2 6405   0.491   4.945   1.353
 1836SOL     OW 6406   5.548   1.666   2.162
 1836SOL    HW1 6407   5.497   1.612   2.095
 1836SOL    HW2 6408   5.579   1.608   2.237
 1837SOL     OW 6409   2.642   0.706   5.927
 1837SOL    HW1 6410   2.660   0.609   5.939
 1837SOL    HW2 6411   2.546   0.719   5.901
 1838SOL     OW 6412   6.286   0.623   0.535
 1838SOL    HW1 6413   6.359   0.594   0.472
 1838SOL    HW2 6414   6.327   0.656   0.620
 1839SOL     OW 6415   5.996   1.662   0.357
 1839SOL    HW1 6416   6.058   1.733   0.325
 1839SOL    HW2 6417   6.005   1.652   0.456
 1840SOL     OW 6418   3.529   0.321   3.353
 1840SOL    HW1 6419   3.614   0.287   3.393
 1840SOL    HW2 6420   3.536   0.420   3.339
 1841SOL     OW 6421   2.304   0.051   2.126
 1841SOL    HW1 6422   2.282   0.103   2.209
 1841SOL    HW2 6423   2.390   0.084   2.088
 1842SOL     OW 6424   2.083   4.796   0.314
 1842SOL    HW1 6425   2.040   4.751   0.236
 1842SOL    HW2 6426   2.013   4.841   0.369
 1843SOL     OW 6427   3.541   1.205   4.708
 1843SOL    HW1 6428   3.530   1.110   4.739
 1843SOL    HW2 6429   3.557   1.206   4.609
 1844SOL     OW 6430   5.151   1.271   6.046
 1844SOL    HW1 6431   5.161   1.364   6.013
 1844SOL    HW2 6432   5.118   1.272   6.141
 1845SOL     OW 6433   2.396   0.837   3.296
 1845SOL    HW1 6434   2.305   0.850   3.256
 1845SOL    HW2 6435   2.460   0.805   3.226
 1846SOL     OW 6436   4.642   0.950   3.182
 1846SOL    HW1 6437   4.627   0.926   3.278
 1846SOL    HW2 6438   4.728   1.001   3.175
 1847SOL     OW 6439   2.229   0.660   4.379
 1847SOL    HW1 6440   2.295   0.716   4.329
 1847SOL    HW2 6441   2.137   0.696   4.363
 1848SOL     OW 6442   2.039   5.653   4.201
 1848SOL    HW1 6443   2.028   5.589   4.276
 1848SOL    HW2 6444   1.948   5.676   4.164
 1849SOL     OW 6445   4.715   2.716   2.475
 1849SOL    HW1 6446   4.728   2.790   2.409
 1849SOL    HW2 6447   4.719   2.753   2.568
 1850SOL     OW 6448   5.256   2.133   2.158
 1850SOL    HW1 6449   5.310   2.090   2.230
 1850SOL    HW2 6450   5.170   2.083   2.147
 1851SOL     OW 6451   0.290   2.713   6.369
 1851SOL    HW1 6452   0.366   2.708   6.304
 1851SOL    HW2 6453   0.306   2.787   6.434
 1852SOL     OW 6454   1.314   4.103   2.297
 1852SOL    HW1 6455   1.342   4.199   2.309
 1852SOL    HW2 6456   1.223   4.100   2.254
 1853SOL     OW 6457   0.198   3.205   4.597
 1853SOL    HW1 6458   0.290   3.172   4.573
 1853SOL    HW2 6459   0.192   3.218   4.696
 1854SOL     OW 6460   0.641   5.538   3.183
 1854SOL    HW1 6461   0.692   5.512   3.265
 1854SOL    HW2 6462   0.704   5.573   3.114
 1855SOL     OW 6463   5.267   3.514   4.459
 1855SOL    HW1 6464   5.236   3.508   4.554
 1855SOL    HW2 6465   5.188   3.508   4.397
 1856SOL     OW 6466   3.599   3.517   0.266
 1856SOL    HW1 6467   3.515   3.522   0.320
 1856SOL    HW2 6468   3.675   3.557   0.318
 1857SOL     OW 6469   5.078   0.932   0.124
 1857SOL    HW1 6470   5.036   0.979   0.046
 1857SOL    HW2 6471   5.053   0.980   0.208
 1858SOL     OW 6472   4.255   1.852   4.188
 1858SOL    HW1 6473   4.197   1.783   4.232
 1858SOL    HW2 6474   4.343   1.857   4.235
 1859SOL     OW 6475   5.658   1.889   4.989
 1859SOL    HW1 6476   5.637   1.836   5.071
 1859SOL    HW2 6477   5.754   1.918   4.993
 1860SOL     OW 6478   0.773   1.804   4.992
 1860SOL    HW1 6479   0.752   1.885   5.046
 1860SOL    HW2 6480   0.705   1.733   5.009
 1861SOL     OW 6481   6.307   0.640   2.613
 1861SOL    HW1 6482   6.289   0.652   2.710
 1861SOL    HW2 6483   6.250   0.566   2.577
 1862SOL     OW 6484   2.322   6.613   6.938
 1862SOL    HW1 6485   2.249   6.606   6.870
 1862SOL    HW2 6486   2.302   6.686   7.002
 1863SOL     OW 6487   0.309   3.236   1.144
 1863SOL    HW1 6488   0.364   3.304   1.096
 1863SOL    HW2 6489   0.213   3.264   1.143
 1864SOL     OW 6490   2.678   5.812   4.278
 1864SOL    HW1 6491   2.675   5.776   4.184
 1864SOL    HW2 6492   2.769   5.846   4.298
 1865SOL     OW 6493   4.966   1.318   0.238
 1865SOL    HW1 6494   4.883   1.269   0.214
 1865SOL    HW2 6495   5.037   1.252   0.263
 1866SOL     OW 6496   0.601   3.799   4.300
 1866SOL    HW1 6497   0.656   3.733   4.351
 1866SOL    HW2 6498   0.621   3.891   4.333
 1867SOL     OW 6499   2.159   2.254   1.428
 1867SOL    HW1 6500   2.119   2.164   1.412
 1867SOL    HW2 6501   2.133   2.286   1.520
 1868SOL     OW 6502   5.423   4.355   5.267
 1868SOL    HW1 6503   5.450   4.271   5.313
 1868SOL    HW2 6504   5.502   4.394   5.219
 1869SOL     OW 6505   4.540   2.162   4.108
 1869SOL    HW1 6506   4.563   2.258   4.095
 1869SOL    HW2 6507   4.579   2.129   4.194
 1870SOL     OW 6508   1.181   4.558   4.277
 1870SOL    HW1 6509   1.217   4.624   4.211
 1870SOL    HW2 6510   1.251   4.489   4.295
 1871SOL     OW 6511   1.053   6.972   0.393
 1871SOL    HW1 6512   0.992   6.893   0.384
 1871SOL    HW2 6513   1.113   6.978   0.314
 1872SOL     OW 6514   3.254   1.785   0.367
 1872SOL    HW1 6515   3.283   1.872   0.407
 1872SOL    HW2 6516   3.222   1.724   0.440
 1873SOL     OW 6517   6.365   0.682   6.577
 1873SOL    HW1 6518   6.363   0.583   6.593
 1873SOL    HW2 6519   6.284   0.709   6.524
 1874SOL     OW 6520   0.889   6.414   6.527
 1874SOL    HW1 6521   0.949   6.367   6.592
 1874SOL    HW2 6522   0.918   6.393   6.433
 1875SOL     OW 6523   6.502   5.634   6.838
 1875SOL    HW1 6524   6.445   5.557   6.809
 1875SOL    HW2 6525   6.451   5.691   6.901
 1876SOL     OW 6526   5.722   6.615   6.105
 1876SOL    HW1 6527   5.642   6.634   6.161
 1876SOL    HW2 6528   5.804   6.644   6.154
 1877SOL     OW 6529   0.356   1.086   2.204
 1877SOL    HW1 6530   0.265   1.047   2.190
 1877SOL    HW2 6531   0.353   1.185   2.191
 1878SOL     OW 6532   0.549   4.208   3.359
 1878SOL    HW1 6533   0.584   4.226   3.267
 1878SOL    HW2 6534   0.625   4.196   3.422
 1879SOL     OW 6535   2.750   5.330   4.896
 1879SOL    HW1 6536   2.696   5.393   4.840
 1879SOL    HW2 6537   2.837   5.310   4.850
 1880SOL     OW 6538   0.185   2.543   3.239
 1880SOL    HW1 6539   0.238   2.627   3.229
 1880SOL    HW2 6540   0.107   2.560   3.299
 1881SOL     OW 6541   0.594   2.372   3.915
 1881SOL    HW1 6542   0.660   2.322   3.859
 1881SOL    HW2 6543   0.640   2.414   3.992
 1882SOL     OW 6544   1.023   5.998   0.296
 1882SOL    HW1 6545   1.087   6.072   0.272
 1882SOL    HW2 6546   0.981   6.018   0.385
 1883SOL     OW 6547   1.140   3.986   2.778
 1883SOL    HW1 6548   1.142   4.085   2.762
 1883SOL    HW2 6549   1.118   3.968   2.874
 1884SOL     OW 6550   3.592   0.941   0.306
 1884SOL    HW1 6551   3.680   0.916   0.267
 1884SOL    HW2 6552   3.518   0.914   0.244
 1885SOL     OW 6553   6.950   2.446   0.659
 1885SOL    HW1 6554   6.869   2.399   0.624
 1885SOL    HW2 6555   6.993   2.390   0.730
 1886SOL     OW 6556   1.998   1.822   6.498
 1886SOL    HW1 6557   2.086   1.775   6.489
 1886SOL    HW2 6558   1.925   1.763   6.463
 1887SOL     OW 6559   0.611   5.628   5.839
 1887SOL    HW1 6560   0.641   5.615   5.744
 1887SOL    HW2 6561   0.566   5.717   5.847
 1888SOL     OW 6562   1.988   1.660   5.660
 1888SOL    HW1 6563   1.992   1.756   5.689
 1888SOL    HW2 6564   2.080   1.629   5.636
 1889SOL     OW 6565   4.309   3.244   0.704
 1889SOL    HW1 6566   4.297   3.173   0.634
 1889SOL    HW2 6567   4.280   3.208   0.793
 1890SOL     OW 6568   1.027   5.784   5.968
 1890SOL    HW1 6569   1.040   5.874   6.008
 1890SOL    HW2 6570   1.079   5.777   5.883
 1891SOL     OW 6571   5.868   3.243   5.569
 1891SOL    HW1 6572   5.954   3.291   5.556
 1891SOL    HW2 6573   5.862   3.210   5.663
 1892SOL     OW 6574   3.863   5.747   1.158
 1892SOL    HW1 6575   3.949   5.765   1.206
 1892SOL    HW2 6576   3.788   5.746   1.223
 1893SOL     OW 6577   3.749   2.123   4.169
 1893SOL    HW1 6578   3.691   2.138   4.089
 1893SOL    HW2 6579   3.834   2.174   4.158
 1894SOL     OW 6580   4.529   3.965   1.730
 1894SOL    HW1 6581   4.455   3.898   1.724
 1894SOL    HW2 6582   4.496   4.047   1.777
 1895SOL     OW 6583   6.387   1.108   2.131
 1895SOL    HW1 6584   6.369   1.172   2.206
 1895SOL    HW2 6585   6.443   1.032   2.165
 1896SOL     OW 6586   6.151   1.578   4.291
 1896SOL    HW1 6587   6.201   1.616   4.369
 1896SOL    HW2 6588   6.215   1.564   4.215
 1897SOL     OW 6589   5.963   5.178   3.286
 1897SOL    HW1 6590   6.057   5.209   3.269
 1897SOL    HW2 6591   5.916   5.167   3.199
 1898SOL     OW 6592   5.584   5.856   0.884
 1898SOL    HW1 6593   5.491   5.823   0.903
 1898SOL    HW2 6594   5.579   5.935   0.823
 1899SOL     OW 6595   0.076   3.055   3.186
 1899SOL    HW1 6596   0.052   3.066   3.282
 1899SOL    HW2 6597   7.020   3.059   3.129
 1900SOL     OW 6598   1.411   6.414   6.621
 1900SOL    HW1 6599   1.502   6.378   6.642
 1900SOL    HW2 6600   1.356   6.343   6.576
 1901SOL     OW 6601   1.733   0.574   6.926
 1901SOL    HW1 6602   1.704   0.562   6.831
 1901SOL    HW2 6603   1.711   0.491   6.978
 1902SOL     OW 6604   0.885   3.148   4.260
 1902SOL    HW1 6605   0.980   3.136   4.290
 1902SOL    HW2 6606   0.883   3.201   4.176
 1903SOL     OW 6607   6.320   4.494   3.555
 1903SOL    HW1 6608   6.267   4.516   3.473
 1903SOL    HW2 6609   6.415   4.525   3.542
 1904SOL     OW 6610   0.472   0.153   4.309
 1904SOL    HW1 6611   0.547   0.192   4.362
 1904SOL    HW2 6612   0.440   0.220   4.242
 1905SOL     OW 6613   6.915   2.468   4.337
 1905SOL    HW1 6614   6.893   2.521   4.419
 1905SOL    HW2 6615   6.987   2.514   4.285
 1906SOL     OW 6616   2.208   6.863   6.084
 1906SOL    HW1 6617   2.284   6.858   6.019
 1906SOL    HW2 6618   2.125   6.825   6.042
 1907SOL     OW 6619   3.092   0.050   3.425
 1907SOL    HW1 6620   3.035   0.036   3.505
 1907SOL    HW2 6621   3.165   0.115   3.447
 1908SOL     OW 6622   4.743   0.698   5.779
 1908SOL    HW1 6623   4.811   0.627   5.799
 1908SOL    HW2 6624   4.753   0.774   5.842
 1909SOL     OW 6625   2.415   4.538   4.669
 1909SOL    HW1 6626   2.330   4.590   4.657
 1909SOL    HW2 6627   2.448   4.549   4.763
 1910SOL     OW 6628   5.132   2.324   7.005
 1910SOL    HW1 6629   5.162   2.418   7.023
 1910SOL    HW2 6630   5.097   2.284   0.063
 1911SOL     OW 6631   6.905   2.459   5.486
 1911SOL    HW1 6632   6.965   2.395   5.534
 1911SOL    HW2 6633   6.834   2.409   5.437
 1912SOL     OW 6634   3.367   6.425   2.193
 1912SOL    HW1 6635   3.268   6.441   2.201
 1912SOL    HW2 6636   3.415   6.478   2.262
 1913SOL     OW 6637   2.169   6.360   4.952
 1913SOL    HW1 6638   2.213   6.447   4.976
 1913SOL    HW2 6639   2.186   6.293   5.025
 1914SOL     OW 6640   2.598   2.678   6.238
 1914SOL    HW1 6641   2.513   2.686   6.290
 1914SOL    HW2 6642   2.649   2.598   6.269
 1915SOL     OW 6643   4.142   0.665   6.374
 1915SOL    HW1 6644   4.086   0.588   6.404
 1915SOL    HW2 6645   4.152   0.662   6.274
 1916SOL     OW 6646   4.111   5.785   1.279
 1916SOL    HW1 6647   4.134   5.880   1.257
 1916SOL    HW2 6648   4.186   5.744   1.332
 1917SOL     OW 6649   3.553   4.197   4.566
 1917SOL    HW1 6650   3.546   4.106   4.606
 1917SOL    HW2 6651   3.601   4.258   4.629
 1918SOL     OW 6652   6.092   6.377   5.908
 1918SOL    HW1 6653   6.033   6.298   5.898
 1918SOL    HW2 6654   6.180   6.348   5.945
 1919SOL     OW 6655   0.772   5.861   2.434
 1919SOL    HW1 6656   0.692   5.804   2.448
 1919SOL    HW2 6657   0.745   5.957   2.431
 1920SOL     OW 6658   0.707   4.792   3.914
 1920SOL    HW1 6659   0.619   4.804   3.868
 1920SOL    HW2 6660   0.781   4.798   3.846
 1921SOL     OW 6661   1.124   5.886   6.899
 1921SOL    HW1 6662   1.207   5.905   6.952
 1921SOL    HW2 6663   1.045   5.883   6.961
 1922SOL     OW 6664   4.236   3.371   1.402
 1922SOL    HW1 6665   4.199   3.406   1.316
 1922SOL    HW2 6666   4.230   3.271   1.403
 1923SOL     OW 6667   2.458   1.156   0.911
 1923SOL    HW1 6668   2.433   1.245   0.873
 1923SOL    HW2 6669   2.536   1.166   0.973
 1924SOL     OW 6670   6.404   4.471   2.013
 1924SOL    HW1 6671   6.305   4.458   2.003
 1924SOL    HW2 6672   6.434   4.432   2.101
 1925SOL     OW 6673   3.375   3.760   1.852
 1925SOL    HW1 6674   3.298   3.820   1.831
 1925SOL    HW2 6675   3.430   3.799   1.925
 1926SOL     OW 6676   1.730   0.599   4.728
 1926SOL    HW1 6677   1.698   0.628   4.638
 1926SOL    HW2 6678   1.654   0.599   4.792
 1927SOL     OW 6679   4.422   3.295   7.001
 1927SOL    HW1 6680   4.365   3.358   6.949
 1927SOL    HW2 6681   4.400   3.301   0.072
 1928SOL     OW 6682   6.670   3.621   6.093
 1928SOL    HW1 6683   6.579   3.662   6.091
 1928SOL    HW2 6684   6.735   3.684   6.136
 1929SOL     OW 6685   1.500   6.227   2.204
 1929SOL    HW1 6686   1.505   6.178   2.117
 1929SOL    HW2 6687   1.497   6.326   2.186
 1930SOL     OW 6688   6.245   4.591   6.723
 1930SOL    HW1 6689   6.155   4.610   6.686
 1930SOL    HW2 6690   6.311   4.584   6.648
 1931SOL     OW 6691   0.390   3.759   3.040
 1931SOL    HW1 6692   0.470   3.798   2.995
 1931SOL    HW2 6693   0.398   3.770   3.139
 1932SOL     OW 6694   4.864   3.697   2.451
 1932SOL    HW1 6695   4.854   3.768   2.380
 1932SOL    HW2 6696   4.881   3.609   2.407
 1933SOL     OW 6697   3.055   4.516   0.685
 1933SOL    HW1 6698   3.014   4.428   0.707
 1933SOL    HW2 6699   3.153   4.504   0.666
 1934SOL     OW 6700   1.244   0.122   5.847
 1934SOL    HW1 6701   1.206   0.043   5.799
 1934SOL    HW2 6702   1.170   0.181   5.879
 1935SOL     OW 6703   2.530   0.175   4.596
 1935SOL    HW1 6704   2.630   0.179   4.605
 1935SOL    HW2 6705   2.505   0.106   4.527
 1936SOL     OW 6706   5.350   5.654   4.289
 1936SOL    HW1 6707   5.376   5.561   4.263
 1936SOL    HW2 6708   5.291   5.651   4.370
 1937SOL     OW 6709   3.824   6.617   1.654
 1937SOL    HW1 6710   3.726   6.625   1.634
 1937SOL    HW2 6711   3.840   6.536   1.710
 1938SOL     OW 6712   3.706   1.617   3.466
 1938SOL    HW1 6713   3.684   1.598   3.371
 1938SOL    HW2 6714   3.739   1.711   3.475
 1939SOL     OW 6715   1.309   1.066   3.482
 1939SOL    HW1 6716   1.369   1.146   3.482
 1939SOL    HW2 6717   1.329   1.010   3.562
 1940SOL     OW 6718   5.454   5.430   6.824
 1940SOL    HW1 6719   5.408   5.347   6.793
 1940SOL    HW2 6720   5.463   5.493   6.747
 1941SOL     OW 6721   6.687   4.236   3.450
 1941SOL    HW1 6722   6.654   4.322   3.488
 1941SOL    HW2 6723   6.748   4.191   3.516
 1942SOL     OW 6724   5.847   5.778   2.093
 1942SOL    HW1 6725   5.782   5.795   2.019
 1942SOL    HW2 6726   5.928   5.732   2.057
 1943SOL     OW 6727   3.019   5.336   2.956
 1943SOL    HW1 6728   3.115   5.332   2.926
 1943SOL    HW2 6729   2.969   5.401   2.899
 1944SOL     OW 6730   5.546   1.815   6.397
 1944SOL    HW1 6731   5.497   1.742   6.443
 1944SOL    HW2 6732   5.508   1.829   6.306
 1945SOL     OW 6733   4.699   5.687   2.962
 1945SOL    HW1 6734   4.686   5.588   2.953
 1945SOL    HW2 6735   4.652   5.734   2.888
 1946SOL     OW 6736   1.426   0.556   0.885
 1946SOL    HW1 6737   1.373   0.572   0.802
 1946SOL    HW2 6738   1.364   0.541   0.962
 1947SOL     OW 6739   5.381   6.539   5.052
 1947SOL    HW1 6740   5.307   6.528   4.986
 1947SOL    HW2 6741   5.409   6.635   5.054
 1948SOL     OW 6742   0.186   5.767   4.716
 1948SOL    HW1 6743   0.198   5.816   4.629
 1948SOL    HW2 6744   0.091   5.737   4.724
 1949SOL     OW 6745   3.997   4.025   5.932
 1949SOL    HW1 6746   4.089   4.055   5.958
 1949SOL    HW2 6747   3.954   4.096   5.877
 1950SOL     OW 6748   3.715   3.482   6.806
 1950SOL    HW1 6749   3.699   3.540   6.726
 1950SOL    HW2 6750   3.727   3.540   6.887
 1951SOL     OW 6751   6.044   2.545   0.380
 1951SOL    HW1 6752   6.022   2.456   0.340
 1951SOL    HW2 6753   6.129   2.579   0.339
 1952SOL     OW 6754   3.409   2.286   0.562
 1952SOL    HW1 6755   3.453   2.264   0.650
 1952SOL    HW2 6756   3.421   2.383   0.542
 1953SOL     OW 6757   6.723   2.302   6.967
 1953SOL    HW1 6758   6.811   2.266   6.999
 1953SOL    HW2 6759   6.738   2.363   6.889
 1954SOL     OW 6760   5.191   1.910   4.115
 1954SOL    HW1 6761   5.233   1.992   4.155
 1954SOL    HW2 6762   5.259   1.863   4.058
 1955SOL     OW 6763   1.474   0.011   1.763
 1955SOL    HW1 6764   1.502   0.104   1.785
 1955SOL    HW2 6765   1.520   6.974   1.826
 1956SOL     OW 6766   5.228   6.300   2.879
 1956SOL    HW1 6767   5.211   6.223   2.940
 1956SOL    HW2 6768   5.151   6.311   2.816
 1957SOL     OW 6769   6.539   5.865   5.084
 1957SOL    HW1 6770   6.609   5.806   5.123
 1957SOL    HW2 6771   6.450   5.843   5.125
 1958SOL     OW 6772   5.727   3.442   4.405
 1958SOL    HW1 6773   5.774   3.398   4.328
 1958SOL    HW2 6774   5.632   3.410   4.408
 1959SOL     OW 6775   0.612   2.831   5.655
 1959SOL    HW1 6776   0.530   2.775   5.641
 1959SOL    HW2 6777   0.652   2.853   5.566
 1960SOL     OW 6778   6.286   4.964   0.751
 1960SOL    HW1 6779   6.365   4.926   0.703
 1960SOL    HW2 6780   6.289   4.935   0.847
 1961SOL     OW 6781   5.704   4.591   4.666
 1961SOL    HW1 6782   5.610   4.557   4.676
 1961SOL    HW2 6783   5.767   4.513   4.661
 1962SOL     OW 6784   1.479   6.061   4.189
 1962SOL    HW1 6785   1.394   6.110   4.212
 1962SOL    HW2 6786   1.457   5.981   4.133
 1963SOL     OW 6787   0.842   0.630   1.732
 1963SOL    HW1 6788   0.924   0.577   1.754
 1963SOL    HW2 6789   0.842   0.715   1.786
 1964SOL     OW 6790   4.590   2.573   1.507
 1964SOL    HW1 6791   4.525   2.626   1.561
 1964SOL    HW2 6792   4.683   2.602   1.529
 1965SOL     OW 6793   0.395   2.767   2.941
 1965SOL    HW1 6794   0.472   2.829   2.954
 1965SOL    HW2 6795   0.341   2.762   3.025
 1966SOL     OW 6796   0.712   5.364   5.044
 1966SOL    HW1 6797   0.770   5.422   4.987
 1966SOL    HW2 6798   0.684   5.283   4.992
 1967SOL     OW 6799   4.504   2.022   5.971
 1967SOL    HW1 6800   4.439   2.075   6.025
 1967SOL    HW2 6801   4.554   1.959   6.031
 1968SOL     OW 6802   3.005   5.995   0.013
 1968SOL    HW1 6803   2.961   5.972   0.100
 1968SOL    HW2 6804   2.960   6.074   6.999
 1969SOL     OW 6805   6.563   1.853   1.676
 1969SOL    HW1 6806   6.494   1.922   1.654
 1969SOL    HW2 6807   6.631   1.893   1.738
 1970SOL     OW 6808   2.292   0.734   5.874
 1970SOL    HW1 6809   2.266   0.669   5.945
 1970SOL    HW2 6810   2.239   0.818   5.884
 1971SOL     OW 6811   6.972   0.003   6.450
 1971SOL    HW1 6812   6.930   0.039   6.367
 1971SOL    HW2 6813   0.034   6.989   6.428
 1972SOL     OW 6814   0.453   3.273   2.965
 1972SOL    HW1 6815   0.383   3.204   2.951
 1972SOL    HW2 6816   0.410   3.363   2.977
 1973SOL     OW 6817   3.666   2.845   1.909
 1973SOL    HW1 6818   3.604   2.919   1.934
 1973SOL    HW2 6819   3.728   2.876   1.837
 1974SOL     OW 6820   6.391   6.183   3.978
 1974SOL    HW1 6821   6.488   6.161   3.969
 1974SOL    HW2 6822   6.338   6.099   3.991
 1975SOL     OW 6823   2.481   0.992   3.524
 1975SOL    HW1 6824   2.500   0.914   3.584
 1975SOL    HW2 6825   2.419   0.963   3.451
 1976SOL     OW 6826   0.519   6.136   0.188
 1976SOL    HW1 6827   0.546   6.126   0.284
 1976SOL    HW2 6828   0.423   6.163   0.183
 1977SOL     OW 6829   1.000   3.145   3.662
 1977SOL    HW1 6830   1.042   3.111   3.746
 1977SOL    HW2 6831   0.914   3.096   3.646
 1978SOL     OW 6832   1.591   1.441   4.059
 1978SOL    HW1 6833   1.542   1.370   4.009
 1978SOL    HW2 6834   1.576   1.530   4.015
 1979SOL     OW 6835   0.079   4.291   4.807
 1979SOL    HW1 6836   0.055   4.322   4.899
 1979SOL    HW2 6837   0.025   4.210   4.785
 1980SOL     OW 6838   3.451   6.726   0.491
 1980SOL    HW1 6839   3.532   6.707   0.435
 1980SOL    HW2 6840   3.384   6.654   0.479
 1981SOL     OW 6841   5.592   2.252   2.352
 1981SOL    HW1 6842   5.525   2.178   2.365
 1981SOL    HW2 6843   5.628   2.280   2.441
 1982SOL     OW 6844   6.124   4.885   5.108
 1982SOL    HW1 6845   6.188   4.957   5.132
 1982SOL    HW2 6846   6.157   4.836   5.027
 1983SOL     OW 6847   0.792   2.376   2.963
 1983SOL    HW1 6848   0.726   2.335   2.901
 1983SOL    HW2 6849   0.748   2.395   3.051
 1984SOL     OW 6850   4.723   1.394   6.190
 1984SOL    HW1 6851   4.728   1.490   6.164
 1984SOL    HW2 6852   4.628   1.367   6.201
 1985SOL     OW 6853   1.328   1.240   2.437
 1985SOL    HW1 6854   1.280   1.222   2.351
 1985SOL    HW2 6855   1.365   1.154   2.472
 1986SOL     OW 6856   1.392   1.551   7.001
 1986SOL    HW1 6857   1.422   1.460   0.004
 1986SOL    HW2 6858   1.442   1.578   6.919
 1987SOL     OW 6859   2.658   2.983   1.720
 1987SOL    HW1 6860   2.725   2.937   1.661
 1987SOL    HW2 6861   2.692   3.075   1.742
 1988SOL     OW 6862   5.060   4.515   0.365
 1988SOL    HW1 6863   5.100   4.555   0.282
 1988SOL    HW2 6864   5.123   4.524   0.441
 1989SOL     OW 6865   2.168   0.617   4.773
 1989SOL    HW1 6866   2.267   0.604   4.774
 1989SOL    HW2 6867   2.131   0.582   4.687
 1990SOL     OW 6868   3.131   0.329   2.066
 1990SOL    HW1 6869   3.105   0.317   1.970
 1990SOL    HW2 6870   3.133   0.240   2.111
 1991SOL     OW 6871   3.436   5.430   5.814
 1991SOL    HW1 6872   3.450   5.500   5.884
 1991SOL    HW2 6873   3.346   5.443   5.772
 1992SOL     OW 6874   2.921   6.875   5.940
 1992SOL    HW1 6875   3.006   6.831   5.970
 1992SOL    HW2 6876   2.916   6.967   5.979
 1993SOL     OW 6877   3.870   3.705   5.627
 1993SOL    HW1 6878   3.825   3.636   5.570
 1993SOL    HW2 6879   3.814   3.788   5.629
 1994SOL     OW 6880   0.805   2.134   2.291
 1994SOL    HW1 6881   0.890   2.082   2.299
 1994SOL    HW2 6882   0.792   2.190   2.372
 1995SOL     OW 6883   6.332   2.230   2.280
 1995SOL    HW1 6884   6.336   2.196   2.186
 1995SOL    HW2 6885   6.263   2.302   2.287
 1996SOL     OW 6886   3.033   2.832   1.380
 1996SOL    HW1 6887   3.118   2.883   1.365
 1996SOL    HW2 6888   3.055   2.739   1.409
 1997SOL     OW 6889   5.114   0.916   5.728
 1997SOL    HW1 6890   5.126   1.008   5.690
 1997SOL    HW2 6891   5.098   0.923   5.827
 1998SOL     OW 6892   3.096   3.769   6.214
 1998SOL    HW1 6893   3.139   3.683   6.185
 1998SOL    HW2 6894   3.002   3.773   6.182
 1999SOL     OW 6895   2.752   0.437   1.845
 1999SOL    HW1 6896   2.670   0.425   1.789
 1999SOL    HW2 6897   2.784   0.531   1.837
 2000SOL     OW 6898   3.933   1.812   5.104
 2000SOL    HW1 6899   3.966   1.756   5.179
 2000SOL    HW2 6900   3.873   1.757   5.046
 2001SOL     OW 6901   3.472   2.295   1.681
 2001SOL    HW1 6902   3.568   2.293   1.707
 2001SOL    HW2 6903   3.429   2.378   1.717
 2002SOL     OW 6904   1.407   6.048   6.439
 2002SOL    HW1 6905   1.335   6.117   6.447
 2002SOL    HW2 6906   1.367   5.957   6.445
 2003SOL     OW 6907   4.510   0.056   4.045
 2003SOL    HW1 6908   4.533   0.012   4.132
 2003SOL    HW2 6909   4.588   0.108   4.011
 2004SOL     OW 6910   5.332   1.125   4.683
 2004SOL    HW1 6911   5.236   1.099   4.693
 2004SOL    HW2 6912   5.349   1.210   4.733
 2005SOL     OW 6913   1.694   5.985   6.987
 2005SOL    HW1 6914   1.665   6.016   0.051
 2005SOL    HW2 6915   1.735   5.894   6.994
 2006SOL     OW 6916   5.085   4.571   3.697
 2006SOL    HW1 6917   5.015   4.531   3.756
 2006SOL    HW2 6918   5.053   4.658   3.661
 2007SOL     OW 6919   4.786   5.720   0.787
 2007SOL    HW1 6920   4.703   5.718   0.842
 2007SOL    HW2 6921   4.793   5.808   0.741
 2008SOL     OW 6922   0.367   5.769   3.950
 2008SOL    HW1 6923   0.350   5.749   4.047
 2008SOL    HW2 6924   0.290   5.820   3.912
 2009SOL     OW 6925   6.567   0.329   1.702
 2009SOL    HW1 6926   6.540   0.330   1.606
 2009SOL    HW2 6927   6.658   0.370   1.711
 2010SOL     OW 6928   1.760   1.119   0.941
 2010SOL    HW1 6929   1.725   1.031   0.910
 2010SOL    HW2 6930   1.684   1.177   0.969
 2011SOL     OW 6931   6.419   2.468   5.036
 2011SOL    HW1 6932   6.491   2.537   5.036
 2011SOL    HW2 6933   6.459   2.378   5.053
 2012SOL     OW 6934   0.478   3.565   1.359
 2012SOL    HW1 6935   0.431   3.638   1.310
 2012SOL    HW2 6936   0.410   3.503   1.398
 2013SOL     OW 6937   5.789   1.084   3.148
 2013SOL    HW1 6938   5.792   1.150   3.223
 2013SOL    HW2 6939   5.808   1.130   3.062
 2014SOL     OW 6940   1.158   5.356   3.454
 2014SOL    HW1 6941   1.080   5.417   3.471
 2014SOL    HW2 6942   1.238   5.389   3.504
 2015SOL     OW 6943   2.903   1.471   6.789
 2015SOL    HW1 6944   2.865   1.449   6.879
 2015SOL    HW2 6945   2.943   1.389   6.749
 2016SOL     OW 6946   0.354   5.931   4.856
 2016SOL    HW1 6947   0.319   5.867   4.788
 2016SOL    HW2 6948   0.365   5.884   4.944
 2017SOL     OW 6949   3.378   6.908   3.494
 2017SOL    HW1 6950   3.307   6.974   3.469
 2017SOL    HW2 6951   3.428   6.879   3.412
 2018SOL     OW 6952   6.823   5.876   5.543
 2018SOL    HW1 6953   6.774   5.950   5.497
 2018SOL    HW2 6954   6.758   5.804   5.568
 2019SOL     OW 6955   5.101   3.027   1.876
 2019SOL    HW1 6956   5.061   3.087   1.945
 2019SOL    HW2 6957   5.165   2.964   1.920
 2020SOL     OW 6958   1.398   5.681   5.149
 2020SOL    HW1 6959   1.451   5.626   5.213
 2020SOL    HW2 6960   1.311   5.636   5.130
 2021SOL     OW 6961   2.275   6.909   3.170
 2021SOL    HW1 6962   2.260   6.854   3.088
 2021SOL    HW2 6963   2.372   6.933   3.177
 2022SOL     OW 6964   1.832   3.665   1.965
 2022SOL    HW1 6965   1.925   3.685   1.936
 2022SOL    HW2 6966   1.774   3.649   1.885
 2023SOL     OW 6967   0.303   1.999   0.349
 2023SOL    HW1 6968   0.311   2.061   0.272
 2023SOL    HW2 6969   0.230   1.932   0.332
 2024SOL     OW 6970   0.011   0.788   2.668
 2024SOL    HW1 6971   0.080   0.847   2.626
 2024SOL    HW2 6972   6.949   0.835   2.668
 2025SOL     OW 6973   1.398   2.353   1.660
 2025SOL    HW1 6974   1.465   2.285   1.689
 2025SOL    HW2 6975   1.334   2.311   1.596
 2026SOL     OW 6976   1.721   2.220   5.999
 2026SOL    HW1 6977   1.793   2.251   6.061
 2026SOL    HW2 6978   1.637   2.202   6.050
 2027SOL     OW 6979   0.994   1.505   1.070
 2027SOL    HW1 6980   1.063   1.559   1.022
 2027SOL    HW2 6981   1.020   1.409   1.068
 2028SOL     OW 6982   3.109   1.464   0.334
 2028SOL    HW1 6983   3.106   1.500   0.428
 2028SOL    HW2 6984   3.204   1.456   0.305
 2029SOL     OW 6985   0.442   0.192   6.808
 2029SOL    HW1 6986   0.388   0.276   6.813
 2029SOL    HW2 6987   0.441   0.146   6.897
 2030SOL     OW 6988   1.573   2.105   3.315
 2030SOL    HW1 6989   1.665   2.134   3.343
 2030SOL    HW2 6990   1.581   2.037   3.241
 2031SOL     OW 6991   5.340   6.159   2.300
 2031SOL    HW1 6992   5.386   6.195   2.218
 2031SOL    HW2 6993   5.402   6.167   2.378
 2032SOL     OW 6994   5.611   5.886   1.171
 2032SOL    HW1 6995   5.662   5.821   1.226
 2032SOL    HW2 6996   5.635   5.875   1.075
 2033SOL     OW 6997   4.109   4.253   6.863
 2033SOL    HW1 6998   4.116   4.234   6.765
 2033SOL    HW2 6999   4.079   4.348   6.876
 2034SOL     OW 7000   1.893   6.718   3.722
 2034SOL    HW1 7001   1.830   6.683   3.653
 2034SOL    HW2 7002   1.941   6.642   3.765
 2035SOL     OW 7003   6.889   1.710   2.928
 2035SOL    HW1 7004   6.790   1.707   2.935
 2035SOL    HW2 7005   6.924   1.622   2.896
 2036SOL     OW 7006   0.153   5.798   2.059
 2036SOL    HW1 7007   0.069   5.767   2.014
 2036SOL    HW2 7008   0.201   5.863   2.000
 2037SOL     OW 7009   6.383   2.168   5.925
 2037SOL    HW1 7010   6.366   2.171   6.023
 2037SOL    HW2 7011   6.475   2.133   5.908
 2038SOL     OW 7012   0.538   1.877   0.009
 2038SOL    HW1 7013   0.632   1.867   7.003
 2038SOL    HW2 7014   0.520   1.812   0.083
 2039SOL     OW 7015   0.282   5.821   3.302
 2039SOL    HW1 7016   0.188   5.831   3.272
 2039SOL    HW2 7017   0.290   5.850   3.397
 2040SOL     OW 7018   3.320   2.824   5.130
 2040SOL    HW1 7019   3.297   2.779   5.044
 2040SOL    HW2 7020   3.273   2.779   5.205
 2041SOL     OW 7021   6.612   5.847   6.621
 2041SOL    HW1 7022   6.614   5.778   6.548
 2041SOL    HW2 7023   6.519   5.856   6.656
 2042SOL     OW 7024   5.665   5.300   6.667
 2042SOL    HW1 7025   5.657   5.223   6.730
 2042SOL    HW2 7026   5.697   5.381   6.717
 2043SOL     OW 7027   6.409   5.156   2.280
 2043SOL    HW1 7028   6.459   5.225   2.228
 2043SOL    HW2 7029   6.316   5.189   2.299
 2044SOL     OW 7030   4.997   0.548   2.236
 2044SOL    HW1 7031   4.974   0.583   2.327
 2044SOL    HW2 7032   4.953   0.604   2.166
 2045SOL     OW 7033   1.823   4.503   5.088
 2045SOL    HW1 7034   1.915   4.503   5.049
 2045SOL    HW2 7035   1.759   4.540   5.020
 2046SOL     OW 7036   0.097   0.637   4.020
 2046SOL    HW1 7037   0.033   0.561   4.022
 2046SOL    HW2 7038   0.083   0.695   4.101
 2047SOL     OW 7039   4.201   1.813   0.513
 2047SOL    HW1 7040   4.289   1.805   0.465
 2047SOL    HW2 7041   4.196   1.902   0.559
 2048SOL     OW 7042   4.317   6.050   6.911
 2048SOL    HW1 7043   4.217   6.044   6.905
 2048SOL    HW2 7044   4.350   5.985   6.980
 2049SOL     OW 7045   4.557   2.110   6.515
 2049SOL    HW1 7046   4.488   2.092   6.444
 2049SOL    HW2 7047   4.564   2.209   6.530
 2050SOL     OW 7048   5.988   2.912   3.770
 2050SOL    HW1 7049   5.957   3.006   3.757
 2050SOL    HW2 7050   6.086   2.912   3.789
 2051SOL     OW 7051   6.647   4.711   6.819
 2051SOL    HW1 7052   6.592   4.763   6.755
 2051SOL    HW2 7053   6.701   4.643   6.770
 2052SOL     OW 7054   0.177   3.373   0.080
 2052SOL    HW1 7055   0.245   3.331   0.020
 2052SOL    HW2 7056   0.085   3.347   0.051
 2053SOL     OW 7057   6.263   0.554   0.883
 2053SOL    HW1 7058   6.316   0.609   0.818
 2053SOL    HW2 7059   6.210   0.614   0.943
 2054SOL     OW 7060   5.434   2.828   1.533
 2054SOL    HW1 7061   5.344   2.850   1.572
 2054SOL    HW2 7062   5.452   2.731   1.544
 2055SOL     OW 7063   6.082   3.216   3.054
 2055SOL    HW1 7064   6.039   3.238   3.142
 2055SOL    HW2 7065   6.045   3.276   2.983
 2056SOL     OW 7066   2.093   1.467   2.281
 2056SOL    HW1 7067   2.181   1.419   2.277
 2056SOL    HW2 7068   2.081   1.520   2.197
 2057SOL     OW 7069   5.477   2.300   3.799
 2057SOL    HW1 7070   5.561   2.353   3.807
 2057SOL    HW2 7071   5.480   2.244   3.717
 2058SOL     OW 7072   1.113   1.506   3.220
 2058SOL    HW1 7073   1.148   1.424   3.265
 2058SOL    HW2 7074   1.070   1.482   3.134
 2059SOL     OW 7075   2.478   6.422   6.330
 2059SOL    HW1 7076   2.396   6.435   6.385
 2059SOL    HW2 7077   2.476   6.484   6.252
 2060SOL     OW 7078   6.490   4.411   0.978
 2060SOL    HW1 7079   6.553   4.339   1.006
 2060SOL    HW2 7080   6.456   4.459   1.059
 2061SOL     OW 7081   0.976   1.839   3.039
 2061SOL    HW1 7082   0.908   1.765   3.046
 2061SOL    HW2 7083   0.930   1.926   3.026
 2062SOL     OW 7084   5.490   0.679   3.282
 2062SOL    HW1 7085   5.542   0.609   3.233
 2062SOL    HW2 7086   5.528   0.769   3.264
 2063SOL     OW 7087   0.799   1.092   6.675
 2063SOL    HW1 7088   0.735   1.112   6.600
 2063SOL    HW2 7089   0.847   1.176   6.701
 2064SOL     OW 7090   0.654   1.726   5.339
 2064SOL    HW1 7091   0.674   1.823   5.320
 2064SOL    HW2 7092   0.686   1.670   5.262
 2065SOL     OW 7093   6.353   4.018   2.181
 2065SOL    HW1 7094   6.451   4.035   2.195
 2065SOL    HW2 7095   6.320   3.957   2.253
 2066SOL     OW 7096   0.992   6.245   4.643
 2066SOL    HW1 7097   1.070   6.235   4.705
 2066SOL    HW2 7098   1.017   6.306   4.568
 2067SOL     OW 7099   0.507   6.464   0.581
 2067SOL    HW1 7100   0.560   6.427   0.505
 2067SOL    HW2 7101   0.430   6.517   0.545
 2068SOL     OW 7102   1.194   1.425   5.773
 2068SOL    HW1 7103   1.279   1.401   5.821
 2068SOL    HW2 7104   1.213   1.439   5.676
 2069SOL     OW 7105   0.737   2.616   3.767
 2069SOL    HW1 7106   0.753   2.524   3.731
 2069SOL    HW2 7107   0.644   2.620   3.805
 2070SOL     OW 7108   1.972   6.836   2.202
 2070SOL    HW1 7109   2.039   6.786   2.256
 2070SOL    HW2 7110   2.019   6.887   2.129
 2071SOL     OW 7111   0.044   6.457   4.657
 2071SOL    HW1 7112   0.075   6.546   4.624
 2071SOL    HW2 7113   0.057   6.451   4.756
 2072SOL     OW 7114   4.545   6.724   1.873
 2072SOL    HW1 7115   4.486   6.740   1.952
 2072SOL    HW2 7116   4.539   6.628   1.846
 2073SOL     OW 7117   3.652   6.944   4.718
 2073SOL    HW1 7118   3.617   6.996   4.640
 2073SOL    HW2 7119   3.578   6.895   4.762
 2074SOL     OW 7120   0.786   2.589   6.696
 2074SOL    HW1 7121   0.825   2.643   6.621
 2074SOL    HW2 7122   0.859   2.549   6.751
 2075SOL     OW 7123   5.067   2.449   1.433
 2075SOL    HW1 7124   4.988   2.387   1.438
 2075SOL    HW2 7125   5.071   2.491   1.343
 2076SOL     OW 7126   5.241   6.162   6.979
 2076SOL    HW1 7127   5.203   6.095   6.914
 2076SOL    HW2 7128   5.283   6.114   0.029
 2077SOL     OW 7129   4.849   2.713   2.119
 2077SOL    HW1 7130   4.784   2.643   2.149
 2077SOL    HW2 7131   4.800   2.799   2.106
 2078SOL     OW 7132   2.342   5.975   6.387
 2078SOL    HW1 7133   2.400   6.048   6.350
 2078SOL    HW2 7134   2.270   5.954   6.321
 2079SOL     OW 7135   6.224   1.280   3.571
 2079SOL    HW1 7136   6.153   1.327   3.624
 2079SOL    HW2 7137   6.188   1.260   3.479
 2080SOL     OW 7138   1.811   1.561   4.883
 2080SOL    HW1 7139   1.818   1.584   4.786
 2080SOL    HW2 7140   1.898   1.526   4.916
 2081SOL     OW 7141   1.824   5.755   4.737
 2081SOL    HW1 7142   1.911   5.803   4.726
 2081SOL    HW2 7143   1.778   5.788   4.819
 2082SOL     OW 7144   6.548   7.012   2.403
 2082SOL    HW1 7145   6.496   0.070   2.411
 2082SOL    HW2 7146   6.540   6.976   2.310
 2083SOL     OW 7147   4.215   4.126   6.175
 2083SOL    HW1 7148   4.140   4.131   6.240
 2083SOL    HW2 7149   4.242   4.031   6.163
 2084SOL     OW 7150   0.044   4.367   3.991
 2084SOL    HW1 7151   6.977   4.360   3.954
 2084SOL    HW2 7152   0.069   4.463   4.002
 2085SOL     OW 7153   5.357   0.887   0.094
 2085SOL    HW1 7154   5.264   0.881   0.132
 2085SOL    HW2 7155   5.374   0.981   0.063
 2086SOL     OW 7156   3.124   6.091   6.018
 2086SOL    HW1 7157   3.169   6.158   5.958
 2086SOL    HW2 7158   3.159   6.000   5.998
 2087SOL     OW 7159   4.706   0.072   1.863
 2087SOL    HW1 7160   4.654   0.058   1.947
 2087SOL    HW2 7161   4.654   0.039   1.785
 2088SOL     OW 7162   2.399   5.300   0.730
 2088SOL    HW1 7163   2.494   5.287   0.700
 2088SOL    HW2 7164   2.359   5.211   0.753
 2089SOL     OW 7165   4.014   1.301   0.001
 2089SOL    HW1 7166   4.004   1.205   7.005
 2089SOL    HW2 7167   3.924   1.342   0.017
 2090SOL     OW 7168   4.159   3.603   4.872
 2090SOL    HW1 7169   4.102   3.676   4.833
 2090SOL    HW2 7170   4.225   3.644   4.934
 2091SOL     OW 7171   0.290   5.906   7.004
 2091SOL    HW1 7172   0.250   5.839   0.040
 2091SOL    HW2 7173   0.235   5.912   6.921
 2092SOL     OW 7174   5.234   5.625   0.601
 2092SOL    HW1 7175   5.313   5.625   0.662
 2092SOL    HW2 7176   5.249   5.690   0.526
 2093SOL     OW 7177   1.587   2.200   1.732
 2093SOL    HW1 7178   1.613   2.120   1.678
 2093SOL    HW2 7179   1.653   2.274   1.715
 2094SOL     OW 7180   5.684   1.768   1.530
 2094SOL    HW1 7181   5.624   1.846   1.548
 2094SOL    HW2 7182   5.689   1.751   1.431
 2095SOL     OW 7183   5.712   0.343   4.294
 2095SOL    HW1 7184   5.718   0.245   4.312
 2095SOL    HW2 7185   5.746   0.363   4.202
 2096SOL     OW 7186   4.859   4.020   2.911
 2096SOL    HW1 7187   4.945   4.068   2.895
 2096SOL    HW2 7188   4.801   4.026   2.830
 2097SOL     OW 7189   1.143   2.820   0.255
 2097SOL    HW1 7190   1.173   2.725   0.267
 2097SOL    HW2 7191   1.216   2.873   0.213
 2098SOL     OW 7192   4.146   5.700   3.211
 2098SOL    HW1 7193   4.223   5.722   3.150
 2098SOL    HW2 7194   4.181   5.654   3.293
 2099SOL     OW 7195   2.534   2.523   4.927
 2099SOL    HW1 7196   2.530   2.623   4.917
 2099SOL    HW2 7197   2.442   2.485   4.922
 2100SOL     OW 7198   3.828   3.092   5.852
 2100SOL    HW1 7199   3.901   3.144   5.808
 2100SOL    HW2 7200   3.747   3.150   5.863
 2101SOL     OW 7201   1.591   6.565   2.543
 2101SOL    HW1 7202   1.589   6.639   2.475
 2101SOL    HW2 7203   1.522   6.497   2.520
 2102SOL     OW 7204   0.566   5.542   1.945
 2102SOL    HW1 7205   0.511   5.492   1.879
 2102SOL    HW2 7206   0.551   5.505   2.037
 2103SOL     OW 7207   3.155   3.483   6.147
 2103SOL    HW1 7208   3.063   3.453   6.174
 2103SOL    HW2 7209   3.169   3.462   6.050
 2104SOL     OW 7210   0.926   3.628   6.759
 2104SOL    HW1 7211   1.001   3.694   6.761
 2104SOL    HW2 7212   0.882   3.629   6.669
 2105SOL     OW 7213   5.060   5.049   4.213
 2105SOL    HW1 7214   5.158   5.030   4.217
 2105SOL    HW2 7215   5.015   4.977   4.160
 2106SOL     OW 7216   4.236   4.755   0.381
 2106SOL    HW1 7217   4.278   4.704   0.306
 2106SOL    HW2 7218   4.236   4.853   0.359
 2107SOL     OW 7219   4.341   2.672   5.671
 2107SOL    HW1 7220   4.314   2.738   5.742
 2107SOL    HW2 7221   4.381   2.591   5.714
 2108SOL     OW 7222   0.280   6.310   5.749
 2108SOL    HW1 7223   0.268   6.275   5.842
 2108SOL    HW2 7224   0.198   6.291   5.696
 2109SOL     OW 7225   4.918   6.889   3.421
 2109SOL    HW1 7226   4.877   6.852   3.504
 2109SOL    HW2 7227   4.847   6.909   3.354
 2110SOL     OW 7228   3.084   3.245   5.842
 2110SOL    HW1 7229   3.034   3.206   5.920
 2110SOL    HW2 7230   3.031   3.231   5.759
 2111SOL     OW 7231   0.872   2.031   6.542
 2111SOL    HW1 7232   0.903   1.938   6.557
 2111SOL    HW2 7233   0.889   2.086   6.623
 2112SOL     OW 7234   4.241   2.129   1.148
 2112SOL    HW1 7235   4.292   2.108   1.232
 2112SOL    HW2 7236   4.286   2.204   1.100
 2113SOL     OW 7237   1.505   0.627   4.324
 2113SOL    HW1 7238   1.442   0.616   4.400
 2113SOL    HW2 7239   1.583   0.683   4.352
 2114SOL     OW 7240   1.558   2.871   0.587
 2114SOL    HW1 7241   1.647   2.832   0.611
 2114SOL    HW2 7242   1.487   2.827   0.641
 2115SOL     OW 7243   2.151   4.119   2.577
 2115SOL    HW1 7244   2.199   4.135   2.491
 2115SOL    HW2 7245   2.073   4.182   2.584
 2116SOL     OW 7246   6.909   4.659   3.397
 2116SOL    HW1 7247   6.945   4.661   3.304
 2116SOL    HW2 7248   6.837   4.728   3.407
 2117SOL     OW 7249   0.160   4.699   1.170
 2117SOL    HW1 7250   0.164   4.732   1.076
 2117SOL    HW2 7251   0.065   4.695   1.200
 2118SOL     OW 7252   0.055   3.857   2.172
 2118SOL    HW1 7253   0.019   3.859   2.079
 2118SOL    HW2 7254   7.011   3.887   2.236
 2119SOL     OW 7255   2.415   5.357   1.099
 2119SOL    HW1 7256   2.385   5.452   1.090
 2119SOL    HW2 7257   2.503   5.354   1.146
 2120SOL     OW 7258   0.167   5.143   3.951
 2120SOL    HW1 7259   0.163   5.044   3.962
 2120SOL    HW2 7260   0.212   5.184   4.030
 2121SOL     OW 7261   0.697   4.807   5.875
 2121SOL    HW1 7262   0.699   4.735   5.806
 2121SOL    HW2 7263   0.766   4.789   5.945
 2122SOL     OW 7264   6.167   4.071   5.553
 2122SOL    HW1 7265   6.216   4.094   5.469
 2122SOL    HW2 7266   6.077   4.033   5.530
 2123SOL     OW 7267   0.095   4.917   1.974
 2123SOL    HW1 7268   0.003   4.956   1.969
 2123SOL    HW2 7269   0.095   4.824   1.937
 2124SOL     OW 7270   2.298   1.580   1.722
 2124SOL    HW1 7271   2.374   1.636   1.691
 2124SOL    HW2 7272   2.228   1.575   1.651
 2125SOL     OW 7273   1.762   0.411   0.407
 2125SOL    HW1 7274   1.783   0.421   0.309
 2125SOL    HW2 7275   1.742   0.500   0.446
 2126SOL     OW 7276   2.863   1.147   1.300
 2126SOL    HW1 7277   2.887   1.054   1.272
 2126SOL    HW2 7278   2.942   1.189   1.347
 2127SOL     OW 7279   6.357   3.278   4.138
 2127SOL    HW1 7280   6.323   3.350   4.078
 2127SOL    HW2 7281   6.398   3.319   4.220
 2128SOL     OW 7282   6.541   3.973   4.617
 2128SOL    HW1 7283   6.504   3.906   4.682
 2128SOL    HW2 7284   6.632   3.943   4.588
 2129SOL     OW 7285   4.645   2.908   5.305
 2129SOL    HW1 7286   4.566   2.860   5.344
 2129SOL    HW2 7287   4.669   2.865   5.218
 2130SOL     OW 7288   4.148   0.029   2.655
 2130SOL    HW1 7289   4.230   7.019   2.700
 2130SOL    HW2 7290   4.175   0.085   2.577
 2131SOL     OW 7291   6.697   0.912   1.264
 2131SOL    HW1 7292   6.703   0.922   1.164
 2131SOL    HW2 7293   6.756   0.980   1.307
 2132SOL     OW 7294   4.268   2.333   1.597
 2132SOL    HW1 7295   4.205   2.256   1.581
 2132SOL    HW2 7296   4.321   2.350   1.514
 2133SOL     OW 7297   2.413   2.924   5.946
 2133SOL    HW1 7298   2.423   2.968   5.856
 2133SOL    HW2 7299   2.370   2.834   5.934
 2134SOL     OW 7300   0.260   2.645   0.685
 2134SOL    HW1 7301   0.174   2.689   0.661
 2134SOL    HW2 7302   0.291   2.677   0.775
 2135SOL     OW 7303   1.076   3.909   4.828
 2135SOL    HW1 7304   1.080   3.810   4.814
 2135SOL    HW2 7305   1.143   3.954   4.769
 2136SOL     OW 7306   2.178   4.684   2.803
 2136SOL    HW1 7307   2.220   4.640   2.724
 2136SOL    HW2 7308   2.212   4.642   2.887
 2137SOL     OW 7309   2.819   5.471   5.404
 2137SOL    HW1 7310   2.761   5.487   5.324
 2137SOL    HW2 7311   2.825   5.372   5.421
 2138SOL     OW 7312   6.468   6.996   2.884
 2138SOL    HW1 7313   6.515   6.954   2.806
 2138SOL    HW2 7314   6.479   6.938   2.964
 2139SOL     OW 7315   4.378   0.603   4.037
 2139SOL    HW1 7316   4.370   0.538   3.962
 2139SOL    HW2 7317   4.287   0.621   4.076
 2140SOL     OW 7318   2.716   6.463   4.220
 2140SOL    HW1 7319   2.796   6.433   4.169
 2140SOL    HW2 7320   2.633   6.445   4.166
 2141SOL     OW 7321   6.559   2.809   2.423
 2141SOL    HW1 7322   6.544   2.831   2.519
 2141SOL    HW2 7323   6.641   2.855   2.390
 2142SOL     OW 7324   0.667   1.591   3.331
 2142SOL    HW1 7325   0.690   1.494   3.339
 2142SOL    HW2 7326   0.691   1.639   3.415
 2143SOL     OW 7327   2.658   5.065   1.405
 2143SOL    HW1 7328   2.731   5.001   1.378
 2143SOL    HW2 7329   2.593   5.018   1.464
 2144SOL     OW 7330   0.764   5.576   4.868
 2144SOL    HW1 7331   0.859   5.606   4.856
 2144SOL    HW2 7332   0.717   5.577   4.780
 2145SOL     OW 7333   3.896   6.322   4.647
 2145SOL    HW1 7334   3.897   6.306   4.548
 2145SOL    HW2 7335   3.805   6.351   4.675
 2146SOL     OW 7336   2.237   2.445   1.202
 2146SOL    HW1 7337   2.139   2.454   1.187
 2146SOL    HW2 7338   2.253   2.402   1.291
 2147SOL     OW 7339   6.075   1.245   6.696
 2147SOL    HW1 7340   5.993   1.197   6.727
 2147SOL    HW2 7341   6.146   1.238   6.766
 2148SOL     OW 7342   6.212   3.385   6.423
 2148SOL    HW1 7343   6.304   3.371   6.387
 2148SOL    HW2 7344   6.169   3.461   6.374
 2149SOL     OW 7345   1.777   1.435   1.172
 2149SOL    HW1 7346   1.771   1.486   1.086
 2149SOL    HW2 7347   1.866   1.391   1.178
 2150SOL     OW 7348   2.153   2.426   1.944
 2150SOL    HW1 7349   2.241   2.394   1.980
 2150SOL    HW2 7350   2.125   2.509   1.992
 2151SOL     OW 7351   1.223   6.231   6.491
 2151SOL    HW1 7352   1.159   6.220   6.567
 2151SOL    HW2 7353   1.176   6.276   6.415
 2152SOL     OW 7354   4.514   4.431   2.586
 2152SOL    HW1 7355   4.578   4.365   2.547
 2152SOL    HW2 7356   4.435   4.383   2.624
 2153SOL     OW 7357   4.588   2.010   2.054
 2153SOL    HW1 7358   4.660   1.959   2.007
 2153SOL    HW2 7359   4.619   2.034   2.146
 2154SOL     OW 7360   3.611   0.417   4.208
 2154SOL    HW1 7361   3.602   0.474   4.126
 2154SOL    HW2 7362   3.545   0.343   4.204
 2155SOL     OW 7363   3.919   0.165   0.986
 2155SOL    HW1 7364   3.954   0.258   0.974
 2155SOL    HW2 7365   3.888   0.129   0.898
 2156SOL     OW 7366   0.106   0.094   4.774
 2156SOL    HW1 7367   0.040   0.169   4.775
 2156SOL    HW2 7368   0.138   0.080   4.680
 2157SOL     OW 7369   5.229   6.171   3.629
 2157SOL    HW1 7370   5.181   6.222   3.700
 2157SOL    HW2 7371   5.287   6.234   3.577
 2158SOL     OW 7372   4.137   5.856   0.389
 2158SOL    HW1 7373   4.137   5.932   0.324
 2158SOL    HW2 7374   4.052   5.858   0.443
 2159SOL     OW 7375   1.332   0.397   5.020
 2159SOL    HW1 7376   1.418   0.427   5.063
 2159SOL    HW2 7377   1.293   0.473   4.968
 2160SOL     OW 7378   5.162   4.672   6.934
 2160SOL    HW1 7379   5.246   4.619   6.922
 2160SOL    HW2 7380   5.157   4.742   6.862
 2161SOL     OW 7381   6.539   4.502   1.765
 2161SOL    HW1 7382   6.499   4.452   1.841
 2161SOL    HW2 7383   6.579   4.587   1.799
 2162SOL     OW 7384   2.957   0.092   2.666
 2162SOL    HW1 7385   2.933   0.066   2.573
 2162SOL    HW2 7386   2.902   0.039   2.731
 2163SOL     OW 7387   1.314   4.778   0.522
 2163SOL    HW1 7388   1.272   4.815   0.604
 2163SOL    HW2 7389   1.369   4.698   0.545
 2164SOL     OW 7390   2.459   2.132   6.722
 2164SOL    HW1 7391   2.508   2.122   6.636
 2164SOL    HW2 7392   2.523   2.158   6.794
 2165SOL     OW 7393   0.298   2.353   3.881
 2165SOL    HW1 7394   0.397   2.355   3.894
 2165SOL    HW2 7395   0.260   2.271   3.923
 2166SOL     OW 7396   0.555   3.537   4.089
 2166SOL    HW1 7397   0.644   3.568   4.054
 2166SOL    HW2 7398   0.566   3.506   4.183
 2167SOL     OW 7399   0.375   3.387   3.949
 2167SOL    HW1 7400   0.300   3.363   4.011
 2167SOL    HW2 7401   0.443   3.441   3.997
 2168SOL     OW 7402   0.943   1.436   2.965
 2168SOL    HW1 7403   0.969   1.472   2.875
 2168SOL    HW2 7404   0.955   1.336   2.966
 2169SOL     OW 7405   6.269   0.777   1.344
 2169SOL    HW1 7406   6.222   0.863   1.364
 2169SOL    HW2 7407   6.339   0.760   1.414
 2170SOL     OW 7408   0.006   4.091   5.238
 2170SOL    HW1 7409   6.947   4.067   5.192
 2170SOL    HW2 7410   0.068   4.013   5.235
 2171SOL     OW 7411   1.145   5.427   1.485
 2171SOL    HW1 7412   1.190   5.418   1.574
 2171SOL    HW2 7413   1.120   5.336   1.451
 2172SOL     OW 7414   2.379   2.252   5.884
 2172SOL    HW1 7415   2.402   2.325   5.820
 2172SOL    HW2 7416   2.449   2.180   5.880
 2173SOL     OW 7417   4.672   0.418   5.258
 2173SOL    HW1 7418   4.689   0.470   5.342
 2173SOL    HW2 7419   4.659   0.482   5.182
 2174SOL     OW 7420   6.794   6.272   4.801
 2174SOL    HW1 7421   6.797   6.336   4.724
 2174SOL    HW2 7422   6.803   6.178   4.767
 2175SOL     OW 7423   1.528   3.531   4.468
 2175SOL    HW1 7424   1.547   3.613   4.523
 2175SOL    HW2 7425   1.603   3.466   4.478
 2176SOL     OW 7426   5.313   1.918   1.467
 2176SOL    HW1 7427   5.371   1.905   1.387
 2176SOL    HW2 7428   5.371   1.929   1.548
 2177SOL     OW 7429   7.017   0.300   2.240
 2177SOL    HW1 7430   6.952   0.324   2.313
 2177SOL    HW2 7431   7.013   0.202   2.222
 2178SOL     OW 7432   1.713   1.046   1.681
 2178SOL    HW1 7433   1.734   1.020   1.775
 2178SOL    HW2 7434   1.748   1.138   1.664
 2179SOL     OW 7435   2.189   3.826   6.187
 2179SOL    HW1 7436   2.153   3.916   6.210
 2179SOL    HW2 7437   2.137   3.755   6.235
 2180SOL     OW 7438   1.305   2.868   2.331
 2180SOL    HW1 7439   1.303   2.938   2.259
 2180SOL    HW2 7440   1.213   2.860   2.371
 2181SOL     OW 7441   4.107   5.166   3.856
 2181SOL    HW1 7442   4.174   5.231   3.893
 2181SOL    HW2 7443   4.138   5.135   3.766
 2182SOL     OW 7444   1.113   5.066   3.913
 2182SOL    HW1 7445   1.158   5.085   4.000
 2182SOL    HW2 7446   1.150   5.128   3.843
 2183SOL     OW 7447   2.173   4.120   0.455
 2183SOL    HW1 7448   2.155   4.048   0.389
 2183SOL    HW2 7449   2.237   4.187   0.415
 2184SOL     OW 7450   4.094   6.761   6.036
 2184SOL    HW1 7451   4.086   6.758   5.936
 2184SOL    HW2 7452   4.174   6.815   6.061
 2185SOL     OW 7453   0.689   1.253   6.930
 2185SOL    HW1 7454   0.789   1.249   6.931
 2185SOL    HW2 7455   0.660   1.344   6.960
 2186SOL     OW 7456   6.872   5.933   6.727
 2186SOL    HW1 7457   6.778   5.901   6.713
 2186SOL    HW2 7458   6.936   5.865   6.692
 2187SOL     OW 7459   0.358   5.816   2.376
 2187SOL    HW1 7460   0.446   5.769   2.378
 2187SOL    HW2 7461   0.369   5.905   2.331
 2188SOL     OW 7462   1.690   5.567   5.543
 2188SOL    HW1 7463   1.777   5.616   5.544
 2188SOL    HW2 7464   1.705   5.473   5.576
 2189SOL     OW 7465   1.230   6.763   1.476
 2189SOL    HW1 7466   1.298   6.697   1.445
 2189SOL    HW2 7467   1.252   6.794   1.569
 2190SOL     OW 7468   6.504   3.042   1.366
 2190SOL    HW1 7469   6.594   3.005   1.346
 2190SOL    HW2 7470   6.483   3.030   1.463
 2191SOL     OW 7471   2.166   1.837   5.335
 2191SOL    HW1 7472   2.260   1.810   5.353
 2191SOL    HW2 7473   2.138   1.906   5.402
 2192SOL     OW 7474   5.336   0.746   3.056
 2192SOL    HW1 7475   5.273   0.823   3.056
 2192SOL    HW2 7476   5.366   0.727   3.150
 2193SOL     OW 7477   6.780   0.311   6.134
 2193SOL    HW1 7478   6.681   0.302   6.128
 2193SOL    HW2 7479   6.807   0.404   6.110
 2194SOL     OW 7480   1.989   4.007   6.765
 2194SOL    HW1 7481   1.928   4.051   6.830
 2194SOL    HW2 7482   2.018   4.074   6.696
 2195SOL     OW 7483   6.811   6.611   5.270
 2195SOL    HW1 7484   6.749   6.590   5.194
 2195SOL    HW2 7485   6.821   6.710   5.279
 2196SOL     OW 7486   3.166   6.826   4.302
 2196SOL    HW1 7487   3.233   6.839   4.375
 2196SOL    HW2 7488   3.074   6.824   4.341
 2197SOL     OW 7489   3.211   3.466   5.864
 2197SOL    HW1 7490   3.185   3.551   5.818
 2197SOL    HW2 7491   3.145   3.395   5.841
 2198SOL     OW 7492   5.993   0.485   1.711
 2198SOL    HW1 7493   6.070   0.546   1.695
 2198SOL    HW2 7494   5.911   0.540   1.728
 2199SOL     OW 7495   5.188   6.885   3.888
 2199SOL    HW1 7496   5.143   6.964   3.847
 2199SOL    HW2 7497   5.200   6.901   3.986
 2200SOL     OW 7498   2.432   1.576   4.075
 2200SOL    HW1 7499   2.462   1.669   4.100
 2200SOL    HW2 7500   2.420   1.522   4.158
 2201SOL     OW 7501   6.202   2.736   2.809
 2201SOL    HW1 7502   6.247   2.669   2.750
 2201SOL    HW2 7503   6.128   2.781   2.759
 2202SOL     OW 7504   3.685   5.930   1.741
 2202SOL    HW1 7505   3.623   5.932   1.663
 2202SOL    HW2 7506   3.654   5.862   1.807
 2203SOL     OW 7507   2.669   3.362   1.353
 2203SOL    HW1 7508   2.633   3.270   1.344
 2203SOL    HW2 7509   2.610   3.426   1.303
 2204SOL     OW 7510   4.236   2.735   1.133
 2204SOL    HW1 7511   4.157   2.672   1.136
 2204SOL    HW2 7512   4.275   2.734   1.041
 2205SOL     OW 7513   1.321   0.276   6.912
 2205SOL    HW1 7514   1.330   0.179   6.892
 2205SOL    HW2 7515   1.338   0.329   6.829
 2206SOL     OW 7516   3.075   4.467   5.943
 2206SOL    HW1 7517   3.083   4.455   5.844
 2206SOL    HW2 7518   2.985   4.434   5.974
 2207SOL     OW 7519   3.606   4.143   6.963
 2207SOL    HW1 7520   3.585   4.198   6.883
 2207SOL    HW2 7521   3.533   4.154   0.005
 2208SOL     OW 7522   1.086   5.131   3.008
 2208SOL    HW1 7523   1.162   5.066   3.012
 2208SOL    HW2 7524   1.077   5.176   3.097
 2209SOL     OW 7525   2.700   6.847   5.072
 2209SOL    HW1 7526   2.742   6.800   4.994
 2209SOL    HW2 7527   2.763   6.918   5.106
 2210SOL     OW 7528   0.381   4.643   3.695
 2210SOL    HW1 7529   0.309   4.612   3.632
 2210SOL    HW2 7530   0.468   4.599   3.671
 2211SOL     OW 7531   6.708   0.715   0.644
 2211SOL    HW1 7532   6.787   0.763   0.681
 2211SOL    HW2 7533   6.738   0.644   0.581
 2212SOL     OW 7534   1.847   5.985   0.469
 2212SOL    HW1 7535   1.938   6.021   0.486
 2212SOL    HW2 7536   1.853   5.907   0.407
 2213SOL     OW 7537   3.728   1.957   5.441
 2213SOL    HW1 7538   3.734   2.022   5.517
 2213SOL    HW2 7539   3.710   2.007   5.356
 2214SOL     OW 7540   2.995   3.784   4.928
 2214SOL    HW1 7541   2.980   3.687   4.950
 2214SOL    HW2 7542   2.952   3.806   4.841
 2215SOL     OW 7543   5.867   0.566   0.046
 2215SOL    HW1 7544   5.897   0.500   0.115
 2215SOL    HW2 7545   5.841   0.518   6.989
 2216SOL     OW 7546   1.039   0.847   5.994
 2216SOL    HW1 7547   1.093   0.931   5.991
 2216SOL    HW2 7548   1.083   0.782   6.056
 2217SOL     OW 7549   4.279   0.289   2.490
 2217SOL    HW1 7550   4.284   0.308   2.588
 2217SOL    HW2 7551   4.240   0.367   2.442
 2218SOL     OW 7552   0.137   5.229   0.223
 2218SOL    HW1 7553   0.217   5.188   0.266
 2218SOL    HW2 7554   0.122   5.187   0.133
 2219SOL     OW 7555   6.040   1.672   0.639
 2219SOL    HW1 7556   5.964   1.647   0.698
 2219SOL    HW2 7557   6.121   1.693   0.694
 2220SOL     OW 7558   2.305   6.151   5.508
 2220SOL    HW1 7559   2.306   6.052   5.494
 2220SOL    HW2 7560   2.232   6.191   5.453
 2221SOL     OW 7561   6.134   1.627   5.418
 2221SOL    HW1 7562   6.082   1.579   5.488
 2221SOL    HW2 7563   6.231   1.604   5.426
 2222SOL     OW 7564   6.099   0.663   1.095
 2222SOL    HW1 7565   6.100   0.628   1.189
 2222SOL    HW2 7566   6.044   0.747   1.091
 2223SOL     OW 7567   6.111   0.904   6.107
 2223SOL    HW1 7568   6.100   0.992   6.153
 2223SOL    HW2 7569   6.193   0.907   6.049
 2224SOL     OW 7570   6.196   3.736   0.837
 2224SOL    HW1 7571   6.284   3.744   0.884
 2224SOL    HW2 7572   6.207   3.762   0.741
 2225SOL     OW 7573   6.017   6.717   4.176
 2225SOL    HW1 7574   5.931   6.734   4.223
 2225SOL    HW2 7575   6.087   6.781   4.209
 2226SOL     OW 7576   3.936   5.066   1.110
 2226SOL    HW1 7577   3.856   5.123   1.090
 2226SOL    HW2 7578   3.913   4.970   1.092
 2227SOL     OW 7579   5.518   2.795   0.866
 2227SOL    HW1 7580   5.518   2.697   0.885
 2227SOL    HW2 7581   5.511   2.811   0.768
 2228SOL     OW 7582   4.196   5.188   0.597
 2228SOL    HW1 7583   4.195   5.288   0.605
 2228SOL    HW2 7584   4.282   5.153   0.635
 2229SOL     OW 7585   3.667   2.951   5.261
 2229SOL    HW1 7586   3.701   3.032   5.214
 2229SOL    HW2 7587   3.567   2.951   5.260
 2230SOL     OW 7588   6.174   6.369   1.008
 2230SOL    HW1 7589   6.272   6.381   1.024
 2230SOL    HW2 7590   6.129   6.458   1.006
 2231SOL     OW 7591   6.821   0.841   0.989
 2231SOL    HW1 7592   6.884   0.821   0.914
 2231SOL    HW2 7593   6.789   0.935   0.981
 2232SOL     OW 7594   1.025   1.501   4.706
 2232SOL    HW1 7595   1.114   1.470   4.740
 2232SOL    HW2 7596   1.030   1.598   4.684
 2233SOL     OW 7597   2.517   2.709   0.867
 2233SOL    HW1 7598   2.450   2.667   0.929
 2233SOL    HW2 7599   2.503   2.808   0.865
 2234SOL     OW 7600   3.522   1.568   1.095
 2234SOL    HW1 7601   3.574   1.506   1.154
 2234SOL    HW2 7602   3.585   1.626   1.044
 2235SOL     OW 7603   2.746   0.282   2.090
 2235SOL    HW1 7604   2.833   0.286   2.139
 2235SOL    HW2 7605   2.752   0.340   2.008
 2236SOL     OW 7606   2.078   3.792   5.762
 2236SOL    HW1 7607   2.044   3.813   5.854
 2236SOL    HW2 7608   2.009   3.817   5.694
 2237SOL     OW 7609   5.215   4.858   4.517
 2237SOL    HW1 7610   5.160   4.938   4.543
 2237SOL    HW2 7611   5.164   4.774   4.537
 2238SOL     OW 7612   4.504   5.319   2.126
 2238SOL    HW1 7613   4.537   5.411   2.146
 2238SOL    HW2 7614   4.416   5.324   2.078
 2239SOL     OW 7615   3.866   5.634   4.182
 2239SOL    HW1 7616   3.773   5.651   4.216
 2239SOL    HW2 7617   3.914   5.573   4.245
 2240SOL     OW 7618   3.372   5.191   2.377
 2240SOL    HW1 7619   3.419   5.273   2.345
 2240SOL    HW2 7620   3.405   5.111   2.326
 2241SOL     OW 7621   7.012   6.168   2.737
 2241SOL    HW1 7622   0.047   6.156   2.658
 2241SOL    HW2 7623   6.940   6.233   2.714
 2242SOL     OW 7624   5.017   2.918   2.536
 2242SOL    HW1 7625   4.976   2.977   2.605
 2242SOL    HW2 7626   5.033   2.827   2.575
 2243SOL     OW 7627   1.517   0.143   6.570
 2243SOL    HW1 7628   1.427   0.172   6.601
 2243SOL    HW2 7629   1.512   0.050   6.535
 2244SOL     OW 7630   2.763   6.538   1.122
 2244SOL    HW1 7631   2.852   6.569   1.154
 2244SOL    HW2 7632   2.755   6.556   1.024
 2245SOL     OW 7633   0.911   1.654   1.642
 2245SOL    HW1 7634   0.921   1.591   1.719
 2245SOL    HW2 7635   0.984   1.637   1.575
 2246SOL     OW 7636   2.180   1.187   4.156
 2246SOL    HW1 7637   2.262   1.145   4.117
 2246SOL    HW2 7638   2.099   1.158   4.104
 2247SOL     OW 7639   3.420   2.888   2.998
 2247SOL    HW1 7640   3.343   2.828   3.020
 2247SOL    HW2 7641   3.438   2.884   2.900
 2248SOL     OW 7642   6.567   3.709   5.171
 2248SOL    HW1 7643   6.579   3.661   5.258
 2248SOL    HW2 7644   6.643   3.687   5.110
 2249SOL     OW 7645   5.732   6.963   3.609
 2249SOL    HW1 7646   5.657   6.956   3.543
 2249SOL    HW2 7647   5.722   6.892   3.678
 2250SOL     OW 7648   3.660   4.171   5.081
 2250SOL    HW1 7649   3.683   4.248   5.140
 2250SOL    HW2 7650   3.691   4.085   5.123
 2251SOL     OW 7651   5.371   0.123   6.615
 2251SOL    HW1 7652   5.313   0.142   6.694
 2251SOL    HW2 7653   5.454   0.077   6.646
 2252SOL     OW 7654   4.784   1.579   3.431
 2252SOL    HW1 7655   4.689   1.575   3.460
 2252SOL    HW2 7656   4.834   1.502   3.470
 2253SOL     OW 7657   6.619   3.094   0.258
 2253SOL    HW1 7658   6.715   3.100   0.288
 2253SOL    HW2 7659   6.588   2.999   0.264
 2254SOL     OW 7660   3.147   3.351   4.377
 2254SOL    HW1 7661   3.160   3.438   4.424
 2254SOL    HW2 7662   3.231   3.326   4.329
 2255SOL     OW 7663   3.918   2.938   6.380
 2255SOL    HW1 7664   3.923   2.886   6.465
 2255SOL    HW2 7665   3.825   2.973   6.368
 2256SOL     OW 7666   5.066   6.371   2.133
 2256SOL    HW1 7667   5.103   6.297   2.077
 2256SOL    HW2 7668   4.974   6.394   2.102
 2257SOL     OW 7669   0.797   1.938   4.750
 2257SOL    HW1 7670   0.795   1.885   4.835
 2257SOL    HW2 7671   0.872   1.905   4.693
 2258SOL     OW 7672   1.504   5.145   4.472
 2258SOL    HW1 7673   1.597   5.156   4.507
 2258SOL    HW2 7674   1.443   5.208   4.519
 2259SOL     OW 7675   5.667   2.635   5.807
 2259SOL    HW1 7676   5.680   2.585   5.721
 2259SOL    HW2 7677   5.582   2.687   5.802
 2260SOL     OW 7678   0.148   4.462   1.432
 2260SOL    HW1 7679   0.192   4.551   1.437
 2260SOL    HW2 7680   0.215   4.393   1.403
 2261SOL     OW 7681   6.295   5.196   0.324
 2261SOL    HW1 7682   6.214   5.170   0.271
 2261SOL    HW2 7683   6.294   5.294   0.341
 2262SOL     OW 7684   6.204   0.348   2.971
 2262SOL    HW1 7685   6.252   0.281   3.028
 2262SOL    HW2 7686   6.135   0.395   3.027
 2263SOL     OW 7687   3.274   5.710   0.622
 2263SOL    HW1 7688   3.198   5.725   0.685
 2263SOL    HW2 7689   3.355   5.682   0.673
 2264SOL     OW 7690   3.049   5.282   6.843
 2264SOL    HW1 7691   3.041   5.193   6.799
 2264SOL    HW2 7692   2.958   5.319   6.862
 2265SOL     OW 7693   2.486   1.013   3.995
 2265SOL    HW1 7694   2.477   1.088   3.930
 2265SOL    HW2 7695   2.577   1.016   4.037
 2266SOL     OW 7696   5.174   1.361   0.512
 2266SOL    HW1 7697   5.215   1.364   0.604
 2266SOL    HW2 7698   5.140   1.451   0.487
 2267SOL     OW 7699   4.929   3.438   4.867
 2267SOL    HW1 7700   4.879   3.514   4.908
 2267SOL    HW2 7701   5.012   3.420   4.920
 2268SOL     OW 7702   5.617   4.018   6.398
 2268SOL    HW1 7703   5.701   4.011   6.452
 2268SOL    HW2 7704   5.544   4.058   6.453
 2269SOL     OW 7705   0.211   4.287   5.755
 2269SOL    HW1 7706   0.271   4.282   5.675
 2269SOL    HW2 7707   0.139   4.218   5.747
 2270SOL     OW 7708   3.865   2.194   6.153
 2270SOL    HW1 7709   3.916   2.142   6.221
 2270SOL    HW2 7710   3.924   2.211   6.074
 2271SOL     OW 7711   5.863   4.643   0.131
 2271SOL    HW1 7712   5.930   4.651   0.206
 2271SOL    HW2 7713   5.911   4.620   0.047
 2272SOL     OW 7714   5.634   1.734   0.070
 2272SOL    HW1 7715   5.701   1.708   0.001
 2272SOL    HW2 7716   5.541   1.717   0.036
 2273SOL     OW 7717   1.597   1.231   2.033
 2273SOL    HW1 7718   1.666   1.159   2.039
 2273SOL    HW2 7719   1.555   1.244   2.123
 2274SOL     OW 7720   0.944   1.479   6.147
 2274SOL    HW1 7721   0.851   1.471   6.183
 2274SOL    HW2 7722   0.942   1.469   6.047
 2275SOL     OW 7723   6.328   6.674   4.035
 2275SOL    HW1 7724   6.386   6.682   3.953
 2275SOL    HW2 7725   6.291   6.581   4.040
 2276SOL     OW 7726   2.188   5.488   1.918
 2276SOL    HW1 7727   2.185   5.450   1.825
 2276SOL    HW2 7728   2.277   5.466   1.959
 2277SOL     OW 7729   3.670   4.073   3.756
 2277SOL    HW1 7730   3.727   4.078   3.674
 2277SOL    HW2 7731   3.723   4.105   3.835
 2278SOL     OW 7732   6.113   3.694   4.513
 2278SOL    HW1 7733   6.026   3.649   4.494
 2278SOL    HW2 7734   6.096   3.787   4.546
 2279SOL     OW 7735   6.242   0.061   5.493
 2279SOL    HW1 7736   6.205   0.144   5.534
 2279SOL    HW2 7737   6.203   7.007   5.537
 2280SOL     OW 7738   6.921   0.276   4.773
 2280SOL    HW1 7739   6.959   0.302   4.684
 2280SOL    HW2 7740   6.823   0.296   4.775
 2281SOL     OW 7741   3.720   0.705   2.110
 2281SOL    HW1 7742   3.728   0.747   2.020
 2281SOL    HW2 7743   3.633   0.733   2.152
 2282SOL     OW 7744   5.748   0.155   5.283
 2282SOL    HW1 7745   5.764   0.070   5.334
 2282SOL    HW2 7746   5.805   0.228   5.321
 2283SOL     OW 7747   1.418   6.646   1.941
 2283SOL    HW1 7748   1.345   6.714   1.940
 2283SOL    HW2 7749   1.507   6.693   1.935
 2284SOL     OW 7750   1.337   2.965   0.117
 2284SOL    HW1 7751   1.376   3.052   0.149
 2284SOL    HW2 7752   1.402   2.891   0.133
 2285SOL     OW 7753   1.526   2.636   1.204
 2285SOL    HW1 7754   1.589   2.714   1.202
 2285SOL    HW2 7755   1.482   2.631   1.294
 2286SOL     OW 7756   5.785   6.741   3.814
 2286SOL    HW1 7757   5.878   6.706   3.826
 2286SOL    HW2 7758   5.721   6.682   3.863
 2287SOL     OW 7759   2.289   0.048   3.866
 2287SOL    HW1 7760   2.375   0.016   3.906
 2287SOL    HW2 7761   2.292   0.148   3.858
 2288SOL     OW 7762   5.876   4.839   3.707
 2288SOL    HW1 7763   5.849   4.933   3.687
 2288SOL    HW2 7764   5.880   4.787   3.623
 2289SOL     OW 7765   0.541   5.047   0.682
 2289SOL    HW1 7766   0.544   5.042   0.782
 2289SOL    HW2 7767   0.454   5.012   0.649
 2290SOL     OW 7768   0.327   3.587   0.847
 2290SOL    HW1 7769   0.330   3.492   0.816
 2290SOL    HW2 7770   0.233   3.613   0.868
 2291SOL     OW 7771   1.671   2.301   5.189
 2291SOL    HW1 7772   1.673   2.350   5.276
 2291SOL    HW2 7773   1.719   2.214   5.199
 2292SOL     OW 7774   0.981   1.796   4.328
 2292SOL    HW1 7775   0.964   1.882   4.280
 2292SOL    HW2 7776   0.910   1.730   4.303
 2293SOL     OW 7777   5.270   6.587   1.163
 2293SOL    HW1 7778   5.194   6.543   1.211
 2293SOL    HW2 7779   5.268   6.685   1.181
 2294SOL     OW 7780   3.094   0.236   6.739
 2294SOL    HW1 7781   3.028   0.178   6.788
 2294SOL    HW2 7782   3.187   0.203   6.757
 2295SOL     OW 7783   0.808   2.073   2.621
 2295SOL    HW1 7784   0.710   2.082   2.606
 2295SOL    HW2 7785   0.839   1.986   2.583
 2296SOL     OW 7786   4.311   5.049   0.319
 2296SOL    HW1 7787   4.310   5.147   0.335
 2296SOL    HW2 7788   4.386   5.026   0.257
 2297SOL     OW 7789   4.354   3.846   5.350
 2297SOL    HW1 7790   4.453   3.836   5.339
 2297SOL    HW2 7791   4.332   3.849   5.447
 2298SOL     OW 7792   4.213   3.068   1.848
 2298SOL    HW1 7793   4.170   3.081   1.759
 2298SOL    HW2 7794   4.312   3.056   1.836
 2299SOL     OW 7795   4.592   6.082   5.514
 2299SOL    HW1 7796   4.645   6.160   5.482
 2299SOL    HW2 7797   4.495   6.098   5.496
 2300SOL     OW 7798   2.545   5.204   2.288
 2300SOL    HW1 7799   2.605   5.207   2.368
 2300SOL    HW2 7800   2.450   5.194   2.318
 2301SOL     OW 7801   3.196   2.987   2.747
 2301SOL    HW1 7802   3.177   3.009   2.651
 2301SOL    HW2 7803   3.132   3.036   2.806
 2302SOL     OW 7804   3.975   6.928   0.843
 2302SOL    HW1 7805   4.071   6.926   0.870
 2302SOL    HW2 7806   3.923   6.863   0.899
 2303SOL     OW 7807   2.073   3.283   6.284
 2303SOL    HW1 7808   2.052   3.194   6.243
 2303SOL    HW2 7809   2.169   3.304   6.270
 2304SOL     OW 7810   4.211   0.095   4.152
 2304SOL    HW1 7811   4.260   0.028   4.095
 2304SOL    HW2 7812   4.231   0.187   4.120
 2305SOL     OW 7813   2.552   6.749   2.940
 2305SOL    HW1 7814   2.594   6.688   3.006
 2305SOL    HW2 7815   2.538   6.839   2.981
 2306SOL     OW 7816   2.835   5.003   2.102
 2306SOL    HW1 7817   2.795   4.911   2.099
 2306SOL    HW2 7818   2.934   4.997   2.086
 2307SOL     OW 7819   0.551   4.281   2.711
 2307SOL    HW1 7820   0.526   4.199   2.763
 2307SOL    HW2 7821   0.606   4.256   2.632
 2308SOL     OW 7822   1.529   6.483   0.240
 2308SOL    HW1 7823   1.587   6.523   0.169
 2308SOL    HW2 7824   1.577   6.407   0.284
 2309SOL     OW 7825   2.830   6.510   6.537
 2309SOL    HW1 7826   2.833   6.478   6.443
 2309SOL    HW2 7827   2.777   6.446   6.593
 2310SOL     OW 7828   5.808   6.344   1.151
 2310SOL    HW1 7829   5.765   6.429   1.183
 2310SOL    HW2 7830   5.744   6.296   1.091
 2311SOL     OW 7831   2.182   5.992   2.110
 2311SOL    HW1 7832   2.246   6.018   2.038
 2311SOL    HW2 7833   2.092   6.033   2.091
 2312SOL     OW 7834   3.630   6.386   4.028
 2312SOL    HW1 7835   3.604   6.469   3.979
 2312SOL    HW2 7836   3.707   6.408   4.089
 2313SOL     OW 7837   5.340   5.571   1.434
 2313SOL    HW1 7838   5.327   5.611   1.525
 2313SOL    HW2 7839   5.331   5.472   1.440
 2314SOL     OW 7840   5.899   0.594   5.140
 2314SOL    HW1 7841   5.823   0.641   5.096
 2314SOL    HW2 7842   5.968   0.570   5.072
 2315SOL     OW 7843   5.194   3.516   5.089
 2315SOL    HW1 7844   5.260   3.482   5.155
 2315SOL    HW2 7845   5.108   3.539   5.136
 2316SOL     OW 7846   3.063   0.817   4.451
 2316SOL    HW1 7847   3.104   0.818   4.360
 2316SOL    HW2 7848   2.968   0.786   4.445
 2317SOL     OW 7849   6.279   5.915   3.120
 2317SOL    HW1 7850   6.304   6.000   3.167
 2317SOL    HW2 7851   6.278   5.840   3.186
 2318SOL     OW 7852   1.910   3.183   4.141
 2318SOL    HW1 7853   2.007   3.159   4.141
 2318SOL    HW2 7854   1.865   3.141   4.219
 2319SOL     OW 7855   3.130   5.550   4.580
 2319SOL    HW1 7856   3.089   5.617   4.642
 2319SOL    HW2 7857   3.224   5.530   4.609
 2320SOL     OW 7858   1.166   3.043   4.266
 2320SOL    HW1 7859   1.231   3.019   4.339
 2320SOL    HW2 7860   1.213   3.096   4.196
 2321SOL     OW 7861   2.016   5.597   0.004
 2321SOL    HW1 7862   2.029   5.600   0.103
 2321SOL    HW2 7863   2.047   5.508   6.995
 2322SOL     OW 7864   1.549   4.403   3.097
 2322SOL    HW1 7865   1.637   4.404   3.144
 2322SOL    HW2 7866   1.489   4.473   3.136
 2323SOL     OW 7867   3.366   4.586   1.644
 2323SOL    HW1 7868   3.438   4.603   1.712
 2323SOL    HW2 7869   3.317   4.501   1.668
 2324SOL     OW 7870   6.694   5.943   0.611
 2324SOL    HW1 7871   6.673   6.036   0.581
 2324SOL    HW2 7872   6.664   5.931   0.706
 2325SOL     OW 7873   1.040   4.543   1.023
 2325SOL    HW1 7874   1.101   4.613   1.058
 2325SOL    HW2 7875   0.977   4.583   0.956
 2326SOL     OW 7876   2.954   5.802   6.845
 2326SOL    HW1 7877   2.962   5.877   6.912
 2326SOL    HW2 7878   2.998   5.830   6.760
 2327SOL     OW 7879   6.648   1.755   4.211
 2327SOL    HW1 7880   6.596   1.833   4.173
 2327SOL    HW2 7881   6.711   1.720   4.142
 2328SOL     OW 7882   1.419   1.845   2.714
 2328SOL    HW1 7883   1.358   1.768   2.695
 2328SOL    HW2 7884   1.435   1.896   2.630
 2329SOL     OW 7885   1.896   4.697   4.648
 2329SOL    HW1 7886   1.975   4.735   4.601
 2329SOL    HW2 7887   1.875   4.606   4.612
 2330SOL     OW 7888   0.010   3.502   1.276
 2330SOL    HW1 7889   6.940   3.490   1.299
 2330SOL    HW2 7890   0.065   3.434   1.325
 2331SOL     OW 7891   4.134   5.562   6.621
 2331SOL    HW1 7892   4.136   5.657   6.653
 2331SOL    HW2 7893   4.089   5.505   6.690
 2332SOL     OW 7894   5.873   1.068   5.475
 2332SOL    HW1 7895   5.834   1.023   5.395
 2332SOL    HW2 7896   5.954   1.120   5.448
 2333SOL     OW 7897   0.267   4.562   2.741
 2333SOL    HW1 7898   0.199   4.615   2.690
 2333SOL    HW2 7899   0.269   4.468   2.708
 2334SOL     OW 7900   2.347   0.417   6.858
 2334SOL    HW1 7901   2.338   0.485   6.785
 2334SOL    HW2 7902   2.310   0.454   6.943
 2335SOL     OW 7903   6.645   1.054   3.596
 2335SOL    HW1 7904   6.582   1.129   3.574
 2335SOL    HW2 7905   6.738   1.090   3.606
 2336SOL     OW 7906   3.985   2.169   4.814
 2336SOL    HW1 7907   3.972   2.193   4.910
 2336SOL    HW2 7908   3.945   2.079   4.796
 2337SOL     OW 7909   4.350   0.779   1.785
 2337SOL    HW1 7910   4.419   0.823   1.726
 2337SOL    HW2 7911   4.281   0.846   1.811
 2338SOL     OW 7912   0.739   3.238   5.309
 2338SOL    HW1 7913   0.755   3.203   5.401
 2338SOL    HW2 7914   0.772   3.172   5.241
 2339SOL     OW 7915   3.145   3.109   3.741
 2339SOL    HW1 7916   3.231   3.160   3.751
 2339SOL    HW2 7917   3.080   3.142   3.810
 2340SOL     OW 7918   6.320   4.676   6.980
 2340SOL    HW1 7919   6.333   4.773   6.961
 2340SOL    HW2 7920   6.297   4.628   6.895
 2341SOL     OW 7921   3.659   4.976   2.053
 2341SOL    HW1 7922   3.755   4.975   2.081
 2341SOL    HW2 7923   3.631   4.885   2.022
 2342SOL     OW 7924   0.757   6.484   5.402
 2342SOL    HW1 7925   0.676   6.495   5.459
 2342SOL    HW2 7926   0.816   6.564   5.410
 2343SOL     OW 7927   1.669   5.727   3.397
 2343SOL    HW1 7928   1.737   5.791   3.361
 2343SOL    HW2 7929   1.647   5.659   3.327
 2344SOL     OW 7930   1.839   5.814   6.762
 2344SOL    HW1 7931   1.779   5.784   6.836
 2344SOL    HW2 7932   1.864   5.736   6.705
 2345SOL     OW 7933   3.234   5.757   5.049
 2345SOL    HW1 7934   3.153   5.713   5.012
 2345SOL    HW2 7935   3.256   5.718   5.139
 2346SOL     OW 7936   3.938   3.166   5.474
 2346SOL    HW1 7937   3.851   3.173   5.425
 2346SOL    HW2 7938   4.013   3.157   5.408
 2347SOL     OW 7939   2.840   2.387   1.467
 2347SOL    HW1 7940   2.876   2.353   1.554
 2347SOL    HW2 7941   2.765   2.450   1.485
 2348SOL     OW 7942   2.633   6.906   3.541
 2348SOL    HW1 7943   2.612   6.988   3.596
 2348SOL    HW2 7944   2.652   6.934   3.447
 2349SOL     OW 7945   1.225   4.568   6.274
 2349SOL    HW1 7946   1.304   4.559   6.335
 2349SOL    HW2 7947   1.250   4.538   6.182
 2350SOL     OW 7948   5.396   0.188   6.341
 2350SOL    HW1 7949   5.372   0.166   6.436
 2350SOL    HW2 7950   5.466   0.123   6.309
 2351SOL     OW 7951   3.355   4.893   3.999
 2351SOL    HW1 7952   3.265   4.909   3.959
 2351SOL    HW2 7953   3.372   4.794   4.004
 2352SOL     OW 7954   0.543   4.415   2.205
 2352SOL    HW1 7955   0.591   4.345   2.152
 2352SOL    HW2 7956   0.473   4.372   2.262
 2353SOL     OW 7957   2.920   5.027   5.812
 2353SOL    HW1 7958   2.836   4.981   5.841
 2353SOL    HW2 7959   2.995   5.001   5.872
 2354SOL     OW 7960   3.160   1.299   5.539
 2354SOL    HW1 7961   3.179   1.381   5.593
 2354SOL    HW2 7962   3.116   1.231   5.598
 2355SOL     OW 7963   2.262   5.764   0.224
 2355SOL    HW1 7964   2.183   5.718   0.184
 2355SOL    HW2 7965   2.282   5.847   0.173
 2356SOL     OW 7966   1.380   3.014   6.477
 2356SOL    HW1 7967   1.470   2.988   6.512
 2356SOL    HW2 7968   1.373   3.114   6.476
 2357SOL     OW 7969   4.076   6.861   2.834
 2357SOL    HW1 7970   3.999   6.902   2.883
 2357SOL    HW2 7971   4.100   6.918   2.756
 2358SOL     OW 7972   3.887   4.920   4.908
 2358SOL    HW1 7973   3.814   4.959   4.965
 2358SOL    HW2 7974   3.975   4.956   4.938
 2359SOL     OW 7975   6.309   0.716   5.626
 2359SOL    HW1 7976   6.272   0.637   5.577
 2359SOL    HW2 7977   6.405   0.700   5.648
 2360SOL     OW 7978   5.320   4.453   6.828
 2360SOL    HW1 7979   5.341   4.480   6.734
 2360SOL    HW2 7980   5.406   4.439   6.879
 2361SOL     OW 7981   2.358   1.254   5.091
 2361SOL    HW1 7982   2.353   1.352   5.111
 2361SOL    HW2 7983   2.415   1.209   5.160
 2362SOL     OW 7984   2.033   6.827   4.750
 2362SOL    HW1 7985   2.089   6.891   4.804
 2362SOL    HW2 7986   2.007   6.870   4.664
 2363SOL     OW 7987   4.514   2.598   5.103
 2363SOL    HW1 7988   4.560   2.675   5.060
 2363SOL    HW2 7989   4.450   2.557   5.038
 2364SOL     OW 7990   1.332   2.088   3.033
 2364SOL    HW1 7991   1.309   2.165   2.974
 2364SOL    HW2 7992   1.252   2.064   3.089
 2365SOL     OW 7993   6.427   2.735   6.552
 2365SOL    HW1 7994   6.491   2.680   6.498
 2365SOL    HW2 7995   6.478   2.802   6.605
 2366SOL     OW 7996   2.354   5.496   6.536
 2366SOL    HW1 7997   2.329   5.527   6.445
 2366SOL    HW2 7998   2.445   5.453   6.533
 2367SOL     OW 7999   2.642   4.422   0.611
 2367SOL    HW1 8000   2.732   4.424   0.654
 2367SOL    HW2 8001   2.641   4.486   0.534
 2368SOL     OW 8002   4.392   0.339   3.613
 2368SOL    HW1 8003   4.397   0.314   3.516
 2368SOL    HW2 8004   4.402   0.256   3.669
 2369SOL     OW 8005   1.133   2.346   5.500
 2369SOL    HW1 8006   1.111   2.301   5.413
 2369SOL    HW2 8007   1.126   2.445   5.488
 2370SOL     OW 8008   5.042   3.781   0.175
 2370SOL    HW1 8009   4.957   3.766   0.124
 2370SOL    HW2 8010   5.107   3.709   0.154
 2371SOL     OW 8011   0.650   0.103   2.513
 2371SOL    HW1 8012   0.725   0.151   2.557
 2371SOL    HW2 8013   0.594   0.168   2.461
 2372SOL     OW 8014   0.020   2.862   2.343
 2372SOL    HW1 8015   6.950   2.888   2.336
 2372SOL    HW2 8016   0.065   2.873   2.255
 2373SOL     OW 8017   0.493   1.648   0.154
 2373SOL    HW1 8018   0.398   1.629   0.178
 2373SOL    HW2 8019   0.551   1.636   0.235
 2374SOL     OW 8020   6.090   0.853   3.497
 2374SOL    HW1 8021   6.113   0.832   3.591
 2374SOL    HW2 8022   6.138   0.791   3.436
 2375SOL     OW 8023   2.936   6.764   4.441
 2375SOL    HW1 8024   2.856   6.802   4.487
 2375SOL    HW2 8025   2.946   6.668   4.465
 2376SOL     OW 8026   6.721   2.895   4.277
 2376SOL    HW1 8027   6.722   2.965   4.206
 2376SOL    HW2 8028   6.627   2.880   4.307
 2377SOL     OW 8029   3.141   4.015   3.200
 2377SOL    HW1 8030   3.159   4.046   3.107
 2377SOL    HW2 8031   3.046   3.983   3.207
 2378SOL     OW 8032   4.797   1.623   0.495
 2378SOL    HW1 8033   4.714   1.619   0.438
 2378SOL    HW2 8034   4.779   1.577   0.582
 2379SOL     OW 8035   5.970   1.969   6.655
 2379SOL    HW1 8036   5.933   1.961   6.748
 2379SOL    HW2 8037   5.896   1.968   6.589
 2380SOL     OW 8038   0.834   0.841   6.762
 2380SOL    HW1 8039   0.773   0.774   6.720
 2380SOL    HW2 8040   0.824   0.929   6.715
 2381SOL     OW 8041   2.155   3.838   4.526
 2381SOL    HW1 8042   2.078   3.861   4.585
 2381SOL    HW2 8043   2.181   3.743   4.542
 2382SOL     OW 8044   2.292   4.339   3.268
 2382SOL    HW1 8045   2.296   4.262   3.332
 2382SOL    HW2 8046   2.375   4.394   3.275
 2383SOL     OW 8047   5.476   6.737   1.460
 2383SOL    HW1 8048   5.381   6.757   1.438
 2383SOL    HW2 8049   5.501   6.648   1.424
 2384SOL     OW 8050   5.898   0.494   2.863
 2384SOL    HW1 8051   5.843   0.573   2.891
 2384SOL    HW2 8052   5.945   0.456   2.942
 2385SOL     OW 8053   0.806   6.591   1.476
 2385SOL    HW1 8054   0.793   6.543   1.563
 2385SOL    HW2 8055   0.730   6.571   1.415
 2386SOL     OW 8056   5.771   5.336   4.061
 2386SOL    HW1 8057   5.794   5.419   4.010
 2386SOL    HW2 8058   5.793   5.350   4.158
 2387SOL     OW 8059   1.389   1.483   3.781
 2387SOL    HW1 8060   1.325   1.496   3.857
 2387SOL    HW2 8061   1.339   1.480   3.695
 2388SOL     OW 8062   0.748   2.483   4.107
 2388SOL    HW1 8063   0.769   2.446   4.198
 2388SOL    HW2 8064   0.813   2.556   4.085
 2389SOL     OW 8065   4.940   3.751   2.914
 2389SOL    HW1 8066   4.981   3.726   3.002
 2389SOL    HW2 8067   4.875   3.825   2.928
 2390SOL     OW 8068   4.075   3.634   2.791
 2390SOL    HW1 8069   4.164   3.627   2.837
 2390SOL    HW2 8070   4.029   3.545   2.796
 2391SOL     OW 8071   4.570   4.275   5.533
 2391SOL    HW1 8072   4.515   4.282   5.450
 2391SOL    HW2 8073   4.616   4.186   5.535
 2392SOL     OW 8074   3.735   6.861   5.289
 2392SOL    HW1 8075   3.807   6.900   5.347
 2392SOL    HW2 8076   3.679   6.935   5.251
 2393SOL     OW 8077   5.232   3.528   6.186
 2393SOL    HW1 8078   5.165   3.453   6.191
 2393SOL    HW2 8079   5.318   3.499   6.226
 2394SOL     OW 8080   1.480   3.616   4.206
 2394SOL    HW1 8081   1.497   3.608   4.304
 2394SOL    HW2 8082   1.469   3.712   4.181
 2395SOL     OW 8083   6.013   2.463   6.989
 2395SOL    HW1 8084   6.070   2.545   6.989
 2395SOL    HW2 8085   6.030   2.410   6.906
 2396SOL     OW 8086   3.348   5.059   1.849
 2396SOL    HW1 8087   3.299   4.972   1.849
 2396SOL    HW2 8088   3.431   5.051   1.794
 2397SOL     OW 8089   6.956   4.027   6.801
 2397SOL    HW1 8090   7.011   4.107   6.824
 2397SOL    HW2 8091   6.965   4.006   6.704
 2398SOL     OW 8092   2.074   3.476   6.692
 2398SOL    HW1 8093   2.070   3.431   6.781
 2398SOL    HW2 8094   2.004   3.438   6.631
 2399SOL     OW 8095   4.404   1.786   1.931
 2399SOL    HW1 8096   4.463   1.859   1.966
 2399SOL    HW2 8097   4.311   1.799   1.966
 2400SOL     OW 8098   3.314   4.649   0.317
 2400SOL    HW1 8099   3.219   4.620   0.303
 2400SOL    HW2 8100   3.334   4.727   0.259
 2401SOL     OW 8101   3.862   6.121   6.057
 2401SOL    HW1 8102   3.931   6.100   5.988
 2401SOL    HW2 8103   3.800   6.043   6.067
 2402SOL     OW 8104   6.913   1.141   3.471
 2402SOL    HW1 8105   6.950   1.181   3.386
 2402SOL    HW2 8106   6.961   1.056   3.491
 2403SOL     OW 8107   2.116   2.555   0.132
 2403SOL    HW1 8108   2.074   2.549   0.041
 2403SOL    HW2 8109   2.143   2.464   0.162
 2404SOL     OW 8110   3.757   1.111   1.017
 2404SOL    HW1 8111   3.711   1.091   1.103
 2404SOL    HW2 8112   3.690   1.113   0.943
 2405SOL     OW 8113   3.765   3.329   2.741
 2405SOL    HW1 8114   3.738   3.424   2.725
 2405SOL    HW2 8115   3.784   3.316   2.838
 2406SOL     OW 8116   2.983   6.677   2.771
 2406SOL    HW1 8117   2.896   6.696   2.726
 2406SOL    HW2 8118   3.044   6.628   2.709
 2407SOL     OW 8119   4.997   2.076   2.131
 2407SOL    HW1 8120   4.969   2.154   2.075
 2407SOL    HW2 8121   4.928   2.060   2.202
 2408SOL     OW 8122   4.009   5.254   2.925
 2408SOL    HW1 8123   3.914   5.279   2.945
 2408SOL    HW2 8124   4.033   5.172   2.976
 2409SOL     OW 8125   1.514   3.892   2.166
 2409SOL    HW1 8126   1.429   3.938   2.192
 2409SOL    HW2 8127   1.493   3.817   2.104
 2410SOL     OW 8128   4.229   2.448   5.931
 2410SOL    HW1 8129   4.326   2.434   5.914
 2410SOL    HW2 8130   4.200   2.535   5.890
 2411SOL     OW 8131   4.165   5.199   4.807
 2411SOL    HW1 8132   4.121   5.289   4.809
 2411SOL    HW2 8133   4.263   5.210   4.791
 2412SOL     OW 8134   4.622   5.462   1.586
 2412SOL    HW1 8135   4.620   5.363   1.569
 2412SOL    HW2 8136   4.601   5.480   1.682
 2413SOL     OW 8137   6.212   1.845   1.202
 2413SOL    HW1 8138   6.282   1.783   1.166
 2413SOL    HW2 8139   6.254   1.934   1.220
 2414SOL     OW 8140   4.700   4.299   2.465
 2414SOL    HW1 8141   4.796   4.304   2.492
 2414SOL    HW2 8142   4.693   4.271   2.369
 2415SOL     OW 8143   0.121   6.800   2.270
 2415SOL    HW1 8144   0.133   6.890   2.312
 2415SOL    HW2 8145   0.044   6.803   2.206
 2416SOL     OW 8146   4.410   2.327   5.310
 2416SOL    HW1 8147   4.396   2.271   5.228
 2416SOL    HW2 8148   4.443   2.269   5.384
 2417SOL     OW 8149   4.251   3.169   5.882
 2417SOL    HW1 8150   4.332   3.210   5.841
 2417SOL    HW2 8151   4.185   3.146   5.811
 2418SOL     OW 8152   2.962   3.624   4.315
 2418SOL    HW1 8153   2.864   3.646   4.314
 2418SOL    HW2 8154   3.013   3.704   4.285
 2419SOL     OW 8155   0.891   6.480   4.950
 2419SOL    HW1 8156   0.802   6.520   4.927
 2419SOL    HW2 8157   0.956   6.501   4.877
 2420SOL     OW 8158   2.729   1.297   2.189
 2420SOL    HW1 8159   2.666   1.302   2.266
 2420SOL    HW2 8160   2.700   1.225   2.126
 2421SOL     OW 8161   2.738   1.865   5.006
 2421SOL    HW1 8162   2.711   1.953   5.047
 2421SOL    HW2 8163   2.837   1.853   5.014
 2422SOL     OW 8164   5.271   1.142   1.109
 2422SOL    HW1 8165   5.339   1.072   1.088
 2422SOL    HW2 8166   5.181   1.112   1.079
 2423SOL     OW 8167   0.815   6.470   3.080
 2423SOL    HW1 8168   0.808   6.395   3.145
 2423SOL    HW2 8169   0.843   6.435   2.990
 2424SOL     OW 8170   6.067   6.649   5.880
 2424SOL    HW1 8171   5.974   6.686   5.876
 2424SOL    HW2 8172   6.062   6.549   5.884
 2425SOL     OW 8173   5.674   0.487   4.023
 2425SOL    HW1 8174   5.584   0.497   3.981
 2425SOL    HW2 8175   5.711   0.396   4.003
 2426SOL     OW 8176   0.795   5.930   5.112
 2426SOL    HW1 8177   0.872   5.892   5.062
 2426SOL    HW2 8178   0.737   5.982   5.049
 2427SOL     OW 8179   5.820   5.747   5.158
 2427SOL    HW1 8180   5.792   5.843   5.156
 2427SOL    HW2 8181   5.907   5.737   5.111
 2428SOL     OW 8182   6.287   0.240   2.714
 2428SOL    HW1 8183   6.251   0.285   2.796
 2428SOL    HW2 8184   6.276   0.141   2.722
 2429SOL     OW 8185   5.477   5.556   3.574
 2429SOL    HW1 8186   5.476   5.556   3.474
 2429SOL    HW2 8187   5.419   5.482   3.608
 2430SOL     OW 8188   6.162   1.634   1.415
 2430SOL    HW1 8189   6.198   1.709   1.360
 2430SOL    HW2 8190   6.184   1.650   1.512
 2431SOL     OW 8191   4.352   1.055   2.708
 2431SOL    HW1 8192   4.320   0.961   2.709
 2431SOL    HW2 8193   4.452   1.057   2.711
 2432SOL     OW 8194   2.945   6.784   3.038
 2432SOL    HW1 8195   3.008   6.822   3.105
 2432SOL    HW2 8196   2.996   6.748   2.960
 2433SOL     OW 8197   3.586   0.841   1.579
 2433SOL    HW1 8198   3.612   0.930   1.618
 2433SOL    HW2 8199   3.509   0.853   1.516
 2434SOL     OW 8200   4.333   0.938   5.043
 2434SOL    HW1 8201   4.335   0.951   5.142
 2434SOL    HW2 8202   4.238   0.927   5.013
 2435SOL     OW 8203   4.778   4.632   6.818
 2435SOL    HW1 8204   4.818   4.573   6.748
 2435SOL    HW2 8205   4.801   4.596   6.909
 2436SOL     OW 8206   1.607   5.767   0.892
 2436SOL    HW1 8207   1.608   5.680   0.942
 2436SOL    HW2 8208   1.669   5.832   0.935
 2437SOL     OW 8209   5.068   6.534   6.632
 2437SOL    HW1 8210   5.004   6.610   6.642
 2437SOL    HW2 8211   5.087   6.494   6.721
 2438SOL     OW 8212   3.354   1.220   6.648
 2438SOL    HW1 8213   3.328   1.287   6.716
 2438SOL    HW2 8214   3.286   1.147   6.644
 2439SOL     OW 8215   1.194   4.087   5.982
 2439SOL    HW1 8216   1.264   4.023   6.013
 2439SOL    HW2 8217   1.222   4.128   5.895
 2440SOL     OW 8218   4.327   5.804   5.572
 2440SOL    HW1 8219   4.342   5.783   5.669
 2440SOL    HW2 8220   4.410   5.845   5.534
 2441SOL     OW 8221   0.731   0.825   0.500
 2441SOL    HW1 8222   0.743   0.770   0.417
 2441SOL    HW2 8223   0.634   0.824   0.526
 2442SOL     OW 8224   0.735   4.136   5.705
 2442SOL    HW1 8225   0.673   4.072   5.661
 2442SOL    HW2 8226   0.746   4.111   5.801
 2443SOL     OW 8227   4.217   5.290   6.019
 2443SOL    HW1 8228   4.233   5.363   6.085
 2443SOL    HW2 8229   4.303   5.243   6.000
 2444SOL     OW 8230   3.410   4.066   5.923
 2444SOL    HW1 8231   3.500   4.075   5.965
 2444SOL    HW2 8232   3.348   4.134   5.962
 2445SOL     OW 8233   7.023   0.829   1.210
 2445SOL    HW1 8234   6.980   0.823   1.301
 2445SOL    HW2 8235   6.956   0.863   1.144
 2446SOL     OW 8236   6.580   5.084   4.220
 2446SOL    HW1 8237   6.667   5.109   4.176
 2446SOL    HW2 8238   6.596   5.013   4.288
 2447SOL     OW 8239   1.831   2.786   0.711
 2447SOL    HW1 8240   1.823   2.837   0.797
 2447SOL    HW2 8241   1.846   2.849   0.636
 2448SOL     OW 8242   0.241   1.038   4.247
 2448SOL    HW1 8243   0.297   1.057   4.167
 2448SOL    HW2 8244   0.252   1.112   4.314
 2449SOL     OW 8245   6.959   4.753   0.813
 2449SOL    HW1 8246   6.915   4.838   0.842
 2449SOL    HW2 8247   6.894   4.698   0.761
 2450SOL     OW 8248   2.742   4.740   3.207
 2450SOL    HW1 8249   2.796   4.658   3.193
 2450SOL    HW2 8250   2.798   4.810   3.252
 2451SOL     OW 8251   0.733   1.134   3.138
 2451SOL    HW1 8252   0.668   1.058   3.127
 2451SOL    HW2 8253   0.688   1.210   3.184
 2452SOL     OW 8254   1.574   3.793   2.547
 2452SOL    HW1 8255   1.641   3.798   2.621
 2452SOL    HW2 8256   1.550   3.886   2.517
 2453SOL     OW 8257   6.009   4.827   1.381
 2453SOL    HW1 8258   6.040   4.916   1.411
 2453SOL    HW2 8259   5.996   4.767   1.460
 2454SOL     OW 8260   2.930   0.631   1.319
 2454SOL    HW1 8261   2.939   0.620   1.418
 2454SOL    HW2 8262   2.933   0.728   1.296
 2455SOL     OW 8263   5.772   5.932   0.213
 2455SOL    HW1 8264   5.752   5.842   0.250
 2455SOL    HW2 8265   5.709   5.954   0.139
 2456SOL     OW 8266   5.075   6.499   1.843
 2456SOL    HW1 8267   5.048   6.555   1.921
 2456SOL    HW2 8268   5.173   6.477   1.849
 2457SOL     OW 8269   6.034   6.417   0.584
 2457SOL    HW1 8270   5.984   6.419   0.671
 2457SOL    HW2 8271   6.001   6.490   0.525
 2458SOL     OW 8272   1.988   5.596   3.344
 2458SOL    HW1 8273   1.926   5.526   3.307
 2458SOL    HW2 8274   2.010   5.662   3.272
 2459SOL     OW 8275   2.520   6.786   0.799
 2459SOL    HW1 8276   2.513   6.885   0.814
 2459SOL    HW2 8277   2.434   6.752   0.759
 2460SOL     OW 8278   1.895   0.759   1.056
 2460SOL    HW1 8279   1.824   0.818   1.018
 2460SOL    HW2 8280   1.854   0.690   1.115
 2461SOL     OW 8281   5.600   1.038   2.737
 2461SOL    HW1 8282   5.575   0.970   2.806
 2461SOL    HW2 8283   5.660   0.997   2.669
 2462SOL     OW 8284   2.689   5.444   0.201
 2462SOL    HW1 8285   2.619   5.515   0.196
 2462SOL    HW2 8286   2.668   5.372   0.135
 2463SOL     OW 8287   5.656   2.749   4.247
 2463SOL    HW1 8288   5.621   2.656   4.230
 2463SOL    HW2 8289   5.738   2.763   4.192
 2464SOL     OW 8290   0.585   4.784   1.049
 2464SOL    HW1 8291   0.587   4.880   1.024
 2464SOL    HW2 8292   0.522   4.735   0.988
 2465SOL     OW 8293   0.171   5.465   1.302
 2465SOL    HW1 8294   0.124   5.552   1.291
 2465SOL    HW2 8295   0.111   5.399   1.348
 2466SOL     OW 8296   3.432   1.143   2.420
 2466SOL    HW1 8297   3.523   1.152   2.380
 2466SOL    HW2 8298   3.430   1.189   2.509
 2467SOL     OW 8299   6.048   1.259   5.723
 2467SOL    HW1 8300   6.041   1.191   5.650
 2467SOL    HW2 8301   5.992   1.230   5.801
 2468SOL     OW 8302   6.998   6.026   1.896
 2468SOL    HW1 8303   0.068   6.001   1.886
 2468SOL    HW2 8304   6.988   6.125   1.881
 2469SOL     OW 8305   3.442   4.166   5.678
 2469SOL    HW1 8306   3.429   4.098   5.606
 2469SOL    HW2 8307   3.444   4.121   5.767
 2470SOL     OW 8308   2.918   4.193   6.299
 2470SOL    HW1 8309   2.978   4.128   6.252
 2470SOL    HW2 8310   2.823   4.163   6.290
 2471SOL     OW 8311   1.023   6.757   1.123
 2471SOL    HW1 8312   1.101   6.819   1.118
 2471SOL    HW2 8313   1.021   6.714   1.213
 2472SOL     OW 8314   5.676   1.453   4.833
 2472SOL    HW1 8315   5.723   1.480   4.917
 2472SOL    HW2 8316   5.637   1.534   4.789
 2473SOL     OW 8317   1.748   4.935   5.046
 2473SOL    HW1 8318   1.749   5.035   5.036
 2473SOL    HW2 8319   1.678   4.909   5.113
 2474SOL     OW 8320   7.002   4.714   6.728
 2474SOL    HW1 8321   6.991   4.731   6.630
 2474SOL    HW2 8322   0.060   4.757   6.760
 2475SOL     OW 8323   4.117   2.434   0.663
 2475SOL    HW1 8324   4.094   2.364   0.596
 2475SOL    HW2 8325   4.164   2.393   0.741
 2476SOL     OW 8326   1.209   2.356   3.897
 2476SOL    HW1 8327   1.282   2.305   3.942
 2476SOL    HW2 8328   1.181   2.432   3.954
 2477SOL     OW 8329   6.511   6.323   1.843
 2477SOL    HW1 8330   6.607   6.298   1.835
 2477SOL    HW2 8331   6.468   6.319   1.752
 2478SOL     OW 8332   5.904   6.086   2.706
 2478SOL    HW1 8333   5.976   6.064   2.772
 2478SOL    HW2 8334   5.838   6.011   2.702
 2479SOL     OW 8335   6.909   3.772   1.466
 2479SOL    HW1 8336   6.870   3.816   1.547
 2479SOL    HW2 8337   7.009   3.780   1.469
 2480SOL     OW 8338   6.816   2.309   1.018
 2480SOL    HW1 8339   6.855   2.362   1.093
 2480SOL    HW2 8340   6.805   2.367   0.938
 2481SOL     OW 8341   3.921   5.882   0.524
 2481SOL    HW1 8342   3.824   5.904   0.510
 2481SOL    HW2 8343   3.929   5.789   0.559
 2482SOL     OW 8344   4.525   3.736   5.910
 2482SOL    HW1 8345   4.548   3.713   5.815
 2482SOL    HW2 8346   4.554   3.662   5.970
 2483SOL     OW 8347   2.166   0.989   0.787
 2483SOL    HW1 8348   2.126   0.899   0.769
 2483SOL    HW2 8349   2.264   0.987   0.768
 2484SOL     OW 8350   1.992   0.896   0.426
 2484SOL    HW1 8351   2.019   0.946   0.344
 2484SOL    HW2 8352   1.927   0.950   0.479
 2485SOL     OW 8353   5.681   4.982   2.135
 2485SOL    HW1 8354   5.630   5.045   2.077
 2485SOL    HW2 8355   5.718   4.908   2.079
 2486SOL     OW 8356   1.577   5.921   3.755
 2486SOL    HW1 8357   1.565   6.003   3.812
 2486SOL    HW2 8358   1.615   5.948   3.666
 2487SOL     OW 8359   4.432   6.301   6.821
 2487SOL    HW1 8360   4.371   6.226   6.844
 2487SOL    HW2 8361   4.386   6.389   6.834
 2488SOL     OW 8362   2.931   4.076   1.546
 2488SOL    HW1 8363   2.914   4.009   1.474
 2488SOL    HW2 8364   2.962   4.162   1.506
 2489SOL     OW 8365   2.331   5.826   4.777
 2489SOL    HW1 8366   2.393   5.903   4.762
 2489SOL    HW2 8367   2.364   5.770   4.853
 2490SOL     OW 8368   6.829   4.985   0.914
 2490SOL    HW1 8369   6.747   4.971   0.969
 2490SOL    HW2 8370   6.824   5.075   0.870
 2491SOL     OW 8371   2.682   5.715   2.910
 2491SOL    HW1 8372   2.726   5.752   2.992
 2491SOL    HW2 8373   2.750   5.668   2.854
 2492SOL     OW 8374   5.006   3.218   6.412
 2492SOL    HW1 8375   4.915   3.179   6.427
 2492SOL    HW2 8376   5.016   3.243   6.316
 2493SOL     OW 8377   5.524   0.797   2.843
 2493SOL    HW1 8378   5.456   0.799   2.916
 2493SOL    HW2 8379   5.486   0.750   2.763
 2494SOL     OW 8380   4.708   2.799   2.744
 2494SOL    HW1 8381   4.620   2.769   2.780
 2494SOL    HW2 8382   4.779   2.782   2.812
 2495SOL     OW 8383   5.046   1.314   5.130
 2495SOL    HW1 8384   5.126   1.289   5.076
 2495SOL    HW2 8385   5.020   1.408   5.109
 2496SOL     OW 8386   1.294   5.387   0.007
 2496SOL    HW1 8387   1.285   5.294   0.043
 2496SOL    HW2 8388   1.296   5.385   6.934
 2497SOL     OW 8389   6.798   1.519   0.307
 2497SOL    HW1 8390   6.744   1.549   0.229
 2497SOL    HW2 8391   6.890   1.557   0.301
 2498SOL     OW 8392   2.028   3.518   3.216
 2498SOL    HW1 8393   2.020   3.549   3.311
 2498SOL    HW2 8394   1.943   3.472   3.190
 2499SOL     OW 8395   5.597   0.944   4.972
 2499SOL    HW1 8396   5.601   0.948   4.872
 2499SOL    HW2 8397   5.504   0.961   5.002
 2500SOL     OW 8398   5.043   3.274   6.148
 2500SOL    HW1 8399   5.140   3.285   6.127
 2500SOL    HW2 8400   5.018   3.178   6.141
 2501SOL     OW 8401   5.810   3.950   6.833
 2501SOL    HW1 8402   5.843   3.985   6.921
 2501SOL    HW2 8403   5.737   3.883   6.849
 2502SOL     OW 8404   2.407   6.432   3.502
 2502SOL    HW1 8405   2.412   6.531   3.491
 2502SOL    HW2 8406   2.312   6.404   3.513
 2503SOL     OW 8407   3.891   5.742   5.433
 2503SOL    HW1 8408   3.879   5.841   5.429
 2503SOL    HW2 8409   3.812   5.700   5.478
 2504SOL     OW 8410   2.377   4.832   4.774
 2504SOL    HW1 8411   2.439   4.811   4.699
 2504SOL    HW2 8412   2.417   4.902   4.833
 2505SOL     OW 8413   4.004   5.564   4.525
 2505SOL    HW1 8414   4.025   5.509   4.444
 2505SOL    HW2 8415   3.916   5.536   4.563
 2506SOL     OW 8416   6.456   3.370   5.966
 2506SOL    HW1 8417   6.481   3.346   6.059
 2506SOL    HW2 8418   6.448   3.470   5.958
 2507SOL     OW 8419   6.567   5.229   0.159
 2507SOL    HW1 8420   6.496   5.187   0.216
 2507SOL    HW2 8421   6.590   5.319   0.195
 2508SOL     OW 8422   2.842   1.962   2.173
 2508SOL    HW1 8423   2.864   1.955   2.076
 2508SOL    HW2 8424   2.911   2.020   2.218
 2509SOL     OW 8425   5.925   2.353   2.464
 2509SOL    HW1 8426   5.931   2.260   2.429
 2509SOL    HW2 8427   6.016   2.385   2.492
 2510SOL     OW 8428   3.554   5.004   0.933
 2510SOL    HW1 8429   3.545   4.908   0.958
 2510SOL    HW2 8430   3.475   5.055   0.965
 2511SOL     OW 8431   1.640   1.127   5.007
 2511SOL    HW1 8432   1.586   1.203   5.043
 2511SOL    HW2 8433   1.684   1.154   4.922
 2512SOL     OW 8434   5.123   3.770   4.371
 2512SOL    HW1 8435   5.175   3.847   4.409
 2512SOL    HW2 8436   5.179   3.687   4.375
 2513SOL     OW 8437   0.891   2.245   6.704
 2513SOL    HW1 8438   0.804   2.274   6.744
 2513SOL    HW2 8439   0.966   2.294   6.748
 2514SOL     OW 8440   0.610   1.653   4.425
 2514SOL    HW1 8441   0.674   1.613   4.491
 2514SOL    HW2 8442   0.530   1.689   4.473
 2515SOL     OW 8443   1.583   6.583   0.481
 2515SOL    HW1 8444   1.573   6.510   0.549
 2515SOL    HW2 8445   1.563   6.547   0.390
 2516SOL     OW 8446   5.957   5.963   3.882
 2516SOL    HW1 8447   5.918   5.945   3.792
 2516SOL    HW2 8448   5.960   6.062   3.898
 2517SOL     OW 8449   2.816   4.348   6.018
 2517SOL    HW1 8450   2.765   4.434   6.017
 2517SOL    HW2 8451   2.785   4.290   5.942
 2518SOL     OW 8452   2.457   3.034   6.732
 2518SOL    HW1 8453   2.415   3.021   6.643
 2518SOL    HW2 8454   2.408   2.980   6.800
 2519SOL     OW 8455   5.048   5.364   4.875
 2519SOL    HW1 8456   4.984   5.356   4.799
 2519SOL    HW2 8457   5.124   5.299   4.862
 2520SOL     OW 8458   2.398   3.426   1.064
 2520SOL    HW1 8459   2.354   3.498   1.117
 2520SOL    HW2 8460   2.341   3.403   0.985
 2521SOL     OW 8461   0.791   0.615   5.591
 2521SOL    HW1 8462   0.856   0.687   5.615
 2521SOL    HW2 8463   0.834   0.525   5.603
 2522SOL     OW 8464   1.637   3.349   4.644
 2522SOL    HW1 8465   1.716   3.341   4.583
 2522SOL    HW2 8466   1.648   3.287   4.721
 2523SOL     OW 8467   6.436   3.355   0.677
 2523SOL    HW1 8468   6.367   3.423   0.650
 2523SOL    HW2 8469   6.470   3.309   0.595
 2524SOL     OW 8470   1.045   6.662   4.184
 2524SOL    HW1 8471   0.953   6.657   4.222
 2524SOL    HW2 8472   1.066   6.757   4.161
 2525SOL     OW 8473   1.185   4.026   4.612
 2525SOL    HW1 8474   1.245   4.087   4.561
 2525SOL    HW2 8475   1.171   3.942   4.561
 2526SOL     OW 8476   0.474   2.528   4.194
 2526SOL    HW1 8477   0.549   2.517   4.129
 2526SOL    HW2 8478   0.387   2.532   4.144
 2527SOL     OW 8479   5.961   6.668   5.025
 2527SOL    HW1 8480   5.881   6.677   5.083
 2527SOL    HW2 8481   5.964   6.576   4.986
 2528SOL     OW 8482   6.026   5.076   0.193
 2528SOL    HW1 8483   5.988   5.025   0.270
 2528SOL    HW2 8484   5.961   5.146   0.163
 2529SOL     OW 8485   4.634   5.581   5.045
 2529SOL    HW1 8486   4.572   5.609   4.972
 2529SOL    HW2 8487   4.723   5.557   5.006
 2530SOL     OW 8488   1.059   6.174   4.057
 2530SOL    HW1 8489   1.101   6.231   4.127
 2530SOL    HW2 8490   0.981   6.224   4.018
 2531SOL     OW 8491   5.137   0.438   4.671
 2531SOL    HW1 8492   5.070   0.512   4.671
 2531SOL    HW2 8493   5.097   0.357   4.715
 2532SOL     OW 8494   1.132   5.707   0.355
 2532SOL    HW1 8495   1.210   5.719   0.418
 2532SOL    HW2 8496   1.105   5.796   0.318
 2533SOL     OW 8497   5.268   0.185   4.897
 2533SOL    HW1 8498   5.350   0.209   4.845
 2533SOL    HW2 8499   5.291   0.113   4.963
 2534SOL     OW 8500   2.037   0.450   3.328
 2534SOL    HW1 8501   2.136   0.436   3.324
 2534SOL    HW2 8502   2.011   0.476   3.421
 2535SOL     OW 8503   1.694   1.848   4.266
 2535SOL    HW1 8504   1.630   1.783   4.307
 2535SOL    HW2 8505   1.713   1.821   4.172
 2536SOL     OW 8506   6.221   1.071   4.107
 2536SOL    HW1 8507   6.239   0.992   4.166
 2536SOL    HW2 8508   6.287   1.072   4.032
 2537SOL     OW 8509   4.611   6.328   1.100
 2537SOL    HW1 8510   4.704   6.291   1.102
 2537SOL    HW2 8511   4.600   6.383   1.018
 2538SOL     OW 8512   1.733   4.684   4.891
 2538SOL    HW1 8513   1.749   4.763   4.950
 2538SOL    HW2 8514   1.796   4.686   4.813
 2539SOL     OW 8515   4.403   6.879   5.398
 2539SOL    HW1 8516   4.481   6.899   5.340
 2539SOL    HW2 8517   4.323   6.857   5.342
 2540SOL     OW 8518   5.039   0.879   2.025
 2540SOL    HW1 8519   4.958   0.883   2.084
 2540SOL    HW2 8520   5.121   0.864   2.082
 2541SOL     OW 8521   1.264   0.076   5.019
 2541SOL    HW1 8522   1.310   0.160   4.990
 2541SOL    HW2 8523   1.250   0.017   4.940
 2542SOL     OW 8524   3.949   1.672   4.147
 2542SOL    HW1 8525   3.976   1.593   4.092
 2542SOL    HW2 8526   3.994   1.667   4.237
 2543SOL     OW 8527   1.134   0.765   3.121
 2543SOL    HW1 8528   1.150   0.671   3.149
 2543SOL    HW2 8529   1.170   0.780   3.029
 2544SOL     OW 8530   0.020   5.339   1.513
 2544SOL    HW1 8531   6.961   5.315   1.558
 2544SOL    HW2 8532   0.077   5.257   1.503
 2545SOL     OW 8533   2.072   1.852   0.977
 2545SOL    HW1 8534   2.052   1.935   1.028
 2545SOL    HW2 8535   2.129   1.792   1.033
 2546SOL     OW 8536   6.438   3.752   1.809
 2546SOL    HW1 8537   6.401   3.696   1.735
 2546SOL    HW2 8538   6.534   3.727   1.825
 2547SOL     OW 8539   5.879   5.224   0.481
 2547SOL    HW1 8540   5.922   5.137   0.505
 2547SOL    HW2 8541   5.943   5.299   0.499
 2548SOL     OW 8542   1.579   0.120   4.433
 2548SOL    HW1 8543   1.495   0.160   4.395
 2548SOL    HW2 8544   1.556   0.064   4.512
 2549SOL     OW 8545   1.855   2.681   2.166
 2549SOL    HW1 8546   1.846   2.735   2.250
 2549SOL    HW2 8547   1.952   2.669   2.144
 2550SOL     OW 8548   5.611   6.787   0.295
 2550SOL    HW1 8549   5.705   6.795   0.330
 2550SOL    HW2 8550   5.610   6.719   0.221
 2551SOL     OW 8551   3.570   4.697   6.909
 2551SOL    HW1 8552   3.599   4.694   7.004
 2551SOL    HW2 8553   3.629   4.760   6.858
 2552SOL     OW 8554   2.000   4.903   6.869
 2552SOL    HW1 8555   1.985   4.937   6.776
 2552SOL    HW2 8556   2.075   4.953   6.911
 2553SOL     OW 8557   3.361   1.878   6.033
 2553SOL    HW1 8558   3.305   1.920   6.105
 2553SOL    HW2 8559   3.330   1.910   5.944
 2554SOL     OW 8560   1.759   5.733   6.992
 2554SOL    HW1 8561   1.845   5.687   7.015
 2554SOL    HW2 8562   1.683   5.679   0.001
 2555SOL     OW 8563   6.412   5.774   6.291
 2555SOL    HW1 8564   6.473   5.716   6.344
 2555SOL    HW2 8565   6.445   5.868   6.293
 2556SOL     OW 8566   3.678   6.609   1.261
 2556SOL    HW1 8567   3.760   6.594   1.316
 2556SOL    HW2 8568   3.626   6.524   1.255
 2557SOL     OW 8569   3.345   0.086   0.297
 2557SOL    HW1 8570   3.352   0.127   0.206
 2557SOL    HW2 8571   3.253   0.047   0.309
 2558SOL     OW 8572   5.549   4.330   5.944
 2558SOL    HW1 8573   5.591   4.240   5.956
 2558SOL    HW2 8574   5.461   4.320   5.898
 2559SOL     OW 8575   0.004   3.602   3.022
 2559SOL    HW1 8576   0.036   3.552   2.941
 2559SOL    HW2 8577   7.006   3.537   3.094
 2560SOL     OW 8578   5.230   3.380   3.485
 2560SOL    HW1 8579   5.290   3.459   3.475
 2560SOL    HW2 8580   5.247   3.336   3.573
 2561SOL     OW 8581   3.479   1.032   4.071
 2561SOL    HW1 8582   3.464   1.026   3.972
 2561SOL    HW2 8583   3.542   0.960   4.100
 2562SOL     OW 8584   3.387   6.532   3.035
 2562SOL    HW1 8585   3.347   6.543   2.945
 2562SOL    HW2 8586   3.327   6.478   3.093
 2563SOL     OW 8587   3.032   1.273   6.661
 2563SOL    HW1 8588   3.088   1.251   6.741
 2563SOL    HW2 8589   3.029   1.195   6.599
 2564SOL     OW 8590   2.424   0.573   0.474
 2564SOL    HW1 8591   2.460   0.578   0.381
 2564SOL    HW2 8592   2.361   0.649   0.490
 2565SOL     OW 8593   0.311   1.411   6.616
 2565SOL    HW1 8594   0.279   1.471   6.690
 2565SOL    HW2 8595   0.294   1.316   6.640
 2566SOL     OW 8596   2.877   0.166   1.641
 2566SOL    HW1 8597   2.953   0.206   1.691
 2566SOL    HW2 8598   2.790   0.205   1.674
 2567SOL     OW 8599   1.300   1.199   0.236
 2567SOL    HW1 8600   1.233   1.132   0.268
 2567SOL    HW2 8601   1.388   1.181   0.281
 2568SOL     OW 8602   2.969   6.753   1.029
 2568SOL    HW1 8603   3.018   6.770   0.944
 2568SOL    HW2 8604   2.968   6.836   1.084
 2569SOL     OW 8605   1.982   1.119   1.099
 2569SOL    HW1 8606   1.900   1.115   1.041
 2569SOL    HW2 8607   1.973   1.053   1.173
 2570SOL     OW 8608   5.366   5.811   6.691
 2570SOL    HW1 8609   5.302   5.804   6.615
 2570SOL    HW2 8610   5.340   5.747   6.763
 2571SOL     OW 8611   3.423   2.910   4.382
 2571SOL    HW1 8612   3.516   2.904   4.419
 2571SOL    HW2 8613   3.359   2.934   4.455
 2572SOL     OW 8614   2.666   5.498   1.423
 2572SOL    HW1 8615   2.716   5.451   1.495
 2572SOL    HW2 8616   2.572   5.514   1.452
 2573SOL     OW 8617   6.426   2.118   3.951
 2573SOL    HW1 8618   6.478   2.089   4.032
 2573SOL    HW2 8619   6.419   2.217   3.950
 2574SOL     OW 8620   6.498   2.842   1.129
 2574SOL    HW1 8621   6.575   2.838   1.192
 2574SOL    HW2 8622   6.415   2.815   1.176
 2575SOL     OW 8623   4.964   4.019   0.307
 2575SOL    HW1 8624   5.055   4.056   0.325
 2575SOL    HW2 8625   4.972   3.935   0.254
 2576SOL     OW 8626   2.620   0.094   3.728
 2576SOL    HW1 8627   2.662   0.156   3.794
 2576SOL    HW2 8628   2.540   0.138   3.687
 2577SOL     OW 8629   3.580   0.587   3.345
 2577SOL    HW1 8630   3.556   0.653   3.274
 2577SOL    HW2 8631   3.603   0.636   3.429
 2578SOL     OW 8632   4.873   2.793   4.586
 2578SOL    HW1 8633   4.942   2.731   4.623
 2578SOL    HW2 8634   4.864   2.779   4.487
 2579SOL     OW 8635   0.599   1.679   5.920
 2579SOL    HW1 8636   0.580   1.581   5.910
 2579SOL    HW2 8637   0.644   1.696   6.008
 2580SOL     OW 8638   1.692   2.472   5.883
 2580SOL    HW1 8639   1.609   2.469   5.827
 2580SOL    HW2 8640   1.701   2.385   5.932
 2581SOL     OW 8641   5.189   5.711   1.957
 2581SOL    HW1 8642   5.251   5.778   1.998
 2581SOL    HW2 8643   5.148   5.750   1.875
 2582SOL     OW 8644   1.696   5.456   2.657
 2582SOL    HW1 8645   1.689   5.448   2.756
 2582SOL    HW2 8646   1.639   5.531   2.625
 2583SOL     OW 8647   1.122   0.980   1.241
 2583SOL    HW1 8648   1.151   0.925   1.163
 2583SOL    HW2 8649   1.033   0.948   1.273
 2584SOL     OW 8650   3.548   6.294   0.910
 2584SOL    HW1 8651   3.506   6.381   0.935
 2584SOL    HW2 8652   3.496   6.219   0.952
 2585SOL     OW 8653   2.995   7.011   1.114
 2585SOL    HW1 8654   3.031   0.028   1.031
 2585SOL    HW2 8655   3.025   0.037   1.194
 2586SOL     OW 8656   6.217   1.541   5.139
 2586SOL    HW1 8657   6.253   1.447   5.143
 2586SOL    HW2 8658   6.207   1.576   5.232
 2587SOL     OW 8659   6.629   0.316   4.783
 2587SOL    HW1 8660   6.551   0.350   4.836
 2587SOL    HW2 8661   6.595   0.269   4.701
 2588SOL     OW 8662   5.235   0.042   1.447
 2588SOL    HW1 8663   5.335   0.044   1.446
 2588SOL    HW2 8664   5.203   0.053   1.541
 2589SOL     OW 8665   6.754   0.381   5.484
 2589SOL    HW1 8666   6.782   0.474   5.459
 2589SOL    HW2 8667   6.759   0.321   5.404
 2590SOL     OW 8668   3.350   0.010   2.681
 2590SOL    HW1 8669   3.397   0.092   2.649
 2590SOL    HW2 8670   3.357   0.004   2.780
 2591SOL     OW 8671   5.137   6.109   1.081
 2591SOL    HW1 8672   5.189   6.159   1.013
 2591SOL    HW2 8673   5.199   6.061   1.143
 2592SOL     OW 8674   3.082   5.842   1.524
 2592SOL    HW1 8675   3.132   5.756   1.528
 2592SOL    HW2 8676   3.142   5.914   1.491
 2593SOL     OW 8677   3.289   0.319   2.881
 2593SOL    HW1 8678   3.382   0.345   2.856
 2593SOL    HW2 8679   3.290   0.228   2.921
 2594SOL     OW 8680   0.652   0.334   6.403
 2594SOL    HW1 8681   0.636   0.380   6.491
 2594SOL    HW2 8682   0.699   0.397   6.341
 2595SOL     OW 8683   6.809   2.932   5.258
 2595SOL    HW1 8684   6.759   2.957   5.175
 2595SOL    HW2 8685   6.800   2.834   5.274
 2596SOL     OW 8686   3.935   2.378   1.706
 2596SOL    HW1 8687   3.853   2.381   1.763
 2596SOL    HW2 8688   3.999   2.309   1.742
 2597SOL     OW 8689   2.524   3.004   0.866
 2597SOL    HW1 8690   2.492   3.055   0.946
 2597SOL    HW2 8691   2.608   3.047   0.831
 2598SOL     OW 8692   6.666   2.945   4.644
 2598SOL    HW1 8693   6.705   3.031   4.609
 2598SOL    HW2 8694   6.608   2.904   4.573
 2599SOL     OW 8695   3.351   5.930   5.781
 2599SOL    HW1 8696   3.407   5.982   5.845
 2599SOL    HW2 8697   3.406   5.903   5.702
 2600SOL     OW 8698   5.083   3.675   3.690
 2600SOL    HW1 8699   5.004   3.735   3.705
 2600SOL    HW2 8700   5.089   3.609   3.765
 2601SOL     OW 8701   2.998   2.301   6.424
 2601SOL    HW1 8702   3.078   2.352   6.393
 2601SOL    HW2 8703   2.987   2.219   6.369
 2602SOL     OW 8704   6.915   4.778   4.643
 2602SOL    HW1 8705   6.943   4.683   4.653
 2602SOL    HW2 8706   6.995   4.835   4.626
 2603SOL     OW 8707   2.349   2.768   2.032
 2603SOL    HW1 8708   2.359   2.694   2.099
 2603SOL    HW2 8709   2.428   2.768   1.970
 2604SOL     OW 8710   5.365   0.345   1.246
 2604SOL    HW1 8711   5.297   0.348   1.319
 2604SOL    HW2 8712   5.437   0.280   1.270
 2605SOL     OW 8713   4.595   4.670   3.311
 2605SOL    HW1 8714   4.503   4.632   3.298
 2605SOL    HW2 8715   4.663   4.598   3.298
 2606SOL     OW 8716   6.780   4.145   0.325
 2606SOL    HW1 8717   6.771   4.076   0.253
 2606SOL    HW2 8718   6.831   4.223   0.291
 2607SOL     OW 8719   1.584   1.814   4.598
 2607SOL    HW1 8720   1.534   1.750   4.657
 2607SOL    HW2 8721   1.657   1.857   4.651
 2608SOL     OW 8722   4.925   0.462   2.540
 2608SOL    HW1 8723   4.939   0.365   2.523
 2608SOL    HW2 8724   4.875   0.474   2.625
 2609SOL     OW 8725   0.855   2.006   2.037
 2609SOL    HW1 8726   0.877   2.079   2.102
 2609SOL    HW2 8727   0.901   1.922   2.064
 2610SOL     OW 8728   6.660   5.758   4.332
 2610SOL    HW1 8729   6.623   5.839   4.286
 2610SOL    HW2 8730   6.753   5.776   4.362
 2611SOL     OW 8731   6.202   6.219   1.275
 2611SOL    HW1 8732   6.277   6.259   1.327
 2611SOL    HW2 8733   6.185   6.273   1.193
 2612SOL     OW 8734   5.767   6.210   4.630
 2612SOL    HW1 8735   5.757   6.170   4.539
 2612SOL    HW2 8736   5.678   6.212   4.675
 2613SOL     OW 8737   3.388   6.424   1.926
 2613SOL    HW1 8738   3.375   6.456   2.020
 2613SOL    HW2 8739   3.325   6.349   1.907
 2614SOL     OW 8740   6.266   6.700   5.467
 2614SOL    HW1 8741   6.231   6.698   5.373
 2614SOL    HW2 8742   6.193   6.727   5.529
 2615SOL     OW 8743   5.423   5.822   3.642
 2615SOL    HW1 8744   5.453   5.851   3.733
 2615SOL    HW2 8745   5.432   5.722   3.635
 2616SOL     OW 8746   4.053   3.533   4.135
 2616SOL    HW1 8747   3.953   3.527   4.137
 2616SOL    HW2 8748   4.081   3.610   4.078
 2617SOL     OW 8749   3.367   5.167   1.078
 2617SOL    HW1 8750   3.365   5.203   1.171
 2617SOL    HW2 8751   3.278   5.179   1.035
 2618SOL     OW 8752   6.835   6.606   2.849
 2618SOL    HW1 8753   6.906   6.613   2.919
 2618SOL    HW2 8754   6.745   6.602   2.892
 2619SOL     OW 8755   4.547   1.598   2.044
 2619SOL    HW1 8756   4.619   1.605   1.975
 2619SOL    HW2 8757   4.491   1.681   2.041
 2620SOL     OW 8758   1.788   5.378   3.330
 2620SOL    HW1 8759   1.720   5.326   3.381
 2620SOL    HW2 8760   1.851   5.316   3.284
 2621SOL     OW 8761   1.016   5.558   3.574
 2621SOL    HW1 8762   1.081   5.622   3.533
 2621SOL    HW2 8763   1.009   5.577   3.672
 2622SOL     OW 8764   1.967   3.042   6.127
 2622SOL    HW1 8765   1.955   2.943   6.138
 2622SOL    HW2 8766   2.026   3.060   6.049
 2623SOL     OW 8767   4.116   1.013   4.524
 2623SOL    HW1 8768   4.137   1.093   4.581
 2623SOL    HW2 8769   4.170   1.018   4.439
 2624SOL     OW 8770   6.551   2.858   3.591
 2624SOL    HW1 8771   6.472   2.804   3.563
 2624SOL    HW2 8772   6.607   2.805   3.655
 2625SOL     OW 8773   1.849   2.973   5.143
 2625SOL    HW1 8774   1.913   2.897   5.148
 2625SOL    HW2 8775   1.837   3.000   5.047
 2626SOL     OW 8776   0.493   6.173   3.930
 2626SOL    HW1 8777   0.495   6.150   4.027
 2626SOL    HW2 8778   0.398   6.178   3.899
 2627SOL     OW 8779   0.281   0.958   4.917
 2627SOL    HW1 8780   0.325   0.881   4.871
 2627SOL    HW2 8781   0.336   1.041   4.904
 2628SOL     OW 8782   3.780   6.212   6.626
 2628SOL    HW1 8783   3.851   6.158   6.672
 2628SOL    HW2 8784   3.701   6.223   6.687
 2629SOL     OW 8785   3.843   3.668   1.932
 2629SOL    HW1 8786   3.806   3.576   1.941
 2629SOL    HW2 8787   3.943   3.663   1.927
 2630SOL     OW 8788   3.454   2.121   2.189
 2630SOL    HW1 8789   3.493   2.031   2.208
 2630SOL    HW2 8790   3.519   2.175   2.136
 2631SOL     OW 8791   4.295   6.875   4.078
 2631SOL    HW1 8792   4.362   6.909   4.012
 2631SOL    HW2 8793   4.271   6.781   4.056
 2632SOL     OW 8794   3.389   2.328   6.534
 2632SOL    HW1 8795   3.441   2.387   6.473
 2632SOL    HW2 8796   3.403   2.232   6.508
 2633SOL     OW 8797   5.901   2.543   6.676
 2633SOL    HW1 8798   5.959   2.478   6.725
 2633SOL    HW2 8799   5.866   2.611   6.741
 2634SOL     OW 8800   1.735   4.098   2.532
 2634SOL    HW1 8801   1.637   4.079   2.524
 2634SOL    HW2 8802   1.787   4.018   2.503
 2635SOL     OW 8803   5.240   6.041   4.354
 2635SOL    HW1 8804   5.168   5.975   4.377
 2635SOL    HW2 8805   5.224   6.126   4.404
 2636SOL     OW 8806   6.352   0.406   6.625
 2636SOL    HW1 8807   6.397   0.348   6.557
 2636SOL    HW2 8808   6.253   0.402   6.611
 2637SOL     OW 8809   6.432   0.870   3.436
 2637SOL    HW1 8810   6.376   0.795   3.471
 2637SOL    HW2 8811   6.519   0.873   3.486
 2638SOL     OW 8812   5.699   0.427   2.024
 2638SOL    HW1 8813   5.611   0.391   2.054
 2638SOL    HW2 8814   5.704   0.425   1.925
 2639SOL     OW 8815   6.019   6.867   2.351
 2639SOL    HW1 8816   6.047   6.777   2.317
 2639SOL    HW2 8817   6.017   6.933   2.275
 2640SOL     OW 8818   6.610   6.437   5.415
 2640SOL    HW1 8819   6.587   6.340   5.408
 2640SOL    HW2 8820   6.673   6.462   5.342
 2641SOL     OW 8821   5.843   3.326   0.922
 2641SOL    HW1 8822   5.892   3.402   0.879
 2641SOL    HW2 8823   5.876   3.240   0.885
 2642SOL     OW 8824   6.005   0.677   4.505
 2642SOL    HW1 8825   5.936   0.732   4.552
 2642SOL    HW2 8826   6.096   0.698   4.541
 2643SOL     OW 8827   0.109   5.520   3.285
 2643SOL    HW1 8828   0.206   5.542   3.276
 2643SOL    HW2 8829   0.095   5.423   3.265
 2644SOL     OW 8830   0.686   4.411   5.672
 2644SOL    HW1 8831   0.754   4.349   5.632
 2644SOL    HW2 8832   0.594   4.381   5.646
 2645SOL     OW 8833   4.458   6.497   5.222
 2645SOL    HW1 8834   4.539   6.532   5.174
 2645SOL    HW2 8835   4.389   6.469   5.154
 2646SOL     OW 8836   6.337   7.005   6.123
 2646SOL    HW1 8837   6.325   6.911   6.091
 2646SOL    HW2 8838   6.285   7.018   6.207
 2647SOL     OW 8839   5.219   0.479   1.070
 2647SOL    HW1 8840   5.176   0.436   0.991
 2647SOL    HW2 8841   5.256   0.408   1.131
 2648SOL     OW 8842   6.265   0.262   3.336
 2648SOL    HW1 8843   6.327   0.211   3.395
 2648SOL    HW2 8844   6.296   0.256   3.241
 2649SOL     OW 8845   4.277   1.412   5.733
 2649SOL    HW1 8846   4.362   1.361   5.748
 2649SOL    HW2 8847   4.273   1.488   5.797
 2650SOL     OW 8848   0.574   5.370   3.809
 2650SOL    HW1 8849   0.526   5.283   3.823
 2650SOL    HW2 8850   0.555   5.431   3.886
 2651SOL     OW 8851   1.073   1.386   0.787
 2651SOL    HW1 8852   1.116   1.348   0.704
 2651SOL    HW2 8853   1.008   1.457   0.760
 2652SOL     OW 8854   3.365   2.966   3.618
 2652SOL    HW1 8855   3.414   3.005   3.540
 2652SOL    HW2 8856   3.280   3.016   3.632
 2653SOL     OW 8857   5.046   6.827   5.454
 2653SOL    HW1 8858   4.996   6.740   5.459
 2653SOL    HW2 8859   4.987   6.898   5.416
 2654SOL     OW 8860   5.018   3.203   6.866
 2654SOL    HW1 8861   5.092   3.245   6.813
 2654SOL    HW2 8862   5.042   3.108   6.886
 2655SOL     OW 8863   4.110   4.776   4.015
 2655SOL    HW1 8864   4.039   4.847   4.020
 2655SOL    HW2 8865   4.147   4.761   4.107
 2656SOL     OW 8866   4.966   4.839   4.065
 2656SOL    HW1 8867   5.030   4.795   4.002
 2656SOL    HW2 8868   4.889   4.779   4.083
 2657SOL     OW 8869   2.673   4.171   6.164
 2657SOL    HW1 8870   2.736   4.231   6.115
 2657SOL    HW2 8871   2.635   4.104   6.101
 2658SOL     OW 8872   6.013   4.691   6.565
 2658SOL    HW1 8873   6.017   4.729   6.472
 2658SOL    HW2 8874   5.941   4.622   6.569
 2659SOL     OW 8875   6.703   2.237   4.292
 2659SOL    HW1 8876   6.767   2.307   4.325
 2659SOL    HW2 8877   6.619   2.240   4.348
 2660SOL     OW 8878   0.338   1.968   1.356
 2660SOL    HW1 8879   0.386   2.035   1.412
 2660SOL    HW2 8880   0.375   1.877   1.374
 2661SOL     OW 8881   2.560   6.842   2.067
 2661SOL    HW1 8882   2.531   6.823   1.973
 2661SOL    HW2 8883   2.587   6.938   2.075
 2662SOL     OW 8884   4.416   6.582   4.821
 2662SOL    HW1 8885   4.374   6.531   4.896
 2662SOL    HW2 8886   4.368   6.669   4.808
 2663SOL     OW 8887   2.241   4.434   1.455
 2663SOL    HW1 8888   2.175   4.359   1.466
 2663SOL    HW2 8889   2.315   4.425   1.522
 2664SOL     OW 8890   3.559   4.163   3.449
 2664SOL    HW1 8891   3.648   4.116   3.448
 2664SOL    HW2 8892   3.542   4.198   3.541
 2665SOL     OW 8893   3.623   2.100   5.211
 2665SOL    HW1 8894   3.606   2.197   5.227
 2665SOL    HW2 8895   3.599   2.077   5.117
 2666SOL     OW 8896   4.701   4.248   1.131
 2666SOL    HW1 8897   4.616   4.214   1.090
 2666SOL    HW2 8898   4.681   4.329   1.185
 2667SOL     OW 8899   1.779   6.077   4.856
 2667SOL    HW1 8900   1.747   5.988   4.889
 2667SOL    HW2 8901   1.795   6.073   4.757
 2668SOL     OW 8902   6.516   3.761   4.086
 2668SOL    HW1 8903   6.603   3.737   4.044
 2668SOL    HW2 8904   6.529   3.777   4.184
 2669SOL     OW 8905   3.314   4.908   5.624
 2669SOL    HW1 8906   3.323   4.952   5.534
 2669SOL    HW2 8907   3.395   4.929   5.679
 2670SOL     OW 8908   6.079   1.677   6.658
 2670SOL    HW1 8909   6.045   1.759   6.613
 2670SOL    HW2 8910   6.177   1.686   6.674
 2671SOL     OW 8911   2.558   3.804   0.248
 2671SOL    HW1 8912   2.576   3.899   0.275
 2671SOL    HW2 8913   2.499   3.761   0.316
 2672SOL     OW 8914   1.423   5.486   6.777
 2672SOL    HW1 8915   1.509   5.526   6.745
 2672SOL    HW2 8916   1.375   5.445   6.699
 2673SOL     OW 8917   5.695   2.470   3.769
 2673SOL    HW1 8918   5.721   2.547   3.827
 2673SOL    HW2 8919   5.660   2.504   3.682
 2674SOL     OW 8920   1.958   4.225   4.461
 2674SOL    HW1 8921   2.040   4.209   4.406
 2674SOL    HW2 8922   1.891   4.153   4.444
 2675SOL     OW 8923   1.367   4.620   5.597
 2675SOL    HW1 8924   1.378   4.703   5.543
 2675SOL    HW2 8925   1.320   4.643   5.683
 2676SOL     OW 8926   4.642   0.991   2.675
 2676SOL    HW1 8927   4.679   1.082   2.657
 2676SOL    HW2 8928   4.670   0.961   2.766
 2677SOL     OW 8929   3.142   5.133   1.439
 2677SOL    HW1 8930   3.126   5.146   1.537
 2677SOL    HW2 8931   3.057   5.151   1.389
 2678SOL     OW 8932   0.529   4.632   0.474
 2678SOL    HW1 8933   0.435   4.629   0.508
 2678SOL    HW2 8934   0.569   4.540   0.477
 2679SOL     OW 8935   3.796   5.562   1.560
 2679SOL    HW1 8936   3.874   5.500   1.545
 2679SOL    HW2 8937   3.728   5.516   1.617
 2680SOL     OW 8938   1.733   1.933   0.327
 2680SOL    HW1 8939   1.680   1.930   0.412
 2680SOL    HW2 8940   1.817   1.880   0.338
 2681SOL     OW 8941   1.929   3.590   4.102
 2681SOL    HW1 8942   1.867   3.542   4.039
 2681SOL    HW2 8943   2.000   3.637   4.050
 2682SOL     OW 8944   5.852   3.195   2.649
 2682SOL    HW1 8945   5.899   3.116   2.610
 2682SOL    HW2 8946   5.855   3.189   2.749
 2683SOL     OW 8947   1.153   4.313   1.157
 2683SOL    HW1 8948   1.148   4.389   1.092
 2683SOL    HW2 8949   1.062   4.291   1.190
 2684SOL     OW 8950   3.777   5.488   2.249
 2684SOL    HW1 8951   3.822   5.516   2.334
 2684SOL    HW2 8952   3.793   5.390   2.234
 2685SOL     OW 8953   5.992   6.942   4.727
 2685SOL    HW1 8954   5.980   6.866   4.791
 2685SOL    HW2 8955   5.981   0.002   4.775
 2686SOL     OW 8956   1.515   2.485   4.050
 2686SOL    HW1 8957   1.463   2.400   4.053
 2686SOL    HW2 8958   1.458   2.557   4.011
 2687SOL     OW 8959   4.248   4.709   2.697
 2687SOL    HW1 8960   4.212   4.689   2.605
 2687SOL    HW2 8961   4.333   4.762   2.689
 2688SOL     OW 8962   4.263   5.867   5.898
 2688SOL    HW1 8963   4.238   5.934   5.968
 2688SOL    HW2 8964   4.217   5.780   5.917
 2689SOL     OW 8965   2.083   1.729   3.764
 2689SOL    HW1 8966   1.999   1.776   3.739
 2689SOL    HW2 8967   2.162   1.782   3.734
 2690SOL     OW 8968   3.793   2.997   3.702
 2690SOL    HW1 8969   3.714   2.947   3.735
 2690SOL    HW2 8970   3.846   3.031   3.780
 2691SOL     OW 8971   1.649   5.303   2.021
 2691SOL    HW1 8972   1.688   5.368   1.954
 2691SOL    HW2 8973   1.712   5.227   2.034
 2692SOL     OW 8974   5.983   5.798   4.119
 2692SOL    HW1 8975   5.977   5.832   4.025
 2692SOL    HW2 8976   6.027   5.867   4.176
 2693SOL     OW 8977   2.400   4.822   3.070
 2693SOL    HW1 8978   2.413   4.819   3.169
 2693SOL    HW2 8979   2.366   4.734   3.038
 2694SOL     OW 8980   3.147   1.070   2.867
 2694SOL    HW1 8981   3.153   1.111   2.776
 2694SOL    HW2 8982   3.140   0.970   2.859
 2695SOL     OW 8983   5.230   1.751   2.608
 2695SOL    HW1 8984   5.308   1.772   2.667
 2695SOL    HW2 8985   5.215   1.827   2.545
 2696SOL     OW 8986   3.540   2.636   5.624
 2696SOL    HW1 8987   3.577   2.633   5.531
 2696SOL    HW2 8988   3.513   2.730   5.646
 2697SOL     OW 8989   4.289   2.301   3.898
 2697SOL    HW1 8990   4.379   2.342   3.886
 2697SOL    HW2 8991   4.247   2.334   3.982
 2698SOL     OW 8992   1.824   5.208   0.459
 2698SOL    HW1 8993   1.866   5.171   0.376
 2698SOL    HW2 8994   1.869   5.169   0.539
 2699SOL     OW 8995   3.864   5.506   6.485
 2699SOL    HW1 8996   3.902   5.418   6.514
 2699SOL    HW2 8997   3.939   5.571   6.468
 2700SOL     OW 8998   1.895   3.529   2.264
 2700SOL    HW1 8999   1.828   3.541   2.190
 2700SOL    HW2 9000   1.959   3.456   2.239
 2701SOL     OW 9001   3.774   6.985   6.745
 2701SOL    HW1 9002   3.733   6.899   6.776
 2701SOL    HW2 9003   3.768   6.991   6.646
 2702SOL     OW 9004   6.846   1.947   3.096
 2702SOL    HW1 9005   6.860   1.866   3.039
 2702SOL    HW2 9006   6.759   1.938   3.146
 2703SOL     OW 9007   2.581   0.784   3.112
 2703SOL    HW1 9008   2.657   0.811   3.171
 2703SOL    HW2 9009   2.611   0.710   3.051
 2704SOL     OW 9010   1.545   5.436   1.521
 2704SOL    HW1 9011   1.494   5.356   1.490
 2704SOL    HW2 9012   1.494   5.482   1.595
 2705SOL     OW 9013   0.588   5.374   4.492
 2705SOL    HW1 9014   0.649   5.322   4.552
 2705SOL    HW2 9015   0.568   5.463   4.534
 2706SOL     OW 9016   0.138   1.039   1.701
 2706SOL    HW1 9017   0.192   1.063   1.620
 2706SOL    HW2 9018   0.055   0.991   1.674
 2707SOL     OW 9019   2.198   0.644   5.640
 2707SOL    HW1 9020   2.247   0.666   5.724
 2707SOL    HW2 9021   2.149   0.726   5.608
 2708SOL     OW 9022   2.278   2.649   1.592
 2708SOL    HW1 9023   2.342   2.666   1.517
 2708SOL    HW2 9024   2.317   2.683   1.677
 2709SOL     OW 9025   4.969   6.740   1.340
 2709SOL    HW1 9026   5.036   6.787   1.284
 2709SOL    HW2 9027   4.877   6.760   1.306
 2710SOL     OW 9028   6.508   4.046   2.500
 2710SOL    HW1 9029   6.479   4.002   2.415
 2710SOL    HW2 9030   6.604   4.024   2.517
 2711SOL     OW 9031   2.447   0.287   2.952
 2711SOL    HW1 9032   2.355   0.270   2.985
 2711SOL    HW2 9033   2.445   0.302   2.853
 2712SOL     OW 9034   3.986   5.085   6.774
 2712SOL    HW1 9035   3.986   5.178   6.812
 2712SOL    HW2 9036   3.991   5.089   6.675
 2713SOL     OW 9037   1.986   2.484   4.708
 2713SOL    HW1 9038   1.972   2.470   4.610
 2713SOL    HW2 9039   2.006   2.396   4.752
 2714SOL     OW 9040   5.188   1.705   6.847
 2714SOL    HW1 9041   5.210   1.609   6.827
 2714SOL    HW2 9042   5.090   1.719   6.842
 2715SOL     OW 9043   6.508   0.515   0.396
 2715SOL    HW1 9044   6.504   0.461   0.311
 2715SOL    HW2 9045   6.602   0.543   0.412
 2716SOL     OW 9046   6.785   5.240   1.832
 2716SOL    HW1 9047   6.794   5.276   1.739
 2716SOL    HW2 9048   6.688   5.235   1.856
 2717SOL     OW 9049   0.855   5.576   2.043
 2717SOL    HW1 9050   0.829   5.669   2.069
 2717SOL    HW2 9051   0.777   5.514   2.056
 2718SOL     OW 9052   2.125   4.237   4.225
 2718SOL    HW1 9053   2.171   4.262   4.139
 2718SOL    HW2 9054   2.131   4.313   4.289
 2719SOL     OW 9055   4.550   4.932   2.189
 2719SOL    HW1 9056   4.477   4.957   2.251
 2719SOL    HW2 9057   4.601   4.855   2.227
 2720SOL     OW 9058   1.647   6.081   3.526
 2720SOL    HW1 9059   1.680   6.176   3.529
 2720SOL    HW2 9060   1.691   6.033   3.450
 2721SOL     OW 9061   2.906   0.328   5.082
 2721SOL    HW1 9062   2.947   0.329   4.990
 2721SOL    HW2 9063   2.974   0.355   5.149
 2722SOL     OW 9064   6.527   5.406   3.090
 2722SOL    HW1 9065   6.508   5.327   3.032
 2722SOL    HW2 9066   6.604   5.457   3.054
 2723SOL     OW 9067   1.763   1.376   5.962
 2723SOL    HW1 9068   1.746   1.302   5.896
 2723SOL    HW2 9069   1.740   1.464   5.920
 2724SOL     OW 9070   2.747   5.965   5.049
 2724SOL    HW1 9071   2.706   5.928   4.966
 2724SOL    HW2 9072   2.675   5.992   5.113
 2725SOL     OW 9073   6.181   4.927   3.422
 2725SOL    HW1 9074   6.188   5.027   3.416
 2725SOL    HW2 9075   6.148   4.902   3.513
 2726SOL     OW 9076   5.046   4.798   1.795
 2726SOL    HW1 9077   5.080   4.815   1.703
 2726SOL    HW2 9078   5.087   4.714   1.831
 2727SOL     OW 9079   0.689   4.695   3.229
 2727SOL    HW1 9080   0.775   4.686   3.180
 2727SOL    HW2 9081   0.612   4.686   3.165
 2728SOL     OW 9082   3.005   0.603   4.722
 2728SOL    HW1 9083   2.957   0.585   4.809
 2728SOL    HW2 9084   2.938   0.606   4.648
 2729SOL     OW 9085   6.870   5.875   2.381
 2729SOL    HW1 9086   6.796   5.841   2.323
 2729SOL    HW2 9087   6.943   5.807   2.385
 2730SOL     OW 9088   2.111   6.853   0.829
 2730SOL    HW1 9089   2.153   6.774   0.875
 2730SOL    HW2 9090   2.011   6.845   0.834
 2731SOL     OW 9091   2.857   3.740   1.419
 2731SOL    HW1 9092   2.832   3.748   1.516
 2731SOL    HW2 9093   2.948   3.699   1.412
 2732SOL     OW 9094   6.100   3.072   2.265
 2732SOL    HW1 9095   6.044   3.029   2.194
 2732SOL    HW2 9096   6.196   3.050   2.248
 2733SOL     OW 9097   0.901   6.753   5.503
 2733SOL    HW1 9098   0.962   6.704   5.566
 2733SOL    HW2 9099   0.881   6.844   5.539
 2734SOL     OW 9100   1.663   5.425   2.943
 2734SOL    HW1 9101   1.652   5.516   2.983
 2734SOL    HW2 9102   1.591   5.365   2.978
 2735SOL     OW 9103   0.396   3.197   2.216
 2735SOL    HW1 9104   0.438   3.122   2.165
 2735SOL    HW2 9105   0.423   3.191   2.312
 2736SOL     OW 9106   4.931   0.649   4.911
 2736SOL    HW1 9107   4.998   0.677   4.843
 2736SOL    HW2 9108   4.972   0.581   4.972
 2737SOL     OW 9109   3.217   3.223   6.446
 2737SOL    HW1 9110   3.230   3.172   6.531
 2737SOL    HW2 9111   3.202   3.319   6.467
 2738SOL     OW 9112   4.954   5.674   4.434
 2738SOL    HW1 9113   4.934   5.713   4.344
 2738SOL    HW2 9114   5.016   5.735   4.484
 2739SOL     OW 9115   5.903   4.396   0.649
 2739SOL    HW1 9116   5.937   4.304   0.671
 2739SOL    HW2 9117   5.829   4.420   0.711
 2740SOL     OW 9118   5.387   2.071   2.384
 2740SOL    HW1 9119   5.312   2.100   2.444
 2740SOL    HW2 9120   5.376   1.974   2.363
 2741SOL     OW 9121   0.086   1.981   5.998
 2741SOL    HW1 9122   7.015   2.002   5.984
 2741SOL    HW2 9123   0.094   1.911   6.070
 2742SOL     OW 9124   1.731   6.251   6.339
 2742SOL    HW1 9125   1.693   6.236   6.429
 2742SOL    HW2 9126   1.686   6.191   6.273
 2743SOL     OW 9127   6.297   5.634   1.693
 2743SOL    HW1 9128   6.255   5.585   1.616
 2743SOL    HW2 9129   6.276   5.732   1.684
 2744SOL     OW 9130   4.184   1.905   0.145
 2744SOL    HW1 9131   4.256   1.949   0.091
 2744SOL    HW2 9132   4.189   1.936   0.239
 2745SOL     OW 9133   2.156   6.544   0.250
 2745SOL    HW1 9134   2.151   6.578   0.156
 2745SOL    HW2 9135   2.182   6.448   0.249
 2746SOL     OW 9136   1.983   3.271   4.755
 2746SOL    HW1 9137   1.946   3.317   4.835
 2746SOL    HW2 9138   2.063   3.217   4.781
 2747SOL     OW 9139   5.294   4.365   5.532
 2747SOL    HW1 9140   5.315   4.403   5.442
 2747SOL    HW2 9141   5.257   4.436   5.591
 2748SOL     OW 9142   3.581   1.750   2.688
 2748SOL    HW1 9143   3.535   1.820   2.632
 2748SOL    HW2 9144   3.661   1.790   2.732
 2749SOL     OW 9145   4.966   5.024   4.480
 2749SOL    HW1 9146   4.987   5.047   4.384
 2749SOL    HW2 9147   4.907   4.944   4.483
 2750SOL     OW 9148   1.030   5.181   1.441
 2750SOL    HW1 9149   1.033   5.138   1.531
 2750SOL    HW2 9150   0.935   5.197   1.415
 2751SOL     OW 9151   1.786   0.315   0.101
 2751SOL    HW1 9152   1.882   0.328   0.074
 2751SOL    HW2 9153   1.774   0.221   0.134
 2752SOL     OW 9154   5.134   5.603   5.150
 2752SOL    HW1 9155   5.088   5.691   5.137
 2752SOL    HW2 9156   5.155   5.563   5.061
 2753SOL     OW 9157   2.905   5.629   6.199
 2753SOL    HW1 9158   2.878   5.631   6.296
 2753SOL    HW2 9159   2.978   5.695   6.184
 2754SOL     OW 9160   6.662   0.196   4.104
 2754SOL    HW1 9161   6.581   0.252   4.124
 2754SOL    HW2 9162   6.638   0.099   4.113
 2755SOL     OW 9163   2.814   6.763   3.280
 2755SOL    HW1 9164   2.841   6.757   3.184
 2755SOL    HW2 9165   2.808   6.859   3.307
 2756SOL     OW 9166   6.323   4.520   3.964
 2756SOL    HW1 9167   6.363   4.549   4.051
 2756SOL    HW2 9168   6.392   4.470   3.912
 2757SOL     OW 9169   3.145   1.508   6.511
 2757SOL    HW1 9170   3.060   1.463   6.536
 2757SOL    HW2 9171   3.194   1.536   6.594
 2758SOL     OW 9172   5.213   5.915   3.507
 2758SOL    HW1 9173   5.190   6.008   3.535
 2758SOL    HW2 9174   5.277   5.875   3.572
 2759SOL     OW 9175   3.454   4.663   5.691
 2759SOL    HW1 9176   3.412   4.572   5.692
 2759SOL    HW2 9177   3.383   4.732   5.679
 2760SOL     OW 9178   6.174   5.813   2.753
 2760SOL    HW1 9179   6.139   5.906   2.752
 2760SOL    HW2 9180   6.243   5.804   2.826
 2761SOL     OW 9181   1.275   4.209   3.181
 2761SOL    HW1 9182   1.257   4.286   3.242
 2761SOL    HW2 9183   1.373   4.203   3.163
 2762SOL     OW 9184   0.957   2.252   0.037
 2762SOL    HW1 9185   0.935   2.156   0.020
 2762SOL    HW2 9186   0.874   2.308   0.028
 2763SOL     OW 9187   5.015   1.829   5.956
 2763SOL    HW1 9188   4.966   1.764   6.014
 2763SOL    HW2 9189   5.027   1.915   6.005
 2764SOL     OW 9190   0.501   4.524   2.611
 2764SOL    HW1 9191   0.427   4.566   2.664
 2764SOL    HW2 9192   0.518   4.432   2.646
 2765SOL     OW 9193   6.877   6.885   1.019
 2765SOL    HW1 9194   6.793   6.848   0.980
 2765SOL    HW2 9195   6.891   6.979   0.987
 2766SOL     OW 9196   4.064   0.861   6.852
 2766SOL    HW1 9197   4.086   0.915   6.771
 2766SOL    HW2 9198   4.017   0.919   6.919
 2767SOL     OW 9199   5.908   5.709   6.318
 2767SOL    HW1 9200   5.883   5.802   6.345
 2767SOL    HW2 9201   5.828   5.662   6.282
 2768SOL     OW 9202   3.648   0.320   0.773
 2768SOL    HW1 9203   3.688   0.326   0.864
 2768SOL    HW2 9204   3.705   0.264   0.714
 2769SOL     OW 9205   1.420   3.928   6.082
 2769SOL    HW1 9206   1.415   3.829   6.098
 2769SOL    HW2 9207   1.513   3.959   6.100
 2770SOL     OW 9208   3.925   6.357   5.947
 2770SOL    HW1 9209   3.972   6.421   6.007
 2770SOL    HW2 9210   3.879   6.287   6.002
 2771SOL     OW 9211   5.726   6.469   3.977
 2771SOL    HW1 9212   5.669   6.551   3.977
 2771SOL    HW2 9213   5.819   6.492   4.004
 2772SOL     OW 9214   3.703   1.217   2.326
 2772SOL    HW1 9215   3.710   1.135   2.269
 2772SOL    HW2 9216   3.704   1.298   2.267
 2773SOL     OW 9217   0.277   3.132   3.904
 2773SOL    HW1 9218   0.249   3.225   3.927
 2773SOL    HW2 9219   0.231   3.067   3.965
 2774SOL     OW 9220   5.207   2.262   2.809
 2774SOL    HW1 9221   5.111   2.240   2.827
 2774SOL    HW2 9222   5.217   2.360   2.794
 2775SOL     OW 9223   0.197   3.778   3.486
 2775SOL    HW1 9224   0.108   3.794   3.529
 2775SOL    HW2 9225   0.184   3.755   3.389
 2776SOL     OW 9226   5.502   5.555   0.019
 2776SOL    HW1 9227   5.479   5.503   0.101
 2776SOL    HW2 9228   5.482   5.499   6.964
 2777SOL     OW 9229   2.563   2.022   5.877
 2777SOL    HW1 9230   2.562   2.017   5.976
 2777SOL    HW2 9231   2.555   1.930   5.838
 2778SOL     OW 9232   2.628   5.951   6.315
 2778SOL    HW1 9233   2.580   6.024   6.266
 2778SOL    HW2 9234   2.575   5.866   6.310
 2779SOL     OW 9235   5.930   6.415   1.634
 2779SOL    HW1 9236   6.011   6.389   1.581
 2779SOL    HW2 9237   5.953   6.489   1.697
 2780SOL     OW 9238   0.580   0.450   6.650
 2780SOL    HW1 9239   0.606   0.377   6.714
 2780SOL    HW2 9240   0.539   0.526   6.701
 2781SOL     OW 9241   6.533   0.679   2.439
 2781SOL    HW1 9242   6.548   0.775   2.461
 2781SOL    HW2 9243   6.453   0.645   2.488
 2782SOL     OW 9244   4.407   0.711   5.749
 2782SOL    HW1 9245   4.506   0.709   5.760
 2782SOL    HW2 9246   4.380   0.799   5.709
 2783SOL     OW 9247   6.030   3.444   1.136
 2783SOL    HW1 9248   5.995   3.402   1.052
 2783SOL    HW2 9249   6.004   3.388   1.215
 2784SOL     OW 9250   2.748   1.593   2.087
 2784SOL    HW1 9251   2.839   1.635   2.082
 2784SOL    HW2 9252   2.748   1.521   2.156
 2785SOL     OW 9253   5.153   2.674   1.646
 2785SOL    HW1 9254   5.179   2.632   1.559
 2785SOL    HW2 9255   5.146   2.773   1.636
 2786SOL     OW 9256   6.659   5.902   1.284
 2786SOL    HW1 9257   6.704   5.829   1.233
 2786SOL    HW2 9258   6.620   5.864   1.368
 2787SOL     OW 9259   6.213   5.880   5.535
 2787SOL    HW1 9260   6.116   5.881   5.511
 2787SOL    HW2 9261   6.223   5.893   5.634
 2788SOL     OW 9262   3.634   6.713   5.781
 2788SOL    HW1 9263   3.714   6.658   5.756
 2788SOL    HW2 9264   3.552   6.670   5.744
 2789SOL     OW 9265   0.905   2.733   3.970
 2789SOL    HW1 9266   0.996   2.692   3.965
 2789SOL    HW2 9267   0.848   2.696   3.897
 2790SOL     OW 9268   2.869   5.149   0.361
 2790SOL    HW1 9269   2.900   5.241   0.339
 2790SOL    HW2 9270   2.928   5.082   0.316
 2791SOL     OW 9271   0.376   4.210   2.026
 2791SOL    HW1 9272   0.298   4.158   1.993
 2791SOL    HW2 9273   0.434   4.151   2.084
 2792SOL     OW 9274   3.209   0.393   4.661
 2792SOL    HW1 9275   3.122   0.440   4.644
 2792SOL    HW2 9276   3.283   0.460   4.662
 2793SOL     OW 9277   4.664   4.412   1.339
 2793SOL    HW1 9278   4.643   4.381   1.432
 2793SOL    HW2 9279   4.652   4.511   1.334
 2794SOL     OW 9280   6.752   0.959   6.638
 2794SOL    HW1 9281   6.725   1.039   6.585
 2794SOL    HW2 9282   6.748   0.980   6.735
 2795SOL     OW 9283   0.520   5.036   0.942
 2795SOL    HW1 9284   0.570   5.123   0.940
 2795SOL    HW2 9285   0.447   5.040   1.010
 2796SOL     OW 9286   0.881   5.807   5.570
 2796SOL    HW1 9287   0.925   5.724   5.538
 2796SOL    HW2 9288   0.951   5.877   5.587
 2797SOL     OW 9289   5.753   5.475   5.095
 2797SOL    HW1 9290   5.773   5.388   5.140
 2797SOL    HW2 9291   5.799   5.550   5.143
 2798SOL     OW 9292   6.334   6.189   2.572
 2798SOL    HW1 9293   6.345   6.196   2.671
 2798SOL    HW2 9294   6.269   6.117   2.550
 2799SOL     OW 9295   4.943   5.492   5.491
 2799SOL    HW1 9296   4.947   5.554   5.569
 2799SOL    HW2 9297   4.907   5.542   5.411
 2800SOL     OW 9298   5.549   0.862   0.280
 2800SOL    HW1 9299   5.532   0.953   0.316
 2800SOL    HW2 9300   5.487   0.844   0.204
 2801SOL     OW 9301   0.376   5.462   5.985
 2801SOL    HW1 9302   0.376   5.380   5.929
 2801SOL    HW2 9303   0.470   5.495   5.995
 2802SOL     OW 9304   6.140   6.660   5.248
 2802SOL    HW1 9305   6.073   6.677   5.176
 2802SOL    HW2 9306   6.171   6.565   5.242
 2803SOL     OW 9307   3.549   3.361   6.196
 2803SOL    HW1 9308   3.543   3.265   6.170
 2803SOL    HW2 9309   3.514   3.418   6.122
 2804SOL     OW 9310   0.353   2.852   4.061
 2804SOL    HW1 9311   0.352   2.757   4.030
 2804SOL    HW2 9312   0.377   2.855   4.158
 2805SOL     OW 9313   4.932   3.476   2.334
 2805SOL    HW1 9314   4.854   3.420   2.305
 2805SOL    HW2 9315   5.002   3.417   2.374
 2806SOL     OW 9316   2.454   3.824   6.392
 2806SOL    HW1 9317   2.433   3.766   6.313
 2806SOL    HW2 9318   2.374   3.879   6.415
 2807SOL     OW 9319   2.682   1.111   3.218
 2807SOL    HW1 9320   2.717   1.017   3.222
 2807SOL    HW2 9321   2.654   1.140   3.309
 2808SOL     OW 9322   6.260   5.671   0.812
 2808SOL    HW1 9323   6.241   5.660   0.909
 2808SOL    HW2 9324   6.182   5.636   0.759
 2809SOL     OW 9325   5.417   3.929   2.056
 2809SOL    HW1 9326   5.514   3.946   2.036
 2809SOL    HW2 9327   5.374   3.886   1.977
 2810SOL     OW 9328   2.456   5.944   3.382
 2810SOL    HW1 9329   2.513   6.023   3.359
 2810SOL    HW2 9330   2.442   5.942   3.481
 2811SOL     OW 9331   0.762   0.464   2.557
 2811SOL    HW1 9332   0.669   0.499   2.545
 2811SOL    HW2 9333   0.820   0.500   2.485
 2812SOL     OW 9334   0.477   2.921   0.397
 2812SOL    HW1 9335   0.415   2.990   0.359
 2812SOL    HW2 9336   0.565   2.925   0.350
 2813SOL     OW 9337   1.202   1.663   0.963
 2813SOL    HW1 9338   1.235   1.756   0.980
 2813SOL    HW2 9339   1.251   1.625   0.885
 2814SOL     OW 9340   3.073   4.101   0.001
 2814SOL    HW1 9341   3.108   4.161   6.955
 2814SOL    HW2 9342   3.089   4.006   7.001
 2815SOL     OW 9343   0.006   5.973   5.128
 2815SOL    HW1 9344   7.024   5.875   5.110
 2815SOL    HW2 9345   0.093   5.991   5.175
 2816SOL     OW 9346   6.636   5.998   4.848
 2816SOL    HW1 9347   6.607   5.968   4.939
 2816SOL    HW2 9348   6.731   5.970   4.832
 2817SOL     OW 9349   3.869   0.912   2.241
 2817SOL    HW1 9350   3.917   0.839   2.192
 2817SOL    HW2 9351   3.792   0.945   2.186
 2818SOL     OW 9352   1.225   0.598   1.100
 2818SOL    HW1 9353   1.171   0.677   1.071
 2818SOL    HW2 9354   1.163   0.527   1.133
 2819SOL     OW 9355   0.661   0.305   0.588
 2819SOL    HW1 9356   0.649   0.208   0.567
 2819SOL    HW2 9357   0.663   0.357   0.503
 2820SOL     OW 9358   0.805   2.544   2.381
 2820SOL    HW1 9359   0.777   2.626   2.431
 2820SOL    HW2 9360   0.822   2.470   2.447
 2821SOL     OW 9361   4.075   5.169   6.399
 2821SOL    HW1 9362   4.121   5.081   6.388
 2821SOL    HW2 9363   3.986   5.166   6.353
 2822SOL     OW 9364   3.492   3.361   0.993
 2822SOL    HW1 9365   3.442   3.379   0.908
 2822SOL    HW2 9366   3.590   3.369   0.976
 2823SOL     OW 9367   4.797   0.915   0.565
 2823SOL    HW1 9368   4.723   0.969   0.524
 2823SOL    HW2 9369   4.832   0.849   0.498
 2824SOL     OW 9370   1.308   3.648   6.201
 2824SOL    HW1 9371   1.278   3.640   6.106
 2824SOL    HW2 9372   1.255   3.586   6.258
 2825SOL     OW 9373   5.187   0.596   6.857
 2825SOL    HW1 9374   5.278   0.631   6.878
 2825SOL    HW2 9375   5.132   0.594   6.940
 2826SOL     OW 9376   1.606   3.188   6.288
 2826SOL    HW1 9377   1.656   3.208   6.204
 2826SOL    HW2 9378   1.588   3.090   6.294
 2827SOL     OW 9379   0.297   0.662   6.849
 2827SOL    HW1 9380   0.248   0.575   6.841
 2827SOL    HW2 9381   0.242   0.734   6.807
 2828SOL     OW 9382   1.611   3.733   1.319
 2828SOL    HW1 9383   1.584   3.637   1.323
 2828SOL    HW2 9384   1.529   3.791   1.324
 2829SOL     OW 9385   2.992   3.920   3.461
 2829SOL    HW1 9386   3.034   4.007   3.437
 2829SOL    HW2 9387   3.063   3.854   3.487
 2830SOL     OW 9388   3.890   4.536   5.288
 2830SOL    HW1 9389   3.965   4.579   5.239
 2830SOL    HW2 9390   3.894   4.561   5.385
 2831SOL     OW 9391   6.514   2.175   1.864
 2831SOL    HW1 9392   6.537   2.194   1.959
 2831SOL    HW2 9393   6.463   2.252   1.825
 2832SOL     OW 9394   0.579   3.274   1.311
 2832SOL    HW1 9395   0.551   3.369   1.298
 2832SOL    HW2 9396   0.571   3.225   1.224
 2833SOL     OW 9397   2.295   0.373   2.132
 2833SOL    HW1 9398   2.371   0.346   2.191
 2833SOL    HW2 9399   2.282   0.472   2.137
 2834SOL     OW 9400   4.488   6.226   4.901
 2834SOL    HW1 9401   4.410   6.281   4.930
 2834SOL    HW2 9402   4.460   6.163   4.829
 2835SOL     OW 9403   1.353   6.542   0.806
 2835SOL    HW1 9404   1.271   6.550   0.864
 2835SOL    HW2 9405   1.433   6.530   0.864
 2836SOL     OW 9406   3.639   6.589   3.407
 2836SOL    HW1 9407   3.546   6.552   3.403
 2836SOL    HW2 9408   3.673   6.585   3.501
 2837SOL     OW 9409   5.902   4.032   2.268
 2837SOL    HW1 9410   5.832   4.081   2.320
 2837SOL    HW2 9411   5.987   4.030   2.320
 2838SOL     OW 9412   4.716   3.922   6.556
 2838SOL    HW1 9413   4.704   4.001   6.495
 2838SOL    HW2 9414   4.744   3.842   6.503
 2839SOL     OW 9415   6.447   3.180   3.861
 2839SOL    HW1 9416   6.419   3.181   3.957
 2839SOL    HW2 9417   6.490   3.268   3.838
 2840SOL     OW 9418   0.638   5.170   2.599
 2840SOL    HW1 9419   0.649   5.242   2.667
 2840SOL    HW2 9420   0.655   5.081   2.641
 2841SOL     OW 9421   5.918   2.264   0.946
 2841SOL    HW1 9422   5.897   2.315   0.862
 2841SOL    HW2 9423   5.990   2.313   0.996
 2842SOL     OW 9424   1.255   6.151   4.309
 2842SOL    HW1 9425   1.198   6.072   4.331
 2842SOL    HW2 9426   1.229   6.228   4.368
 2843SOL     OW 9427   2.152   3.317   3.043
 2843SOL    HW1 9428   2.118   3.364   3.125
 2843SOL    HW2 9429   2.176   3.384   2.974
 2844SOL     OW 9430   4.974   4.478   1.219
 2844SOL    HW1 9431   5.074   4.474   1.225
 2844SOL    HW2 9432   4.940   4.395   1.176
 2845SOL     OW 9433   4.842   3.081   3.408
 2845SOL    HW1 9434   4.881   3.166   3.373
 2845SOL    HW2 9435   4.836   3.085   3.508
 2846SOL     OW 9436   4.560   0.241   0.127
 2846SOL    HW1 9437   4.524   0.325   0.086
 2846SOL    HW2 9438   4.489   0.195   0.180
 2847SOL     OW 9439   4.734   4.232   2.196
 2847SOL    HW1 9440   4.813   4.276   2.153
 2847SOL    HW2 9441   4.654   4.240   2.136
 2848SOL     OW 9442   0.568   2.975   5.066
 2848SOL    HW1 9443   0.532   3.031   5.141
 2848SOL    HW2 9444   0.665   2.994   5.055
 2849SOL     OW 9445   3.816   0.772   2.490
 2849SOL    HW1 9446   3.843   0.804   2.399
 2849SOL    HW2 9447   3.823   0.848   2.555
 2850SOL     OW 9448   2.383   6.710   3.480
 2850SOL    HW1 9449   2.479   6.729   3.502
 2850SOL    HW2 9450   2.324   6.759   3.544
 2851SOL     OW 9451   4.554   3.351   0.551
 2851SOL    HW1 9452   4.472   3.321   0.599
 2851SOL    HW2 9453   4.611   3.405   0.614
 2852SOL     OW 9454   6.372   4.196   6.376
 2852SOL    HW1 9455   6.284   4.179   6.422
 2852SOL    HW2 9456   6.359   4.264   6.304
 2853SOL     OW 9457   0.237   3.582   0.294
 2853SOL    HW1 9458   0.190   3.546   0.214
 2853SOL    HW2 9459   0.208   3.677   0.310
 2854SOL     OW 9460   2.648   1.148   6.936
 2854SOL    HW1 9461   2.676   1.157   6.841
 2854SOL    HW2 9462   2.549   1.134   6.941
 2855SOL     OW 9463   1.016   2.224   4.273
 2855SOL    HW1 9464   1.098   2.274   4.246
 2855SOL    HW2 9465   1.029   2.185   4.364
 2856SOL     OW 9466   1.721   4.020   3.109
 2856SOL    HW1 9467   1.699   3.928   3.140
 2856SOL    HW2 9468   1.689   4.087   3.176
 2857SOL     OW 9469   0.267   3.137   0.250
 2857SOL    HW1 9470   0.204   3.093   0.315
 2857SOL    HW2 9471   0.247   3.235   0.246
 2858SOL     OW 9472   5.317   5.978   3.262
 2858SOL    HW1 9473   5.351   5.889   3.232
 2858SOL    HW2 9474   5.272   5.969   3.351
 2859SOL     OW 9475   5.359   6.233   0.933
 2859SOL    HW1 9476   5.452   6.208   0.962
 2859SOL    HW2 9477   5.339   6.191   0.845
 2860SOL     OW 9478   1.652   5.897   1.625
 2860SOL    HW1 9479   1.688   5.812   1.665
 2860SOL    HW2 9480   1.673   5.974   1.686
 2861SOL     OW 9481   3.809   5.130   6.230
 2861SOL    HW1 9482   3.862   5.082   6.160
 2861SOL    HW2 9483   3.725   5.080   6.249
 2862SOL     OW 9484   4.556   2.968   1.204
 2862SOL    HW1 9485   4.517   2.879   1.229
 2862SOL    HW2 9486   4.633   2.989   1.264
 2863SOL     OW 9487   5.149   0.546   5.949
 2863SOL    HW1 9488   5.107   0.460   5.977
 2863SOL    HW2 9489   5.192   0.536   5.860
 2864SOL     OW 9490   4.059   3.373   1.619
 2864SOL    HW1 9491   3.987   3.303   1.616
 2864SOL    HW2 9492   4.142   3.337   1.576
 2865SOL     OW 9493   4.895   6.522   4.081
 2865SOL    HW1 9494   4.811   6.471   4.062
 2865SOL    HW2 9495   4.872   6.608   4.125
 2866SOL     OW 9496   5.375   4.565   6.587
 2866SOL    HW1 9497   5.296   4.550   6.528
 2866SOL    HW2 9498   5.458   4.537   6.538
 2867SOL     OW 9499   6.160   6.619   2.270
 2867SOL    HW1 9500   6.174   6.559   2.349
 2867SOL    HW2 9501   6.177   6.568   2.186
 2868SOL     OW 9502   1.581   1.695   6.076
 2868SOL    HW1 9503   1.541   1.654   6.158
 2868SOL    HW2 9504   1.532   1.662   5.995
 2869SOL     OW 9505   5.513   6.331   4.467
 2869SOL    HW1 9506   5.562   6.417   4.479
 2869SOL    HW2 9507   5.464   6.332   4.380
 2870SOL     OW 9508   1.253   1.327   0.980
 2870SOL    HW1 9509   1.186   1.288   1.043
 2870SOL    HW2 9510   1.206   1.371   0.903
 2871SOL     OW 9511   6.542   1.022   1.532
 2871SOL    HW1 9512   6.631   1.068   1.527
 2871SOL    HW2 9513   6.470   1.090   1.543
 2872SOL     OW 9514   2.393   1.773   2.956
 2872SOL    HW1 9515   2.344   1.763   2.870
 2872SOL    HW2 9516   2.417   1.682   2.991
 2873SOL     OW 9517   0.704   5.743   1.360
 2873SOL    HW1 9518   0.676   5.676   1.428
 2873SOL    HW2 9519   0.682   5.835   1.393
 2874SOL     OW 9520   3.002   0.502   3.021
 2874SOL    HW1 9521   2.985   0.429   3.087
 2874SOL    HW2 9522   3.008   0.463   2.929
 2875SOL     OW 9523   2.817   6.976   2.834
 2875SOL    HW1 9524   2.829   6.953   2.930
 2875SOL    HW2 9525   2.815   6.892   2.780
 2876SOL     OW 9526   1.775   6.076   2.482
 2876SOL    HW1 9527   1.797   6.004   2.416
 2876SOL    HW2 9528   1.676   6.080   2.494
 2877SOL     OW 9529   1.811   1.860   6.092
 2877SOL    HW1 9530   1.836   1.919   6.169
 2877SOL    HW2 9531   1.721   1.819   6.108
 2878SOL     OW 9532   3.428   3.049   4.917
 2878SOL    HW1 9533   3.382   3.010   4.997
 2878SOL    HW2 9534   3.370   3.118   4.875
 2879SOL     OW 9535   4.681   4.324   5.783
 2879SOL    HW1 9536   4.628   4.283   5.858
 2879SOL    HW2 9537   4.635   4.307   5.696
 2880SOL     OW 9538   0.633   1.942   4.145
 2880SOL    HW1 9539   0.585   2.011   4.090
 2880SOL    HW2 9540   0.732   1.948   4.126
 2881SOL     OW 9541   3.599   5.747   6.760
 2881SOL    HW1 9542   3.621   5.765   6.664
 2881SOL    HW2 9543   3.615   5.650   6.779
 2882SOL     OW 9544   5.681   6.140   0.387
 2882SOL    HW1 9545   5.726   6.081   0.319
 2882SOL    HW2 9546   5.748   6.168   0.456
 2883SOL     OW 9547   5.924   6.267   2.956
 2883SOL    HW1 9548   5.886   6.213   2.881
 2883SOL    HW2 9549   5.950   6.206   3.031
 2884SOL     OW 9550   0.230   5.096   2.851
 2884SOL    HW1 9551   0.263   5.002   2.856
 2884SOL    HW2 9552   0.267   5.149   2.927
 2885SOL     OW 9553   1.565   3.509   3.279
 2885SOL    HW1 9554   1.489   3.543   3.335
 2885SOL    HW2 9555   1.604   3.583   3.226
 2886SOL     OW 9556   2.379   4.377   6.643
 2886SOL    HW1 9557   2.471   4.404   6.613
 2886SOL    HW2 9558   2.323   4.459   6.657
 2887SOL     OW 9559   0.312   5.963   4.537
 2887SOL    HW1 9560   0.347   5.869   4.536
 2887SOL    HW2 9561   0.388   6.027   4.531
 2888SOL     OW 9562   0.131   5.944   0.367
 2888SOL    HW1 9563   0.144   5.962   0.465
 2888SOL    HW2 9564   0.209   5.891   0.333
 2889SOL     OW 9565   2.850   0.022   3.304
 2889SOL    HW1 9566   2.944   0.036   3.335
 2889SOL    HW2 9567   2.827   0.091   3.235
 2890SOL     OW 9568   2.183   5.959   1.400
 2890SOL    HW1 9569   2.247   5.944   1.474
 2890SOL    HW2 9570   2.194   6.052   1.364
 2891SOL     OW 9571   0.504   3.094   2.687
 2891SOL    HW1 9572   0.459   3.033   2.622
 2891SOL    HW2 9573   0.482   3.064   2.780
 2892SOL     OW 9574   6.343   4.167   1.072
 2892SOL    HW1 9575   6.379   4.251   1.032
 2892SOL    HW2 9576   6.382   4.088   1.025
 2893SOL     OW 9577   0.606   6.024   4.946
 2893SOL    HW1 9578   0.661   6.096   4.905
 2893SOL    HW2 9579   0.530   6.001   4.885
 2894SOL     OW 9580   1.523   4.521   1.641
 2894SOL    HW1 9581   1.622   4.522   1.631
 2894SOL    HW2 9582   1.488   4.431   1.618
 2895SOL     OW 9583   3.893   0.354   6.127
 2895SOL    HW1 9584   3.854   0.424   6.187
 2895SOL    HW2 9585   3.891   0.266   6.174
 2896SOL     OW 9586   5.700   0.021   5.664
 2896SOL    HW1 9587   5.776   0.052   5.608
 2896SOL    HW2 9588   5.640   6.988   5.609
 2897SOL     OW 9589   3.469   5.416   2.663
 2897SOL    HW1 9590   3.411   5.461   2.595
 2897SOL    HW2 9591   3.417   5.342   2.706
 2898SOL     OW 9592   6.342   3.775   3.283
 2898SOL    HW1 9593   6.271   3.838   3.314
 2898SOL    HW2 9594   6.331   3.687   3.330
 2899SOL     OW 9595   6.930   2.069   1.252
 2899SOL    HW1 9596   7.011   2.048   1.198
 2899SOL    HW2 9597   6.955   2.131   1.327
 2900SOL     OW 9598   3.142   3.438   0.008
 2900SOL    HW1 9599   3.191   3.480   6.958
 2900SOL    HW2 9600   3.116   3.509   0.074
 2901SOL     OW 9601   1.909   4.799   3.464
 2901SOL    HW1 9602   1.870   4.890   3.479
 2901SOL    HW2 9603   1.943   4.763   3.550
 2902SOL     OW 9604   0.474   6.060   4.175
 2902SOL    HW1 9605   0.387   6.022   4.206
 2902SOL    HW2 9606   0.540   5.987   4.164
 2903SOL     OW 9607   5.053   6.075   0.570
 2903SOL    HW1 9608   5.041   6.155   0.512
 2903SOL    HW2 9609   5.133   6.088   0.629
 2904SOL     OW 9610   2.837   4.801   4.835
 2904SOL    HW1 9611   2.813   4.725   4.896
 2904SOL    HW2 9612   2.936   4.817   4.839
 2905SOL     OW 9613   1.235   4.643   2.902
 2905SOL    HW1 9614   1.153   4.688   2.865
 2905SOL    HW2 9615   1.308   4.711   2.911
 2906SOL     OW 9616   5.232   6.052   3.016
 2906SOL    HW1 9617   5.193   5.971   2.971
 2906SOL    HW2 9618   5.277   6.024   3.101
 2907SOL     OW 9619   0.940   0.827   4.042
 2907SOL    HW1 9620   0.895   0.750   3.996
 2907SOL    HW2 9621   0.994   0.792   4.119
 2908SOL     OW 9622   5.031   0.558   3.572
 2908SOL    HW1 9623   5.112   0.504   3.598
 2908SOL    HW2 9624   4.966   0.558   3.648
 2909SOL     OW 9625   1.035   5.979   3.054
 2909SOL    HW1 9626   1.105   5.977   2.983
 2909SOL    HW2 9627   1.041   5.896   3.109
 2910SOL     OW 9628   6.760   0.808   3.868
 2910SOL    HW1 9629   6.678   0.759   3.896
 2910SOL    HW2 9630   6.811   0.753   3.801
 2911SOL     OW 9631   0.421   4.798   3.904
 2911SOL    HW1 9632   0.414   4.732   3.978
 2911SOL    HW2 9633   0.398   4.754   3.817
 2912SOL     OW 9634   0.282   6.579   0.466
 2912SOL    HW1 9635   0.264   6.636   0.386
 2912SOL    HW2 9636   0.201   6.575   0.524
 2913SOL     OW 9637   1.535   4.623   1.944
 2913SOL    HW1 9638   1.632   4.605   1.963
 2913SOL    HW2 9639   1.520   4.620   1.845
 2914SOL     OW 9640   5.678   5.014   0.388
 2914SOL    HW1 9641   5.713   5.104   0.412
 2914SOL    HW2 9642   5.652   5.013   0.291
 2915SOL     OW 9643   3.147   2.181   2.640
 2915SOL    HW1 9644   3.204   2.125   2.700
 2915SOL    HW2 9645   3.160   2.153   2.545
 2916SOL     OW 9646   2.770   5.012   7.021
 2916SOL    HW1 9647   2.785   4.940   6.954
 2916SOL    HW2 9648   2.843   5.009   0.064
 2917SOL     OW 9649   2.424   0.500   3.752
 2917SOL    HW1 9650   2.361   0.434   3.793
 2917SOL    HW2 9651   2.518   0.473   3.774
 2918SOL     OW 9652   5.985   3.962   1.199
 2918SOL    HW1 9653   5.946   3.943   1.289
 2918SOL    HW2 9654   5.991   3.877   1.147
 2919SOL     OW 9655   0.664   5.970   4.511
 2919SOL    HW1 9656   0.658   6.015   4.600
 2919SOL    HW2 9657   0.740   6.009   4.459
 2920SOL     OW 9658   2.045   0.404   1.999
 2920SOL    HW1 9659   2.140   0.373   2.003
 2920SOL    HW2 9660   2.001   0.388   2.087
 2921SOL     OW 9661   0.379   0.203   5.715
 2921SOL    HW1 9662   0.405   0.238   5.805
 2921SOL    HW2 9663   0.280   0.193   5.711
 2922SOL     OW 9664   4.362   0.220   2.944
 2922SOL    HW1 9665   4.460   0.205   2.928
 2922SOL    HW2 9666   4.323   0.269   2.866
 2923SOL     OW 9667   6.487   4.733   4.712
 2923SOL    HW1 9668   6.407   4.780   4.675
 2923SOL    HW2 9669   6.555   4.801   4.741
 2924SOL     OW 9670   6.950   1.919   5.298
 2924SOL    HW1 9671   6.941   1.880   5.207
 2924SOL    HW2 9672   6.944   1.847   5.366
 2925SOL     OW 9673   5.388   1.043   6.284
 2925SOL    HW1 9674   5.416   1.129   6.328
 2925SOL    HW2 9675   5.338   1.063   6.200
 2926SOL     OW 9676   0.118   2.106   5.348
 2926SOL    HW1 9677   0.210   2.068   5.357
 2926SOL    HW2 9678   0.053   2.031   5.333
 2927SOL     OW 9679   2.129   3.317   1.141
 2927SOL    HW1 9680   2.100   3.378   1.214
 2927SOL    HW2 9681   2.125   3.366   1.053
 2928SOL     OW 9682   6.370   1.904   0.096
 2928SOL    HW1 9683   6.458   1.893   0.049
 2928SOL    HW2 9684   6.357   2.000   0.120
 2929SOL     OW 9685   1.376   2.758   4.696
 2929SOL    HW1 9686   1.319   2.837   4.720
 2929SOL    HW2 9687   1.413   2.772   4.604
 2930SOL     OW 9688   6.200   5.503   5.268
 2930SOL    HW1 9689   6.187   5.444   5.347
 2930SOL    HW2 9690   6.177   5.453   5.184
 2931SOL     OW 9691   4.006   4.555   0.147
 2931SOL    HW1 9692   3.988   4.460   0.171
 2931SOL    HW2 9693   3.984   4.614   0.224
 2932SOL     OW 9694   6.734   6.217   1.742
 2932SOL    HW1 9695   6.814   6.258   1.785
 2932SOL    HW2 9696   6.750   6.118   1.731
 2933SOL     OW 9697   0.786   0.162   1.877
 2933SOL    HW1 9698   0.803   0.114   1.790
 2933SOL    HW2 9699   0.700   0.212   1.872
 2934SOL     OW 9700   3.960   3.058   1.128
 2934SOL    HW1 9701   3.969   3.147   1.083
 2934SOL    HW2 9702   3.892   3.003   1.081
 2935SOL     OW 9703   0.428   2.581   5.953
 2935SOL    HW1 9704   0.341   2.533   5.966
 2935SOL    HW2 9705   0.492   2.523   5.903
 2936SOL     OW 9706   4.374   0.249   0.513
 2936SOL    HW1 9707   4.371   0.349   0.508
 2936SOL    HW2 9708   4.468   0.219   0.524
 2937SOL     OW 9709   4.493   5.604   1.393
 2937SOL    HW1 9710   4.511   5.691   1.439
 2937SOL    HW2 9711   4.549   5.532   1.435
 2938SOL     OW 9712   5.992   5.858   6.747
 2938SOL    HW1 9713   5.984   5.957   6.751
 2938SOL    HW2 9714   6.047   5.832   6.668
 2939SOL     OW 9715   0.589   6.114   1.858
 2939SOL    HW1 9716   0.505   6.157   1.825
 2939SOL    HW2 9717   0.639   6.075   1.780
 2940SOL     OW 9718   5.944   5.920   4.483
 2940SOL    HW1 9719   5.997   5.977   4.546
 2940SOL    HW2 9720   5.968   5.943   4.389
 2941SOL     OW 9721   1.966   2.923   3.177
 2941SOL    HW1 9722   1.998   2.915   3.272
 2941SOL    HW2 9723   2.036   2.970   3.122
 2942SOL     OW 9724   2.472   1.864   6.822
 2942SOL    HW1 9725   2.454   1.950   6.774
 2942SOL    HW2 9726   2.399   1.848   6.889
 2943SOL     OW 9727   6.340   4.273   3.693
 2943SOL    HW1 9728   6.325   4.354   3.638
 2943SOL    HW2 9729   6.300   4.193   3.647
 2944SOL     OW 9730   2.426   6.129   3.999
 2944SOL    HW1 9731   2.336   6.131   4.043
 2944SOL    HW2 9732   2.447   6.035   3.972
 2945SOL     OW 9733   5.277   4.186   1.575
 2945SOL    HW1 9734   5.251   4.263   1.516
 2945SOL    HW2 9735   5.196   4.131   1.595
 2946SOL     OW 9736   3.005   3.879   5.936
 2946SOL    HW1 9737   3.051   3.891   5.848
 2946SOL    HW2 9738   2.951   3.794   5.933
 2947SOL     OW 9739   6.666   6.208   0.547
 2947SOL    HW1 9740   6.585   6.239   0.596
 2947SOL    HW2 9741   6.666   6.247   0.454
 2948SOL     OW 9742   5.944   4.875   3.032
 2948SOL    HW1 9743   5.852   4.909   3.011
 2948SOL    HW2 9744   6.003   4.886   2.953
 2949SOL     OW 9745   0.836   6.348   0.782
 2949SOL    HW1 9746   0.746   6.320   0.750
 2949SOL    HW2 9747   0.830   6.380   0.876
 2950SOL     OW 9748   5.112   4.609   2.367
 2950SOL    HW1 9749   5.012   4.606   2.373
 2950SOL    HW2 9750   5.140   4.581   2.275
 2951SOL     OW 9751   5.642   0.434   1.765
 2951SOL    HW1 9752   5.575   0.396   1.701
 2951SOL    HW2 9753   5.702   0.497   1.716
 2952SOL     OW 9754   6.279   0.816   4.597
 2952SOL    HW1 9755   6.251   0.879   4.669
 2952SOL    HW2 9756   6.295   0.866   4.512
 2953SOL     OW 9757   0.401   5.799   2.871
 2953SOL    HW1 9758   0.331   5.868   2.854
 2953SOL    HW2 9759   0.460   5.828   2.946
 2954SOL     OW 9760   0.843   4.832   6.226
 2954SOL    HW1 9761   0.745   4.838   6.241
 2954SOL    HW2 9762   0.887   4.799   6.310
 2955SOL     OW 9763   1.317   4.040   0.211
 2955SOL    HW1 9764   1.222   4.031   0.243
 2955SOL    HW2 9765   1.318   4.032   0.111
 2956SOL     OW 9766   6.782   4.709   4.360
 2956SOL    HW1 9767   6.869   4.753   4.339
 2956SOL    HW2 9768   6.786   4.671   4.452
 2957SOL     OW 9769   3.104   5.185   1.801
 2957SOL    HW1 9770   3.083   5.283   1.793
 2957SOL    HW2 9771   3.194   5.174   1.842
 2958SOL     OW 9772   1.811   5.180   2.967
 2958SOL    HW1 9773   1.881   5.196   3.036
 2958SOL    HW2 9774   1.763   5.265   2.947
 2959SOL     OW 9775   5.601   2.495   3.255
 2959SOL    HW1 9776   5.689   2.541   3.240
 2959SOL    HW2 9777   5.563   2.522   3.343
 2960SOL     OW 9778   3.962   0.476   0.140
 2960SOL    HW1 9779   3.896   0.404   0.119
 2960SOL    HW2 9780   3.984   0.473   0.238
 2961SOL     OW 9781   5.332   4.602   2.854
 2961SOL    HW1 9782   5.351   4.664   2.778
 2961SOL    HW2 9783   5.418   4.562   2.888
 2962SOL     OW 9784   5.654   6.829   2.848
 2962SOL    HW1 9785   5.664   6.746   2.794
 2962SOL    HW2 9786   5.641   6.907   2.787
 2963SOL     OW 9787   1.427   0.982   5.932
 2963SOL    HW1 9788   1.446   1.059   5.992
 2963SOL    HW2 9789   1.499   0.913   5.941
 2964SOL     OW 9790   0.375   2.657   6.932
 2964SOL    HW1 9791   0.404   2.707   7.014
 2964SOL    HW2 9792   0.354   2.562   6.955
 2965SOL     OW 9793   0.485   0.460   4.713
 2965SOL    HW1 9794   0.449   0.367   4.727
 2965SOL    HW2 9795   0.520   0.495   4.799
 2966SOL     OW 9796   4.507   5.677   3.835
 2966SOL    HW1 9797   4.438   5.659   3.906
 2966SOL    HW2 9798   4.473   5.746   3.772
 2967SOL     OW 9799   6.944   1.056   5.600
 2967SOL    HW1 9800   6.953   1.063   5.501
 2967SOL    HW2 9801   6.873   0.990   5.623
 2968SOL     OW 9802   2.213   2.865   1.076
 2968SOL    HW1 9803   2.115   2.882   1.088
 2968SOL    HW2 9804   2.226   2.777   1.030
 2969SOL     OW 9805   4.871   3.732   4.422
 2969SOL    HW1 9806   4.876   3.678   4.506
 2969SOL    HW2 9807   4.963   3.758   4.393
 2970SOL     OW 9808   2.605   2.694   5.619
 2970SOL    HW1 9809   2.671   2.695   5.545
 2970SOL    HW2 9810   2.572   2.787   5.636
 2971SOL     OW 9811   5.681   3.694   0.185
 2971SOL    HW1 9812   5.671   3.793   0.184
 2971SOL    HW2 9813   5.592   3.651   0.204
 2972SOL     OW 9814   6.126   5.108   6.708
 2972SOL    HW1 9815   6.186   5.055   6.648
 2972SOL    HW2 9816   6.081   5.180   6.655
 2973SOL     OW 9817   4.602   6.759   2.323
 2973SOL    HW1 9818   4.662   6.740   2.246
 2973SOL    HW2 9819   4.648   6.821   2.387
 2974SOL     OW 9820   6.471   4.842   3.309
 2974SOL    HW1 9821   6.401   4.901   3.351
 2974SOL    HW2 9822   6.470   4.855   3.210
 2975SOL     OW 9823   4.604   4.748   3.872
 2975SOL    HW1 9824   4.524   4.696   3.904
 2975SOL    HW2 9825   4.584   4.788   3.783
 2976SOL     OW 9826   4.552   2.101   3.358
 2976SOL    HW1 9827   4.580   2.171   3.292
 2976SOL    HW2 9828   4.630   2.041   3.377
 2977SOL     OW 9829   0.922   0.351   2.045
 2977SOL    HW1 9830   0.888   0.440   2.017
 2977SOL    HW2 9831   0.928   0.291   1.965
 2978SOL     OW 9832   4.399   4.347   6.527
 2978SOL    HW1 9833   4.471   4.363   6.595
 2978SOL    HW2 9834   4.417   4.262   6.479
 2979SOL     OW 9835   3.603   1.559   4.595
 2979SOL    HW1 9836   3.678   1.556   4.529
 2979SOL    HW2 9837   3.636   1.532   4.685
 2980SOL     OW 9838   3.688   4.396   6.540
 2980SOL    HW1 9839   3.681   4.486   6.496
 2980SOL    HW2 9840   3.660   4.404   6.636
 2981SOL     OW 9841   1.981   1.744   0.293
 2981SOL    HW1 9842   2.000   1.691   0.211
 2981SOL    HW2 9843   1.944   1.684   0.364
 2982SOL     OW 9844   1.719   6.670   2.231
 2982SOL    HW1 9845   1.676   6.721   2.305
 2982SOL    HW2 9846   1.797   6.720   2.196
 2983SOL     OW 9847   6.900   2.411   6.691
 2983SOL    HW1 9848   6.961   2.478   6.650
 2983SOL    HW2 9849   6.954   2.339   6.735
 2984SOL     OW 9850   6.185   4.994   6.990
 2984SOL    HW1 9851   6.141   5.036   6.911
 2984SOL    HW2 9852   6.116   4.955   0.024
 2985SOL     OW 9853   0.640   0.255   4.513
 2985SOL    HW1 9854   0.636   0.354   4.515
 2985SOL    HW2 9855   0.734   0.225   4.527
 2986SOL     OW 9856   3.486   4.136   2.727
 2986SOL    HW1 9857   3.529   4.147   2.817
 2986SOL    HW2 9858   3.554   4.156   2.656
 2987SOL     OW 9859   0.828   2.427   4.399
 2987SOL    HW1 9860   0.852   2.348   4.342
 2987SOL    HW2 9861   0.911   2.476   4.424
 2988SOL     OW 9862   1.216   0.625   1.376
 2988SOL    HW1 9863   1.126   0.652   1.410
 2988SOL    HW2 9864   1.212   0.616   1.276
 2989SOL     OW 9865   5.393   3.535   4.886
 2989SOL    HW1 9866   5.327   3.525   4.960
 2989SOL    HW2 9867   5.351   3.507   4.799
 2990SOL     OW 9868   5.514   2.041   4.401
 2990SOL    HW1 9869   5.524   2.137   4.426
 2990SOL    HW2 9870   5.513   1.985   4.484
 2991SOL     OW 9871   5.854   3.658   0.750
 2991SOL    HW1 9872   5.949   3.634   0.771
 2991SOL    HW2 9873   5.851   3.745   0.701
 2992SOL     OW 9874   0.779   3.615   4.757
 2992SOL    HW1 9875   0.823   3.664   4.832
 2992SOL    HW2 9876   0.688   3.585   4.784
 2993SOL     OW 9877   0.462   4.258   0.047
 2993SOL    HW1 9878   0.419   4.178   0.089
 2993SOL    HW2 9879   0.466   4.245   6.974
 2994SOL     OW 9880   4.845   6.221   6.549
 2994SOL    HW1 9881   4.942   6.210   6.573
 2994SOL    HW2 9882   4.791   6.236   6.632
 2995SOL     OW 9883   4.386   0.534   0.558
 2995SOL    HW1 9884   4.296   0.520   0.518
 2995SOL    HW2 9885   4.378   0.548   0.656
 2996SOL     OW 9886   1.457   2.108   4.812
 2996SOL    HW1 9887   1.461   2.193   4.864
 2996SOL    HW2 9888   1.509   2.037   4.859
 2997SOL     OW 9889   4.617   0.765   3.706
 2997SOL    HW1 9890   4.640   0.669   3.694
 2997SOL    HW2 9891   4.538   0.773   3.767
 2998SOL     OW 9892   2.955   0.608   3.810
 2998SOL    HW1 9893   2.967   0.509   3.814
 2998SOL    HW2 9894   3.032   0.653   3.856
 2999SOL     OW 9895   3.355   4.420   0.118
 2999SOL    HW1 9896   3.371   4.474   0.201
 2999SOL    HW2 9897   3.321   4.480   0.045
 3000SOL     OW 9898   2.902   3.646   5.824
 3000SOL    HW1 9899   2.853   3.581   5.883
 3000SOL    HW2 9900   2.920   3.603   5.735
 3001SOL     OW 9901   5.871   1.026   6.702
 3001SOL    HW1 9902   5.953   0.970   6.698
 3001SOL    HW2 9903   5.794   0.975   6.662
 3002SOL     OW 9904   2.851   1.414   1.134
 3002SOL    HW1 9905   2.925   1.353   1.165
 3002SOL    HW2 9906   2.891   1.493   1.088
 3003SOL     OW 9907   1.346   6.151   0.996
 3003SOL    HW1 9908   1.291   6.223   1.038
 3003SOL    HW2 9909   1.366   6.080   1.064
 3004SOL     OW 9910   2.451   4.448   4.251
 3004SOL    HW1 9911   2.471   4.537   4.210
 3004SOL    HW2 9912   2.424   4.384   4.178
 3005SOL     OW 9913   1.124   3.067   5.791
 3005SOL    HW1 9914   1.161   3.026   5.708
 3005SOL    HW2 9915   1.192   3.130   5.830
 3006SOL     OW 9916   5.507   1.753   5.680
 3006SOL    HW1 9917   5.461   1.668   5.705
 3006SOL    HW2 9918   5.552   1.793   5.760
 3007SOL     OW 9919   5.189   5.436   0.309
 3007SOL    HW1 9920   5.271   5.424   0.254
 3007SOL    HW2 9921   5.181   5.531   0.339
 3008SOL     OW 9922   4.234   1.757   6.027
 3008SOL    HW1 9923   4.292   1.729   5.952
 3008SOL    HW2 9924   4.211   1.854   6.017
 3009SOL     OW 9925   6.841   2.661   2.965
 3009SOL    HW1 9926   6.822   2.674   3.062
 3009SOL    HW2 9927   6.927   2.611   2.955
 3010SOL     OW 9928   4.160   5.606   5.865
 3010SOL    HW1 9929   4.186   5.513   5.838
 3010SOL    HW2 9930   4.096   5.644   5.798
 3011SOL     OW 9931   6.478   0.018   1.851
 3011SOL    HW1 9932   6.577   0.024   1.867
 3011SOL    HW2 9933   6.452   0.085   1.781
 3012SOL     OW 9934   2.809   3.573   6.440
 3012SOL    HW1 9935   2.732   3.510   6.445
 3012SOL    HW2 9936   2.775   3.667   6.440
 3013SOL     OW 9937   0.048   5.772   3.208
 3013SOL    HW1 9938   0.001   5.789   3.122
 3013SOL    HW2 9939   0.066   5.674   3.218
 3014SOL     OW 9940   5.303   0.794   6.313
 3014SOL    HW1 9941   5.268   0.765   6.224
 3014SOL    HW2 9942   5.308   0.894   6.316
 3015SOL     OW 9943   2.514   1.087   0.480
 3015SOL    HW1 9944   2.417   1.107   0.498
 3015SOL    HW2 9945   2.566   1.097   0.564
 3016SOL     OW 9946   3.409   0.262   4.520
 3016SOL    HW1 9947   3.443   0.348   4.481
 3016SOL    HW2 9948   3.318   0.277   4.560
 3017SOL     OW 9949   6.488   5.250   1.892
 3017SOL    HW1 9950   6.447   5.159   1.903
 3017SOL    HW2 9951   6.505   5.290   1.982
 3018SOL     OW 9952   4.003   0.023   0.372
 3018SOL    HW1 9953   4.005   6.951   0.388
 3018SOL    HW2 9954   3.909   0.057   0.382
 3019SOL     OW 9955   1.579   6.870   6.977
 3019SOL    HW1 9956   1.489   6.903   7.006
 3019SOL    HW2 9957   1.610   6.799   0.014
 3020SOL     OW 9958   5.329   3.072   0.018
 3020SOL    HW1 9959   5.364   2.993   0.067
 3020SOL    HW2 9960   5.289   3.043   6.957
 3021SOL     OW 9961   3.258   6.480   4.429
 3021SOL    HW1 9962   3.166   6.485   4.468
 3021SOL    HW2 9963   3.251   6.467   4.330
 3022SOL     OW 9964   3.784   6.275   3.248
 3022SOL    HW1 9965   3.701   6.300   3.199
 3022SOL    HW2 9966   3.784   6.316   3.339
 3023SOL     OW 9967   3.832   6.759   2.979
 3023SOL    HW1 9968   3.815   6.708   3.063
 3023SOL    HW2 9969   3.882   6.701   2.914
 3024SOL     OW 9970   6.861   6.164   5.217
 3024SOL    HW1 9971   6.892   6.074   5.188
 3024SOL    HW2 9972   6.777   6.189   5.169
 3025SOL     OW 9973   4.362   5.706   0.298
 3025SOL    HW1 9974   4.453   5.721   0.338
 3025SOL    HW2 9975   4.292   5.730   0.365
 3026SOL     OW 9976   5.772   1.235   0.873
 3026SOL    HW1 9977   5.860   1.281   0.882
 3026SOL    HW2 9978   5.763   1.199   0.781
 3027SOL     OW 9979   4.472   1.763   1.637
 3027SOL    HW1 9980   4.477   1.786   1.734
 3027SOL    HW2 9981   4.416   1.681   1.626
 3028SOL     OW 9982   1.892   3.838   6.472
 3028SOL    HW1 9983   1.943   3.759   6.437
 3028SOL    HW2 9984   1.903   3.844   6.571
 3029SOL     OW 9985   0.710   2.723   4.403
 3029SOL    HW1 9986   0.684   2.768   4.317
 3029SOL    HW2 9987   0.718   2.624   4.388
 3030SOL     OW 9988   1.408   4.341   1.274
 3030SOL    HW1 9989   1.318   4.329   1.234
 3030SOL    HW2 9990   1.426   4.439   1.289
 3031SOL     OW 9991   1.479   5.193   1.166
 3031SOL    HW1 9992   1.461   5.212   1.262
 3031SOL    HW2 9993   1.417   5.248   1.109
 3032SOL     OW 9994   2.122   6.940   3.394
 3032SOL    HW1 9995   2.023   6.955   3.388
 3032SOL    HW2 9996   2.158   6.915   3.304
 3033SOL     OW 9997   6.228   2.957   3.888
 3033SOL    HW1 9998   6.325   2.957   3.912
 3033SOL    HW2 9999   6.174   2.981   3.968
 3034SOL     OW10000   0.651   6.314   3.760
 3034SOL    HW110001   0.580   6.319   3.831
 3034SOL    HW210002   0.664   6.219   3.733
 3035SOL     OW10003   1.515   2.520   6.230
 3035SOL    HW110004   1.478   2.441   6.181
 3035SOL    HW210005   1.454   2.598   6.218
 3036SOL     OW10006   1.347   2.235   5.870
 3036SOL    HW110007   1.344   2.189   5.781
 3036SOL    HW210008   1.257   2.275   5.890
 3037SOL     OW10009   0.673   5.205   5.638
 3037SOL    HW110010   0.578   5.236   5.641
 3037SOL    HW210011   0.677   5.108   5.617
 3038SOL     OW10012   4.790   5.166   6.020
 3038SOL    HW110013   4.761   5.239   6.082
 3038SOL    HW210014   4.882   5.186   5.985
 3039SOL     OW10015   6.139   3.429   0.361
 3039SOL    HW110016   6.187   3.366   0.300
 3039SOL    HW210017   6.068   3.477   0.310
 3040SOL     OW10018   3.668   4.057   6.011
 3040SOL    HW110019   3.655   4.010   6.099
 3040SOL    HW210020   3.763   4.047   5.982
 3041SOL     OW10021   1.574   3.754   4.867
 3041SOL    HW110022   1.551   3.851   4.870
 3041SOL    HW210023   1.538   3.708   4.947
 3042SOL     OW10024   0.340   4.860   2.876
 3042SOL    HW110025   0.419   4.899   2.924
 3042SOL    HW210026   0.354   4.870   2.777
 3043SOL     OW10027   2.406   3.373   0.598
 3043SOL    HW110028   2.445   3.465   0.599
 3043SOL    HW210029   2.476   3.306   0.576
 3044SOL     OW10030   3.161   3.545   5.296
 3044SOL    HW110031   3.147   3.638   5.263
 3044SOL    HW210032   3.207   3.548   5.385
 3045SOL     OW10033   5.022   0.966   3.611
 3045SOL    HW110034   5.046   1.063   3.607
 3045SOL    HW210035   4.960   0.950   3.687
 3046SOL     OW10036   5.486   5.544   0.430
 3046SOL    HW110037   5.453   5.478   0.362
 3046SOL    HW210038   5.430   5.537   0.513
 3047SOL     OW10039   5.961   6.732   0.630
 3047SOL    HW110040   5.903   6.709   0.708
 3047SOL    HW210041   6.027   6.801   0.657
 3048SOL     OW10042   4.245   3.138   0.954
 3048SOL    HW110043   4.310   3.155   1.028
 3048SOL    HW210044   4.255   3.044   0.922
 3049SOL     OW10045   0.957   0.835   4.649
 3049SOL    HW110046   0.946   0.913   4.588
 3049SOL    HW210047   0.942   0.865   4.744
 3050SOL     OW10048   1.984   2.666   1.564
 3050SOL    HW110049   2.081   2.682   1.581
 3050SOL    HW210050   1.937   2.652   1.652
 3051SOL     OW10051   3.445   6.854   6.043
 3051SOL    HW110052   3.399   6.871   5.956
 3051SOL    HW210053   3.488   6.938   6.076
 3052SOL     OW10054   5.470   6.037   2.745
 3052SOL    HW110055   5.408   6.107   2.779
 3052SOL    HW210056   5.420   5.952   2.729
 3053SOL     OW10057   1.696   4.613   0.198
 3053SOL    HW110058   1.672   4.694   0.145
 3053SOL    HW210059   1.794   4.612   0.218
 3054SOL     OW10060   5.453   0.733   3.562
 3054SOL    HW110061   5.485   0.733   3.467
 3054SOL    HW210062   5.357   0.758   3.565
 3055SOL     OW10063   6.410   6.235   6.675
 3055SOL    HW110064   6.374   6.313   6.622
 3055SOL    HW210065   6.500   6.210   6.640
 3056SOL     OW10066   5.421   1.866   6.119
 3056SOL    HW110067   5.326   1.898   6.123
 3056SOL    HW210068   5.480   1.942   6.091
 3057SOL     OW10069   5.674   6.142   3.424
 3057SOL    HW110070   5.582   6.178   3.413
 3057SOL    HW210071   5.738   6.201   3.375
 3058SOL     OW10072   6.096   4.451   0.859
 3058SOL    HW110073   6.096   4.365   0.909
 3058SOL    HW210074   6.066   4.434   0.765
 3059SOL     OW10075   2.450   2.676   4.321
 3059SOL    HW110076   2.489   2.768   4.313
 3059SOL    HW210077   2.524   2.610   4.330
 3060SOL     OW10078   2.824   4.682   6.605
 3060SOL    HW110079   2.855   4.650   6.695
 3060SOL    HW210080   2.842   4.611   6.537
 3061SOL     OW10081   5.367   4.881   5.814
 3061SOL    HW110082   5.326   4.889   5.904
 3061SOL    HW210083   5.403   4.788   5.801
 3062SOL     OW10084   4.087   4.595   1.253
 3062SOL    HW110085   4.079   4.543   1.167
 3062SOL    HW210086   4.033   4.679   1.246
 3063SOL     OW10087   0.449   4.219   0.497
 3063SOL    HW110088   0.437   4.137   0.552
 3063SOL    HW210089   0.499   4.288   0.549
 3064SOL     OW10090   4.378   2.616   0.298
 3064SOL    HW110091   4.324   2.628   0.381
 3064SOL    HW210092   4.319   2.584   0.224
 3065SOL     OW10093   0.799   1.366   6.468
 3065SOL    HW110094   0.763   1.407   6.384
 3065SOL    HW210095   0.734   1.379   6.542
 3066SOL     OW10096   5.113   5.336   5.660
 3066SOL    HW110097   5.206   5.375   5.667
 3066SOL    HW210098   5.061   5.387   5.592
 3067SOL     OW10099   2.287   1.423   6.988
 3067SOL    HW110100   2.236   1.352   6.939
 3067SOL    HW210101   2.294   1.398   0.058
 3068SOL     OW10102   0.784   1.095   1.703
 3068SOL    HW110103   0.765   1.062   1.611
 3068SOL    HW210104   0.865   1.049   1.740
 3069SOL     OW10105   5.631   0.230   3.699
 3069SOL    HW110106   5.718   0.225   3.649
 3069SOL    HW210107   5.557   0.196   3.640
 3070SOL     OW10108   2.835   1.355   0.002
 3070SOL    HW110109   2.772   1.412   0.056
 3070SOL    HW210110   2.787   1.274   6.995
 3071SOL     OW10111   6.854   4.132   3.666
 3071SOL    HW110112   6.798   4.092   3.739
 3071SOL    HW210113   6.949   4.139   3.698
 3072SOL     OW10114   2.103   5.883   6.984
 3072SOL    HW110115   2.055   5.796   6.974
 3072SOL    HW210116   2.127   5.918   6.893
 3073SOL     OW10117   6.410   4.787   0.588
 3073SOL    HW110118   6.508   4.776   0.573
 3073SOL    HW210119   6.374   4.706   0.634
 3074SOL     OW10120   0.866   3.936   0.972
 3074SOL    HW110121   0.863   3.839   0.996
 3074SOL    HW210122   0.790   3.958   0.912
 3075SOL     OW10123   2.538   5.128   3.966
 3075SOL    HW110124   2.572   5.037   3.993
 3075SOL    HW210125   2.586   5.198   4.018
 3076SOL     OW10126   0.423   1.249   4.885
 3076SOL    HW110127   0.379   1.219   4.801
 3076SOL    HW210128   0.496   1.314   4.864
 3077SOL     OW10129   6.095   3.880   1.643
 3077SOL    HW110130   6.140   3.969   1.637
 3077SOL    HW210131   6.107   3.842   1.735
 3078SOL     OW10132   6.409   3.167   1.942
 3078SOL    HW110133   6.498   3.204   1.913
 3078SOL    HW210134   6.419   3.124   2.032
 3079SOL     OW10135   2.338   2.747   4.864
 3079SOL    HW110136   2.402   2.813   4.826
 3079SOL    HW210137   2.246   2.765   4.829
 3080SOL     OW10138   4.520   4.874   1.500
 3080SOL    HW110139   4.430   4.853   1.461
 3080SOL    HW210140   4.510   4.893   1.598
 3081SOL     OW10141   0.818   4.119   0.421
 3081SOL    HW110142   0.796   4.021   0.417
 3081SOL    HW210143   0.758   4.168   0.358
 3082SOL     OW10144   3.419   5.313   4.543
 3082SOL    HW110145   3.489   5.244   4.560
 3082SOL    HW210146   3.430   5.388   4.609
 3083SOL     OW10147   2.678   5.388   2.487
 3083SOL    HW110148   2.772   5.408   2.514
 3083SOL    HW210149   2.617   5.457   2.526
 3084SOL     OW10150   0.727   3.617   3.006
 3084SOL    HW110151   0.791   3.589   3.077
 3084SOL    HW210152   0.712   3.541   2.943
 3085SOL     OW10153   4.692   5.066   0.939
 3085SOL    HW110154   4.769   5.041   0.998
 3085SOL    HW210155   4.688   5.166   0.931
 3086SOL     OW10156   5.370   1.121   0.322
 3086SOL    HW110157   5.280   1.131   0.365
 3086SOL    HW210158   5.439   1.165   0.381
 3087SOL     OW10159   2.451   6.285   2.452
 3087SOL    HW110160   2.469   6.194   2.491
 3087SOL    HW210161   2.358   6.312   2.476
 3088SOL     OW10162   0.398   3.046   5.548
 3088SOL    HW110163   0.429   2.989   5.624
 3088SOL    HW210164   0.432   3.139   5.560
 3089SOL     OW10165   4.923   1.120   4.576
 3089SOL    HW110166   4.858   1.088   4.508
 3089SOL    HW210167   4.880   1.191   4.633
 3090SOL     OW10168   1.204   1.459   1.962
 3090SOL    HW110169   1.234   1.493   1.873
 3090SOL    HW210170   1.244   1.515   2.035
 3091SOL     OW10171   0.687   1.280   0.763
 3091SOL    HW110172   0.687   1.250   0.668
 3091SOL    HW210173   0.753   1.226   0.815
 3092SOL     OW10174   5.347   6.984   2.324
 3092SOL    HW110175   5.276   0.021   2.294
 3092SOL    HW210176   5.315   6.934   2.404
 3093SOL     OW10177   5.730   5.585   6.107
 3093SOL    HW110178   5.782   5.500   6.099
 3093SOL    HW210179   5.634   5.564   6.125
 3094SOL     OW10180   2.534   0.891   4.966
 3094SOL    HW110181   2.582   0.866   5.050
 3094SOL    HW210182   2.582   0.967   4.922
 3095SOL     OW10183   2.667   3.089   5.425
 3095SOL    HW110184   2.740   3.024   5.404
 3095SOL    HW210185   2.598   3.086   5.352
 3096SOL     OW10186   0.468   3.295   5.191
 3096SOL    HW110187   0.379   3.318   5.231
 3096SOL    HW210188   0.536   3.284   5.264
 3097SOL     OW10189   6.017   2.715   6.464
 3097SOL    HW110190   5.995   2.650   6.537
 3097SOL    HW210191   5.983   2.805   6.490
 3098SOL     OW10192   1.801   1.913   2.111
 3098SOL    HW110193   1.884   1.968   2.103
 3098SOL    HW210194   1.787   1.862   2.026
 3099SOL     OW10195   0.391   6.276   3.279
 3099SOL    HW110196   0.414   6.179   3.287
 3099SOL    HW210197   0.309   6.294   3.333
 3100SOL     OW10198   6.133   6.444   2.856
 3100SOL    HW110199   6.118   6.470   2.761
 3100SOL    HW210200   6.078   6.363   2.877
 3101SOL     OW10201   5.133   6.749   6.256
 3101SOL    HW110202   5.073   6.815   6.211
 3101SOL    HW210203   5.199   6.798   6.313
 3102SOL     OW10204   0.646   5.601   0.413
 3102SOL    HW110205   0.689   5.533   0.472
 3102SOL    HW210206   0.573   5.558   0.360
 3103SOL     OW10207   3.762   0.059   0.718
 3103SOL    HW110208   3.834   7.019   0.738
 3103SOL    HW210209   3.701   0.021   0.648
 3104SOL     OW10210   4.737   0.028   6.156
 3104SOL    HW110211   4.685   6.974   6.184
 3104SOL    HW210212   4.676   0.095   6.113
 3105SOL     OW10213   5.318   3.309   0.900
 3105SOL    HW110214   5.253   3.267   0.964
 3105SOL    HW210215   5.393   3.246   0.882
 3106SOL     OW10216   5.727   0.949   5.266
 3106SOL    HW110217   5.685   0.980   5.181
 3106SOL    HW210218   5.769   0.859   5.252
 3107SOL     OW10219   4.419   1.594   4.686
 3107SOL    HW110220   4.337   1.607   4.743
 3107SOL    HW210221   4.500   1.592   4.745
 3108SOL     OW10222   2.227   4.431   4.445
 3108SOL    HW110223   2.317   4.446   4.403
 3108SOL    HW210224   2.239   4.390   4.535
 3109SOL     OW10225   6.280   7.018   4.606
 3109SOL    HW110226   6.265   6.992   4.511
 3109SOL    HW210227   6.192   7.022   4.654
 3110SOL     OW10228   2.470   4.581   3.546
 3110SOL    HW110229   2.373   4.604   3.535
 3110SOL    HW210230   2.505   4.544   3.460
 3111SOL     OW10231   6.678   4.932   4.720
 3111SOL    HW110232   6.755   4.904   4.662
 3111SOL    HW210233   6.635   5.013   4.681
 3112SOL     OW10234   4.046   2.861   0.421
 3112SOL    HW110235   3.975   2.865   0.351
 3112SOL    HW210236   4.086   2.769   0.423
 3113SOL     OW10237   2.819   5.800   2.633
 3113SOL    HW110238   2.830   5.898   2.650
 3113SOL    HW210239   2.812   5.784   2.534
 3114SOL     OW10240   3.465   1.301   0.066
 3114SOL    HW110241   3.398   1.312   7.019
 3114SOL    HW210242   3.557   1.317   0.029
 3115SOL     OW10243   4.259   3.876   5.749
 3115SOL    HW110244   4.259   3.903   5.845
 3115SOL    HW210245   4.166   3.853   5.721
 3116SOL     OW10246   0.832   2.139   0.920
 3116SOL    HW110247   0.740   2.120   0.886
 3116SOL    HW210248   0.829   2.154   1.019
 3117SOL     OW10249   4.665   2.266   5.898
 3117SOL    HW110250   4.708   2.298   5.982
 3117SOL    HW210251   4.638   2.170   5.909
 3118SOL     OW10252   1.459   0.433   2.850
 3118SOL    HW110253   1.530   0.480   2.797
 3118SOL    HW210254   1.433   0.488   2.928
 3119SOL     OW10255   3.148   2.747   5.394
 3119SOL    HW110256   3.180   2.825   5.447
 3119SOL    HW210257   3.201   2.666   5.420
 3120SOL     OW10258   3.166   0.413   4.939
 3120SOL    HW110259   3.214   0.497   4.964
 3120SOL    HW210260   3.186   0.391   4.843
 3121SOL     OW10261   4.924   1.929   4.685
 3121SOL    HW110262   4.950   2.024   4.673
 3121SOL    HW210263   4.847   1.923   4.749
 3122SOL     OW10264   4.288   4.694   4.244
 3122SOL    HW110265   4.342   4.614   4.268
 3122SOL    HW210266   4.346   4.759   4.194
 3123SOL     OW10267   2.235   0.874   3.724
 3123SOL    HW110268   2.331   0.851   3.707
 3123SOL    HW210269   2.185   0.872   3.638
 3124SOL     OW10270   5.300   6.345   4.653
 3124SOL    HW110271   5.221   6.309   4.604
 3124SOL    HW210272   5.376   6.358   4.589
 3125SOL     OW10273   0.825   3.076   5.079
 3125SOL    HW110274   0.847   3.166   5.041
 3125SOL    HW210275   0.909   3.026   5.100
 3126SOL     OW10276   5.954   5.483   4.630
 3126SOL    HW110277   5.984   5.399   4.585
 3126SOL    HW210278   5.873   5.519   4.585
 3127SOL     OW10279   1.054   2.375   4.712
 3127SOL    HW110280   1.138   2.424   4.691
 3127SOL    HW210281   1.021   2.329   4.630
 3128SOL     OW10282   3.533   0.327   0.394
 3128SOL    HW110283   3.536   0.403   0.329
 3128SOL    HW210284   3.460   0.264   0.367
 3129SOL     OW10285   5.044   3.480   1.268
 3129SOL    HW110286   5.007   3.562   1.311
 3129SOL    HW210287   5.131   3.456   1.311
 3130SOL     OW10288   1.534   4.618   1.046
 3130SOL    HW110289   1.484   4.546   0.999
 3130SOL    HW210290   1.622   4.633   1.001
 3131SOL     OW10291   6.694   3.637   1.870
 3131SOL    HW110292   6.730   3.594   1.787
 3131SOL    HW210293   6.759   3.625   1.945
 3132SOL     OW10294   4.200   4.394   0.400
 3132SOL    HW110295   4.243   4.452   0.330
 3132SOL    HW210296   4.254   4.397   0.483
 3133SOL     OW10297   3.241   0.628   3.291
 3133SOL    HW110298   3.204   0.721   3.285
 3133SOL    HW210299   3.293   0.607   3.209
 3134SOL     OW10300   3.276   4.818   1.912
 3134SOL    HW110301   3.367   4.785   1.937
 3134SOL    HW210302   3.246   4.772   1.828
 3135SOL     OW10303   5.469   7.023   6.035
 3135SOL    HW110304   5.430   6.931   6.033
 3135SOL    HW210305   5.553   7.025   5.982
 3136SOL     OW10306   6.164   1.067   2.372
 3136SOL    HW110307   6.166   0.967   2.368
 3136SOL    HW210308   6.079   1.100   2.332
 3137SOL     OW10309   6.438   0.433   1.060
 3137SOL    HW110310   6.513   0.407   1.000
 3137SOL    HW210311   6.370   0.484   1.007
 3138SOL     OW10312   5.568   5.189   3.930
 3138SOL    HW110313   5.596   5.230   4.016
 3138SOL    HW210314   5.619   5.230   3.855
 3139SOL     OW10315   2.846   4.856   1.376
 3139SOL    HW110316   2.828   4.758   1.383
 3139SOL    HW210317   2.921   4.880   1.437
 3140SOL     OW10318   6.112   6.425   5.618
 3140SOL    HW110319   6.191   6.422   5.557
 3140SOL    HW210320   6.133   6.375   5.702
 3141SOL     OW10321   0.386   2.280   0.420
 3141SOL    HW110322   0.440   2.266   0.337
 3141SOL    HW210323   0.302   2.226   0.414
 3142SOL     OW10324   4.419   0.815   2.861
 3142SOL    HW110325   4.514   0.837   2.881
 3142SOL    HW210326   4.412   0.720   2.831
 3143SOL     OW10327   6.001   2.039   0.164
 3143SOL    HW110328   6.041   1.986   0.239
 3143SOL    HW210329   5.959   1.976   0.098
 3144SOL     OW10330   4.272   3.617   6.558
 3144SOL    HW110331   4.362   3.641   6.596
 3144SOL    HW210332   4.285   3.575   6.468
 3145SOL     OW10333   2.554   6.410   2.139
 3145SOL    HW110334   2.616   6.466   2.084
 3145SOL    HW210335   2.465   6.455   2.143
 3146SOL     OW10336   0.677   0.721   5.160
 3146SOL    HW110337   0.767   0.682   5.180
 3146SOL    HW210338   0.679   0.820   5.174
 3147SOL     OW10339   3.634   5.347   6.232
 3147SOL    HW110340   3.551   5.294   6.215
 3147SOL    HW210341   3.711   5.285   6.243
 3148SOL     OW10342   0.555   6.860   2.811
 3148SOL    HW110343   0.640   6.908   2.789
 3148SOL    HW210344   0.504   6.912   2.879
 3149SOL     OW10345   3.084   1.326   0.110
 3149SOL    HW110346   3.079   1.394   0.182
 3149SOL    HW210347   2.997   1.324   0.060
 3150SOL     OW10348   6.611   5.696   5.291
 3150SOL    HW110349   6.539   5.763   5.311
 3150SOL    HW210350   6.569   5.612   5.258
 3151SOL     OW10351   0.088   1.745   6.132
 3151SOL    HW110352   0.067   1.654   6.097
 3151SOL    HW210353   0.157   1.739   6.204
 3152SOL     OW10354   1.675   4.177   6.518
 3152SOL    HW110355   1.678   4.258   6.576
 3152SOL    HW210356   1.630   4.102   6.566
 3153SOL     OW10357   6.370   4.937   0.352
 3153SOL    HW110358   6.288   4.991   0.370
 3153SOL    HW210359   6.385   4.872   0.427
 3154SOL     OW10360   5.687   1.244   2.047
 3154SOL    HW110361   5.707   1.313   1.977
 3154SOL    HW210362   5.599   1.201   2.028
 3155SOL     OW10363   6.509   4.542   0.730
 3155SOL    HW110364   6.489   4.519   0.825
 3155SOL    HW210365   6.454   4.483   0.669
 3156SOL     OW10366   3.609   4.163   2.233
 3156SOL    HW110367   3.695   4.199   2.268
 3156SOL    HW210368   3.618   4.141   2.136
 3157SOL     OW10369   0.877   2.449   5.261
 3157SOL    HW110370   0.953   2.387   5.241
 3157SOL    HW210371   0.816   2.454   5.183
 3158SOL     OW10372   2.805   2.127   5.780
 3158SOL    HW110373   2.710   2.096   5.789
 3158SOL    HW210374   2.806   2.225   5.760
 3159SOL     OW10375   5.071   6.809   1.004
 3159SOL    HW110376   5.148   6.759   1.043
 3159SOL    HW210377   5.061   6.787   0.907
 3160SOL     OW10378   1.784   6.873   5.391
 3160SOL    HW110379   1.768   6.822   5.306
 3160SOL    HW210380   1.860   6.831   5.441
 3161SOL     OW10381   1.967   2.696   2.509
 3161SOL    HW110382   2.055   2.666   2.472
 3161SOL    HW210383   1.924   2.758   2.444
 3162SOL     OW10384   2.357   5.633   6.794
 3162SOL    HW110385   2.366   5.587   6.706
 3162SOL    HW210386   2.354   5.564   6.867
 3163SOL     OW10387   4.357   3.401   0.235
 3163SOL    HW110388   4.439   3.457   0.225
 3163SOL    HW210389   4.292   3.447   0.295
 3164SOL     OW10390   3.276   5.780   2.341
 3164SOL    HW110391   3.205   5.710   2.347
 3164SOL    HW210392   3.302   5.794   2.245
 3165SOL     OW10393   1.120   5.206   0.521
 3165SOL    HW110394   1.047   5.256   0.568
 3165SOL    HW210395   1.082   5.129   0.470
 3166SOL     OW10396   3.939   1.259   4.637
 3166SOL    HW110397   3.886   1.315   4.574
 3166SOL    HW210398   4.017   1.312   4.671
 3167SOL     OW10399   5.649   4.659   0.295
 3167SOL    HW110400   5.724   4.637   0.233
 3167SOL    HW210401   5.601   4.741   0.262
 3168SOL     OW10402   5.166   2.740   1.359
 3168SOL    HW110403   5.213   2.655   1.333
 3168SOL    HW210404   5.220   2.818   1.327
 3169SOL     OW10405   1.808   4.635   2.298
 3169SOL    HW110406   1.777   4.635   2.203
 3169SOL    HW210407   1.818   4.729   2.330
 3170SOL     OW10408   3.839   6.241   2.375
 3170SOL    HW110409   3.863   6.156   2.328
 3170SOL    HW210410   3.741   6.244   2.390
 3171SOL     OW10411   5.387   2.369   2.194
 3171SOL    HW110412   5.451   2.312   2.245
 3171SOL    HW210413   5.323   2.311   2.144
 3172SOL     OW10414   0.280   5.228   6.938
 3172SOL    HW110415   0.212   5.161   6.969
 3172SOL    HW210416   0.371   5.198   6.966
 3173SOL     OW10417   2.568   2.479   6.628
 3173SOL    HW110418   2.573   2.576   6.603
 3173SOL    HW210419   2.476   2.457   6.660
 3174SOL     OW10420   2.329   2.644   5.910
 3174SOL    HW110421   2.356   2.616   5.818
 3174SOL    HW210422   2.298   2.563   5.961
 3175SOL     OW10423   5.810   1.183   2.871
 3175SOL    HW110424   5.877   1.111   2.854
 3175SOL    HW210425   5.719   1.143   2.881
 3176SOL     OW10426   0.127   3.839   5.307
 3176SOL    HW110427   0.054   3.779   5.273
 3176SOL    HW210428   0.215   3.793   5.299
 3177SOL     OW10429   5.452   4.327   3.673
 3177SOL    HW110430   5.522   4.349   3.741
 3177SOL    HW210431   5.432   4.229   3.677
 3178SOL     OW10432   5.896   1.898   6.953
 3178SOL    HW110433   5.899   1.798   6.950
 3178SOL    HW210434   5.802   1.930   6.947
 3179SOL     OW10435   1.495   1.790   2.056
 3179SOL    HW110436   1.593   1.807   2.068
 3179SOL    HW210437   1.448   1.809   2.142
 3180SOL     OW10438   6.073   6.341   6.858
 3180SOL    HW110439   6.172   6.340   6.842
 3180SOL    HW210440   6.055   6.317   6.953
 3181SOL     OW10441   0.463   1.491   4.063
 3181SOL    HW110442   0.471   1.564   4.131
 3181SOL    HW210443   0.368   1.486   4.031
 3182SOL     OW10444   3.011   0.484   6.974
 3182SOL    HW110445   2.931   0.436   6.941
 3182SOL    HW210446   3.046   0.439   0.030
 3183SOL     OW10447   4.832   4.571   2.402
 3183SOL    HW110448   4.788   4.482   2.414
 3183SOL    HW210449   4.781   4.623   2.333
 3184SOL     OW10450   0.477   2.173   3.652
 3184SOL    HW110451   0.500   2.266   3.624
 3184SOL    HW210452   0.508   2.109   3.582
 3185SOL     OW10453   6.475   6.599   5.584
 3185SOL    HW110454   6.530   6.540   5.526
 3185SOL    HW210455   6.405   6.644   5.528
 3186SOL     OW10456   1.718   0.936   0.239
 3186SOL    HW110457   1.689   0.991   0.161
 3186SOL    HW210458   1.809   0.898   0.221
 3187SOL     OW10459   3.155   5.296   2.180
 3187SOL    HW110460   3.143   5.351   2.262
 3187SOL    HW210461   3.251   5.268   2.173
 3188SOL     OW10462   2.027   5.376   4.722
 3188SOL    HW110463   2.073   5.288   4.715
 3188SOL    HW210464   2.095   5.449   4.732
 3189SOL     OW10465   2.135   1.015   0.251
 3189SOL    HW110466   2.205   1.041   0.317
 3189SOL    HW210467   2.112   1.094   0.194
 3190SOL     OW10468   6.397   5.175   6.026
 3190SOL    HW110469   6.405   5.191   6.125
 3190SOL    HW210470   6.477   5.213   5.980
 3191SOL     OW10471   4.356   5.807   2.170
 3191SOL    HW110472   4.422   5.732   2.160
 3191SOL    HW210473   4.393   5.889   2.127
 3192SOL     OW10474   6.818   2.691   1.088
 3192SOL    HW110475   6.784   2.677   0.995
 3192SOL    HW210476   6.872   2.611   1.115
 3193SOL     OW10477   4.084   0.965   4.920
 3193SOL    HW110478   4.160   1.016   4.880
 3193SOL    HW210479   4.008   0.963   4.856
 3194SOL     OW10480   0.793   1.470   5.678
 3194SOL    HW110481   0.867   1.505   5.622
 3194SOL    HW210482   0.707   1.514   5.652
 3195SOL     OW10483   0.787   1.291   2.267
 3195SOL    HW110484   0.744   1.257   2.351
 3195SOL    HW210485   0.727   1.360   2.225
 3196SOL     OW10486   0.096   0.841   6.726
 3196SOL    HW110487   0.074   0.874   6.634
 3196SOL    HW210488   0.012   0.816   6.773
 3197SOL     OW10489   2.448   6.537   5.507
 3197SOL    HW110490   2.439   6.620   5.561
 3197SOL    HW210491   2.537   6.535   5.463
 3198SOL     OW10492   6.440   2.371   3.975
 3198SOL    HW110493   6.360   2.420   3.942
 3198SOL    HW210494   6.475   2.417   4.057
 3199SOL     OW10495   5.535   4.818   3.206
 3199SOL    HW110496   5.582   4.839   3.120
 3199SOL    HW210497   5.563   4.884   3.276
 3200SOL     OW10498   6.441   3.399   3.122
 3200SOL    HW110499   6.409   3.344   3.198
 3200SOL    HW210500   6.541   3.408   3.127
 3201SOL     OW10501   5.752   5.014   3.377
 3201SOL    HW110502   5.777   4.918   3.386
 3201SOL    HW210503   5.835   5.070   3.371
 3202SOL     OW10504   1.185   5.246   1.004
 3202SOL    HW110505   1.090   5.276   1.012
 3202SOL    HW210506   1.202   5.175   1.072
 3203SOL     OW10507   4.967   0.659   1.471
 3203SOL    HW110508   4.909   0.590   1.427
 3203SOL    HW210509   4.996   0.726   1.403
 3204SOL     OW10510   3.008   1.641   3.349
 3204SOL    HW110511   3.097   1.613   3.313
 3204SOL    HW210512   2.964   1.563   3.393
 3205SOL     OW10513   4.976   2.642   5.896
 3205SOL    HW110514   4.952   2.546   5.879
 3205SOL    HW210515   4.964   2.694   5.811
 3206SOL     OW10516   2.935   3.419   1.427
 3206SOL    HW110517   2.954   3.322   1.442
 3206SOL    HW210518   2.846   3.429   1.382
 3207SOL     OW10519   1.601   0.762   5.966
 3207SOL    HW110520   1.624   0.756   6.063
 3207SOL    HW210521   1.602   0.670   5.926
 3208SOL     OW10522   6.089   5.619   5.987
 3208SOL    HW110523   6.141   5.701   6.013
 3208SOL    HW210524   5.996   5.626   6.024
 3209SOL     OW10525   3.523   5.504   4.932
 3209SOL    HW110526   3.596   5.502   5.000
 3209SOL    HW210527   3.465   5.423   4.942
 3210SOL     OW10528   0.841   5.363   1.665
 3210SOL    HW110529   0.747   5.338   1.691
 3210SOL    HW210530   0.841   5.398   1.572
 3211SOL     OW10531   1.522   5.045   0.744
 3211SOL    HW110532   1.517   4.946   0.732
 3211SOL    HW210533   1.431   5.081   0.764
 3212SOL     OW10534   3.242   0.021   2.328
 3212SOL    HW110535   3.239   6.997   2.242
 3212SOL    HW210536   3.269   6.985   2.402
 3213SOL     OW10537   1.565   0.308   6.356
 3213SOL    HW110538   1.559   0.262   6.445
 3213SOL    HW210539   1.639   0.267   6.303
 3214SOL     OW10540   4.518   6.928   3.208
 3214SOL    HW110541   4.444   6.970   3.156
 3214SOL    HW210542   4.606   6.949   3.165
 3215SOL     OW10543   1.033   3.574   0.268
 3215SOL    HW110544   1.125   3.603   0.296
 3215SOL    HW210545   0.965   3.621   0.325
 3216SOL     OW10546   5.513   4.940   1.101
 3216SOL    HW110547   5.583   4.888   1.151
 3216SOL    HW210548   5.514   5.035   1.131
 3217SOL     OW10549   0.188   5.416   2.312
 3217SOL    HW110550   0.199   5.488   2.381
 3217SOL    HW210551   0.274   5.366   2.302
 3218SOL     OW10552   5.919   2.312   3.624
 3218SOL    HW110553   5.839   2.328   3.682
 3218SOL    HW210554   5.948   2.217   3.634
 3219SOL     OW10555   6.910   1.052   4.882
 3219SOL    HW110556   6.817   1.023   4.857
 3219SOL    HW210557   6.971   0.973   4.878
 3220SOL     OW10558   0.807   5.732   0.016
 3220SOL    HW110559   0.707   5.737   0.026
 3220SOL    HW210560   0.847   5.821   0.034
 3221SOL     OW10561   3.704   0.251   2.259
 3221SOL    HW110562   3.698   0.154   2.234
 3221SOL    HW210563   3.719   0.259   2.357
 3222SOL     OW10564   3.148   0.990   2.529
 3222SOL    HW110565   3.242   0.970   2.504
 3222SOL    HW210566   3.100   0.906   2.553
 3223SOL     OW10567   2.519   6.231   0.384
 3223SOL    HW110568   2.576   6.204   0.307
 3223SOL    HW210569   2.426   6.248   0.352
 3224SOL     OW10570   5.221   2.268   5.260
 3224SOL    HW110571   5.292   2.339   5.260
 3224SOL    HW210572   5.133   2.308   5.287
 3225SOL     OW10573   4.354   1.283   5.197
 3225SOL    HW110574   4.382   1.200   5.149
 3225SOL    HW210575   4.281   1.262   5.262
 3226SOL     OW10576   2.002   0.248   1.500
 3226SOL    HW110577   1.929   0.182   1.483
 3226SOL    HW210578   2.008   0.312   1.423
 3227SOL     OW10579   3.597   2.644   6.685
 3227SOL    HW110580   3.590   2.579   6.609
 3227SOL    HW210581   3.629   2.732   6.651
 3228SOL     OW10582   6.942   4.031   0.063
 3228SOL    HW110583   6.847   4.005   0.080
 3228SOL    HW210584   6.960   4.027   6.991
 3229SOL     OW10585   3.393   0.526   5.424
 3229SOL    HW110586   3.408   0.463   5.348
 3229SOL    HW210587   3.340   0.480   5.496
 3230SOL     OW10588   1.701   5.576   5.831
 3230SOL    HW110589   1.796   5.556   5.853
 3230SOL    HW210590   1.686   5.559   5.733
 3231SOL     OW10591   2.525   0.909   2.666
 3231SOL    HW110592   2.531   0.927   2.764
 3231SOL    HW210593   2.566   0.985   2.615
 3232SOL     OW10594   4.004   5.750   3.927
 3232SOL    HW110595   3.959   5.712   4.008
 3232SOL    HW210596   3.950   5.730   3.846
 3233SOL     OW10597   6.774   2.895   0.692
 3233SOL    HW110598   6.780   2.954   0.773
 3233SOL    HW210599   6.692   2.918   0.640
 3234SOL     OW10600   1.778   2.562   0.120
 3234SOL    HW110601   1.732   2.595   0.203
 3234SOL    HW210602   1.842   2.489   0.144
 3235SOL     OW10603   6.338   5.961   1.979
 3235SOL    HW110604   6.258   5.994   1.930
 3235SOL    HW210605   6.401   6.037   1.995
 3236SOL     OW10606   1.410   4.386   0.842
 3236SOL    HW110607   1.366   4.297   0.848
 3236SOL    HW210608   1.509   4.375   0.842
 3237SOL     OW10609   6.207   1.973   3.871
 3237SOL    HW110610   6.247   2.062   3.895
 3237SOL    HW210611   6.219   1.909   3.946
 3238SOL     OW10612   6.063   5.417   6.629
 3238SOL    HW110613   5.974   5.439   6.667
 3238SOL    HW210614   6.063   5.438   6.531
 3239SOL     OW10615   6.769   0.449   3.321
 3239SOL    HW110616   6.809   0.363   3.289
 3239SOL    HW210617   6.786   0.521   3.253
 3240SOL     OW10618   7.018   0.425   5.879
 3240SOL    HW110619   0.030   0.494   5.817
 3240SOL    HW210620   6.930   0.457   5.913
 3241SOL     OW10621   4.984   1.203   6.280
 3241SOL    HW110622   4.903   1.240   6.233
 3241SOL    HW210623   4.958   1.121   6.330
 3242SOL     OW10624   5.034   3.725   5.874
 3242SOL    HW110625   4.957   3.745   5.934
 3242SOL    HW210626   5.115   3.706   5.929
 3243SOL     OW10627   4.771   5.269   0.364
 3243SOL    HW110628   4.757   5.262   0.463
 3243SOL    HW210629   4.733   5.355   0.331
 3244SOL     OW10630   5.980   6.140   6.689
 3244SOL    HW110631   5.898   6.153   6.633
 3244SOL    HW210632   6.000   6.225   6.738
 3245SOL     OW10633   4.628   2.462   4.113
 3245SOL    HW110634   4.727   2.454   4.123
 3245SOL    HW210635   4.588   2.499   4.197
 3246SOL     OW10636   6.594   0.238   3.136
 3246SOL    HW110637   6.591   0.295   3.053
 3246SOL    HW210638   6.687   0.205   3.151
 3247SOL     OW10639   6.655   4.944   2.104
 3247SOL    HW110640   6.731   4.930   2.041
 3247SOL    HW210641   6.594   5.014   2.067
 3248SOL     OW10642   5.812   2.340   2.205
 3248SOL    HW110643   5.876   2.383   2.270
 3248SOL    HW210644   5.730   2.311   2.254
 3249SOL     OW10645   3.948   3.805   4.016
 3249SOL    HW110646   3.872   3.764   3.967
 3249SOL    HW210647   3.924   3.813   4.113
 3250SOL     OW10648   5.186   6.881   3.337
 3250SOL    HW110649   5.151   6.829   3.259
 3250SOL    HW210650   5.110   6.929   3.382
 3251SOL     OW10651   2.737   1.042   4.829
 3251SOL    HW110652   2.804   1.050   4.903
 3251SOL    HW210653   2.782   1.063   4.742
 3252SOL     OW10654   3.026   0.768   3.047
 3252SOL    HW110655   3.010   0.669   3.055
 3252SOL    HW210656   2.971   0.804   2.972
 3253SOL     OW10657   4.347   3.462   0.991
 3253SOL    HW110658   4.406   3.539   0.967
 3253SOL    HW210659   4.403   3.386   1.026
 3254SOL     OW10660   5.365   6.771   6.054
 3254SOL    HW110661   5.278   6.742   6.094
 3254SOL    HW210662   5.440   6.725   6.100
 3255SOL     OW10663   5.486   6.473   1.294
 3255SOL    HW110664   5.575   6.512   1.272
 3255SOL    HW210665   5.415   6.517   1.239
 3256SOL     OW10666   4.034   1.916   1.591
 3256SOL    HW110667   4.100   1.917   1.516
 3256SOL    HW210668   3.994   1.825   1.600
 3257SOL     OW10669   2.821   2.038   1.897
 3257SOL    HW110670   2.761   2.081   1.829
 3257SOL    HW210671   2.890   2.104   1.927
 3258SOL     OW10672   3.601   4.988   3.108
 3258SOL    HW110673   3.542   4.966   3.186
 3258SOL    HW210674   3.667   5.058   3.136
 3259SOL     OW10675   4.976   5.305   4.233
 3259SOL    HW110676   5.013   5.356   4.310
 3259SOL    HW210677   5.023   5.217   4.225
 3260SOL     OW10678   1.419   3.402   2.185
 3260SOL    HW110679   1.343   3.338   2.197
 3260SOL    HW210680   1.445   3.441   2.273
 3261SOL     OW10681   4.720   0.662   2.393
 3261SOL    HW110682   4.742   0.573   2.431
 3261SOL    HW210683   4.672   0.717   2.462
 3262SOL     OW10684   4.075   2.222   2.277
 3262SOL    HW110685   4.015   2.152   2.315
 3262SOL    HW210686   4.029   2.311   2.283
 3263SOL     OW10687   3.392   0.970   3.550
 3263SOL    HW110688   3.322   1.039   3.535
 3263SOL    HW210689   3.427   0.977   3.643
 3264SOL     OW10690   2.080   5.285   1.037
 3264SOL    HW110691   2.168   5.318   1.070
 3264SOL    HW210692   2.082   5.185   1.030
 3265SOL     OW10693   5.959   6.025   6.131
 3265SOL    HW110694   6.053   6.054   6.151
 3265SOL    HW210695   5.923   6.082   6.057
 3266SOL     OW10696   2.680   4.201   6.916
 3266SOL    HW110697   2.744   4.257   6.864
 3266SOL    HW210698   2.616   4.157   6.853
 3267SOL     OW10699   3.073   0.277   1.768
 3267SOL    HW110700   3.115   0.361   1.736
 3267SOL    HW210701   3.144   0.207   1.779
 3268SOL     OW10702   1.219   4.746   1.043
 3268SOL    HW110703   1.164   4.780   1.119
 3268SOL    HW210704   1.308   4.792   1.043
 3269SOL     OW10705   0.264   5.487   1.833
 3269SOL    HW110706   0.297   5.526   1.918
 3269SOL    HW210707   0.175   5.443   1.848
 3270SOL     OW10708   1.911   2.981   6.426
 3270SOL    HW110709   1.944   2.973   6.331
 3270SOL    HW210710   1.988   3.004   6.485
 3271SOL     OW10711   6.589   3.283   1.635
 3271SOL    HW110712   6.584   3.188   1.604
 3271SOL    HW210713   6.526   3.339   1.580
 3272SOL     OW10714   3.337   4.544   6.897
 3272SOL    HW110715   3.416   4.603   6.912
 3272SOL    HW210716   3.312   4.547   6.800
 3273SOL     OW10717   5.579   4.983   6.054
 3273SOL    HW110718   5.485   5.002   6.081
 3273SOL    HW210719   5.611   4.900   6.100
 3274SOL     OW10720   6.049   0.302   0.910
 3274SOL    HW110721   5.963   0.328   0.954
 3274SOL    HW210722   6.080   0.377   0.852
 3275SOL     OW10723   4.613   1.050   0.421
 3275SOL    HW110724   4.543   1.101   0.472
 3275SOL    HW210725   4.568   0.978   0.367
 3276SOL     OW10726   4.899   6.006   6.861
 3276SOL    HW110727   4.853   6.023   6.774
 3276SOL    HW210728   4.902   6.091   6.914
 3277SOL     OW10729   3.425   1.271   0.990
 3277SOL    HW110730   3.504   1.307   1.040
 3277SOL    HW210731   3.411   1.323   0.906
 3278SOL     OW10732   0.476   0.466   5.875
 3278SOL    HW110733   0.450   0.504   5.786
 3278SOL    HW210734   0.393   0.442   5.926
 3279SOL     OW10735   5.061   0.173   1.230
 3279SOL    HW110736   5.146   0.134   1.267
 3279SOL    HW210737   4.983   0.132   1.278
 3280SOL     OW10738   4.549   4.490   4.144
 3280SOL    HW110739   4.565   4.430   4.223
 3280SOL    HW210740   4.497   4.441   4.075
 3281SOL     OW10741   0.405   4.403   1.368
 3281SOL    HW110742   0.403   4.500   1.343
 3281SOL    HW210743   0.392   4.348   1.286
 3282SOL     OW10744   6.799   4.182   5.064
 3282SOL    HW110745   6.870   4.252   5.057
 3282SOL    HW210746   6.739   4.203   5.142
 3283SOL     OW10747   3.745   1.170   1.299
 3283SOL    HW110748   3.727   1.264   1.272
 3283SOL    HW210749   3.843   1.159   1.317
 3284SOL     OW10750   1.343   5.918   5.273
 3284SOL    HW110751   1.320   5.983   5.201
 3284SOL    HW210752   1.375   5.833   5.232
 3285SOL     OW10753   5.997   1.828   4.616
 3285SOL    HW110754   5.943   1.911   4.627
 3285SOL    HW210755   6.005   1.805   4.519
 3286SOL     OW10756   3.321   2.521   1.722
 3286SOL    HW110757   3.360   2.592   1.780
 3286SOL    HW210758   3.222   2.526   1.725
 3287SOL     OW10759   0.821   0.676   0.288
 3287SOL    HW110760   0.900   0.715   0.335
 3287SOL    HW210761   0.852   0.610   0.219
 3288SOL     OW10762   1.925   0.089   0.509
 3288SOL    HW110763   2.009   0.082   0.561
 3288SOL    HW210764   1.914   0.183   0.475
 3289SOL     OW10765   2.709   1.942   6.360
 3289SOL    HW110766   2.792   1.886   6.369
 3289SOL    HW210767   2.636   1.901   6.416
 3290SOL     OW10768   0.147   5.334   0.824
 3290SOL    HW110769   0.205   5.321   0.904
 3290SOL    HW210770   0.205   5.354   0.744
 3291SOL     OW10771   3.038   0.814   6.055
 3291SOL    HW110772   2.982   0.828   5.973
 3291SOL    HW210773   2.980   0.781   6.129
 3292SOL     OW10774   7.008   1.166   0.901
 3292SOL    HW110775   0.074   1.139   0.927
 3292SOL    HW210776   6.950   1.168   0.983
 3293SOL     OW10777   6.735   4.831   1.640
 3293SOL    HW110778   6.697   4.835   1.548
 3293SOL    HW210779   6.830   4.800   1.636
 3294SOL     OW10780   5.027   1.828   5.682
 3294SOL    HW110781   5.011   1.839   5.781
 3294SOL    HW210782   5.116   1.786   5.667
 3295SOL     OW10783   1.381   3.539   0.983
 3295SOL    HW110784   1.359   3.460   0.925
 3295SOL    HW210785   1.304   3.602   0.985
 3296SOL     OW10786   0.143   0.594   4.442
 3296SOL    HW110787   0.062   0.540   4.417
 3296SOL    HW210788   0.225   0.540   4.429
 3297SOL     OW10789   3.131   1.801   5.234
 3297SOL    HW110790   3.214   1.778   5.285
 3297SOL    HW210791   3.121   1.900   5.231
 3298SOL     OW10792   6.522   2.562   5.775
 3298SOL    HW110793   6.549   2.646   5.728
 3298SOL    HW210794   6.593   2.493   5.763
 3299SOL     OW10795   3.894   6.166   2.665
 3299SOL    HW110796   3.938   6.215   2.740
 3299SOL    HW210797   3.961   6.152   2.591
 3300SOL     OW10798   1.532   0.351   6.061
 3300SOL    HW110799   1.575   0.398   5.984
 3300SOL    HW210800   1.572   0.384   6.146
 3301SOL     OW10801   1.459   3.799   3.345
 3301SOL    HW110802   1.528   3.782   3.275
 3301SOL    HW210803   1.502   3.802   3.435
 3302SOL     OW10804   1.279   4.843   6.642
 3302SOL    HW110805   1.264   4.888   6.554
 3302SOL    HW210806   1.374   4.811   6.648
 3303SOL     OW10807   3.091   3.165   0.343
 3303SOL    HW110808   3.177   3.203   0.309
 3303SOL    HW210809   3.055   3.223   0.415
 3304SOL     OW10810   2.307   5.316   6.137
 3304SOL    HW110811   2.395   5.340   6.095
 3304SOL    HW210812   2.245   5.281   6.067
 3305SOL     OW10813   3.032   0.826   1.843
 3305SOL    HW110814   3.013   0.896   1.912
 3305SOL    HW210815   3.126   0.793   1.855
 3306SOL     OW10816   1.371   6.019   5.521
 3306SOL    HW110817   1.351   5.982   5.431
 3306SOL    HW210818   1.414   5.949   5.578
 3307SOL     OW10819   0.977   0.190   5.413
 3307SOL    HW110820   0.883   0.157   5.426
 3307SOL    HW210821   1.024   0.130   5.348
 3308SOL     OW10822   3.474   5.569   1.051
 3308SOL    HW110823   3.542   5.498   1.034
 3308SOL    HW210824   3.482   5.639   0.980
 3309SOL     OW10825   6.051   4.586   3.884
 3309SOL    HW110826   6.069   4.648   3.808
 3309SOL    HW210827   6.137   4.548   3.917
 3310SOL     OW10828   0.695   4.204   4.696
 3310SOL    HW110829   0.596   4.208   4.680
 3310SOL    HW210830   0.713   4.155   4.781
 3311SOL     OW10831   3.039   3.252   0.752
 3311SOL    HW110832   3.045   3.292   0.660
 3311SOL    HW210833   2.991   3.316   0.812
 3312SOL     OW10834   3.968   2.831   5.620
 3312SOL    HW110835   3.981   2.829   5.521
 3312SOL    HW210836   4.037   2.891   5.661
 3313SOL     OW10837   0.934   0.350   3.234
 3313SOL    HW110838   1.013   0.297   3.263
 3313SOL    HW210839   0.887   0.302   3.160
 3314SOL     OW10840   3.463   0.787   2.151
 3314SOL    HW110841   3.394   0.722   2.184
 3314SOL    HW210842   3.446   0.877   2.190
 3315SOL     OW10843   0.836   4.499   5.401
 3315SOL    HW110844   0.924   4.542   5.418
 3315SOL    HW210845   0.847   4.400   5.399
 3316SOL     OW10846   3.982   0.885   5.155
 3316SOL    HW110847   4.059   0.828   5.186
 3316SOL    HW210848   4.009   0.934   5.072
 3317SOL     OW10849   5.351   1.813   2.298
 3317SOL    HW110850   5.406   1.754   2.238
 3317SOL    HW210851   5.257   1.781   2.299
 3318SOL     OW10852   1.701   1.158   6.766
 3318SOL    HW110853   1.657   1.122   6.683
 3318SOL    HW210854   1.800   1.149   6.757
 3319SOL     OW10855   6.119   0.468   3.444
 3319SOL    HW110856   6.170   0.550   3.418
 3319SOL    HW210857   6.161   0.388   3.401
 3320SOL     OW10858   6.526   0.461   0.130
 3320SOL    HW110859   6.501   0.490   0.038
 3320SOL    HW210860   6.619   0.424   0.129
 3321SOL     OW10861   5.961   1.410   0.800
 3321SOL    HW110862   5.994   1.397   0.893
 3321SOL    HW210863   5.898   1.488   0.798
 3322SOL     OW10864   6.932   2.943   1.073
 3322SOL    HW110865   6.895   3.009   1.139
 3322SOL    HW210866   6.885   2.855   1.084
 3323SOL     OW10867   2.397   1.740   1.011
 3323SOL    HW110868   2.390   1.833   0.975
 3323SOL    HW210869   2.487   1.702   0.990
 3324SOL     OW10870   4.601   5.315   5.230
 3324SOL    HW110871   4.655   5.385   5.184
 3324SOL    HW210872   4.512   5.354   5.257
 3325SOL     OW10873   0.395   2.894   6.566
 3325SOL    HW110874   0.488   2.860   6.554
 3325SOL    HW210875   0.396   2.994   6.570
 3326SOL     OW10876   5.033   1.269   1.458
 3326SOL    HW110877   5.007   1.173   1.468
 3326SOL    HW210878   4.981   1.310   1.384
 3327SOL     OW10879   2.240   5.236   1.468
 3327SOL    HW110880   2.233   5.236   1.568
 3327SOL    HW210881   2.152   5.263   1.429
 3328SOL     OW10882   3.741   1.992   1.064
 3328SOL    HW110883   3.711   2.084   1.087
 3328SOL    HW210884   3.840   1.992   1.047
 3329SOL     OW10885   6.486   0.168   5.541
 3329SOL    HW110886   6.525   0.221   5.465
 3329SOL    HW210887   6.392   0.142   5.519
 3330SOL     OW10888   6.050   3.741   1.894
 3330SOL    HW110889   5.960   3.709   1.922
 3330SOL    HW210890   6.113   3.738   1.972
 3331SOL     OW10891   2.427   2.702   1.339
 3331SOL    HW110892   2.482   2.690   1.256
 3331SOL    HW210893   2.380   2.790   1.335
 3332SOL     OW10894   6.051   5.576   0.263
 3332SOL    HW110895   6.015   5.570   0.171
 3332SOL    HW210896   6.034   5.668   0.300
 3333SOL     OW10897   4.376   5.431   6.583
 3333SOL    HW110898   4.334   5.398   6.498
 3333SOL    HW210899   4.313   5.494   6.628
 3334SOL     OW10900   3.504   3.388   1.419
 3334SOL    HW110901   3.460   3.363   1.333
 3334SOL    HW210902   3.441   3.372   1.495
 3335SOL     OW10903   4.389   5.458   5.320
 3335SOL    HW110904   4.392   5.555   5.297
 3335SOL    HW210905   4.332   5.445   5.401
 3336SOL     OW10906   3.119   5.360   5.123
 3336SOL    HW110907   3.142   5.364   5.221
 3336SOL    HW210908   3.082   5.270   5.101
 3337SOL     OW10909   3.069   2.540   1.459
 3337SOL    HW110910   3.074   2.557   1.558
 3337SOL    HW210911   2.978   2.503   1.437
 3338SOL     OW10912   6.310   3.616   1.591
 3338SOL    HW110913   6.236   3.577   1.645
 3338SOL    HW210914   6.274   3.648   1.503
 3339SOL     OW10915   0.092   6.741   6.940
 3339SOL    HW110916   0.017   6.689   6.900
 3339SOL    HW210917   0.133   6.689   7.015
 3340SOL     OW10918   3.617   0.299   1.625
 3340SOL    HW110919   3.578   0.251   1.546
 3340SOL    HW210920   3.654   0.232   1.689
 3341SOL     OW10921   1.528   0.058   4.153
 3341SOL    HW110922   1.599   0.064   4.223
 3341SOL    HW210923   1.447   0.108   4.183
 3342SOL     OW10924   2.206   6.697   3.998
 3342SOL    HW110925   2.168   6.789   4.007
 3342SOL    HW210926   2.294   6.702   3.950
 3343SOL     OW10927   4.781   2.764   0.595
 3343SOL    HW110928   4.789   2.665   0.583
 3343SOL    HW210929   4.823   2.811   0.517
 3344SOL     OW10930   5.477   4.289   4.852
 3344SOL    HW110931   5.435   4.213   4.901
 3344SOL    HW210932   5.410   4.330   4.791
 3345SOL     OW10933   2.618   3.933   5.977
 3345SOL    HW110934   2.527   3.958   6.009
 3345SOL    HW210935   2.612   3.848   5.924
 3346SOL     OW10936   1.474   0.885   1.608
 3346SOL    HW110937   1.550   0.947   1.588
 3346SOL    HW210938   1.510   0.795   1.634
 3347SOL     OW10939   0.599   4.955   3.466
 3347SOL    HW110940   0.575   4.961   3.369
 3347SOL    HW210941   0.517   4.973   3.521
 3348SOL     OW10942   3.124   3.110   3.460
 3348SOL    HW110943   3.107   3.117   3.558
 3348SOL    HW210944   3.065   3.174   3.412
 3349SOL     OW10945   0.582   4.385   4.965
 3349SOL    HW110946   0.621   4.449   4.898
 3349SOL    HW210947   0.503   4.340   4.925
 3350SOL     OW10948   1.362   1.905   6.747
 3350SOL    HW110949   1.292   1.967   6.782
 3350SOL    HW210950   1.322   1.846   6.678
 3351SOL     OW10951   5.175   0.184   2.251
 3351SOL    HW110952   5.217   0.273   2.264
 3351SOL    HW210953   5.088   0.195   2.203
 3352SOL     OW10954   6.881   3.725   0.282
 3352SOL    HW110955   6.919   3.704   0.372
 3352SOL    HW210956   6.954   3.722   0.213
 3353SOL     OW10957   1.252   6.851   1.752
 3353SOL    HW110958   1.166   6.876   1.795
 3353SOL    HW210959   1.324   6.913   1.783
 3354SOL     OW10960   6.483   2.757   4.060
 3354SOL    HW110961   6.483   2.662   4.089
 3354SOL    HW210962   6.499   2.817   4.139
 3355SOL     OW10963   0.971   1.470   0.015
 3355SOL    HW110964   0.958   1.564   0.046
 3355SOL    HW210965   1.064   1.440   0.038
 3356SOL     OW10966   2.415   2.704   0.198
 3356SOL    HW110967   2.429   2.769   0.273
 3356SOL    HW210968   2.320   2.672   0.198
 3357SOL     OW10969   2.341   4.669   1.695
 3357SOL    HW110970   2.372   4.697   1.786
 3357SOL    HW210971   2.383   4.582   1.671
 3358SOL     OW10972   4.585   6.194   1.524
 3358SOL    HW110973   4.498   6.196   1.474
 3358SOL    HW210974   4.656   6.238   1.469
 3359SOL     OW10975   6.968   0.655   3.748
 3359SOL    HW110976   6.920   0.576   3.785
 3359SOL    HW210977   6.982   0.643   3.649
 3360SOL     OW10978   0.237   1.080   1.046
 3360SOL    HW110979   0.310   1.119   1.102
 3360SOL    HW210980   0.268   0.993   1.008
 3361SOL     OW10981   6.838   4.869   2.598
 3361SOL    HW110982   6.934   4.886   2.576
 3361SOL    HW210983   6.783   4.874   2.514
 3362SOL     OW10984   3.648   1.226   4.449
 3362SOL    HW110985   3.713   1.155   4.423
 3362SOL    HW210986   3.694   1.295   4.504
 3363SOL     OW10987   0.185   0.614   6.307
 3363SOL    HW110988   0.276   0.648   6.331
 3363SOL    HW210989   0.167   0.632   6.210
 3364SOL     OW10990   1.290   5.315   5.394
 3364SOL    HW110991   1.274   5.226   5.352
 3364SOL    HW210992   1.265   5.387   5.329
 3365SOL     OW10993   0.385   2.790   4.948
 3365SOL    HW110994   0.312   2.840   4.901
 3365SOL    HW210995   0.452   2.855   4.985
 3366SOL     OW10996   6.139   0.911   4.945
 3366SOL    HW110997   6.135   0.960   4.858
 3366SOL    HW210998   6.079   0.831   4.941
 3367SOL     OW10999   2.019   2.912   1.815
 3367SOL    HW111000   1.952   2.918   1.741
 3367SOL    HW211001   2.102   2.960   1.789
 3368SOL     OW11002   0.543   5.912   6.800
 3368SOL    HW111003   0.626   5.933   6.851
 3368SOL    HW211004   0.567   5.864   6.715
 3369SOL     OW11005   3.240   2.198   6.224
 3369SOL    HW111006   3.201   2.279   6.181
 3369SOL    HW211007   3.238   2.209   6.323
 3370SOL     OW11008   6.639   6.587   5.078
 3370SOL    HW111009   6.619   6.489   5.081
 3370SOL    HW211010   6.562   6.635   5.037
 3371SOL     OW11011   0.741   4.249   2.496
 3371SOL    HW111012   0.782   4.326   2.447
 3371SOL    HW211013   0.784   4.164   2.466
 3372SOL     OW11014   1.221   1.642   2.559
 3372SOL    HW111015   1.250   1.575   2.627
 3372SOL    HW211016   1.173   1.717   2.604
 3373SOL     OW11017   6.817   1.278   3.982
 3373SOL    HW111018   6.831   1.309   3.888
 3373SOL    HW211019   6.870   1.195   3.998
 3374SOL     OW11020   3.111   5.577   4.309
 3374SOL    HW111021   3.203   5.544   4.287
 3374SOL    HW211022   3.096   5.572   4.407
 3375SOL     OW11023   3.939   4.871   4.647
 3375SOL    HW111024   4.019   4.815   4.628
 3375SOL    HW211025   3.922   4.871   4.746
 3376SOL     OW11026   4.096   3.340   2.877
 3376SOL    HW111027   4.074   3.374   2.968
 3376SOL    HW211028   4.057   3.248   2.866
 3377SOL     OW11029   0.322   6.700   4.411
 3377SOL    HW111030   0.323   6.800   4.406
 3377SOL    HW211031   0.409   6.668   4.447
 3378SOL     OW11032   6.801   0.468   1.722
 3378SOL    HW111033   6.746   0.537   1.769
 3378SOL    HW211034   6.896   0.500   1.715
 3379SOL     OW11035   6.898   4.801   6.041
 3379SOL    HW111036   6.819   4.741   6.027
 3379SOL    HW211037   6.880   4.890   5.999
 3380SOL     OW11038   6.420   5.650   5.535
 3380SOL    HW111039   6.397   5.557   5.506
 3380SOL    HW211040   6.338   5.693   5.572
 3381SOL     OW11041   1.735   2.126   0.147
 3381SOL    HW111042   1.734   2.056   0.219
 3381SOL    HW211043   1.644   2.130   0.104
 3382SOL     OW11044   0.495   1.367   0.939
 3382SOL    HW111045   0.565   1.339   0.873
 3382SOL    HW211046   0.405   1.335   0.908
 3383SOL     OW11047   5.356   4.981   2.007
 3383SOL    HW111048   5.371   4.885   2.028
 3383SOL    HW211049   5.432   5.016   1.953
 3384SOL     OW11050   2.992   3.493   4.993
 3384SOL    HW111051   2.955   3.530   5.078
 3384SOL    HW211052   3.007   3.395   5.004
 3385SOL     OW11053   0.382   3.920   3.877
 3385SOL    HW111054   0.385   3.820   3.870
 3385SOL    HW211055   0.473   3.954   3.902
 3386SOL     OW11056   6.116   3.305   5.516
 3386SOL    HW111057   6.151   3.211   5.520
 3386SOL    HW211058   6.189   3.368   5.542
 3387SOL     OW11059   2.269   0.757   2.750
 3387SOL    HW111060   2.229   0.754   2.842
 3387SOL    HW211061   2.364   0.727   2.754
 3388SOL     OW11062   5.725   3.579   1.271
 3388SOL    HW111063   5.708   3.564   1.173
 3388SOL    HW211064   5.799   3.645   1.283
 3389SOL     OW11065   4.220   5.065   4.444
 3389SOL    HW111066   4.155   5.096   4.514
 3389SOL    HW211067   4.192   5.101   4.355
 3390SOL     OW11068   4.994   4.034   5.559
 3390SOL    HW111069   5.081   3.989   5.580
 3390SOL    HW211070   5.009   4.133   5.548
 3391SOL     OW11071   5.583   2.559   4.739
 3391SOL    HW111072   5.564   2.546   4.641
 3391SOL    HW211073   5.681   2.562   4.754
 3392SOL     OW11074   2.902   1.054   3.644
 3392SOL    HW111075   2.826   1.100   3.598
 3392SOL    HW211076   2.951   0.997   3.578
 3393SOL     OW11077   0.027   6.595   0.588
 3393SOL    HW111078   7.013   6.681   0.621
 3393SOL    HW211079   6.985   6.522   0.595
 3394SOL     OW11080   5.807   3.472   1.524
 3394SOL    HW111081   5.892   3.427   1.498
 3394SOL    HW211082   5.759   3.504   1.442
 3395SOL     OW11083   6.812   3.572   4.063
 3395SOL    HW111084   6.841   3.563   3.968
 3395SOL    HW211085   6.849   3.657   4.101
 3396SOL     OW11086   0.379   2.863   3.602
 3396SOL    HW111087   0.326   2.865   3.517
 3396SOL    HW211088   0.357   2.780   3.653
 3397SOL     OW11089   2.798   1.124   5.380
 3397SOL    HW111090   2.871   1.126   5.448
 3397SOL    HW211091   2.835   1.099   5.291
 3398SOL     OW11092   1.285   6.876   4.354
 3398SOL    HW111093   1.377   6.844   4.376
 3398SOL    HW211094   1.277   6.889   4.255
 3399SOL     OW11095   5.012   4.131   3.962
 3399SOL    HW111096   4.961   4.175   4.036
 3399SOL    HW211097   4.949   4.101   3.891
 3400SOL     OW11098   4.146   1.207   5.369
 3400SOL    HW111099   4.092   1.123   5.369
 3400SOL    HW211100   4.085   1.286   5.382
 3401SOL     OW11101   7.005   3.673   0.561
 3401SOL    HW111102   0.058   3.637   0.611
 3401SOL    HW211103   6.923   3.623   0.588
 3402SOL     OW11104   5.072   5.721   0.789
 3402SOL    HW111105   4.974   5.706   0.777
 3402SOL    HW211106   5.122   5.656   0.732
 3403SOL     OW11107   3.714   0.814   4.350
 3403SOL    HW111108   3.770   0.893   4.374
 3403SOL    HW211109   3.747   0.734   4.401
 3404SOL     OW11110   3.567   1.625   0.611
 3404SOL    HW111111   3.650   1.629   0.666
 3404SOL    HW211112   3.575   1.688   0.534
 3405SOL     OW11113   6.519   3.386   4.354
 3405SOL    HW111114   6.593   3.453   4.357
 3405SOL    HW211115   6.462   3.396   4.435
 3406SOL     OW11116   1.490   4.086   1.826
 3406SOL    HW111117   1.554   4.010   1.815
 3406SOL    HW211118   1.476   4.131   1.738
 3407SOL     OW11119   1.620   5.277   0.615
 3407SOL    HW111120   1.691   5.260   0.547
 3407SOL    HW211121   1.571   5.191   0.634
 3408SOL     OW11122   4.700   4.359   4.689
 3408SOL    HW111123   4.613   4.338   4.734
 3408SOL    HW211124   4.755   4.416   4.750
 3409SOL     OW11125   3.417   6.536   5.752
 3409SOL    HW111126   3.414   6.549   5.851
 3409SOL    HW211127   3.432   6.440   5.731
 3410SOL     OW11128   5.919   5.738   6.976
 3410SOL    HW111129   5.876   5.821   7.010
 3410SOL    HW211130   5.968   5.758   6.891
 3411SOL     OW11131   0.123   2.647   1.821
 3411SOL    HW111132   0.066   2.686   1.893
 3411SOL    HW211133   0.095   2.683   1.732
 3412SOL     OW11134   4.577   2.653   6.952
 3412SOL    HW111135   4.490   2.622   6.912
 3412SOL    HW211136   4.571   2.646   0.025
 3413SOL     OW11137   4.855   1.256   2.425
 3413SOL    HW111138   4.840   1.177   2.365
 3413SOL    HW211139   4.859   1.340   2.370
 3414SOL     OW11140   2.071   1.133   5.244
 3414SOL    HW111141   2.090   1.225   5.278
 3414SOL    HW211142   2.157   1.082   5.237
 3415SOL     OW11143   2.252   4.085   4.458
 3415SOL    HW111144   2.229   3.992   4.485
 3415SOL    HW211145   2.222   4.101   4.363
 3416SOL     OW11146   6.517   4.902   6.625
 3416SOL    HW111147   6.477   4.826   6.574
 3416SOL    HW211148   6.444   4.967   6.650
 3417SOL     OW11149   6.273   5.688   3.307
 3417SOL    HW111150   6.367   5.656   3.323
 3417SOL    HW211151   6.232   5.712   3.395
 3418SOL     OW11152   3.953   0.071   5.116
 3418SOL    HW111153   3.879   0.068   5.049
 3418SOL    HW211154   4.039   0.093   5.070
 3419SOL     OW11155   2.972   5.675   5.725
 3419SOL    HW111156   2.996   5.772   5.733
 3419SOL    HW211157   2.910   5.649   5.799
 3420SOL     OW11158   5.254   2.295   3.452
 3420SOL    HW111159   5.181   2.228   3.440
 3420SOL    HW211160   5.333   2.251   3.494
 3421SOL     OW11161   6.474   0.263   6.284
 3421SOL    HW111162   6.511   0.188   6.229
 3421SOL    HW211163   6.539   0.286   6.357
 3422SOL     OW11164   2.374   6.602   1.267
 3422SOL    HW111165   2.287   6.598   1.316
 3422SOL    HW211166   2.397   6.698   1.248
 3423SOL     OW11167   2.524   0.038   0.788
 3423SOL    HW111168   2.610   0.072   0.827
 3423SOL    HW211169   2.447   0.088   0.828
 3424SOL     OW11170   3.184   0.253   2.477
 3424SOL    HW111171   3.247   0.182   2.448
 3424SOL    HW211172   3.117   0.214   2.540
 3425SOL     OW11173   4.718   4.705   2.183
 3425SOL    HW111174   4.763   4.750   2.106
 3425SOL    HW211175   4.635   4.659   2.151
 3426SOL     OW11176   3.571   2.946   0.001
 3426SOL    HW111177   3.594   2.998   6.945
 3426SOL    HW211178   3.569   2.848   7.005
 3427SOL     OW11179   6.674   6.406   6.688
 3427SOL    HW111180   6.624   6.450   6.614
 3427SOL    HW211181   6.728   6.331   6.651
 3428SOL     OW11182   3.736   5.043   1.496
 3428SOL    HW111183   3.831   5.021   1.474
 3428SOL    HW211184   3.688   5.072   1.413
 3429SOL     OW11185   0.632   1.516   6.984
 3429SOL    HW111186   0.563   1.550   0.021
 3429SOL    HW211187   0.673   1.594   6.936
 3430SOL     OW11188   0.526   0.014   6.181
 3430SOL    HW111189   0.499   7.007   6.091
 3430SOL    HW211190   0.623   7.019   6.196
 3431SOL     OW11191   2.191   0.029   1.306
 3431SOL    HW111192   2.106   7.007   1.284
 3431SOL    HW211193   2.193   0.117   1.259
 3432SOL     OW11194   2.811   2.474   6.072
 3432SOL    HW111195   2.791   2.556   6.018
 3432SOL    HW211196   2.901   2.440   6.049
 3433SOL     OW11197   1.456   6.877   6.479
 3433SOL    HW111198   1.528   6.813   6.506
 3433SOL    HW211199   1.367   6.842   6.507
 3434SOL     OW11200   3.658   2.953   1.025
 3434SOL    HW111201   3.720   2.876   1.008
 3434SOL    HW211202   3.567   2.931   0.989
 3435SOL     OW11203   0.609   2.167   1.835
 3435SOL    HW111204   0.652   2.139   1.920
 3435SOL    HW211205   0.513   2.138   1.836
 3436SOL     OW11206   3.971   6.928   5.475
 3436SOL    HW111207   3.977   6.959   5.570
 3436SOL    HW211208   3.947   6.831   5.473
 3437SOL     OW11209   4.525   0.078   6.419
 3437SOL    HW111210   4.548   7.009   6.400
 3437SOL    HW211211   4.559   0.104   6.509
 3438SOL     OW11212   1.011   2.484   6.828
 3438SOL    HW111213   1.039   2.504   6.922
 3438SOL    HW211214   1.090   2.493   6.767
 3439SOL     OW11215   2.341   0.285   5.847
 3439SOL    HW111216   2.353   0.376   5.808
 3439SOL    HW211217   2.287   0.290   5.930
 3440SOL     OW11218   4.577   3.535   1.700
 3440SOL    HW111219   4.537   3.527   1.608
 3440SOL    HW211220   4.620   3.448   1.725
 3441SOL     OW11221   5.277   0.363   3.652
 3441SOL    HW111222   5.331   0.292   3.606
 3441SOL    HW211223   5.265   0.338   3.748
 3442SOL     OW11224   2.945   4.796   2.681
 3442SOL    HW111225   2.871   4.805   2.748
 3442SOL    HW211226   3.029   4.834   2.720
 3443SOL     OW11227   5.907   0.842   2.689
 3443SOL    HW111228   5.889   0.804   2.780
 3443SOL    HW211229   5.919   0.767   2.623
 3444SOL     OW11230   5.454   4.716   0.007
 3444SOL    HW111231   5.366   4.763   0.001
 3444SOL    HW211232   5.527   4.779   7.008
 3445SOL     OW11233   5.783   4.590   3.835
 3445SOL    HW111234   5.880   4.578   3.852
 3445SOL    HW211235   5.762   4.687   3.825
 3446SOL     OW11236   6.371   1.262   2.956
 3446SOL    HW111237   6.309   1.340   2.963
 3446SOL    HW211238   6.371   1.228   2.862
 3447SOL     OW11239   5.184   4.491   0.602
 3447SOL    HW111240   5.109   4.429   0.622
 3447SOL    HW211241   5.266   4.460   0.650
 3448SOL     OW11242   3.173   0.198   0.596
 3448SOL    HW111243   3.233   0.231   0.670
 3448SOL    HW211244   3.198   0.104   0.573
 3449SOL     OW11245   5.682   6.586   3.512
 3449SOL    HW111246   5.655   6.658   3.448
 3449SOL    HW211247   5.613   6.577   3.584
 3450SOL     OW11248   0.681   2.758   0.541
 3450SOL    HW111249   0.633   2.835   0.583
 3450SOL    HW211250   0.772   2.787   0.512
 3451SOL     OW11251   0.381   5.607   3.523
 3451SOL    HW111252   0.331   5.526   3.553
 3451SOL    HW211253   0.369   5.620   3.425
 3452SOL     OW11254   5.770   1.274   0.099
 3452SOL    HW111255   5.841   1.339   0.128
 3452SOL    HW211256   5.814   1.193   0.059
 3453SOL     OW11257   6.319   5.776   5.248
 3453SOL    HW111258   6.259   5.697   5.245
 3453SOL    HW211259   6.326   5.809   5.342
 3454SOL     OW11260   2.392   1.021   5.655
 3454SOL    HW111261   2.487   1.027   5.686
 3454SOL    HW211262   2.389   0.973   5.567
 3455SOL     OW11263   1.562   2.968   4.222
 3455SOL    HW111264   1.652   2.982   4.263
 3455SOL    HW211265   1.573   2.928   4.131
 3456SOL     OW11266   5.307   6.559   2.142
 3456SOL    HW111267   5.214   6.558   2.179
 3456SOL    HW211268   5.339   6.653   2.136
 3457SOL     OW11269   2.489   5.574   3.897
 3457SOL    HW111270   2.389   5.584   3.901
 3457SOL    HW211271   2.512   5.479   3.877
 3458SOL     OW11272   5.622   0.003   0.176
 3458SOL    HW111273   5.613   0.001   0.076
 3458SOL    HW211274   5.646   6.938   0.209
 3459SOL     OW11275   6.447   4.253   3.032
 3459SOL    HW111276   6.360   4.288   3.066
 3459SOL    HW211277   6.522   4.307   3.070
 3460SOL     OW11278   2.747   3.498   0.286
 3460SOL    HW111279   2.652   3.470   0.301
 3460SOL    HW211280   2.767   3.493   0.188
 3461SOL     OW11281   4.498   5.640   4.216
 3461SOL    HW111282   4.514   5.738   4.229
 3461SOL    HW211283   4.506   5.593   4.304
 3462SOL     OW11284   6.451   3.563   2.256
 3462SOL    HW111285   6.444   3.483   2.315
 3462SOL    HW211286   6.539   3.608   2.273
 3463SOL     OW11287   0.953   2.956   2.535
 3463SOL    HW111288   1.038   2.904   2.544
 3463SOL    HW211289   0.943   2.987   2.440
 3464SOL     OW11290   6.424   2.331   6.931
 3464SOL    HW111291   6.394   2.395   6.859
 3464SOL    HW211292   6.524   2.328   6.932
 3465SOL     OW11293   1.108   3.202   1.717
 3465SOL    HW111294   1.153   3.290   1.734
 3465SOL    HW211295   1.009   3.216   1.709
 3466SOL     OW11296   6.744   5.036   5.965
 3466SOL    HW111297   6.797   5.112   5.925
 3466SOL    HW211298   6.726   5.056   6.061
 3467SOL     OW11299   1.829   1.576   0.463
 3467SOL    HW111300   1.879   1.563   0.549
 3467SOL    HW211301   1.797   1.487   0.429
 3468SOL     OW11302   5.656   1.725   3.435
 3468SOL    HW111303   5.636   1.629   3.418
 3468SOL    HW211304   5.659   1.775   3.348
 3469SOL     OW11305   4.602   6.857   4.530
 3469SOL    HW111306   4.676   6.815   4.582
 3469SOL    HW211307   4.516   6.847   4.580
 3470SOL     OW11308   0.324   2.702   1.385
 3470SOL    HW111309   0.403   2.757   1.355
 3470SOL    HW211310   0.356   2.613   1.416
 3471SOL     OW11311   4.550   4.415   3.600
 3471SOL    HW111312   4.457   4.381   3.617
 3471SOL    HW211313   4.593   4.359   3.530
 3472SOL     OW11314   3.089   1.346   1.444
 3472SOL    HW111315   3.066   1.325   1.539
 3472SOL    HW211316   3.081   1.444   1.428
 3473SOL     OW11317   6.319   3.205   2.701
 3473SOL    HW111318   6.259   3.282   2.678
 3473SOL    HW211319   6.285   3.159   2.782
 3474SOL     OW11320   6.984   4.214   2.425
 3474SOL    HW111321   7.010   4.204   2.521
 3474SOL    HW211322   6.948   4.306   2.410
 3475SOL     OW11323   0.892   4.632   5.034
 3475SOL    HW111324   0.927   4.545   5.068
 3475SOL    HW211325   0.948   4.663   4.958
 3476SOL     OW11326   2.336   2.322   2.476
 3476SOL    HW111327   2.385   2.258   2.417
 3476SOL    HW211328   2.388   2.407   2.483
 3477SOL     OW11329   1.485   4.779   0.770
 3477SOL    HW111330   1.389   4.768   0.796
 3477SOL    HW211331   1.543   4.723   0.828
 3478SOL     OW11332   2.984   6.425   6.884
 3478SOL    HW111333   2.961   6.476   6.800
 3478SOL    HW211334   3.061   6.470   6.929
 3479SOL     OW11335   0.233   0.941   2.615
 3479SOL    HW111336   0.317   0.925   2.667
 3479SOL    HW211337   0.255   0.963   2.520
 3480SOL     OW11338   0.366   6.350   5.245
 3480SOL    HW111339   0.271   6.321   5.253
 3480SOL    HW211340   0.421   6.276   5.207
 3481SOL     OW11341   4.971   0.511   0.576
 3481SOL    HW111342   4.913   0.437   0.541
 3481SOL    HW211343   5.061   0.507   0.532
 3482SOL     OW11344   6.158   1.156   1.993
 3482SOL    HW111345   6.241   1.145   2.048
 3482SOL    HW211346   6.163   1.097   1.912
 3483SOL     OW11347   5.539   1.815   2.513
 3483SOL    HW111348   5.504   1.753   2.584
 3483SOL    HW211349   5.486   1.803   2.430
 3484SOL     OW11350   1.285   3.258   0.454
 3484SOL    HW111351   1.359   3.234   0.516
 3484SOL    HW211352   1.197   3.229   0.493
 3485SOL     OW11353   1.670   1.943   3.929
 3485SOL    HW111354   1.609   1.967   3.853
 3485SOL    HW211355   1.764   1.939   3.896
 3486SOL     OW11356   1.848   0.001   3.358
 3486SOL    HW111357   1.787   6.972   3.301
 3486SOL    HW211358   1.834   0.098   3.338
 3487SOL     OW11359   6.937   1.682   0.564
 3487SOL    HW111360   6.860   1.733   0.526
 3487SOL    HW211361   6.971   1.618   0.494
 3488SOL     OW11362   5.584   1.365   5.304
 3488SOL    HW111363   5.564   1.397   5.211
 3488SOL    HW211364   5.524   1.289   5.327
 3489SOL     OW11365   3.734   0.218   1.868
 3489SOL    HW111366   3.775   0.309   1.869
 3489SOL    HW211367   3.804   0.149   1.891
 3490SOL     OW11368   3.631   4.815   1.226
 3490SOL    HW111369   3.571   4.787   1.301
 3490SOL    HW211370   3.597   4.776   1.140
 3491SOL     OW11371   4.104   2.025   5.956
 3491SOL    HW111372   4.115   2.023   5.856
 3491SOL    HW211373   4.118   2.118   5.989
 3492SOL     OW11374   5.976   4.714   0.956
 3492SOL    HW111375   5.892   4.665   0.980
 3492SOL    HW211376   6.045   4.649   0.924
 3493SOL     OW11377   5.041   3.846   4.085
 3493SOL    HW111378   5.054   3.809   4.177
 3493SOL    HW211379   5.065   3.943   4.084
 3494SOL     OW11380   2.523   1.218   1.797
 3494SOL    HW111381   2.579   1.294   1.829
 3494SOL    HW211382   2.553   1.191   1.705
 3495SOL     OW11383   6.692   4.610   2.095
 3495SOL    HW111384   6.724   4.537   2.034
 3495SOL    HW211385   6.644   4.679   2.042
 3496SOL     OW11386   6.103   5.385   0.879
 3496SOL    HW111387   6.194   5.345   0.870
 3496SOL    HW211388   6.079   5.434   0.795
 3497SOL     OW11389   2.656   1.622   3.675
 3497SOL    HW111390   2.656   1.676   3.759
 3497SOL    HW211391   2.696   1.676   3.600
 3498SOL     OW11392   3.053   1.275   1.709
 3498SOL    HW111393   3.038   1.373   1.704
 3498SOL    HW211394   2.981   1.232   1.763
 3499SOL     OW11395   5.617   4.634   4.185
 3499SOL    HW111396   5.664   4.564   4.132
 3499SOL    HW211397   5.668   4.651   4.270
 3500SOL     OW11398   1.810   3.012   2.919
 3500SOL    HW111399   1.856   3.086   2.869
 3500SOL    HW211400   1.802   3.038   3.016
 3501SOL     OW11401   3.388   6.573   6.028
 3501SOL    HW111402   3.449   6.652   6.024
 3501SOL    HW211403   3.406   6.521   6.111
 3502SOL     OW11404   0.120   1.915   1.555
 3502SOL    HW111405   0.203   1.918   1.500
 3502SOL    HW211406   0.059   1.845   1.521
 3503SOL     OW11407   6.014   6.407   4.948
 3503SOL    HW111408   6.018   6.395   4.849
 3503SOL    HW211409   5.920   6.395   4.979
 3504SOL     OW11410   2.577   0.579   2.087
 3504SOL    HW111411   2.559   0.676   2.072
 3504SOL    HW211412   2.621   0.540   2.005
 3505SOL     OW11413   4.995   4.320   5.519
 3505SOL    HW111414   4.946   4.363   5.595
 3505SOL    HW211415   5.093   4.316   5.541
 3506SOL     OW11416   5.488   4.761   5.140
 3506SOL    HW111417   5.526   4.795   5.226
 3506SOL    HW211418   5.552   4.695   5.099
 3507SOL     OW11419   2.594   0.754   0.893
 3507SOL    HW111420   2.658   0.678   0.906
 3507SOL    HW211421   2.576   0.797   0.981
 3508SOL     OW11422   2.278   1.335   5.967
 3508SOL    HW111423   2.290   1.427   6.005
 3508SOL    HW211424   2.195   1.331   5.912
 3509SOL     OW11425   6.015   6.832   0.025
 3509SOL    HW111426   6.026   6.932   0.026
 3509SOL    HW211427   6.104   6.788   0.016
 3510SOL     OW11428   1.392   0.979   2.226
 3510SOL    HW111429   1.369   0.915   2.152
 3510SOL    HW211430   1.358   0.942   2.312
 3511SOL     OW11431   2.086   4.095   1.693
 3511SOL    HW111432   2.017   4.026   1.668
 3511SOL    HW211433   2.078   4.115   1.791
 3512SOL     OW11434   0.186   4.613   0.301
 3512SOL    HW111435   0.194   4.528   0.355
 3512SOL    HW211436   0.257   4.614   0.231
 3513SOL     OW11437   5.931   1.932   0.555
 3513SOL    HW111438   6.000   1.973   0.615
 3513SOL    HW211439   5.970   1.852   0.509
 3514SOL     OW11440   0.205   0.879   1.920
 3514SOL    HW111441   0.197   0.947   1.847
 3514SOL    HW211442   0.150   0.909   1.998
 3515SOL     OW11443   4.282   6.311   2.701
 3515SOL    HW111444   4.322   6.236   2.753
 3515SOL    HW211445   4.334   6.395   2.719
 3516SOL     OW11446   4.758   6.875   0.841
 3516SOL    HW111447   4.789   6.938   0.770
 3516SOL    HW211448   4.767   6.781   0.809
 3517SOL     OW11449   6.954   1.281   1.703
 3517SOL    HW111450   7.013   1.278   1.623
 3517SOL    HW211451   7.008   1.300   1.784
 3518SOL     OW11452   5.320   3.037   5.281
 3518SOL    HW111453   5.374   3.107   5.327
 3518SOL    HW211454   5.380   2.975   5.230
 3519SOL     OW11455   1.484   0.057   5.685
 3519SOL    HW111456   1.509   0.011   5.600
 3519SOL    HW211457   1.390   0.032   5.710
 3520SOL     OW11458   3.524   6.024   6.853
 3520SOL    HW111459   3.430   6.033   6.884
 3520SOL    HW211460   3.538   5.933   6.814
 3521SOL     OW11461   4.617   2.692   0.195
 3521SOL    HW111462   4.609   2.785   0.158
 3521SOL    HW211463   4.531   2.667   0.239
 3522SOL     OW11464   0.312   5.486   0.595
 3522SOL    HW111465   0.310   5.459   0.498
 3522SOL    HW211466   0.246   5.559   0.610
 3523SOL     OW11467   1.505   4.662   5.039
 3523SOL    HW111468   1.470   4.569   5.031
 3523SOL    HW211469   1.585   4.673   4.980
 3524SOL     OW11470   4.608   1.386   1.766
 3524SOL    HW111471   4.682   1.452   1.785
 3524SOL    HW211472   4.533   1.433   1.719
 3525SOL     OW11473   6.745   3.867   3.701
 3525SOL    HW111474   6.749   3.912   3.790
 3525SOL    HW211475   6.655   3.880   3.661
 3526SOL     OW11476   1.906   6.846   4.029
 3526SOL    HW111477   1.933   6.792   3.949
 3526SOL    HW211478   1.950   6.935   4.025
 3527SOL     OW11479   5.767   3.447   6.351
 3527SOL    HW111480   5.857   3.470   6.389
 3527SOL    HW211481   5.720   3.532   6.325
 3528SOL     OW11482   1.512   6.601   5.223
 3528SOL    HW111483   1.608   6.624   5.238
 3528SOL    HW211484   1.459   6.684   5.211
 3529SOL     OW11485   4.156   7.003   0.584
 3529SOL    HW111486   4.106   0.042   0.526
 3529SOL    HW211487   4.161   0.013   0.677
 3530SOL     OW11488   6.564   6.050   1.076
 3530SOL    HW111489   6.571   6.035   1.175
 3530SOL    HW211490   6.481   6.005   1.042
 3531SOL     OW11491   4.612   2.153   0.986
 3531SOL    HW111492   4.607   2.249   1.011
 3531SOL    HW211493   4.706   2.120   0.999
 3532SOL     OW11494   2.583   0.090   2.010
 3532SOL    HW111495   2.602   0.104   1.913
 3532SOL    HW211496   2.647   0.145   2.064
 3533SOL     OW11497   0.726   1.358   2.725
 3533SOL    HW111498   0.819   1.395   2.726
 3533SOL    HW211499   0.696   1.346   2.631
 3534SOL     OW11500   0.737   1.754   0.925
 3534SOL    HW111501   0.688   1.694   0.989
 3534SOL    HW211502   0.831   1.765   0.954
 3535SOL     OW11503   1.886   5.246   6.405
 3535SOL    HW111504   1.868   5.319   6.471
 3535SOL    HW211505   1.807   5.234   6.345
 3536SOL     OW11506   3.705   2.004   3.077
 3536SOL    HW111507   3.684   1.916   3.034
 3536SOL    HW211508   3.621   2.044   3.115
 3537SOL     OW11509   2.306   5.414   2.571
 3537SOL    HW111510   2.256   5.469   2.504
 3537SOL    HW211511   2.389   5.462   2.599
 3538SOL     OW11512   2.080   6.653   5.364
 3538SOL    HW111513   2.127   6.575   5.323
 3538SOL    HW211514   2.055   6.719   5.293
 3539SOL     OW11515   3.366   3.090   5.263
 3539SOL    HW111516   3.341   3.170   5.209
 3539SOL    HW211517   3.322   3.009   5.224
 3540SOL     OW11518   2.069   2.750   4.795
 3540SOL    HW111519   2.058   2.671   4.735
 3540SOL    HW211520   1.989   2.758   4.854
 3541SOL     OW11521   2.267   2.741   6.202
 3541SOL    HW111522   2.273   2.654   6.153
 3541SOL    HW211523   2.172   2.759   6.226
 3542SOL     OW11524   1.424   5.453   3.602
 3542SOL    HW111525   1.491   5.378   3.605
 3542SOL    HW211526   1.471   5.540   3.610
 3543SOL     OW11527   0.927   2.661   5.032
 3543SOL    HW111528   0.852   2.617   5.081
 3543SOL    HW211529   0.890   2.714   4.956
 3544SOL     OW11530   1.955   3.824   5.525
 3544SOL    HW111531   1.889   3.805   5.452
 3544SOL    HW211532   1.992   3.916   5.513
 3545SOL     OW11533   4.321   5.682   6.865
 3545SOL    HW111534   4.362   5.595   6.892
 3545SOL    HW211535   4.330   5.748   6.940
 3546SOL     OW11536   1.824   4.531   3.965
 3546SOL    HW111537   1.923   4.534   3.976
 3546SOL    HW211538   1.788   4.624   3.964
 3547SOL     OW11539   6.544   4.369   3.868
 3547SOL    HW111540   6.478   4.330   3.804
 3547SOL    HW211541   6.635   4.366   3.827
 3548SOL     OW11542   6.123   1.790   5.930
 3548SOL    HW111543   6.090   1.775   5.837
 3548SOL    HW211544   6.126   1.888   5.948
 3549SOL     OW11545   6.617   4.528   5.723
 3549SOL    HW111546   6.644   4.516   5.627
 3549SOL    HW211547   6.520   4.503   5.733
 3550SOL     OW11548   5.696   2.392   2.572
 3550SOL    HW111549   5.785   2.369   2.533
 3550SOL    HW211550   5.701   2.384   2.672
 3551SOL     OW11551   3.723   6.963   2.824
 3551SOL    HW111552   3.728   6.965   2.724
 3551SOL    HW211553   3.757   6.874   2.857
 3552SOL     OW11554   5.027   6.445   1.223
 3552SOL    HW111555   5.014   6.468   1.320
 3552SOL    HW211556   5.006   6.349   1.209
 3553SOL     OW11557   5.407   3.948   1.554
 3553SOL    HW111558   5.346   3.877   1.519
 3553SOL    HW211559   5.365   4.037   1.540
 3554SOL     OW11560   3.862   2.788   0.931
 3554SOL    HW111561   3.791   2.770   0.862
 3554SOL    HW211562   3.911   2.704   0.951
 3555SOL     OW11563   1.098   4.025   3.068
 3555SOL    HW111564   1.092   3.948   3.131
 3555SOL    HW211565   1.150   4.099   3.112
 3556SOL     OW11566   4.501   0.912   4.182
 3556SOL    HW111567   4.599   0.895   4.183
 3556SOL    HW211568   4.468   0.912   4.088
 3557SOL     OW11569   1.159   0.304   3.864
 3557SOL    HW111570   1.206   0.228   3.817
 3557SOL    HW211571   1.061   0.298   3.847
 3558SOL     OW11572   1.182   5.668   0.733
 3558SOL    HW111573   1.274   5.706   0.728
 3558SOL    HW211574   1.186   5.570   0.714
 3559SOL     OW11575   0.771   6.976   4.623
 3559SOL    HW111576   0.814   0.039   4.607
 3559SOL    HW211577   0.816   6.907   4.567
 3560SOL     OW11578   1.642   5.635   1.303
 3560SOL    HW111579   1.550   5.675   1.308
 3560SOL    HW211580   1.655   5.574   1.381
 3561SOL     OW11581   3.822   4.803   5.229
 3561SOL    HW111582   3.805   4.721   5.283
 3561SOL    HW211583   3.917   4.804   5.198
 3562SOL     OW11584   5.650   0.864   4.368
 3562SOL    HW111585   5.703   0.948   4.359
 3562SOL    HW211586   5.563   0.884   4.415
 3563SOL     OW11587   5.704   0.587   1.304
 3563SOL    HW111588   5.710   0.504   1.248
 3563SOL    HW211589   5.615   0.590   1.350
 3564SOL     OW11590   1.797   4.489   4.294
 3564SOL    HW111591   1.790   4.438   4.209
 3564SOL    HW211592   1.715   4.473   4.349
 3565SOL     OW11593   3.700   6.618   5.399
 3565SOL    HW111594   3.699   6.710   5.361
 3565SOL    HW211595   3.622   6.607   5.461
 3566SOL     OW11596   6.770   3.391   6.452
 3566SOL    HW111597   6.735   3.325   6.519
 3566SOL    HW211598   6.752   3.484   6.485
 3567SOL     OW11599   0.928   2.854   0.107
 3567SOL    HW111600   1.011   2.847   0.163
 3567SOL    HW211601   0.877   2.769   0.113
 3568SOL     OW11602   5.249   6.382   3.842
 3568SOL    HW111603   5.216   6.471   3.874
 3568SOL    HW211604   5.340   6.365   3.880
 3569SOL     OW11605   3.197   2.478   6.345
 3569SOL    HW111606   3.212   2.556   6.407
 3569SOL    HW211607   3.259   2.485   6.267
 3570SOL     OW11608   5.579   0.666   4.623
 3570SOL    HW111609   5.648   0.603   4.586
 3570SOL    HW211610   5.501   0.671   4.561
 3571SOL     OW11611   2.278   0.899   4.857
 3571SOL    HW111612   2.376   0.914   4.871
 3571SOL    HW211613   2.244   0.836   4.927
 3572SOL     OW11614   5.536   3.816   2.680
 3572SOL    HW111615   5.604   3.819   2.607
 3572SOL    HW211616   5.553   3.736   2.738
 3573SOL     OW11617   5.973   3.866   2.646
 3573SOL    HW111618   5.934   3.886   2.736
 3573SOL    HW211619   5.902   3.874   2.577
 3574SOL     OW11620   1.408   3.491   0.422
 3574SOL    HW111621   1.357   3.405   0.423
 3574SOL    HW211622   1.381   3.545   0.343
 3575SOL     OW11623   4.678   5.920   1.852
 3575SOL    HW111624   4.593   5.871   1.836
 3575SOL    HW211625   4.685   5.945   1.949
 3576SOL     OW11626   0.560   1.810   0.720
 3576SOL    HW111627   0.495   1.878   0.754
 3576SOL    HW211628   0.637   1.803   0.784
 3577SOL     OW11629   2.183   2.977   6.631
 3577SOL    HW111630   2.097   3.022   6.655
 3577SOL    HW211631   2.245   3.044   6.590
 3578SOL     OW11632   4.878   2.057   1.072
 3578SOL    HW111633   4.966   2.106   1.074
 3578SOL    HW211634   4.837   2.060   1.163
 3579SOL     OW11635   6.777   2.948   2.358
 3579SOL    HW111636   6.802   3.031   2.309
 3579SOL    HW211637   6.779   2.965   2.457
 3580SOL     OW11638   6.320   2.997   6.955
 3580SOL    HW111639   6.336   2.907   6.995
 3580SOL    HW211640   6.223   3.022   6.965
 3581SOL     OW11641   0.410   6.002   2.615
 3581SOL    HW111642   0.383   5.910   2.585
 3581SOL    HW211643   0.430   6.000   2.713
 3582SOL     OW11644   2.237   5.011   5.630
 3582SOL    HW111645   2.303   5.010   5.705
 3582SOL    HW211646   2.167   4.942   5.646
 3583SOL     OW11647   1.200   4.666   0.071
 3583SOL    HW111648   1.282   4.627   0.031
 3583SOL    HW211649   1.149   4.716   0.001
 3584SOL     OW11650   5.447   4.613   5.785
 3584SOL    HW111651   5.389   4.537   5.815
 3584SOL    HW211652   5.486   4.592   5.695
 3585SOL     OW11653   3.257   2.039   4.971
 3585SOL    HW111654   3.226   2.127   5.006
 3585SOL    HW211655   3.239   1.968   5.039
 3586SOL     OW11656   0.076   2.352   5.247
 3586SOL    HW111657   0.119   2.276   5.295
 3586SOL    HW211658   7.014   2.323   5.210
 3587SOL     OW11659   2.796   5.309   6.371
 3587SOL    HW111660   2.849   5.224   6.379
 3587SOL    HW211661   2.699   5.289   6.389
 3588SOL     OW11662   6.549   3.273   4.892
 3588SOL    HW111663   6.551   3.318   4.982
 3588SOL    HW211664   6.643   3.255   4.863
 3589SOL     OW11665   6.427   6.965   6.789
 3589SOL    HW111666   6.335   7.001   6.777
 3589SOL    HW211667   6.489   7.009   6.725
 3590SOL     OW11668   0.291   4.026   6.976
 3590SOL    HW111669   0.332   4.007   6.887
 3590SOL    HW211670   0.227   4.102   6.968
 3591SOL     OW11671   5.703   3.548   0.994
 3591SOL    HW111672   5.743   3.464   0.958
 3591SOL    HW211673   5.739   3.626   0.944
 3592SOL     OW11674   0.428   6.997   3.010
 3592SOL    HW111675   0.439   0.069   3.023
 3592SOL    HW211676   0.411   6.953   3.099
 3593SOL     OW11677   0.736   4.495   5.944
 3593SOL    HW111678   0.800   4.440   5.997
 3593SOL    HW211679   0.718   4.451   5.856
 3594SOL     OW11680   5.353   0.744   4.173
 3594SOL    HW111681   5.377   0.649   4.191
 3594SOL    HW211682   5.341   0.792   4.259
 3595SOL     OW11683   5.232   5.501   6.253
 3595SOL    HW111684   5.231   5.426   6.186
 3595SOL    HW211685   5.285   5.474   6.333
 3596SOL     OW11686   4.660   2.692   3.680
 3596SOL    HW111687   4.628   2.644   3.598
 3596SOL    HW211688   4.633   2.640   3.761
 3597SOL     OW11689   1.960   3.041   5.536
 3597SOL    HW111690   1.937   2.955   5.581
 3597SOL    HW211691   1.896   3.058   5.461
 3598SOL     OW11692   1.922   6.415   5.220
 3598SOL    HW111693   1.935   6.444   5.125
 3598SOL    HW211694   1.855   6.341   5.224
 3599SOL     OW11695   4.311   2.062   6.985
 3599SOL    HW111696   4.343   2.012   6.904
 3599SOL    HW211697   4.329   2.160   6.973
 3600SOL     OW11698   0.934   3.506   1.886
 3600SOL    HW111699   0.921   3.407   1.884
 3600SOL    HW211700   1.027   3.526   1.916
 3601SOL     OW11701   5.162   2.388   6.034
 3601SOL    HW111702   5.166   2.289   6.020
 3601SOL    HW211703   5.099   2.408   6.109
 3602SOL     OW11704   1.248   3.381   0.812
 3602SOL    HW111705   1.254   3.456   0.745
 3602SOL    HW211706   1.168   3.394   0.870
 3603SOL     OW11707   3.527   0.978   5.188
 3603SOL    HW111708   3.507   1.053   5.251
 3603SOL    HW211709   3.442   0.929   5.167
 3604SOL     OW11710   6.363   0.697   3.898
 3604SOL    HW111711   6.392   0.781   3.945
 3604SOL    HW211712   6.437   0.665   3.838
 3605SOL     OW11713   0.914   5.077   4.240
 3605SOL    HW111714   0.968   5.052   4.321
 3605SOL    HW211715   0.897   4.996   4.185
 3606SOL     OW11716   1.169   6.508   3.139
 3606SOL    HW111717   1.186   6.418   3.179
 3606SOL    HW211718   1.096   6.554   3.189
 3607SOL     OW11719   5.646   3.601   2.304
 3607SOL    HW111720   5.681   3.507   2.308
 3607SOL    HW211721   5.563   3.608   2.359
 3608SOL     OW11722   5.045   1.753   4.304
 3608SOL    HW111723   5.083   1.802   4.226
 3608SOL    HW211724   5.052   1.654   4.288
 3609SOL     OW11725   2.367   0.380   4.188
 3609SOL    HW111726   2.373   0.479   4.178
 3609SOL    HW211727   2.405   0.353   4.276
 3610SOL     OW11728   1.385   0.585   5.612
 3610SOL    HW111729   1.449   0.617   5.542
 3610SOL    HW211730   1.419   0.500   5.652
 3611SOL     OW11731   4.055   4.775   3.739
 3611SOL    HW111732   4.100   4.712   3.676
 3611SOL    HW211733   4.072   4.747   3.833
 3612SOL     OW11734   6.632   1.130   6.872
 3612SOL    HW111735   6.621   1.166   6.780
 3612SOL    HW211736   6.546   1.141   6.923
 3613SOL     OW11737   4.392   4.887   1.772
 3613SOL    HW111738   4.342   4.801   1.780
 3613SOL    HW211739   4.349   4.956   1.830
 3614SOL     OW11740   2.837   3.506   7.008
 3614SOL    HW111741   2.839   3.584   6.945
 3614SOL    HW211742   2.778   3.435   6.971
 3615SOL     OW11743   5.733   2.583   6.315
 3615SOL    HW111744   5.797   2.506   6.327
 3615SOL    HW211745   5.777   2.655   6.262
 3616SOL     OW11746   1.335   0.848   6.212
 3616SOL    HW111747   1.349   0.782   6.285
 3616SOL    HW211748   1.382   0.817   6.129
 3617SOL     OW11749   4.266   0.655   6.116
 3617SOL    HW111750   4.325   0.576   6.104
 3617SOL    HW211751   4.193   0.653   6.047
 3618SOL     OW11752   2.705   3.366   5.345
 3618SOL    HW111753   2.610   3.391   5.324
 3618SOL    HW211754   2.711   3.268   5.363
 3619SOL     OW11755   5.637   3.235   0.334
 3619SOL    HW111756   5.645   3.316   0.276
 3619SOL    HW211757   5.653   3.153   0.280
 3620SOL     OW11758   6.127   5.355   5.486
 3620SOL    HW111759   6.090   5.433   5.537
 3620SOL    HW211760   6.058   5.283   5.480
 3621SOL     OW11761   3.288   3.570   4.478
 3621SOL    HW111762   3.360   3.573   4.547
 3621SOL    HW211763   3.202   3.599   4.519
 3622SOL     OW11764   1.746   0.621   0.566
 3622SOL    HW111765   1.686   0.685   0.518
 3622SOL    HW211766   1.828   0.670   0.597
 3623SOL     OW11767   0.228   5.515   5.135
 3623SOL    HW111768   0.308   5.458   5.153
 3623SOL    HW211769   0.148   5.477   5.182
 3624SOL     OW11770   1.550   6.832   2.467
 3624SOL    HW111771   1.490   6.910   2.447
 3624SOL    HW211772   1.645   6.859   2.452
 3625SOL     OW11773   0.250   3.495   6.709
 3625SOL    HW111774   0.259   3.590   6.742
 3625SOL    HW211775   0.162   3.484   6.663
 3626SOL     OW11776   0.773   3.193   3.889
 3626SOL    HW111777   0.760   3.154   3.798
 3626SOL    HW211778   0.726   3.136   3.957
 3627SOL     OW11779   4.740   3.316   1.755
 3627SOL    HW111780   4.770   3.272   1.670
 3627SOL    HW211781   4.681   3.253   1.806
 3628SOL     OW11782   1.728   0.977   1.961
 3628SOL    HW111783   1.796   0.993   2.033
 3628SOL    HW211784   1.708   0.880   1.955
 3629SOL     OW11785   1.252   0.633   4.199
 3629SOL    HW111786   1.249   0.633   4.099
 3629SOL    HW211787   1.342   0.601   4.229
 3630SOL     OW11788   6.260   2.776   3.610
 3630SOL    HW111789   6.259   2.859   3.665
 3630SOL    HW211790   6.212   2.703   3.658
 3631SOL     OW11791   1.429   6.766   3.576
 3631SOL    HW111792   1.453   6.852   3.623
 3631SOL    HW211793   1.476   6.763   3.488
 3632SOL     OW11794   4.617   4.210   0.177
 3632SOL    HW111795   4.681   4.200   0.100
 3632SOL    HW211796   4.657   4.167   0.258
 3633SOL     OW11797   4.206   2.976   5.663
 3633SOL    HW111798   4.191   2.984   5.564
 3633SOL    HW211799   4.278   3.040   5.691
 3634SOL     OW11800   2.101   6.596   6.170
 3634SOL    HW111801   2.093   6.570   6.073
 3634SOL    HW211802   2.094   6.696   6.178
 3635SOL     OW11803   2.244   1.478   0.991
 3635SOL    HW111804   2.276   1.567   1.023
 3635SOL    HW211805   2.295   1.453   0.909
 3636SOL     OW11806   0.301   6.277   1.222
 3636SOL    HW111807   0.305   6.256   1.319
 3636SOL    HW211808   0.255   6.202   1.174
 3637SOL     OW11809   0.533   3.090   1.018
 3637SOL    HW111810   0.449   3.143   1.013
 3637SOL    HW211811   0.514   2.996   0.988
 3638SOL     OW11812   6.714   3.871   2.660
 3638SOL    HW111813   6.808   3.887   2.691
 3638SOL    HW211814   6.651   3.927   2.714
 3639SOL     OW11815   3.497   4.651   6.107
 3639SOL    HW111816   3.515   4.555   6.088
 3639SOL    HW211817   3.457   4.660   6.198
 3640SOL     OW11818   5.163   1.856   0.783
 3640SOL    HW111819   5.216   1.816   0.708
 3640SOL    HW211820   5.124   1.783   0.839
 3641SOL     OW11821   5.173   4.198   1.115
 3641SOL    HW111822   5.167   4.138   1.194
 3641SOL    HW211823   5.083   4.235   1.093
 3642SOL     OW11824   4.999   2.160   6.837
 3642SOL    HW111825   5.034   2.236   6.893
 3642SOL    HW211826   5.072   2.124   6.779
 3643SOL     OW11827   4.137   6.477   6.116
 3643SOL    HW111828   4.100   6.484   6.209
 3643SOL    HW211829   4.136   6.568   6.074
 3644SOL     OW11830   2.934   0.568   1.594
 3644SOL    HW111831   2.917   0.612   1.682
 3644SOL    HW211832   2.857   0.508   1.571
 3645SOL     OW11833   1.459   3.888   4.417
 3645SOL    HW111834   1.376   3.841   4.448
 3645SOL    HW211835   1.436   3.953   4.345
 3646SOL     OW11836   1.831   4.959   4.717
 3646SOL    HW111837   1.874   4.871   4.695
 3646SOL    HW211838   1.880   5.002   4.793
 3647SOL     OW11839   2.695   6.311   6.650
 3647SOL    HW111840   2.650   6.267   6.729
 3647SOL    HW211841   2.717   6.241   6.582
 3648SOL     OW11842   4.993   6.209   3.138
 3648SOL    HW111843   4.981   6.166   3.228
 3648SOL    HW211844   5.067   6.164   3.089
 3649SOL     OW11845   6.056   4.091   0.233
 3649SOL    HW111846   6.057   3.999   0.270
 3649SOL    HW211847   6.146   4.133   0.247
 3650SOL     OW11848   5.658   4.331   0.821
 3650SOL    HW111849   5.591   4.263   0.793
 3650SOL    HW211850   5.690   4.311   0.914
 3651SOL     OW11851   1.902   1.677   4.625
 3651SOL    HW111852   1.844   1.658   4.546
 3651SOL    HW211853   1.900   1.775   4.644
 3652SOL     OW11854   5.958   0.294   2.656
 3652SOL    HW111855   5.934   0.374   2.710
 3652SOL    HW211856   5.903   0.216   2.686
 3653SOL     OW11857   1.499   1.056   3.143
 3653SOL    HW111858   1.454   1.033   3.057
 3653SOL    HW211859   1.457   1.004   3.217
 3654SOL     OW11860   5.308   6.019   0.765
 3654SOL    HW111861   5.253   5.946   0.805
 3654SOL    HW211862   5.394   5.981   0.732
 3655SOL     OW11863   3.051   1.269   3.966
 3655SOL    HW111864   3.033   1.368   3.963
 3655SOL    HW211865   2.971   1.220   3.931
 3656SOL     OW11866   1.201   5.088   1.252
 3656SOL    HW111867   1.166   4.999   1.222
 3656SOL    HW211868   1.152   5.117   1.334
 3657SOL     OW11869   4.814   5.620   5.281
 3657SOL    HW111870   4.808   5.712   5.320
 3657SOL    HW211871   4.796   5.625   5.183
 3658SOL     OW11872   1.756   4.692   6.317
 3658SOL    HW111873   1.758   4.692   6.417
 3658SOL    HW211874   1.830   4.634   6.282
 3659SOL     OW11875   0.535   1.810   6.396
 3659SOL    HW111876   0.551   1.901   6.434
 3659SOL    HW211877   0.580   1.802   6.307
 3660SOL     OW11878   6.262   6.419   5.099
 3660SOL    HW111879   6.179   6.397   5.048
 3660SOL    HW211880   6.339   6.366   5.064
 3661SOL     OW11881   0.372   0.476   4.423
 3661SOL    HW111882   0.453   0.488   4.481
 3661SOL    HW211883   0.385   0.397   4.364
 3662SOL     OW11884   3.625   0.920   4.661
 3662SOL    HW111885   3.657   0.877   4.577
 3662SOL    HW211886   3.700   0.969   4.704
 3663SOL     OW11887   2.311   2.857   6.868
 3663SOL    HW111888   2.224   2.826   6.831
 3663SOL    HW211889   2.372   2.778   6.881
 3664SOL     OW11890   3.504   1.714   1.820
 3664SOL    HW111891   3.513   1.813   1.836
 3664SOL    HW211892   3.561   1.688   1.742
 3665SOL     OW11893   0.558   5.889   5.758
 3665SOL    HW111894   0.524   5.913   5.668
 3665SOL    HW211895   0.657   5.877   5.755
 3666SOL     OW11896   1.239   3.177   3.147
 3666SOL    HW111897   1.229   3.078   3.141
 3666SOL    HW211898   1.150   3.219   3.161
 3667SOL     OW11899   0.992   1.379   3.853
 3667SOL    HW111900   1.065   1.382   3.922
 3667SOL    HW211901   0.981   1.470   3.812
 3668SOL     OW11902   1.000   0.440   1.213
 3668SOL    HW111903   1.018   0.343   1.204
 3668SOL    HW211904   0.906   0.454   1.243
 3669SOL     OW11905   5.757   1.505   3.819
 3669SOL    HW111906   5.742   1.515   3.917
 3669SOL    HW211907   5.845   1.460   3.803
 3670SOL     OW11908   3.134   5.190   0.929
 3670SOL    HW111909   3.183   5.180   0.842
 3670SOL    HW211910   3.071   5.114   0.941
 3671SOL     OW11911   6.511   1.458   2.643
 3671SOL    HW111912   6.538   1.511   2.562
 3671SOL    HW211913   6.414   1.474   2.662
 3672SOL     OW11914   4.841   1.456   2.896
 3672SOL    HW111915   4.819   1.370   2.850
 3672SOL    HW211916   4.786   1.465   2.979
 3673SOL     OW11917   4.266   5.372   7.007
 3673SOL    HW111918   4.190   5.332   0.031
 3673SOL    HW211919   4.345   5.380   0.041
 3674SOL     OW11920   1.422   6.127   5.924
 3674SOL    HW111921   1.432   6.043   5.871
 3674SOL    HW211922   1.466   6.202   5.876
 3675SOL     OW11923   0.058   3.242   3.770
 3675SOL    HW111924   7.008   3.227   3.832
 3675SOL    HW211925   0.137   3.188   3.801
 3676SOL     OW11926   5.416   2.600   3.074
 3676SOL    HW111927   5.454   2.541   3.144
 3676SOL    HW211928   5.382   2.685   3.116
 3677SOL     OW11929   2.280   0.954   5.164
 3677SOL    HW111930   2.203   0.900   5.132
 3677SOL    HW211931   2.336   0.983   5.087
 3678SOL     OW11932   1.006   1.833   4.622
 3678SOL    HW111933   1.090   1.884   4.606
 3678SOL    HW211934   0.981   1.784   4.538
 3679SOL     OW11935   6.254   0.100   3.638
 3679SOL    HW111936   6.225   0.004   3.641
 3679SOL    HW211937   6.188   0.156   3.687
 3680SOL     OW11938   4.552   2.227   3.813
 3680SOL    HW111939   4.531   2.155   3.880
 3680SOL    HW211940   4.499   2.211   3.730
 3681SOL     OW11941   0.293   0.900   6.134
 3681SOL    HW111942   0.391   0.919   6.128
 3681SOL    HW211943   0.257   0.941   6.219
 3682SOL     OW11944   5.276   2.218   0.900
 3682SOL    HW111945   5.337   2.141   0.881
 3682SOL    HW211946   5.215   2.196   0.976
 3683SOL     OW11947   0.412   0.731   4.777
 3683SOL    HW111948   0.490   0.753   4.837
 3683SOL    HW211949   0.422   0.637   4.743
 3684SOL     OW11950   2.111   6.347   6.942
 3684SOL    HW111951   2.070   6.385   6.859
 3684SOL    HW211952   2.048   6.283   6.985
 3685SOL     OW11953   2.500   6.029   4.978
 3685SOL    HW111954   2.508   6.120   5.019
 3685SOL    HW211955   2.468   6.038   4.884
 3686SOL     OW11956   6.767   4.406   4.322
 3686SOL    HW111957   6.747   4.504   4.326
 3686SOL    HW211958   6.717   4.366   4.245
 3687SOL     OW11959   5.421   6.841   3.022
 3687SOL    HW111960   5.372   6.779   3.084
 3687SOL    HW211961   5.464   6.787   2.949
 3688SOL     OW11962   6.095   3.225   0.176
 3688SOL    HW111963   6.005   3.265   0.160
 3688SOL    HW211964   6.107   3.146   0.116
 3689SOL     OW11965   2.085   2.020   5.532
 3689SOL    HW111966   2.162   2.020   5.595
 3689SOL    HW211967   2.000   2.036   5.582
 3690SOL     OW11968   4.927   5.493   1.022
 3690SOL    HW111969   5.009   5.473   1.075
 3690SOL    HW211970   4.922   5.592   1.003
 3691SOL     OW11971   2.601   2.300   6.073
 3691SOL    HW111972   2.687   2.348   6.090
 3691SOL    HW211973   2.556   2.340   5.993
 3692SOL     OW11974   6.616   4.395   6.162
 3692SOL    HW111975   6.532   4.361   6.119
 3692SOL    HW211976   6.647   4.477   6.114
 3693SOL     OW11977   1.326   2.388   2.619
 3693SOL    HW111978   1.257   2.351   2.557
 3693SOL    HW211979   1.378   2.459   2.573
 3694SOL     OW11980   1.108   0.370   1.572
 3694SOL    HW111981   1.021   0.365   1.523
 3694SOL    HW211982   1.183   0.358   1.508
 3695SOL     OW11983   5.985   1.962   1.653
 3695SOL    HW111984   6.037   2.007   1.726
 3695SOL    HW211985   5.966   1.867   1.680
 3696SOL     OW11986   5.332   0.765   5.654
 3696SOL    HW111987   5.244   0.811   5.671
 3696SOL    HW211988   5.378   0.808   5.576
 3697SOL     OW11989   6.116   6.003   3.434
 3697SOL    HW111990   6.134   5.907   3.453
 3697SOL    HW211991   6.191   6.040   3.379
 3698SOL     OW11992   2.592   1.391   3.570
 3698SOL    HW111993   2.604   1.483   3.608
 3698SOL    HW211994   2.540   1.396   3.485
 3699SOL     OW11995   2.150   2.289   3.500
 3699SOL    HW111996   2.197   2.334   3.424
 3699SOL    HW211997   2.116   2.200   3.470
 3700SOL     OW11998   1.708   5.452   5.090
 3700SOL    HW111999   1.637   5.388   5.120
 3700SOL    HW212000   1.726   5.438   4.992
 3701SOL     OW12001   0.641   6.364   2.275
 3701SOL    HW112002   0.723   6.403   2.315
 3701SOL    HW212003   0.652   6.354   2.176
 3702SOL     OW12004   5.249   6.586   3.546
 3702SOL    HW112005   5.272   6.600   3.450
 3702SOL    HW212006   5.149   6.585   3.557
 3703SOL     OW12007   0.436   0.694   6.367
 3703SOL    HW112008   0.500   0.695   6.443
 3703SOL    HW212009   0.470   0.754   6.294
 3704SOL     OW12010   5.411   3.573   0.884
 3704SOL    HW112011   5.366   3.484   0.870
 3704SOL    HW212012   5.500   3.558   0.928
 3705SOL     OW12013   4.586   4.731   3.567
 3705SOL    HW112014   4.606   4.741   3.469
 3705SOL    HW212015   4.571   4.635   3.588
 3706SOL     OW12016   0.677   3.919   6.812
 3706SOL    HW112017   0.647   3.853   6.742
 3706SOL    HW212018   0.642   4.009   6.789
 3707SOL     OW12019   3.732   5.410   3.712
 3707SOL    HW112020   3.736   5.363   3.800
 3707SOL    HW212021   3.645   5.458   3.703
 3708SOL     OW12022   4.395   0.181   1.608
 3708SOL    HW112023   4.327   0.227   1.665
 3708SOL    HW212024   4.426   0.098   1.653
 3709SOL     OW12025   2.408   0.038   1.774
 3709SOL    HW112026   2.416   6.964   1.778
 3709SOL    HW212027   2.430   0.070   1.682
 3710SOL     OW12028   0.628   5.522   5.298
 3710SOL    HW112029   0.634   5.564   5.208
 3710SOL    HW212030   0.540   5.475   5.308
 3711SOL     OW12031   1.540   6.212   4.958
 3711SOL    HW112032   1.482   6.199   4.878
 3711SOL    HW212033   1.629   6.170   4.941
 3712SOL     OW12034   2.066   5.619   6.243
 3712SOL    HW112035   2.046   5.705   6.196
 3712SOL    HW212036   2.165   5.608   6.251
 3713SOL     OW12037   0.320   6.781   5.009
 3713SOL    HW112038   0.374   6.863   4.995
 3713SOL    HW212039   0.243   6.780   4.944
 3714SOL     OW12040   0.590   5.083   0.005
 3714SOL    HW112041   0.630   5.166   0.046
 3714SOL    HW212042   0.619   5.076   6.936
 3715SOL     OW12043   0.529   5.054   2.974
 3715SOL    HW112044   0.489   5.146   2.971
 3715SOL    HW212045   0.615   5.057   3.025
 3716SOL     OW12046   6.119   5.311   3.946
 3716SOL    HW112047   6.050   5.379   3.919
 3716SOL    HW212048   6.208   5.338   3.910
 3717SOL     OW12049   5.496   1.491   0.326
 3717SOL    HW112050   5.588   1.529   0.340
 3717SOL    HW212051   5.495   1.437   0.242
 3718SOL     OW12052   1.056   0.217   6.902
 3718SOL    HW112053   1.020   0.153   6.970
 3718SOL    HW212054   1.147   0.248   6.930
 3719SOL     OW12055   4.311   2.846   6.672
 3719SOL    HW112056   4.382   2.788   6.633
 3719SOL    HW212057   4.345   2.940   6.678
 3720SOL     OW12058   5.417   3.718   0.665
 3720SOL    HW112059   5.350   3.789   0.686
 3720SOL    HW212060   5.413   3.648   0.736
 3721SOL     OW12061   6.793   5.110   0.067
 3721SOL    HW112062   6.704   5.149   0.091
 3721SOL    HW212063   6.784   5.011   0.056
 3722SOL     OW12064   4.807   0.149   1.355
 3722SOL    HW112065   4.723   0.180   1.311
 3722SOL    HW212066   4.834   0.215   1.426
 3723SOL     OW12067   4.682   5.070   0.068
 3723SOL    HW112068   4.712   5.160   0.035
 3723SOL    HW212069   4.713   5.057   0.162
 3724SOL     OW12070   1.799   4.768   5.425
 3724SOL    HW112071   1.789   4.668   5.429
 3724SOL    HW212072   1.748   4.803   5.347
 3725SOL     OW12073   0.412   6.125   6.789
 3725SOL    HW112074   0.349   6.139   6.865
 3725SOL    HW212075   0.460   6.038   6.801
 3726SOL     OW12076   5.233   3.635   5.393
 3726SOL    HW112077   5.299   3.704   5.363
 3726SOL    HW212078   5.161   3.627   5.324
 3727SOL     OW12079   6.802   3.136   4.520
 3727SOL    HW112080   6.898   3.165   4.516
 3727SOL    HW212081   6.752   3.178   4.444
 3728SOL     OW12082   2.664   3.861   6.981
 3728SOL    HW112083   2.669   3.847   0.054
 3728SOL    HW212084   2.570   3.883   6.955
 3729SOL     OW12085   0.759   0.234   4.087
 3729SOL    HW112086   0.665   0.254   4.060
 3729SOL    HW212087   0.797   0.313   4.135
 3730SOL     OW12088   4.096   6.252   5.428
 3730SOL    HW112089   4.138   6.339   5.401
 3730SOL    HW212090   4.060   6.260   5.520
 3731SOL     OW12091   0.799   1.471   0.475
 3731SOL    HW112092   0.793   1.372   0.462
 3731SOL    HW212093   0.731   1.517   0.419
 3732SOL     OW12094   1.939   1.567   0.715
 3732SOL    HW112095   1.910   1.628   0.789
 3732SOL    HW212096   2.035   1.585   0.694
 3733SOL     OW12097   2.011   2.808   3.489
 3733SOL    HW112098   2.008   2.823   3.588
 3733SOL    HW212099   1.947   2.736   3.464
 3734SOL     OW12100   3.937   0.919   1.668
 3734SOL    HW112101   3.904   0.886   1.580
 3734SOL    HW212102   3.861   0.929   1.731
 3735SOL     OW12103   3.839   0.482   2.454
 3735SOL    HW112104   3.802   0.574   2.467
 3735SOL    HW212105   3.815   0.425   2.534
 3736SOL     OW12106   6.410   1.025   1.280
 3736SOL    HW112107   6.439   0.955   1.215
 3736SOL    HW212108   6.472   1.027   1.358
 3737SOL     OW12109   5.927   2.375   3.946
 3737SOL    HW112110   5.834   2.398   3.917
 3737SOL    HW212111   5.934   2.276   3.956
 3738SOL     OW12112   6.378   5.916   0.911
 3738SOL    HW112113   6.348   5.996   0.859
 3738SOL    HW212114   6.345   5.833   0.867
 3739SOL     OW12115   2.902   4.451   1.549
 3739SOL    HW112116   2.827   4.514   1.530
 3739SOL    HW212117   2.922   4.453   1.647
 3740SOL     OW12118   5.979   5.817   0.364
 3740SOL    HW112119   6.072   5.852   0.374
 3740SOL    HW212120   5.920   5.889   0.326
 3741SOL     OW12121   4.740   3.273   6.854
 3741SOL    HW112122   4.834   3.246   6.833
 3741SOL    HW212123   4.689   3.193   6.885
 3742SOL     OW12124   4.733   5.968   0.407
 3742SOL    HW112125   4.731   6.061   0.370
 3742SOL    HW212126   4.742   5.971   0.507
 3743SOL     OW12127   4.627   4.694   1.339
 3743SOL    HW112128   4.589   4.731   1.255
 3743SOL    HW212129   4.592   4.745   1.418
 3744SOL     OW12130   0.769   6.165   2.669
 3744SOL    HW112131   0.690   6.115   2.704
 3744SOL    HW212132   0.755   6.186   2.572
 3745SOL     OW12133   4.905   3.907   2.277
 3745SOL    HW112134   4.980   3.913   2.212
 3745SOL    HW212135   4.846   3.987   2.266
 3746SOL     OW12136   6.755   0.665   3.161
 3746SOL    HW112137   6.676   0.726   3.172
 3746SOL    HW212138   6.788   0.672   3.067
 3747SOL     OW12139   4.976   6.378   5.709
 3747SOL    HW112140   5.033   6.296   5.712
 3747SOL    HW212141   5.031   6.458   5.731
 3748SOL     OW12142   5.520   0.870   2.060
 3748SOL    HW112143   5.573   0.793   2.023
 3748SOL    HW212144   5.476   0.919   1.986
 3749SOL     OW12145   1.690   4.951   2.943
 3749SOL    HW112146   1.743   5.036   2.949
 3749SOL    HW212147   1.725   4.885   3.009
 3750SOL     OW12148   5.522   4.558   0.865
 3750SOL    HW112149   5.483   4.597   0.782
 3750SOL    HW212150   5.577   4.478   0.842
 3751SOL     OW12151   0.290   2.359   0.701
 3751SOL    HW112152   0.294   2.459   0.698
 3751SOL    HW212153   0.358   2.321   0.638
 3752SOL     OW12154   0.736   6.702   0.132
 3752SOL    HW112155   0.644   6.664   0.126
 3752SOL    HW212156   0.785   6.659   0.208
 3753SOL     OW12157   0.652   6.818   5.257
 3753SOL    HW112158   0.716   6.772   5.318
 3753SOL    HW212159   0.580   6.753   5.229
 3754SOL     OW12160   5.107   6.348   1.475
 3754SOL    HW112161   5.168   6.424   1.495
 3754SOL    HW212162   5.047   6.332   1.553
 3755SOL     OW12163   5.524   5.427   4.218
 3755SOL    HW112164   5.608   5.478   4.202
 3755SOL    HW212165   5.544   5.345   4.272
 3756SOL     OW12166   1.775   0.476   6.201
 3756SOL    HW112167   1.786   0.480   6.300
 3756SOL    HW212168   1.839   0.409   6.164
 3757SOL     OW12169   3.583   5.915   6.311
 3757SOL    HW112170   3.670   5.888   6.352
 3757SOL    HW212171   3.599   5.986   6.243
 3758SOL     OW12172   1.449   1.652   4.754
 3758SOL    HW112173   1.406   1.562   4.747
 3758SOL    HW212174   1.503   1.658   4.838
 3759SOL     OW12175   4.021   5.044   5.239
 3759SOL    HW112176   4.072   5.020   5.156
 3759SOL    HW212177   4.038   4.975   5.309
 3760SOL     OW12178   1.385   4.091   4.238
 3760SOL    HW112179   1.394   4.173   4.182
 3760SOL    HW212180   1.368   4.012   4.180
 3761SOL     OW12181   1.086   6.770   5.140
 3761SOL    HW112182   1.057   6.698   5.202
 3761SOL    HW212183   1.153   6.734   5.075
 3762SOL     OW12184   0.658   4.678   6.796
 3762SOL    HW112185   0.595   4.715   6.727
 3762SOL    HW212186   0.610   4.669   6.883
 3763SOL     OW12187   6.829   4.859   0.303
 3763SOL    HW112188   6.757   4.846   0.234
 3763SOL    HW212189   6.918   4.845   0.261
 3764SOL     OW12190   1.954   0.613   4.915
 3764SOL    HW112191   1.876   0.584   4.859
 3764SOL    HW212192   2.035   0.623   4.858
 3765SOL     OW12193   5.043   0.887   1.726
 3765SOL    HW112194   5.071   0.983   1.739
 3765SOL    HW212195   5.073   0.833   1.804
 3766SOL     OW12196   0.670   0.535   4.437
 3766SOL    HW112197   0.712   0.546   4.347
 3766SOL    HW212198   0.736   0.561   4.507
 3767SOL     OW12199   2.519   4.771   0.384
 3767SOL    HW112200   2.576   4.689   0.387
 3767SOL    HW212201   2.501   4.802   0.477
 3768SOL     OW12202   3.071   5.860   6.186
 3768SOL    HW112203   3.126   5.817   6.114
 3768SOL    HW212204   3.131   5.895   6.258
 3769SOL     OW12205   5.804   6.021   5.165
 3769SOL    HW112206   5.802   6.060   5.073
 3769SOL    HW212207   5.857   6.081   5.226
 3770SOL     OW12208   2.066   0.264   6.725
 3770SOL    HW112209   2.112   0.180   6.695
 3770SOL    HW212210   1.967   0.250   6.724
 3771SOL     OW12211   5.358   2.133   0.569
 3771SOL    HW112212   5.321   2.175   0.486
 3771SOL    HW212213   5.351   2.033   0.561
 3772SOL     OW12214   6.286   1.298   1.027
 3772SOL    HW112215   6.337   1.323   0.945
 3772SOL    HW212216   6.338   1.323   1.108
 3773SOL     OW12217   5.302   2.577   6.228
 3773SOL    HW112218   5.331   2.482   6.234
 3773SOL    HW212219   5.361   2.626   6.164
 3774SOL     OW12220   1.170   6.612   0.021
 3774SOL    HW112221   1.122   6.527   0.043
 3774SOL    HW212222   1.265   6.592   7.023
 3775SOL     OW12223   5.212   3.763   2.165
 3775SOL    HW112224   5.288   3.817   2.130
 3775SOL    HW212225   5.203   3.778   2.263
 3776SOL     OW12226   3.288   1.745   1.505
 3776SOL    HW112227   3.363   1.699   1.457
 3776SOL    HW212228   3.323   1.822   1.557
 3777SOL     OW12229   2.742   4.723   4.254
 3777SOL    HW112230   2.690   4.672   4.323
 3777SOL    HW212231   2.798   4.792   4.300
 3778SOL     OW12232   2.205   6.023   3.010
 3778SOL    HW112233   2.196   5.939   3.063
 3778SOL    HW212234   2.221   6.000   2.914
 3779SOL     OW12235   2.533   4.777   0.021
 3779SOL    HW112236   2.451   4.756   0.075
 3779SOL    HW212237   2.615   4.756   0.074
 3780SOL     OW12238   3.723   5.021   5.124
 3780SOL    HW112239   3.631   5.016   5.085
 3780SOL    HW212240   3.737   4.944   5.185
 3781SOL     OW12241   1.630   6.797   4.062
 3781SOL    HW112242   1.582   6.884   4.072
 3781SOL    HW212243   1.728   6.813   4.065
 3782SOL     OW12244   2.928   2.183   4.409
 3782SOL    HW112245   3.021   2.196   4.442
 3782SOL    HW212246   2.869   2.156   4.486
 3783SOL     OW12247   6.546   6.437   4.659
 3783SOL    HW112248   6.510   6.378   4.587
 3783SOL    HW212249   6.482   6.440   4.735
 3784SOL     OW12250   4.195   1.740   3.147
 3784SOL    HW112251   4.220   1.831   3.180
 3784SOL    HW212252   4.276   1.682   3.144
 3785SOL     OW12253   2.291   1.205   6.696
 3785SOL    HW112254   2.302   1.108   6.717
 3785SOL    HW212255   2.274   1.256   6.780
 3786SOL     OW12256   3.117   6.193   3.311
 3786SOL    HW112257   3.163   6.159   3.229
 3786SOL    HW212258   3.020   6.206   3.292
 3787SOL     OW12259   5.644   6.171   3.700
 3787SOL    HW112260   5.651   6.153   3.602
 3787SOL    HW212261   5.623   6.086   3.748
 3788SOL     OW12262   0.290   2.969   3.321
 3788SOL    HW112263   0.225   2.997   3.250
 3788SOL    HW212264   0.328   3.050   3.366
 3789SOL     OW12265   1.607   4.138   3.915
 3789SOL    HW112266   1.686   4.127   3.976
 3789SOL    HW212267   1.525   4.155   3.970
 3790SOL     OW12268   1.554   3.603   5.092
 3790SOL    HW112269   1.534   3.536   5.163
 3790SOL    HW212270   1.615   3.563   5.023
 3791SOL     OW12271   6.188   0.160   1.104
 3791SOL    HW112272   6.121   0.192   1.171
 3791SOL    HW212273   6.162   0.191   1.012
 3792SOL     OW12274   6.717   0.533   4.588
 3792SOL    HW112275   6.632   0.585   4.575
 3792SOL    HW212276   6.709   0.477   4.671
 3793SOL     OW12277   2.780   0.506   3.279
 3793SOL    HW112278   2.747   0.434   3.341
 3793SOL    HW212279   2.877   0.522   3.295
 3794SOL     OW12280   3.579   4.932   1.717
 3794SOL    HW112281   3.643   4.948   1.642
 3794SOL    HW212282   3.626   4.890   1.794
 3795SOL     OW12283   4.281   6.266   0.104
 3795SOL    HW112284   4.223   6.283   0.024
 3795SOL    HW212285   4.300   6.353   0.149
 3796SOL     OW12286   2.195   2.407   1.671
 3796SOL    HW112287   2.203   2.494   1.623
 3796SOL    HW212288   2.154   2.422   1.761
 3797SOL     OW12289   6.705   5.015   2.792
 3797SOL    HW112290   6.614   4.975   2.796
 3797SOL    HW212291   6.764   4.959   2.733
 3798SOL     OW12292   2.808   5.210   3.334
 3798SOL    HW112293   2.874   5.195   3.260
 3798SOL    HW212294   2.715   5.209   3.297
 3799SOL     OW12295   0.760   2.422   4.661
 3799SOL    HW112296   0.841   2.459   4.706
 3799SOL    HW212297   0.775   2.422   4.562
 3800SOL     OW12298   5.590   2.353   4.977
 3800SOL    HW112299   5.502   2.400   4.974
 3800SOL    HW212300   5.647   2.394   5.049
 3801SOL     OW12301   0.028   6.327   4.929
 3801SOL    HW112302   0.005   6.385   5.007
 3801SOL    HW212303   6.972   6.280   4.897
 3802SOL     OW12304   0.530   1.647   4.987
 3802SOL    HW112305   0.501   1.624   5.080
 3802SOL    HW212306   0.498   1.739   4.964
 3803SOL     OW12307   3.704   1.560   1.685
 3803SOL    HW112308   3.735   1.505   1.762
 3803SOL    HW212309   3.673   1.500   1.611
 3804SOL     OW12310   5.204   2.264   4.459
 3804SOL    HW112311   5.119   2.215   4.483
 3804SOL    HW212312   5.182   2.339   4.396
 3805SOL     OW12313   2.799   3.874   1.719
 3805SOL    HW112314   2.851   3.959   1.734
 3805SOL    HW212315   2.854   3.796   1.747
 3806SOL     OW12316   2.619   2.967   6.984
 3806SOL    HW112317   2.622   2.976   6.885
 3806SOL    HW212318   2.549   2.900   7.009
 3807SOL     OW12319   2.335   1.662   4.414
 3807SOL    HW112320   2.372   1.597   4.347
 3807SOL    HW212321   2.297   1.612   4.491
 3808SOL     OW12322   3.309   1.174   1.783
 3808SOL    HW112323   3.211   1.195   1.779
 3808SOL    HW212324   3.346   1.172   1.690
 3809SOL     OW12325   6.251   1.664   0.105
 3809SOL    HW112326   6.286   1.738   0.048
 3809SOL    HW212327   6.221   1.588   0.047
 3810SOL     OW12328   3.935   2.839   5.317
 3810SOL    HW112329   3.855   2.886   5.280
 3810SOL    HW212330   3.928   2.741   5.298
 3811SOL     OW12331   1.145   4.571   4.862
 3811SOL    HW112332   1.221   4.523   4.820
 3811SOL    HW212333   1.097   4.510   4.926
 3812SOL     OW12334   5.705   1.444   5.552
 3812SOL    HW112335   5.637   1.479   5.615
 3812SOL    HW212336   5.664   1.431   5.462
 3813SOL     OW12337   4.373   4.603   0.982
 3813SOL    HW112338   4.345   4.677   0.920
 3813SOL    HW212339   4.443   4.637   1.045
 3814SOL     OW12340   0.572   6.350   1.125
 3814SOL    HW112341   0.493   6.311   1.172
 3814SOL    HW212342   0.552   6.359   1.028
 3815SOL     OW12343   4.266   2.082   0.549
 3815SOL    HW112344   4.335   2.117   0.612
 3815SOL    HW212345   4.175   2.108   0.580
 3816SOL     OW12346   0.043   6.523   1.293
 3816SOL    HW112347   0.006   6.614   1.310
 3816SOL    HW212348   0.085   6.521   1.202
 3817SOL     OW12349   4.790   2.881   3.823
 3817SOL    HW112350   4.823   2.827   3.900
 3817SOL    HW212351   4.735   2.823   3.763
 3818SOL     OW12352   4.867   6.571   1.685
 3818SOL    HW112353   4.939   6.537   1.745
 3818SOL    HW212354   4.900   6.571   1.590
 3819SOL     OW12355   5.229   4.724   0.755
 3819SOL    HW112356   5.318   4.738   0.710
 3819SOL    HW212357   5.185   4.643   0.716
 3820SOL     OW12358   6.486   6.631   3.775
 3820SOL    HW112359   6.526   6.546   3.810
 3820SOL    HW212360   6.492   6.630   3.675
 3821SOL     OW12361   1.520   3.196   1.954
 3821SOL    HW112362   1.560   3.259   2.021
 3821SOL    HW212363   1.558   3.216   1.863
 3822SOL     OW12364   1.125   5.595   2.119
 3822SOL    HW112365   1.137   5.630   2.212
 3822SOL    HW212366   1.029   5.574   2.103
 3823SOL     OW12367   4.175   2.139   5.462
 3823SOL    HW112368   4.185   2.207   5.390
 3823SOL    HW212369   4.138   2.182   5.544
 3824SOL     OW12370   6.000   1.740   5.675
 3824SOL    HW112371   6.007   1.645   5.645
 3824SOL    HW212372   5.909   1.775   5.651
 3825SOL     OW12373   0.385   0.133   0.069
 3825SOL    HW112374   0.325   0.208   0.093
 3825SOL    HW212375   0.467   0.135   0.127
 3826SOL     OW12376   0.034   3.600   6.874
 3826SOL    HW112377   6.988   3.547   6.919
 3826SOL    HW212378   0.118   3.596   6.929
 3827SOL     OW12379   3.668   3.956   0.954
 3827SOL    HW112380   3.723   3.876   0.932
 3827SOL    HW212381   3.646   4.007   0.870
 3828SOL     OW12382   4.469   2.332   1.353
 3828SOL    HW112383   4.449   2.235   1.344
 3828SOL    HW212384   4.533   2.346   1.429
 3829SOL     OW12385   2.335   4.716   3.852
 3829SOL    HW112386   2.266   4.715   3.924
 3829SOL    HW212387   2.323   4.635   3.794
 3830SOL     OW12388   1.072   0.076   4.770
 3830SOL    HW112389   1.009   0.090   4.846
 3830SOL    HW212390   1.042   7.025   4.714
 3831SOL     OW12391   4.717   1.813   2.455
 3831SOL    HW112392   4.712   1.734   2.515
 3831SOL    HW212393   4.625   1.840   2.427
 3832SOL     OW12394   6.274   0.617   2.156
 3832SOL    HW112395   6.254   0.527   2.196
 3832SOL    HW212396   6.322   0.605   2.069
 3833SOL     OW12397   0.824   5.716   6.391
 3833SOL    HW112398   0.874   5.633   6.369
 3833SOL    HW212399   0.887   5.794   6.391
 3834SOL     OW12400   3.312   2.267   0.240
 3834SOL    HW112401   3.230   2.249   0.187
 3834SOL    HW212402   3.289   2.322   0.321
 3835SOL     OW12403   3.179   5.359   5.421
 3835SOL    HW112404   3.277   5.371   5.407
 3835SOL    HW212405   3.149   5.415   5.499
 3836SOL     OW12406   2.163   3.105   5.187
 3836SOL    HW112407   2.242   3.056   5.149
 3836SOL    HW212408   2.079   3.059   5.158
 3837SOL     OW12409   4.724   3.389   0.332
 3837SOL    HW112410   4.746   3.338   0.250
 3837SOL    HW212411   4.655   3.340   0.385
 3838SOL     OW12412   5.700   3.715   4.437
 3838SOL    HW112413   5.733   3.626   4.406
 3838SOL    HW212414   5.654   3.704   4.525
 3839SOL     OW12415   4.668   0.043   4.781
 3839SOL    HW112416   4.635   0.105   4.853
 3839SOL    HW212417   4.594   7.008   4.754
 3840SOL     OW12418   1.153   1.083   5.890
 3840SOL    HW112419   1.118   1.156   5.830
 3840SOL    HW212420   1.253   1.087   5.892
 3841SOL     OW12421   0.338   3.677   5.208
 3841SOL    HW112422   0.275   3.607   5.240
 3841SOL    HW212423   0.401   3.638   5.141
 3842SOL     OW12424   0.989   5.302   0.194
 3842SOL    HW112425   0.994   5.352   0.281
 3842SOL    HW212426   1.043   5.218   0.202
 3843SOL     OW12427   6.893   3.139   1.251
 3843SOL    HW112428   6.824   3.207   1.275
 3843SOL    HW212429   6.915   3.084   1.332
 3844SOL     OW12430   0.649   4.942   5.627
 3844SOL    HW112431   0.664   4.864   5.567
 3844SOL    HW212432   0.644   4.911   5.722
 3845SOL     OW12433   3.439   2.852   2.727
 3845SOL    HW112434   3.459   2.834   2.630
 3845SOL    HW212435   3.352   2.901   2.734
 3846SOL     OW12436   0.290   4.836   4.236
 3846SOL    HW112437   0.321   4.910   4.177
 3846SOL    HW212438   0.312   4.747   4.194
 3847SOL     OW12439   6.270   1.236   6.095
 3847SOL    HW112440   6.300   1.329   6.078
 3847SOL    HW212441   6.279   1.182   6.011
 3848SOL     OW12442   2.018   5.581   2.973
 3848SOL    HW112443   2.012   5.526   2.889
 3848SOL    HW212444   1.926   5.605   3.003
 3849SOL     OW12445   0.414   1.249   5.689
 3849SOL    HW112446   0.343   1.283   5.628
 3849SOL    HW212447   0.493   1.219   5.635
 3850SOL     OW12448   2.476   3.461   1.642
 3850SOL    HW112449   2.436   3.517   1.570
 3850SOL    HW212450   2.433   3.482   1.730
 3851SOL     OW12451   1.998   4.361   2.589
 3851SOL    HW112452   2.012   4.450   2.546
 3851SOL    HW212453   1.903   4.353   2.619
 3852SOL     OW12454   4.285   6.406   5.022
 3852SOL    HW112455   4.197   6.418   4.975
 3852SOL    HW212456   4.287   6.316   5.065
 3853SOL     OW12457   1.047   3.383   2.631
 3853SOL    HW112458   1.118   3.442   2.593
 3853SOL    HW212459   0.993   3.436   2.697
 3854SOL     OW12460   0.811   3.706   3.373
 3854SOL    HW112461   0.737   3.644   3.350
 3854SOL    HW212462   0.897   3.672   3.336
 3855SOL     OW12463   5.742   5.011   6.359
 3855SOL    HW112464   5.794   5.048   6.283
 3855SOL    HW212465   5.711   4.918   6.337
 3856SOL     OW12466   0.062   0.576   5.663
 3856SOL    HW112467   0.134   0.645   5.655
 3856SOL    HW212468   0.084   0.498   5.605
 3857SOL     OW12469   1.591   6.972   5.061
 3857SOL    HW112470   1.566   0.010   4.988
 3857SOL    HW212471   1.689   6.979   5.080
 3858SOL     OW12472   1.251   6.151   6.127
 3858SOL    HW112473   1.309   6.120   6.051
 3858SOL    HW212474   1.171   6.091   6.135
 3859SOL     OW12475   6.934   2.314   3.907
 3859SOL    HW112476   6.993   2.236   3.926
 3859SOL    HW212477   6.950   2.347   3.814
 3860SOL     OW12478   2.365   6.383   4.512
 3860SOL    HW112479   2.286   6.343   4.560
 3860SOL    HW212480   2.353   6.372   4.413
 3861SOL     OW12481   5.571   4.615   1.390
 3861SOL    HW112482   5.634   4.691   1.374
 3861SOL    HW212483   5.522   4.630   1.476
 3862SOL     OW12484   6.706   6.834   6.177
 3862SOL    HW112485   6.756   6.757   6.138
 3862SOL    HW212486   6.689   6.817   6.274
 3863SOL     OW12487   3.469   3.649   0.066
 3863SOL    HW112488   3.521   3.607   0.141
 3863SOL    HW212489   3.450   3.744   0.088
 3864SOL     OW12490   4.431   2.049   6.272
 3864SOL    HW112491   4.403   2.144   6.285
 3864SOL    HW212492   4.350   1.990   6.279
 3865SOL     OW12493   3.862   0.453   2.108
 3865SOL    HW112494   3.836   0.549   2.113
 3865SOL    HW212495   3.848   0.410   2.198
 3866SOL     OW12496   4.047   0.536   0.607
 3866SOL    HW112497   3.956   0.578   0.613
 3866SOL    HW212498   4.052   0.479   0.524
 3867SOL     OW12499   1.830   4.064   3.468
 3867SOL    HW112500   1.759   3.996   3.447
 3867SOL    HW212501   1.908   4.051   3.407
 3868SOL     OW12502   1.917   5.748   1.862
 3868SOL    HW112503   1.887   5.653   1.856
 3868SOL    HW212504   1.901   5.794   1.774
 3869SOL     OW12505   0.091   2.706   3.568
 3869SOL    HW112506   0.045   2.751   3.645
 3869SOL    HW212507   0.169   2.653   3.602
 3870SOL     OW12508   3.217   4.882   6.622
 3870SOL    HW112509   3.282   4.931   6.681
 3870SOL    HW212510   3.135   4.938   6.610
 3871SOL     OW12511   3.038   0.352   2.806
 3871SOL    HW112512   3.136   0.343   2.825
 3871SOL    HW212513   3.005   0.267   2.765
 3872SOL     OW12514   3.745   3.547   1.111
 3872SOL    HW112515   3.809   3.565   1.186
 3872SOL    HW212516   3.663   3.603   1.123
 3873SOL     OW12517   5.200   5.172   1.212
 3873SOL    HW112518   5.103   5.169   1.192
 3873SOL    HW212519   5.230   5.083   1.246
 3874SOL     OW12520   4.616   6.649   6.907
 3874SOL    HW112521   4.651   6.740   6.884
 3874SOL    HW212522   4.668   6.612   6.983
 3875SOL     OW12523   1.472   4.047   2.504
 3875SOL    HW112524   1.443   4.121   2.565
 3875SOL    HW212525   1.429   4.059   2.415
 3876SOL     OW12526   5.142   5.594   5.877
 3876SOL    HW112527   5.050   5.557   5.888
 3876SOL    HW212528   5.208   5.531   5.918
 3877SOL     OW12529   5.776   0.975   1.395
 3877SOL    HW112530   5.801   1.071   1.391
 3877SOL    HW212531   5.733   0.948   1.308
 3878SOL     OW12532   3.752   6.926   5.895
 3878SOL    HW112533   3.715   6.836   5.870
 3878SOL    HW212534   3.681   6.996   5.883
 3879SOL     OW12535   4.752   5.492   0.635
 3879SOL    HW112536   4.842   5.455   0.615
 3879SOL    HW212537   4.761   5.588   0.664
 3880SOL     OW12538   6.132   3.994   2.452
 3880SOL    HW112539   6.220   3.956   2.424
 3880SOL    HW212540   6.095   3.941   2.528
 3881SOL     OW12541   1.825   5.528   0.451
 3881SOL    HW112542   1.847   5.433   0.476
 3881SOL    HW212543   1.781   5.573   0.529
 3882SOL     OW12544   6.310   1.445   6.644
 3882SOL    HW112545   6.355   1.531   6.670
 3882SOL    HW212546   6.231   1.431   6.703
 3883SOL     OW12547   4.817   1.331   3.770
 3883SOL    HW112548   4.731   1.354   3.724
 3883SOL    HW212549   4.801   1.258   3.837
 3884SOL     OW12550   1.489   6.257   5.457
 3884SOL    HW112551   1.435   6.174   5.472
 3884SOL    HW212552   1.538   6.281   5.541
 3885SOL     OW12553   6.593   1.165   4.047
 3885SOL    HW112554   6.663   1.217   3.998
 3885SOL    HW212555   6.567   1.214   4.130
 3886SOL     OW12556   0.075   0.322   5.294
 3886SOL    HW112557   0.053   0.358   5.203
 3886SOL    HW212558   0.085   0.222   5.288
 3887SOL     OW12559   3.797   1.569   5.934
 3887SOL    HW112560   3.775   1.474   5.912
 3887SOL    HW212561   3.777   1.626   5.855
 3888SOL     OW12562   6.738   1.439   0.567
 3888SOL    HW112563   6.772   1.469   0.478
 3888SOL    HW212564   6.740   1.516   0.631
 3889SOL     OW12565   0.541   5.657   6.356
 3889SOL    HW112566   0.507   5.583   6.415
 3889SOL    HW212567   0.641   5.658   6.358
 3890SOL     OW12568   5.685   5.452   3.265
 3890SOL    HW112569   5.706   5.549   3.270
 3890SOL    HW212570   5.594   5.439   3.227
 3891SOL     OW12571   5.274   5.540   4.906
 3891SOL    HW112572   5.336   5.561   4.831
 3891SOL    HW212573   5.192   5.495   4.871
 3892SOL     OW12574   6.424   6.453   2.878
 3892SOL    HW112575   6.335   6.409   2.868
 3892SOL    HW212576   6.468   6.461   2.788
 3893SOL     OW12577   3.196   5.724   3.852
 3893SOL    HW112578   3.143   5.739   3.935
 3893SOL    HW212579   3.193   5.806   3.795
 3894SOL     OW12580   4.220   3.042   0.524
 3894SOL    HW112581   4.142   2.986   0.496
 3894SOL    HW212582   4.293   2.982   0.559
 3895SOL     OW12583   1.805   0.821   5.521
 3895SOL    HW112584   1.739   0.865   5.460
 3895SOL    HW212585   1.882   0.785   5.468
 3896SOL     OW12586   0.082   2.199   5.754
 3896SOL    HW112587   0.037   2.282   5.787
 3896SOL    HW212588   0.019   2.148   5.695
 3897SOL     OW12589   3.069   6.515   2.163
 3897SOL    HW112590   3.007   6.440   2.140
 3897SOL    HW212591   3.103   6.556   2.078
 3898SOL     OW12592   4.112   3.406   4.366
 3898SOL    HW112593   4.100   3.458   4.282
 3898SOL    HW212594   4.106   3.308   4.345
 3899SOL     OW12595   4.842   1.262   5.914
 3899SOL    HW112596   4.835   1.314   5.999
 3899SOL    HW212597   4.909   1.304   5.854
 3900SOL     OW12598   6.431   2.344   3.565
 3900SOL    HW112599   6.342   2.365   3.607
 3900SOL    HW212600   6.465   2.425   3.517
 3901SOL     OW12601   1.243   6.627   4.955
 3901SOL    HW112602   1.310   6.557   4.980
 3901SOL    HW212603   1.188   6.595   4.879
 3902SOL     OW12604   5.269   4.874   1.226
 3902SOL    HW112605   5.209   4.844   1.152
 3902SOL    HW212606   5.362   4.880   1.192
 3903SOL     OW12607   4.068   2.498   0.339
 3903SOL    HW112608   4.146   2.493   0.276
 3903SOL    HW212609   4.066   2.417   0.397
 3904SOL     OW12610   1.147   6.860   0.641
 3904SOL    HW112611   1.240   6.832   0.616
 3904SOL    HW212612   1.099   6.894   0.560
 3905SOL     OW12613   0.114   0.186   5.733
 3905SOL    HW112614   0.068   0.265   5.774
 3905SOL    HW212615   0.066   0.159   5.650
 3906SOL     OW12616   1.863   5.066   4.255
 3906SOL    HW112617   1.845   5.148   4.201
 3906SOL    HW212618   1.876   4.988   4.194
 3907SOL     OW12619   0.118   1.548   4.186
 3907SOL    HW112620   0.170   1.477   4.232
 3907SOL    HW212621   0.026   1.553   4.225
 3908SOL     OW12622   1.430   0.851   5.353
 3908SOL    HW112623   1.376   0.769   5.334
 3908SOL    HW212624   1.395   0.895   5.436
 3909SOL     OW12625   5.250   2.727   5.829
 3909SOL    HW112626   5.181   2.698   5.896
 3909SOL    HW212627   5.278   2.821   5.849
 3910SOL     OW12628   3.291   2.947   0.487
 3910SOL    HW112629   3.266   2.970   0.581
 3910SOL    HW212630   3.218   2.977   0.425
 3911SOL     OW12631   5.740   0.949   1.705
 3911SOL    HW112632   5.743   0.970   1.607
 3911SOL    HW212633   5.645   0.931   1.732
 3912SOL     OW12634   3.766   2.138   0.313
 3912SOL    HW112635   3.770   2.095   0.222
 3912SOL    HW212636   3.767   2.237   0.302
 3913SOL     OW12637   4.829   5.974   0.658
 3913SOL    HW112638   4.921   6.001   0.630
 3913SOL    HW212639   4.807   6.020   0.745
 3914SOL     OW12640   5.863   0.747   0.825
 3914SOL    HW112641   5.780   0.694   0.807
 3914SOL    HW212642   5.915   0.756   0.740
 3915SOL     OW12643   5.059   5.187   0.307
 3915SOL    HW112644   5.143   5.237   0.327
 3915SOL    HW212645   4.981   5.235   0.347
 3916SOL     OW12646   2.047   0.716   2.582
 3916SOL    HW112647   2.006   0.660   2.654
 3916SOL    HW212648   2.129   0.762   2.617
 3917SOL     OW12649   3.023   4.817   0.413
 3917SOL    HW112650   3.020   4.737   0.353
 3917SOL    HW212651   2.969   4.799   0.495
 3918SOL     OW12652   5.337   0.044   0.836
 3918SOL    HW112653   5.417   0.053   0.896
 3918SOL    HW212654   5.254   0.037   0.891
 3919SOL     OW12655   3.895   0.514   0.999
 3919SOL    HW112656   3.956   0.590   0.977
 3919SOL    HW212657   3.808   0.550   1.033
 3920SOL     OW12658   3.401   0.726   5.759
 3920SOL    HW112659   3.313   0.698   5.723
 3920SOL    HW212660   3.448   0.647   5.800
 3921SOL     OW12661   0.849   2.460   6.013
 3921SOL    HW112662   0.782   2.496   5.947
 3921SOL    HW212663   0.845   2.515   6.096
 3922SOL     OW12664   4.303   5.108   2.096
 3922SOL    HW112665   4.320   5.060   2.182
 3922SOL    HW212666   4.246   5.188   2.113
 3923SOL     OW12667   5.230   0.689   1.527
 3923SOL    HW112668   5.241   0.766   1.463
 3923SOL    HW212669   5.139   0.650   1.517
 3924SOL     OW12670   6.372   4.637   4.416
 3924SOL    HW112671   6.423   4.685   4.487
 3924SOL    HW212672   6.297   4.695   4.384
 3925SOL     OW12673   4.741   3.639   0.414
 3925SOL    HW112674   4.741   3.546   0.376
 3925SOL    HW212675   4.818   3.690   0.376
 3926SOL     OW12676   0.565   0.499   5.449
 3926SOL    HW112677   0.651   0.537   5.483
 3926SOL    HW212678   0.526   0.560   5.380
 3927SOL     OW12679   6.823   2.581   4.872
 3927SOL    HW112680   6.917   2.599   4.903
 3927SOL    HW212681   6.759   2.621   4.938
 3928SOL     OW12682   1.826   6.560   2.997
 3928SOL    HW112683   1.731   6.559   3.029
 3928SOL    HW212684   1.837   6.629   2.926
 3929SOL     OW12685   0.465   2.160   5.004
 3929SOL    HW112686   0.512   2.202   4.927
 3929SOL    HW212687   0.434   2.232   5.067
 3930SOL     OW12688   1.455   3.761   3.896
 3930SOL    HW112689   1.426   3.701   3.822
 3930SOL    HW212690   1.555   3.760   3.902
 3931SOL     OW12691   1.008   2.139   1.768
 3931SOL    HW112692   1.105   2.128   1.791
 3931SOL    HW212693   0.959   2.054   1.788
 3932SOL     OW12694   1.674   5.683   4.055
 3932SOL    HW112695   1.732   5.728   3.987
 3932SOL    HW212696   1.584   5.665   4.015
 3933SOL     OW12697   2.248   5.158   0.270
 3933SOL    HW112698   2.346   5.147   0.285
 3933SOL    HW212699   2.200   5.156   0.357
 3934SOL     OW12700   0.622   1.499   2.211
 3934SOL    HW112701   0.652   1.541   2.126
 3934SOL    HW212702   0.599   1.571   2.277
 3935SOL     OW12703   6.231   3.349   6.960
 3935SOL    HW112704   6.286   3.292   7.021
 3935SOL    HW212705   6.252   3.325   6.865
 3936SOL     OW12706   0.013   5.042   5.355
 3936SOL    HW112707   0.055   4.953   5.373
 3936SOL    HW212708   0.067   5.114   5.399
 3937SOL     OW12709   6.709   6.716   2.259
 3937SOL    HW112710   6.754   6.664   2.331
 3937SOL    HW212711   6.622   6.671   2.235
 3938SOL     OW12712   0.012   4.254   2.944
 3938SOL    HW112713   0.031   4.203   3.027
 3938SOL    HW212714   7.000   4.344   2.968
 3939SOL     OW12715   0.553   1.014   2.584
 3939SOL    HW112716   0.560   0.959   2.667
 3939SOL    HW212717   0.521   0.956   2.509
 3940SOL     OW12718   3.302   4.602   1.383
 3940SOL    HW112719   3.275   4.698   1.391
 3940SOL    HW212720   3.315   4.564   1.475
 3941SOL     OW12721   5.781   6.239   4.175
 3941SOL    HW112722   5.811   6.311   4.237
 3941SOL    HW212723   5.682   6.226   4.185
 3942SOL     OW12724   0.761   6.079   6.654
 3942SOL    HW112725   0.795   6.093   6.561
 3942SOL    HW212726   0.719   5.989   6.661
 3943SOL     OW12727   1.090   3.392   1.047
 3943SOL    HW112728   1.024   3.333   1.001
 3943SOL    HW212729   1.042   3.457   1.106
 3944SOL     OW12730   6.487   2.080   6.632
 3944SOL    HW112731   6.429   2.148   6.588
 3944SOL    HW212732   6.431   2.025   6.695
 3945SOL     OW12733   0.162   1.197   2.763
 3945SOL    HW112734   0.217   1.121   2.731
 3945SOL    HW212735   0.160   1.197   2.863
 3946SOL     OW12736   1.062   3.165   0.578
 3946SOL    HW112737   1.025   3.204   0.662
 3946SOL    HW212738   0.997   3.178   0.503
 3947SOL     OW12739   6.494   5.552   1.028
 3947SOL    HW112740   6.408   5.602   1.014
 3947SOL    HW212741   6.498   5.475   0.965
 3948SOL     OW12742   2.075   2.410   5.569
 3948SOL    HW112743   2.164   2.398   5.524
 3948SOL    HW212744   2.010   2.450   5.505
 3949SOL     OW12745   6.226   6.413   2.453
 3949SOL    HW112746   6.277   6.342   2.502
 3949SOL    HW212747   6.160   6.456   2.515
 3950SOL     OW12748   3.218   4.026   1.377
 3950SOL    HW112749   3.164   4.110   1.380
 3950SOL    HW212750   3.206   3.977   1.463
 3951SOL     OW12751   0.342   1.293   5.172
 3951SOL    HW112752   0.370   1.260   5.082
 3951SOL    HW212753   0.243   1.293   5.179
 3952SOL     OW12754   6.680   3.502   5.812
 3952SOL    HW112755   6.601   3.442   5.820
 3952SOL    HW212756   6.691   3.554   5.897
 3953SOL     OW12757   3.596   4.351   6.134
 3953SOL    HW112758   3.518   4.289   6.143
 3953SOL    HW212759   3.678   4.309   6.174
 3954SOL     OW12760   1.170   3.942   5.663
 3954SOL    HW112761   1.137   3.871   5.725
 3954SOL    HW212762   1.268   3.957   5.679
 3955SOL     OW12763   5.258   4.929   7.024
 3955SOL    HW112764   5.216   4.922   6.934
 3955SOL    HW212765   5.207   4.996   0.053
 3956SOL     OW12766   0.391   3.208   6.015
 3956SOL    HW112767   0.402   3.224   6.113
 3956SOL    HW212768   0.422   3.116   5.992
 3957SOL     OW12769   2.046   0.042   4.020
 3957SOL    HW112770   2.061   0.118   4.083
 3957SOL    HW212771   2.117   0.043   3.949
 3958SOL     OW12772   5.824   6.717   5.355
 3958SOL    HW112773   5.736   6.714   5.403
 3958SOL    HW212774   5.897   6.735   5.420
 3959SOL     OW12775   3.206   5.032   0.061
 3959SOL    HW112776   3.273   4.960   0.078
 3959SOL    HW212777   3.251   5.110   0.017
 3960SOL     OW12778   3.932   3.356   0.119
 3960SOL    HW112779   3.875   3.392   0.193
 3960SOL    HW212780   3.900   3.264   0.094
 3961SOL     OW12781   4.529   0.457   1.475
 3961SOL    HW112782   4.463   0.382   1.481
 3961SOL    HW212783   4.587   0.457   1.557
 3962SOL     OW12784   0.893   0.485   6.662
 3962SOL    HW112785   0.829   0.425   6.709
 3962SOL    HW212786   0.844   0.563   6.624
 3963SOL     OW12787   4.678   5.539   4.009
 3963SOL    HW112788   4.639   5.568   3.922
 3963SOL    HW212789   4.615   5.563   4.083
 3964SOL     OW12790   5.005   6.067   5.341
 3964SOL    HW112791   5.066   6.030   5.411
 3964SOL    HW212792   4.919   6.015   5.341
 3965SOL     OW12793   3.084   3.616   0.179
 3965SOL    HW112794   3.081   3.602   0.278
 3965SOL    HW212795   2.997   3.657   0.149
 3966SOL     OW12796   6.403   4.474   5.424
 3966SOL    HW112797   6.496   4.463   5.386
 3966SOL    HW212798   6.403   4.447   5.520
 3967SOL     OW12799   0.522   6.091   6.304
 3967SOL    HW112800   0.482   6.015   6.356
 3967SOL    HW212801   0.511   6.072   6.206
 3968SOL     OW12802   5.495   1.221   2.290
 3968SOL    HW112803   5.554   1.140   2.288
 3968SOL    HW212804   5.512   1.275   2.208
 3969SOL     OW12805   0.721   4.936   2.691
 3969SOL    HW112806   0.797   4.895   2.640
 3969SOL    HW212807   0.755   4.969   2.779
 3970SOL     OW12808   5.083   4.434   2.805
 3970SOL    HW112809   5.166   4.480   2.838
 3970SOL    HW212810   5.003   4.489   2.829
 3971SOL     OW12811   1.351   6.137   3.150
 3971SOL    HW112812   1.316   6.095   3.066
 3971SOL    HW212813   1.417   6.208   3.127
 3972SOL     OW12814   0.539   6.808   0.370
 3972SOL    HW112815   0.550   6.709   0.374
 3972SOL    HW212816   0.556   6.840   0.276
 3973SOL     OW12817   3.042   3.950   4.623
 3973SOL    HW112818   3.129   3.994   4.602
 3973SOL    HW212819   2.986   3.944   4.540
 3974SOL     OW12820   6.350   0.977   6.545
 3974SOL    HW112821   6.303   0.934   6.468
 3974SOL    HW212822   6.285   0.988   6.621
 3975SOL     OW12823   6.557   1.171   6.185
 3975SOL    HW112824   6.467   1.214   6.193
 3975SOL    HW212825   6.568   1.134   6.093
 3976SOL     OW12826   1.314   3.616   0.703
 3976SOL    HW112827   1.365   3.586   0.622
 3976SOL    HW212828   1.362   3.693   0.746
 3977SOL     OW12829   3.140   6.367   6.475
 3977SOL    HW112830   3.220   6.387   6.531
 3977SOL    HW212831   3.092   6.452   6.454
 3978SOL     OW12832   6.339   2.790   6.150
 3978SOL    HW112833   6.381   2.730   6.218
 3978SOL    HW212834   6.405   2.861   6.123
 3979SOL     OW12835   0.514   6.729   2.398
 3979SOL    HW112836   0.578   6.667   2.444
 3979SOL    HW212837   0.474   6.792   2.465
 3980SOL     OW12838   5.056   2.949   4.398
 3980SOL    HW112839   5.084   3.031   4.448
 3980SOL    HW212840   5.042   2.874   4.463
 3981SOL     OW12841   6.869   2.156   0.232
 3981SOL    HW112842   6.959   2.188   0.261
 3981SOL    HW212843   6.857   2.173   0.134
 3982SOL     OW12844   2.573   1.938   3.707
 3982SOL    HW112845   2.615   1.964   3.795
 3982SOL    HW212846   2.645   1.913   3.643
 3983SOL     OW12847   2.943   6.306   4.175
 3983SOL    HW112848   2.862   6.248   4.170
 3983SOL    HW212849   2.981   6.301   4.268
 3984SOL     OW12850   1.695   6.082   1.806
 3984SOL    HW112851   1.619   6.092   1.870
 3984SOL    HW212852   1.778   6.121   1.847
 3985SOL     OW12853   2.387   3.115   1.068
 3985SOL    HW112854   2.363   3.210   1.089
 3985SOL    HW212855   2.318   3.054   1.109
 3986SOL     OW12856   0.149   2.000   2.203
 3986SOL    HW112857   0.187   2.090   2.179
 3986SOL    HW212858   0.064   1.985   2.152
 3987SOL     OW12859   2.549   4.732   6.529
 3987SOL    HW112860   2.480   4.683   6.582
 3987SOL    HW212861   2.640   4.701   6.558
 3988SOL     OW12862   4.087   2.956   0.799
 3988SOL    HW112863   4.061   3.048   0.769
 3988SOL    HW212864   4.016   2.919   0.858
 3989SOL     OW12865   6.099   6.463   0.135
 3989SOL    HW112866   6.175   6.505   0.085
 3989SOL    HW212867   6.085   6.370   0.103
 3990SOL     OW12868   0.945   3.791   3.622
 3990SOL    HW112869   0.868   3.791   3.558
 3990SOL    HW212870   0.986   3.882   3.624
 3991SOL     OW12871   0.201   2.101   4.001
 3991SOL    HW112872   0.142   2.085   3.921
 3991SOL    HW212873   0.165   2.052   4.080
 3992SOL     OW12874   4.765   3.698   6.416
 3992SOL    HW112875   4.729   3.619   6.466
 3992SOL    HW212876   4.698   3.727   6.348
 3993SOL     OW12877   2.961   2.236   2.817
 3993SOL    HW112878   2.888   2.283   2.768
 3993SOL    HW212879   3.033   2.210   2.752
 3994SOL     OW12880   2.405   2.662   3.707
 3994SOL    HW112881   2.404   2.562   3.710
 3994SOL    HW212882   2.397   2.692   3.612
 3995SOL     OW12883   2.096   4.188   3.109
 3995SOL    HW112884   2.177   4.235   3.143
 3995SOL    HW212885   2.111   4.162   3.013
 3996SOL     OW12886   0.573   1.319   3.244
 3996SOL    HW112887   0.496   1.357   3.295
 3996SOL    HW212888   0.554   1.326   3.146
 3997SOL     OW12889   5.823   3.792   3.101
 3997SOL    HW112890   5.831   3.694   3.079
 3997SOL    HW212891   5.882   3.844   3.039
 3998SOL     OW12892   6.326   2.153   3.314
 3998SOL    HW112893   6.271   2.070   3.326
 3998SOL    HW212894   6.360   2.184   3.403
 3999SOL     OW12895   5.744   3.863   2.494
 3999SOL    HW112896   5.769   3.782   2.441
 3999SOL    HW212897   5.680   3.919   2.440
 4000SOL     OW12898   2.586   5.649   2.610
 4000SOL    HW112899   2.679   5.674   2.636
 4000SOL    HW212900   2.540   5.729   2.571
 4001SOL     OW12901   2.602   3.947   5.555
 4001SOL    HW112902   2.515   3.992   5.577
 4001SOL    HW212903   2.592   3.894   5.471
 4002SOL     OW12904   3.266   3.301   4.808
 4002SOL    HW112905   3.191   3.325   4.747
 4002SOL    HW212906   3.353   3.328   4.766
 4003SOL     OW12907   2.700   0.970   5.579
 4003SOL    HW112908   2.749   1.033   5.520
 4003SOL    HW212909   2.731   0.877   5.562
 4004SOL     OW12910   0.006   3.897   2.702
 4004SOL    HW112911   0.041   3.805   2.682
 4004SOL    HW212912   7.001   3.901   2.797
 4005SOL     OW12913   4.632   3.460   1.245
 4005SOL    HW112914   4.553   3.522   1.245
 4005SOL    HW212915   4.604   3.370   1.214
 4006SOL     OW12916   4.897   5.556   2.427
 4006SOL    HW112917   4.801   5.546   2.453
 4006SOL    HW212918   4.949   5.477   2.460
 4007SOL     OW12919   1.035   1.742   3.295
 4007SOL    HW112920   1.072   1.650   3.282
 4007SOL    HW212921   1.019   1.785   3.206
 4008SOL     OW12922   2.923   6.910   0.418
 4008SOL    HW112923   2.853   6.846   0.450
 4008SOL    HW212924   2.897   7.003   0.443
 4009SOL     OW12925   4.463   1.950   1.082
 4009SOL    HW112926   4.383   1.947   1.022
 4009SOL    HW212927   4.531   2.013   1.043
 4010SOL     OW12928   3.784   4.372   1.408
 4010SOL    HW112929   3.743   4.364   1.498
 4010SOL    HW212930   3.845   4.295   1.392
 4011SOL     OW12931   7.019   5.921   0.672
 4011SOL    HW112932   6.965   5.912   0.588
 4011SOL    HW212933   6.999   6.009   0.715
 4012SOL     OW12934   4.510   6.980   1.727
 4012SOL    HW112935   4.446   0.001   1.787
 4012SOL    HW212936   4.518   6.885   1.756
 4013SOL     OW12937   2.132   0.537   0.867
 4013SOL    HW112938   2.206   0.489   0.820
 4013SOL    HW212939   2.084   0.473   0.927
 4014SOL     OW12940   3.088   5.910   3.462
 4014SOL    HW112941   3.090   5.853   3.380
 4014SOL    HW212942   3.087   6.007   3.436
 4015SOL     OW12943   4.482   4.956   6.160
 4015SOL    HW112944   4.451   4.876   6.109
 4015SOL    HW212945   4.575   4.941   6.193
 4016SOL     OW12946   3.398   5.213   6.657
 4016SOL    HW112947   3.458   5.293   6.650
 4016SOL    HW212948   3.316   5.228   6.602
 4017SOL     OW12949   0.888   5.234   5.458
 4017SOL    HW112950   0.815   5.245   5.525
 4017SOL    HW212951   0.975   5.265   5.498
 4018SOL     OW12952   3.629   6.293   1.960
 4018SOL    HW112953   3.655   6.245   1.876
 4018SOL    HW212954   3.562   6.363   1.939
 4019SOL     OW12955   5.625   3.126   2.468
 4019SOL    HW112956   5.696   3.137   2.538
 4019SOL    HW212957   5.603   3.029   2.457
 4020SOL     OW12958   0.312   3.792   4.282
 4020SOL    HW112959   0.410   3.776   4.294
 4020SOL    HW212960   0.262   3.708   4.304
 4021SOL     OW12961   3.329   3.538   5.518
 4021SOL    HW112962   3.340   3.443   5.549
 4021SOL    HW212963   3.398   3.558   5.448
 4022SOL     OW12964   3.836   6.766   1.036
 4022SOL    HW112965   3.747   6.812   1.032
 4022SOL    HW212966   3.824   6.667   1.041
 4023SOL     OW12967   0.253   1.325   5.451
 4023SOL    HW112968   0.228   1.419   5.430
 4023SOL    HW212969   0.227   1.265   5.375
 4024SOL     OW12970   1.627   4.925   4.070
 4024SOL    HW112971   1.581   5.005   4.111
 4024SOL    HW212972   1.663   4.867   4.143
 4025SOL     OW12973   1.116   5.880   4.417
 4025SOL    HW112974   1.174   5.802   4.396
 4025SOL    HW212975   1.040   5.883   4.352
 4026SOL     OW12976   6.205   6.240   4.329
 4026SOL    HW112977   6.252   6.326   4.309
 4026SOL    HW212978   6.180   6.237   4.425
 4027SOL     OW12979   2.785   2.351   6.755
 4027SOL    HW112980   2.708   2.397   6.711
 4027SOL    HW212981   2.870   2.399   6.732
 4028SOL     OW12982   4.540   1.566   3.557
 4028SOL    HW112983   4.459   1.550   3.501
 4028SOL    HW212984   4.533   1.655   3.602
 4029SOL     OW12985   3.088   4.045   6.180
 4029SOL    HW112986   3.105   4.041   6.081
 4029SOL    HW212987   3.108   3.955   6.220
 4030SOL     OW12988   6.821   1.025   1.953
 4030SOL    HW112989   6.751   1.092   1.978
 4030SOL    HW212990   6.794   0.978   1.869
 4031SOL     OW12991   5.368   0.453   2.747
 4031SOL    HW112992   5.346   0.477   2.841
 4031SOL    HW212993   5.467   0.442   2.737
 4032SOL     OW12994   6.468   6.551   1.982
 4032SOL    HW112995   6.449   6.463   1.939
 4032SOL    HW212996   6.472   6.622   1.912
 4033SOL     OW12997   2.777   2.017   2.889
 4033SOL    HW112998   2.842   2.086   2.857
 4033SOL    HW212999   2.720   2.055   2.961
 4034SOL     OW13000   6.281   2.366   5.269
 4034SOL    HW113001   6.182   2.373   5.259
 4034SOL    HW213002   6.325   2.380   5.180
 4035SOL     OW13003   6.478   1.523   1.394
 4035SOL    HW113004   6.394   1.479   1.361
 4035SOL    HW213005   6.464   1.555   1.487
 4036SOL     OW13006   4.199   4.704   2.338
 4036SOL    HW113007   4.274   4.642   2.314
 4036SOL    HW213008   4.165   4.748   2.255
 4037SOL     OW13009   3.004   1.252   6.064
 4037SOL    HW113010   3.058   1.333   6.083
 4037SOL    HW213011   2.956   1.263   5.977
 4038SOL     OW13012   4.821   3.235   0.115
 4038SOL    HW113013   4.909   3.186   0.113
 4038SOL    HW213014   4.803   3.273   0.024
 4039SOL     OW13015   4.777   6.013   1.616
 4039SOL    HW113016   4.746   5.982   1.706
 4039SOL    HW213017   4.704   6.065   1.572
 4040SOL     OW13018   2.901   6.159   4.641
 4040SOL    HW113019   2.929   6.063   4.644
 4040SOL    HW213020   2.812   6.169   4.685
 4041SOL     OW13021   1.870   6.230   1.613
 4041SOL    HW113022   1.885   6.131   1.618
 4041SOL    HW213023   1.772   6.248   1.620
 4042SOL     OW13024   5.948   6.582   3.108
 4042SOL    HW113025   5.936   6.498   3.055
 4042SOL    HW213026   5.993   6.651   3.052
 4043SOL     OW13027   6.765   2.025   6.725
 4043SOL    HW113028   6.688   2.029   6.661
 4043SOL    HW213029   6.846   2.064   6.682
 4044SOL     OW13030   5.386   4.773   2.656
 4044SOL    HW113031   5.422   4.867   2.656
 4044SOL    HW213032   5.424   4.723   2.578
 4045SOL     OW13033   4.012   6.675   5.741
 4045SOL    HW113034   4.048   6.684   5.648
 4045SOL    HW213035   3.937   6.609   5.741
 4046SOL     OW13036   1.046   1.828   2.700
 4046SOL    HW113037   1.065   1.919   2.738
 4046SOL    HW213038   1.002   1.837   2.611
 4047SOL     OW13039   2.098   2.338   6.890
 4047SOL    HW113040   2.045   2.411   6.846
 4047SOL    HW213041   2.038   2.263   6.915
 4048SOL     OW13042   5.434   1.278   1.750
 4048SOL    HW113043   5.517   1.284   1.696
 4048SOL    HW213044   5.394   1.369   1.760
 4049SOL     OW13045   4.563   6.239   6.075
 4049SOL    HW113046   4.578   6.337   6.079
 4049SOL    HW213047   4.548   6.202   6.167
 4050SOL     OW13048   0.881   6.362   2.426
 4050SOL    HW113049   0.906   6.273   2.388
 4050SOL    HW213050   0.962   6.420   2.429
 4051SOL     OW13051   4.539   1.134   6.599
 4051SOL    HW113052   4.473   1.138   6.524
 4051SOL    HW213053   4.493   1.102   6.682
 4052SOL     OW13054   5.871   2.143   3.378
 4052SOL    HW113055   5.864   2.188   3.467
 4052SOL    HW213056   5.927   2.199   3.316
 4053SOL     OW13057   2.019   6.043   4.640
 4053SOL    HW113058   1.938   6.073   4.589
 4053SOL    HW213059   2.083   5.999   4.577
 4054SOL     OW13060   4.999   4.305   0.693
 4054SOL    HW113061   4.909   4.275   0.662
 4054SOL    HW213062   4.998   4.313   0.793
 4055SOL     OW13063   1.540   4.141   1.136
 4055SOL    HW113064   1.496   4.056   1.164
 4055SOL    HW213065   1.515   4.214   1.200
 4056SOL     OW13066   5.186   3.789   1.062
 4056SOL    HW113067   5.258   3.792   1.131
 4056SOL    HW213068   5.221   3.741   0.981
 4057SOL     OW13069   6.847   2.943   6.922
 4057SOL    HW113070   6.804   2.944   7.012
 4057SOL    HW213071   6.933   2.993   6.925
 4058SOL     OW13072   2.847   6.681   4.849
 4058SOL    HW113073   2.812   6.607   4.792
 4058SOL    HW213074   2.912   6.645   4.915
 4059SOL     OW13075   0.424   2.404   3.316
 4059SOL    HW113076   0.491   2.460   3.267
 4059SOL    HW213077   0.332   2.439   3.299
 4060SOL     OW13078   5.579   4.861   5.606
 4060SOL    HW113079   5.580   4.766   5.639
 4060SOL    HW213080   5.515   4.915   5.660
 4061SOL     OW13081   2.517   4.641   1.946
 4061SOL    HW113082   2.615   4.621   1.949
 4061SOL    HW213083   2.504   4.739   1.930
 4062SOL     OW13084   2.744   0.436   2.453
 4062SOL    HW113085   2.815   0.402   2.391
 4062SOL    HW213086   2.717   0.528   2.425
 4063SOL     OW13087   6.209   6.858   0.674
 4063SOL    HW113088   6.216   6.872   0.772
 4063SOL    HW213089   6.220   6.760   0.653
 4064SOL     OW13090   3.068   1.940   4.184
 4064SOL    HW113091   2.975   1.959   4.218
 4064SOL    HW213092   3.133   1.951   4.259
 4065SOL     OW13093   0.843   0.085   1.599
 4065SOL    HW113094   0.755   0.039   1.604
 4065SOL    HW213095   0.914   0.019   1.576
 4066SOL     OW13096   6.401   4.244   2.656
 4066SOL    HW113097   6.456   4.231   2.738
 4066SOL    HW213098   6.433   4.182   2.584
 4067SOL     OW13099   5.380   3.751   3.725
 4067SOL    HW113100   5.403   3.656   3.745
 4067SOL    HW213101   5.281   3.760   3.711
 4068SOL     OW13102   2.518   2.109   4.221
 4068SOL    HW113103   2.418   2.099   4.226
 4068SOL    HW213104   2.550   2.160   4.301
 4069SOL     OW13105   3.511   5.095   6.868
 4069SOL    HW113106   3.572   5.019   6.843
 4069SOL    HW213107   3.457   5.122   6.789
 4070SOL     OW13108   0.301   2.949   2.778
 4070SOL    HW113109   0.335   2.885   2.848
 4070SOL    HW213110   0.245   2.900   2.712
 4071SOL     OW13111   1.263   1.412   4.832
 4071SOL    HW113112   1.306   1.344   4.773
 4071SOL    HW213113   1.199   1.366   4.894
 4072SOL     OW13114   0.668   5.738   4.673
 4072SOL    HW113115   0.644   5.801   4.599
 4072SOL    HW213116   0.703   5.790   4.751
 4073SOL     OW13117   3.069   5.371   6.253
 4073SOL    HW113118   3.124   5.364   6.171
 4073SOL    HW213119   2.972   5.382   6.228
 4074SOL     OW13120   0.407   4.639   1.266
 4074SOL    HW113121   0.471   4.714   1.250
 4074SOL    HW213122   0.324   4.653   1.212
 4075SOL     OW13123   4.790   2.060   1.325
 4075SOL    HW113124   4.774   2.127   1.398
 4075SOL    HW213125   4.758   1.970   1.354
 4076SOL     OW13126   2.591   3.256   6.196
 4076SOL    HW113127   2.634   3.167   6.211
 4076SOL    HW213128   2.648   3.310   6.133
 4077SOL     OW13129   4.005   1.984   1.090
 4077SOL    HW113130   4.093   2.017   1.122
 4077SOL    HW213131   3.974   1.909   1.148
 4078SOL     OW13132   2.074   4.767   2.138
 4078SOL    HW113133   1.997   4.816   2.098
 4078SOL    HW213134   2.039   4.692   2.196
 4079SOL     OW13135   2.278   1.264   2.798
 4079SOL    HW113136   2.183   1.275   2.828
 4079SOL    HW213137   2.286   1.182   2.741
 4080SOL     OW13138   4.632   2.703   5.968
 4080SOL    HW113139   4.599   2.685   5.876
 4080SOL    HW213140   4.683   2.789   5.969
 4081SOL     OW13141   1.233   2.897   3.375
 4081SOL    HW113142   1.320   2.881   3.327
 4081SOL    HW213143   1.237   2.854   3.466
 4082SOL     OW13144   0.394   3.952   0.209
 4082SOL    HW113145   0.381   3.967   0.111
 4082SOL    HW213146   0.311   3.912   0.248
 4083SOL     OW13147   6.455   3.043   3.049
 4083SOL    HW113148   6.387   3.076   2.983
 4083SOL    HW213149   6.427   3.071   3.141
 4084SOL     OW13150   5.765   1.853   3.823
 4084SOL    HW113151   5.684   1.800   3.801
 4084SOL    HW213152   5.838   1.792   3.854
 4085SOL     OW13153   3.942   5.628   0.614
 4085SOL    HW113154   4.029   5.582   0.633
 4085SOL    HW213155   3.907   5.597   0.526
 4086SOL     OW13156   2.315   6.097   1.880
 4086SOL    HW113157   2.400   6.147   1.895
 4086SOL    HW213158   2.247   6.157   1.839
 4087SOL     OW13159   3.065   2.161   3.392
 4087SOL    HW113160   3.162   2.148   3.413
 4087SOL    HW213161   3.047   2.133   3.297
 4088SOL     OW13162   0.393   1.900   1.037
 4088SOL    HW113163   0.419   1.804   1.047
 4088SOL    HW213164   0.417   1.950   1.120
 4089SOL     OW13165   6.384   6.342   3.753
 4089SOL    HW113166   6.323   6.421   3.749
 4089SOL    HW213167   6.362   6.286   3.833
 4090SOL     OW13168   2.279   4.135   5.584
 4090SOL    HW113169   2.289   4.079   5.667
 4090SOL    HW213170   2.294   4.232   5.607
 4091SOL     OW13171   6.555   6.276   0.294
 4091SOL    HW113172   6.474   6.240   0.342
 4091SOL    HW213173   6.546   6.375   0.284
 4092SOL     OW13174   6.342   3.132   5.172
 4092SOL    HW113175   6.250   3.159   5.141
 4092SOL    HW213176   6.402   3.211   5.173
 4093SOL     OW13177   4.105   0.035   3.530
 4093SOL    HW113178   4.194   7.017   3.527
 4093SOL    HW213179   4.108   0.110   3.596
 4094SOL     OW13180   2.434   5.734   4.498
 4094SOL    HW113181   2.384   5.661   4.452
 4094SOL    HW213182   2.368   5.801   4.533
 4095SOL     OW13183   0.747   3.616   6.541
 4095SOL    HW113184   0.735   3.518   6.525
 4095SOL    HW213185   0.771   3.661   6.455
 4096SOL     OW13186   4.716   5.360   0.889
 4096SOL    HW113187   4.812   5.368   0.915
 4096SOL    HW213188   4.699   5.414   0.806
 4097SOL     OW13189   4.019   3.717   6.372
 4097SOL    HW113190   4.010   3.781   6.295
 4097SOL    HW213191   3.978   3.629   6.348
 4098SOL     OW13192   0.175   2.910   2.088
 4098SOL    HW113193   0.185   2.988   2.025
 4098SOL    HW213194   0.259   2.856   2.087
 4099SOL     OW13195   2.995   4.889   1.064
 4099SOL    HW113196   2.936   4.821   1.108
 4099SOL    HW213197   3.080   4.846   1.035
 4100SOL     OW13198   6.411   6.196   5.021
 4100SOL    HW113199   6.348   6.126   5.056
 4100SOL    HW213200   6.398   6.206   4.922
 4101SOL     OW13201   5.625   0.656   0.628
 4101SOL    HW113202   5.634   0.624   0.534
 4101SOL    HW213203   5.571   0.740   0.630
 4102SOL     OW13204   6.452   0.732   1.529
 4102SOL    HW113205   6.533   0.685   1.492
 4102SOL    HW213206   6.474   0.829   1.542
 4103SOL     OW13207   0.455   0.625   0.909
 4103SOL    HW113208   0.484   0.555   0.975
 4103SOL    HW213209   0.484   0.599   0.817
 4104SOL     OW13210   0.872   4.752   2.021
 4104SOL    HW113211   0.782   4.766   2.063
 4104SOL    HW213212   0.925   4.687   2.076
 4105SOL     OW13213   4.161   5.361   1.273
 4105SOL    HW113214   4.188   5.276   1.229
 4105SOL    HW213215   4.090   5.343   1.341
 4106SOL     OW13216   0.656   1.996   5.155
 4106SOL    HW113217   0.575   2.042   5.118
 4106SOL    HW213218   0.729   2.062   5.169
 4107SOL     OW13219   1.766   6.191   0.984
 4107SOL    HW113220   1.856   6.211   0.945
 4107SOL    HW213221   1.707   6.272   0.975
 4108SOL     OW13222   0.083   4.903   6.260
 4108SOL    HW113223   0.058   4.950   6.175
 4108SOL    HW213224   0.048   4.954   6.338
 4109SOL     OW13225   4.632   6.032   5.042
 4109SOL    HW113226   4.614   6.001   5.135
 4109SOL    HW213227   4.569   6.105   5.018
 4110SOL     OW13228   4.738   3.164   6.449
 4110SOL    HW113229   4.640   3.152   6.440
 4110SOL    HW213230   4.777   3.087   6.500
 4111SOL     OW13231   4.043   2.772   6.601
 4111SOL    HW113232   4.135   2.810   6.609
 4111SOL    HW213233   3.996   2.777   6.690
 4112SOL     OW13234   5.049   0.740   5.503
 4112SOL    HW113235   5.053   0.641   5.511
 4112SOL    HW213236   5.069   0.782   5.592
 4113SOL     OW13237   4.479   6.457   4.588
 4113SOL    HW113238   4.471   6.490   4.683
 4113SOL    HW213239   4.574   6.464   4.559
 4114SOL     OW13240   4.039   2.230   3.816
 4114SOL    HW113241   4.128   2.271   3.836
 4114SOL    HW213242   4.029   2.219   3.718
 4115SOL     OW13243   4.421   6.052   2.042
 4115SOL    HW113244   4.470   6.135   2.067
 4115SOL    HW213245   4.412   6.048   1.942
 4116SOL     OW13246   4.057   2.128   1.773
 4116SOL    HW113247   4.062   2.049   1.712
 4116SOL    HW213248   4.073   2.098   1.867
 4117SOL     OW13249   0.741   5.148   1.953
 4117SOL    HW113250   0.738   5.229   1.895
 4117SOL    HW213251   0.815   5.156   2.019
 4118SOL     OW13252   2.523   6.338   0.943
 4118SOL    HW113253   2.573   6.420   0.971
 4118SOL    HW213254   2.588   6.265   0.923
 4119SOL     OW13255   4.068   2.183   3.335
 4119SOL    HW113256   4.046   2.144   3.424
 4119SOL    HW213257   4.027   2.128   3.263
 4120SOL     OW13258   4.253   0.607   0.769
 4120SOL    HW113259   4.190   0.557   0.709
 4120SOL    HW213260   4.222   0.702   0.779
 4121SOL     OW13261   5.897   1.425   5.330
 4121SOL    HW113262   5.978   1.368   5.344
 4121SOL    HW213263   5.824   1.393   5.391
 4122SOL     OW13264   0.867   6.379   5.662
 4122SOL    HW113265   0.813   6.456   5.629
 4122SOL    HW213266   0.845   6.363   5.758
 4123SOL     OW13267   4.747   4.802   5.423
 4123SOL    HW113268   4.709   4.717   5.387
 4123SOL    HW213269   4.847   4.799   5.417
 4124SOL     OW13270   5.933   5.105   5.728
 4124SOL    HW113271   5.982   5.184   5.764
 4124SOL    HW213272   5.859   5.136   5.669
 4125SOL     OW13273   4.453   1.126   1.859
 4125SOL    HW113274   4.414   1.177   1.936
 4125SOL    HW213275   4.441   1.178   1.775
 4126SOL     OW13276   1.412   4.650   3.950
 4126SOL    HW113277   1.397   4.667   4.048
 4126SOL    HW213278   1.332   4.603   3.912
 4127SOL     OW13279   4.644   4.554   4.510
 4127SOL    HW113280   4.688   4.493   4.576
 4127SOL    HW213281   4.586   4.620   4.558
 4128SOL     OW13282   1.314   3.407   1.728
 4128SOL    HW113283   1.392   3.345   1.723
 4128SOL    HW213284   1.326   3.481   1.662
 4129SOL     OW13285   5.004   1.322   6.540
 4129SOL    HW113286   4.925   1.283   6.587
 4129SOL    HW213287   5.009   1.286   6.447
 4130SOL     OW13288   0.047   3.327   5.830
 4130SOL    HW113289   0.076   3.241   5.788
 4130SOL    HW213290   0.044   3.399   5.760
 4131SOL     OW13291   1.052   5.731   3.944
 4131SOL    HW113292   1.137   5.727   3.892
 4131SOL    HW213293   0.988   5.663   3.908
 4132SOL     OW13294   5.159   4.667   4.014
 4132SOL    HW113295   5.181   4.708   3.925
 4132SOL    HW213296   5.217   4.707   4.084
 4133SOL     OW13297   2.939   6.738   1.868
 4133SOL    HW113298   2.885   6.723   1.951
 4133SOL    HW213299   2.890   6.800   1.807
 4134SOL     OW13300   1.934   2.546   0.617
 4134SOL    HW113301   1.866   2.509   0.554
 4134SOL    HW213302   1.903   2.635   0.651
 4135SOL     OW13303   2.203   0.510   2.459
 4135SOL    HW113304   2.166   0.588   2.510
 4135SOL    HW213305   2.276   0.541   2.399
 4136SOL     OW13306   1.038   2.095   2.790
 4136SOL    HW113307   0.956   2.119   2.737
 4136SOL    HW213308   1.110   2.162   2.772
 4137SOL     OW13309   1.854   4.101   1.223
 4137SOL    HW113310   1.900   4.040   1.158
 4137SOL    HW213311   1.758   4.112   1.197
 4138SOL     OW13312   3.855   5.502   3.276
 4138SOL    HW113313   3.862   5.420   3.219
 4138SOL    HW213314   3.946   5.527   3.309
 4139SOL     OW13315   2.247   2.312   5.195
 4139SOL    HW113316   2.225   2.371   5.117
 4139SOL    HW213317   2.320   2.249   5.169
 4140SOL     OW13318   2.782   0.685   5.535
 4140SOL    HW113319   2.861   0.746   5.539
 4140SOL    HW213320   2.795   0.609   5.598
 4141SOL     OW13321   5.134   6.199   1.876
 4141SOL    HW113322   5.197   6.276   1.877
 4141SOL    HW213323   5.081   6.201   1.792
 4142SOL     OW13324   6.735   5.648   1.012
 4142SOL    HW113325   6.644   5.608   1.016
 4142SOL    HW213326   6.803   5.575   1.000
 4143SOL     OW13327   0.160   2.916   0.146
 4143SOL    HW113328   0.142   2.961   0.059
 4143SOL    HW213329   0.238   2.960   0.191
 4144SOL     OW13330   5.373   3.097   0.416
 4144SOL    HW113331   5.371   3.174   0.352
 4144SOL    HW213332   5.381   3.011   0.364
 4145SOL     OW13333   0.321   6.107   1.481
 4145SOL    HW113334   0.376   6.024   1.471
 4145SOL    HW213335   0.224   6.082   1.480
 4146SOL     OW13336   6.709   0.775   5.948
 4146SOL    HW113337   6.798   0.817   5.931
 4146SOL    HW213338   6.696   0.698   5.886
 4147SOL     OW13339   3.999   1.904   5.463
 4147SOL    HW113340   4.043   1.994   5.453
 4147SOL    HW213341   3.901   1.912   5.444
 4148SOL     OW13342   0.470   0.323   3.664
 4148SOL    HW113343   0.507   0.414   3.649
 4148SOL    HW213344   0.370   0.327   3.663
 4149SOL     OW13345   0.712   2.993   0.223
 4149SOL    HW113346   0.646   2.992   0.148
 4149SOL    HW213347   0.801   2.965   0.190
 4150SOL     OW13348   6.970   0.854   6.005
 4150SOL    HW113349   7.005   0.911   5.931
 4150SOL    HW213350   0.018   0.796   6.040
 4151SOL     OW13351   4.843   6.428   6.084
 4151SOL    HW113352   4.855   6.423   6.183
 4151SOL    HW213353   4.850   6.336   6.044
 4152SOL     OW13354   2.891   5.442   0.938
 4152SOL    HW113355   2.982   5.417   0.971
 4152SOL    HW213356   2.853   5.514   0.996
 4153SOL     OW13357   4.677   4.849   6.690
 4153SOL    HW113358   4.711   4.850   6.596
 4153SOL    HW213359   4.704   4.764   6.734
 4154SOL     OW13360   0.351   4.319   4.834
 4154SOL    HW113361   0.382   4.225   4.824
 4154SOL    HW213362   0.251   4.320   4.845
 4155SOL     OW13363   5.809   2.830   3.545
 4155SOL    HW113364   5.728   2.771   3.537
 4155SOL    HW213365   5.857   2.809   3.630
 4156SOL     OW13366   5.391   0.061   5.147
 4156SOL    HW113367   5.473   0.090   5.196
 4156SOL    HW213368   5.314   0.057   5.210
 4157SOL     OW13369   4.090   6.440   3.881
 4157SOL    HW113370   4.083   6.364   3.816
 4157SOL    HW213371   3.999   6.480   3.895
 4158SOL     OW13372   1.751   5.497   4.265
 4158SOL    HW113373   1.769   5.417   4.207
 4158SOL    HW213374   1.712   5.570   4.209
 4159SOL     OW13375   1.888   3.145   3.773
 4159SOL    HW113376   1.823   3.179   3.842
 4159SOL    HW213377   1.981   3.151   3.809
 4160SOL     OW13378   6.448   0.790   1.130
 4160SOL    HW113379   6.504   0.710   1.109
 4160SOL    HW213380   6.369   0.761   1.186
 4161SOL     OW13381   2.189   6.177   6.559
 4161SOL    HW113382   2.247   6.204   6.637
 4161SOL    HW213383   2.240   6.114   6.500
 4162SOL     OW13384   6.487   0.037   5.259
 4162SOL    HW113385   6.409   0.040   5.321
 4162SOL    HW213386   6.509   6.968   5.239
 4163SOL     OW13387   6.008   0.572   3.120
 4163SOL    HW113388   5.948   0.652   3.126
 4163SOL    HW213389   6.090   0.588   3.175
 4164SOL     OW13390   1.255   6.640   6.270
 4164SOL    HW113391   1.253   6.692   6.184
 4164SOL    HW213392   1.299   6.552   6.255
 4165SOL     OW13393   4.628   0.193   0.475
 4165SOL    HW113394   4.696   0.176   0.547
 4165SOL    HW213395   4.603   0.106   0.432
 4166SOL     OW13396   5.856   3.220   1.204
 4166SOL    HW113397   5.855   3.249   1.108
 4166SOL    HW213398   5.764   3.193   1.232
 4167SOL     OW13399   2.361   3.688   0.391
 4167SOL    HW113400   2.284   3.625   0.400
 4167SOL    HW213401   2.421   3.678   0.471
 4168SOL     OW13402   0.662   5.256   0.965
 4168SOL    HW113403   0.634   5.336   1.019
 4168SOL    HW213404   0.762   5.255   0.958
 4169SOL     OW13405   5.806   3.606   4.032
 4169SOL    HW113406   5.769   3.526   4.079
 4169SOL    HW213407   5.733   3.672   4.014
 4170SOL     OW13408   3.296   3.300   5.106
 4170SOL    HW113409   3.298   3.334   5.012
 4170SOL    HW213410   3.260   3.370   5.167
 4171SOL     OW13411   5.410   4.293   1.227
 4171SOL    HW113412   5.340   4.264   1.162
 4171SOL    HW213413   5.403   4.392   1.241
 4172SOL     OW13414   0.231   2.161   6.143
 4172SOL    HW113415   0.247   2.118   6.231
 4172SOL    HW213416   0.182   2.098   6.083
 4173SOL     OW13417   5.988   3.217   4.602
 4173SOL    HW113418   6.081   3.181   4.594
 4173SOL    HW213419   5.935   3.191   4.522
 4174SOL     OW13420   5.612   0.950   3.550
 4174SOL    HW113421   5.551   0.887   3.599
 4174SOL    HW213422   5.684   0.899   3.505
 4175SOL     OW13423   2.489   6.481   4.046
 4175SOL    HW113424   2.435   6.434   3.976
 4175SOL    HW213425   2.428   6.511   4.119
 4176SOL     OW13426   3.162   6.628   1.951
 4176SOL    HW113427   3.231   6.642   1.880
 4176SOL    HW213428   3.080   6.681   1.930
 4177SOL     OW13429   0.668   5.181   5.263
 4177SOL    HW113430   0.691   5.255   5.199
 4177SOL    HW213431   0.720   5.194   5.347
 4178SOL     OW13432   4.139   0.787   4.105
 4178SOL    HW113433   4.059   0.751   4.154
 4178SOL    HW213434   4.114   0.807   4.010
 4179SOL     OW13435   5.213   3.247   4.287
 4179SOL    HW113436   5.284   3.285   4.227
 4179SOL    HW213437   5.137   3.311   4.295
 4180SOL     OW13438   5.351   3.162   2.472
 4180SOL    HW113439   5.294   3.170   2.389
 4180SOL    HW213440   5.445   3.140   2.445
 4181SOL     OW13441   2.215   2.219   6.106
 4181SOL    HW113442   2.257   2.226   6.196
 4181SOL    HW213443   2.285   2.231   6.036
 4182SOL     OW13444   0.239   6.622   2.894
 4182SOL    HW113445   0.218   6.604   2.990
 4182SOL    HW213446   0.215   6.541   2.839
 4183SOL     OW13447   3.676   0.904   1.304
 4183SOL    HW113448   3.716   0.993   1.326
 4183SOL    HW213449   3.592   0.917   1.252
 4184SOL     OW13450   4.247   4.786   1.411
 4184SOL    HW113451   4.234   4.696   1.369
 4184SOL    HW213452   4.162   4.816   1.454
 4185SOL     OW13453   0.364   5.284   3.011
 4185SOL    HW113454   0.369   5.375   2.972
 4185SOL    HW213455   0.378   5.289   3.110
 4186SOL     OW13456   1.249   4.875   0.260
 4186SOL    HW113457   1.291   4.851   0.347
 4186SOL    HW213458   1.270   4.804   0.192
 4187SOL     OW13459   3.742   2.989   5.611
 4187SOL    HW113460   3.791   3.022   5.691
 4187SOL    HW213461   3.806   2.947   5.547
 4188SOL     OW13462   5.115   6.897   4.397
 4188SOL    HW113463   5.103   6.804   4.433
 4188SOL    HW213464   5.026   6.931   4.366
 4189SOL     OW13465   3.374   1.624   4.714
 4189SOL    HW113466   3.365   1.723   4.728
 4189SOL    HW213467   3.465   1.604   4.678
 4190SOL     OW13468   2.182   6.986   6.341
 4190SOL    HW113469   2.156   6.953   6.250
 4190SOL    HW213470   2.226   6.913   6.392
 4191SOL     OW13471   6.070   3.421   2.864
 4191SOL    HW113472   6.147   3.467   2.908
 4191SOL    HW213473   6.086   3.419   2.765
 4192SOL     OW13474   0.034   1.695   3.681
 4192SOL    HW113475   0.097   1.766   3.649
 4192SOL    HW213476   7.008   1.660   3.603
 4193SOL     OW13477   2.376   6.206   1.591
 4193SOL    HW113478   2.424   6.293   1.595
 4193SOL    HW213479   2.292   6.216   1.538
 4194SOL     OW13480   6.841   2.267   5.038
 4194SOL    HW113481   6.867   2.171   5.030
 4194SOL    HW213482   6.836   2.309   4.948
 4195SOL     OW13483   3.482   0.241   1.933
 4195SOL    HW113484   3.572   0.214   1.902
 4195SOL    HW213485   3.487   0.331   1.975
 4196SOL     OW13486   6.386   1.881   4.263
 4196SOL    HW113487   6.357   1.822   4.339
 4196SOL    HW213488   6.305   1.919   4.218
 4197SOL     OW13489   4.447   4.880   4.112
 4197SOL    HW113490   4.533   4.889   4.061
 4197SOL    HW213491   4.404   4.970   4.120
 4198SOL     OW13492   5.979   3.743   7.004
 4198SOL    HW113493   6.040   3.820   6.983
 4198SOL    HW213494   5.946   3.703   6.919
 4199SOL     OW13495   2.337   3.347   6.205
 4199SOL    HW113496   2.422   3.296   6.217
 4199SOL    HW213497   2.342   3.400   6.120
 4200SOL     OW13498   2.936   6.443   5.394
 4200SOL    HW113499   3.023   6.394   5.402
 4200SOL    HW213500   2.860   6.379   5.406
 4201SOL     OW13501   5.517   6.329   3.892
 4201SOL    HW113502   5.591   6.379   3.937
 4201SOL    HW213503   5.555   6.264   3.827
 4202SOL     OW13504   4.117   4.628   5.864
 4202SOL    HW113505   4.207   4.588   5.877
 4202SOL    HW213506   4.051   4.555   5.842
 4203SOL     OW13507   3.613   6.167   2.646
 4203SOL    HW113508   3.631   6.161   2.548
 4203SOL    HW213509   3.699   6.161   2.696
 4204SOL     OW13510   3.066   2.934   1.837
 4204SOL    HW113511   3.080   2.935   1.738
 4204SOL    HW213512   2.988   2.992   1.861
 4205SOL     OW13513   3.809   5.277   4.201
 4205SOL    HW113514   3.804   5.255   4.104
 4205SOL    HW213515   3.755   5.211   4.253
 4206SOL     OW13516   4.785   1.011   5.815
 4206SOL    HW113517   4.813   1.106   5.824
 4206SOL    HW213518   4.762   0.991   5.720
 4207SOL     OW13519   2.199   1.814   1.880
 4207SOL    HW113520   2.159   1.771   1.961
 4207SOL    HW213521   2.198   1.750   1.803
 4208SOL     OW13522   1.378   2.367   0.842
 4208SOL    HW113523   1.344   2.338   0.753
 4208SOL    HW213524   1.303   2.364   0.908
 4209SOL     OW13525   1.124   1.258   5.009
 4209SOL    HW113526   1.158   1.176   4.962
 4209SOL    HW213527   1.114   1.239   5.106
 4210SOL     OW13528   3.373   3.336   1.926
 4210SOL    HW113529   3.460   3.376   1.955
 4210SOL    HW213530   3.328   3.293   2.005
 4211SOL     OW13531   5.363   5.834   5.719
 4211SOL    HW113532   5.396   5.882   5.638
 4211SOL    HW213533   5.407   5.870   5.801
 4212SOL     OW13534   6.448   2.539   2.082
 4212SOL    HW113535   6.444   2.619   2.022
 4212SOL    HW213536   6.357   2.521   2.119
 4213SOL     OW13537   2.551   0.698   2.503
 4213SOL    HW113538   2.533   0.769   2.571
 4213SOL    HW213539   2.639   0.715   2.459
 4214SOL     OW13540   0.783   4.089   5.965
 4214SOL    HW113541   0.868   4.135   5.991
 4214SOL    HW213542   0.706   4.151   5.981
 4215SOL     OW13543   6.959   5.696   4.735
 4215SOL    HW113544   6.901   5.678   4.656
 4215SOL    HW213545   6.905   5.738   4.808
 4216SOL     OW13546   1.514   2.062   3.759
 4216SOL    HW113547   1.430   2.112   3.739
 4216SOL    HW213548   1.533   1.997   3.684
 4217SOL     OW13549   6.884   0.368   2.977
 4217SOL    HW113550   6.849   0.304   2.909
 4217SOL    HW213551   6.884   0.460   2.939
 4218SOL     OW13552   5.147   0.079   1.715
 4218SOL    HW113553   5.067   0.104   1.771
 4218SOL    HW213554   5.225   0.133   1.746
 4219SOL     OW13555   3.030   4.813   5.231
 4219SOL    HW113556   2.987   4.841   5.317
 4219SOL    HW213557   2.986   4.730   5.197
 4220SOL     OW13558   6.648   3.597   3.014
 4220SOL    HW113559   6.632   3.594   2.915
 4220SOL    HW213560   6.634   3.690   3.047
 4221SOL     OW13561   6.606   5.602   5.944
 4221SOL    HW113562   6.705   5.587   5.948
 4221SOL    HW213563   6.575   5.642   6.030
 4222SOL     OW13564   6.078   1.768   1.904
 4222SOL    HW113565   6.092   1.866   1.888
 4222SOL    HW213566   6.021   1.756   1.985
 4223SOL     OW13567   3.972   3.343   3.378
 4223SOL    HW113568   4.031   3.391   3.444
 4223SOL    HW213569   3.977   3.245   3.394
 4224SOL     OW13570   5.024   3.293   3.905
 4224SOL    HW113571   4.949   3.232   3.928
 4224SOL    HW213572   5.031   3.365   3.975
 4225SOL     OW13573   5.842   0.754   5.520
 4225SOL    HW113574   5.840   0.853   5.535
 4225SOL    HW213575   5.926   0.729   5.473
 4226SOL     OW13576   2.070   0.870   3.513
 4226SOL    HW113577   2.083   0.947   3.451
 4226SOL    HW213578   2.052   0.787   3.460
 4227SOL     OW13579   3.455   4.125   6.524
 4227SOL    HW113580   3.517   4.078   6.587
 4227SOL    HW213581   3.412   4.058   6.464
 4228SOL     OW13582   5.428   5.576   3.981
 4228SOL    HW113583   5.329   5.574   3.991
 4228SOL    HW213584   5.469   5.503   4.036
 4229SOL     OW13585   3.709   4.719   5.705
 4229SOL    HW113586   3.724   4.768   5.620
 4229SOL    HW213587   3.614   4.689   5.711
 4230SOL     OW13588   2.321   0.172   4.779
 4230SOL    HW113589   2.248   0.202   4.718
 4230SOL    HW213590   2.405   0.157   4.726
 4231SOL     OW13591   5.437   6.215   5.178
 4231SOL    HW113592   5.384   6.252   5.101
 4231SOL    HW213593   5.516   6.274   5.195
 4232SOL     OW13594   0.515   5.026   1.891
 4232SOL    HW113595   0.449   5.047   1.962
 4232SOL    HW213596   0.605   5.061   1.918
 4233SOL     OW13597   6.404   0.123   0.344
 4233SOL    HW113598   6.406   0.218   0.312
 4233SOL    HW213599   6.439   0.062   0.273
 4234SOL     OW13600   2.434   5.388   5.659
 4234SOL    HW113601   2.409   5.343   5.574
 4234SOL    HW213602   2.493   5.327   5.713
 4235SOL     OW13603   6.136   4.358   5.609
 4235SOL    HW113604   6.060   4.407   5.566
 4235SOL    HW213605   6.139   4.264   5.574
 4236SOL     OW13606   6.642   3.371   3.904
 4236SOL    HW113607   6.693   3.404   3.983
 4236SOL    HW213608   6.626   3.446   3.841
 4237SOL     OW13609   6.521   4.513   4.199
 4237SOL    HW113610   6.518   4.415   4.180
 4237SOL    HW213611   6.476   4.532   4.286
 4238SOL     OW13612   4.324   4.651   3.893
 4238SOL    HW113613   4.283   4.562   3.911
 4238SOL    HW213614   4.283   4.720   3.952
 4239SOL     OW13615   5.237   6.962   4.140
 4239SOL    HW113616   5.226   6.916   4.229
 4239SOL    HW213617   5.323   7.013   4.140
 4240SOL     OW13618   2.858   6.424   6.244
 4240SOL    HW113619   2.870   6.448   6.148
 4240SOL    HW213620   2.831   6.328   6.251
 4241SOL     OW13621   5.544   0.401   0.680
 4241SOL    HW113622   5.525   0.387   0.583
 4241SOL    HW213623   5.563   0.497   0.697
 4242SOL     OW13624   2.353   6.586   3.217
 4242SOL    HW113625   2.297   6.661   3.183
 4242SOL    HW213626   2.358   6.591   3.317
 4243SOL     OW13627   0.302   3.702   2.061
 4243SOL    HW113628   0.306   3.603   2.070
 4243SOL    HW213629   0.229   3.738   2.119
 4244SOL     OW13630   4.964   5.952   0.961
 4244SOL    HW113631   5.013   5.906   0.887
 4244SOL    HW213632   5.030   6.003   1.016
 4245SOL     OW13633   6.749   2.777   0.164
 4245SOL    HW113634   6.782   2.723   0.086
 4245SOL    HW213635   6.689   2.721   0.220
 4246SOL     OW13636   5.104   2.728   2.699
 4246SOL    HW113637   5.181   2.787   2.675
 4246SOL    HW213638   5.137   2.650   2.752
 4247SOL     OW13639   2.441   5.650   4.177
 4247SOL    HW113640   2.517   5.693   4.225
 4247SOL    HW213641   2.472   5.616   4.088
 4248SOL     OW13642   1.725   0.310   3.014
 4248SOL    HW113643   1.707   0.401   2.975
 4248SOL    HW213644   1.780   0.257   2.949
 4249SOL     OW13645   0.439   1.761   3.886
 4249SOL    HW113646   0.388   1.827   3.831
 4249SOL    HW213647   0.400   1.757   3.978
 4250SOL     OW13648   0.221   5.938   4.273
 4250SOL    HW113649   0.230   5.948   4.372
 4250SOL    HW213650   0.213   5.841   4.249
 4251SOL     OW13651   6.137   2.662   6.861
 4251SOL    HW113652   6.234   2.667   6.881
 4251SOL    HW213653   6.108   2.745   6.812
 4252SOL     OW13654   6.283   5.561   6.179
 4252SOL    HW113655   6.324   5.650   6.199
 4252SOL    HW213656   6.210   5.571   6.112
 4253SOL     OW13657   3.928   6.489   2.474
 4253SOL    HW113658   3.885   6.523   2.558
 4253SOL    HW213659   3.905   6.392   2.461
 4254SOL     OW13660   1.773   4.660   0.915
 4254SOL    HW113661   1.762   4.661   0.816
 4254SOL    HW213662   1.829   4.581   0.942
 4255SOL     OW13663   0.664   4.173   4.094
 4255SOL    HW113664   0.641   4.081   4.062
 4255SOL    HW213665   0.610   4.240   4.044
 4256SOL     OW13666   0.909   5.242   1.081
 4256SOL    HW113667   0.915   5.342   1.087
 4256SOL    HW213668   0.880   5.205   1.169
 4257SOL     OW13669   6.240   1.557   4.851
 4257SOL    HW113670   6.237   1.647   4.808
 4257SOL    HW213671   6.217   1.566   4.948
 4258SOL     OW13672   3.401   5.692   1.281
 4258SOL    HW113673   3.379   5.626   1.209
 4258SOL    HW213674   3.416   5.782   1.240
 4259SOL     OW13675   1.706   6.782   1.094
 4259SOL    HW113676   1.727   6.693   1.133
 4259SOL    HW213677   1.644   6.832   1.155
 4260SOL     OW13678   4.886   0.391   4.269
 4260SOL    HW113679   4.831   0.469   4.299
 4260SOL    HW213680   4.885   0.321   4.340
 4261SOL     OW13681   2.275   0.322   3.919
 4261SOL    HW113682   2.199   0.387   3.918
 4261SOL    HW213683   2.320   0.325   4.008
 4262SOL     OW13684   1.810   5.090   5.787
 4262SOL    HW113685   1.848   5.073   5.877
 4262SOL    HW213686   1.782   5.003   5.746
 4263SOL     OW13687   2.779   2.250   3.349
 4263SOL    HW113688   2.872   2.223   3.374
 4263SOL    HW213689   2.776   2.348   3.332
 4264SOL     OW13690   5.905   1.486   4.332
 4264SOL    HW113691   5.841   1.477   4.255
 4264SOL    HW213692   5.995   1.513   4.297
 4265SOL     OW13693   3.619   6.838   0.752
 4265SOL    HW113694   3.534   6.808   0.708
 4265SOL    HW213695   3.602   6.925   0.798
 4266SOL     OW13696   1.317   0.426   0.132
 4266SOL    HW113697   1.317   0.349   0.197
 4266SOL    HW213698   1.335   0.392   0.040
 4267SOL     OW13699   2.253   4.065   3.992
 4267SOL    HW113700   2.186   4.027   3.929
 4267SOL    HW213701   2.272   4.000   4.065
 4268SOL     OW13702   1.406   5.147   6.733
 4268SOL    HW113703   1.448   5.088   6.664
 4268SOL    HW213704   1.364   5.226   6.688
 4269SOL     OW13705   3.574   1.598   3.718
 4269SOL    HW113706   3.600   1.590   3.622
 4269SOL    HW213707   3.548   1.693   3.738
 4270SOL     OW13708   3.763   3.299   1.374
 4270SOL    HW113709   3.679   3.332   1.418
 4270SOL    HW213710   3.745   3.210   1.331
 4271SOL     OW13711   5.969   0.897   1.014
 4271SOL    HW113712   5.930   0.989   1.005
 4271SOL    HW213713   5.921   0.835   0.952
 4272SOL     OW13714   6.830   3.178   6.010
 4272SOL    HW113715   6.794   3.243   6.076
 4272SOL    HW213716   6.890   3.225   5.945
 4273SOL     OW13717   4.926   6.572   5.469
 4273SOL    HW113718   4.896   6.499   5.407
 4273SOL    HW213719   4.919   6.540   5.563
 4274SOL     OW13720   0.691   6.552   2.537
 4274SOL    HW113721   0.707   6.582   2.631
 4274SOL    HW213722   0.742   6.467   2.521
 4275SOL     OW13723   0.124   2.240   4.369
 4275SOL    HW113724   0.076   2.248   4.282
 4275SOL    HW213725   0.215   2.282   4.361
 4276SOL     OW13726   3.127   4.897   3.866
 4276SOL    HW113727   3.042   4.866   3.910
 4276SOL    HW213728   3.117   4.890   3.767
 4277SOL     OW13729   6.743   4.880   3.834
 4277SOL    HW113730   6.797   4.959   3.862
 4277SOL    HW213731   6.710   4.832   3.916
 4278SOL     OW13732   6.485   6.344   3.111
 4278SOL    HW113733   6.413   6.289   3.155
 4278SOL    HW213734   6.452   6.377   3.022
 4279SOL     OW13735   1.473   1.218   2.729
 4279SOL    HW113736   1.523   1.164   2.661
 4279SOL    HW213737   1.524   1.301   2.749
 4280SOL     OW13738   6.565   6.747   6.384
 4280SOL    HW113739   6.505   6.821   6.412
 4280SOL    HW213740   6.516   6.686   6.322
 4281SOL     OW13741   4.920   5.413   3.983
 4281SOL    HW113742   4.837   5.468   3.991
 4281SOL    HW213743   4.929   5.354   4.064
 4282SOL     OW13744   3.196   4.198   0.518
 4282SOL    HW113745   3.183   4.181   0.420
 4282SOL    HW213746   3.130   4.266   0.550
 4283SOL     OW13747   5.140   0.907   3.265
 4283SOL    HW113748   5.178   0.871   3.349
 4283SOL    HW213749   5.048   0.870   3.251
 4284SOL     OW13750   4.365   5.326   0.358
 4284SOL    HW113751   4.403   5.375   0.436
 4284SOL    HW213752   4.411   5.355   0.275
 4285SOL     OW13753   3.667   0.812   6.228
 4285SOL    HW113754   3.703   0.764   6.308
 4285SOL    HW213755   3.568   0.802   6.224
 4286SOL     OW13756   6.761   0.805   6.999
 4286SOL    HW113757   6.772   0.735   0.043
 4286SOL    HW213758   6.848   0.852   6.984
 4287SOL     OW13759   4.333   0.957   7.014
 4287SOL    HW113760   4.305   1.042   0.034
 4287SOL    HW213761   4.269   0.884   0.011
 4288SOL     OW13762   6.428   5.686   1.938
 4288SOL    HW113763   6.395   5.780   1.944
 4288SOL    HW213764   6.402   5.647   1.849
 4289SOL     OW13765   0.335   2.403   5.141
 4289SOL    HW113766   0.323   2.438   5.048
 4289SOL    HW213767   0.246   2.394   5.186
 4290SOL     OW13768   0.166   0.166   3.239
 4290SOL    HW113769   0.231   0.193   3.168
 4290SOL    HW213770   0.212   0.105   3.305
 4291SOL     OW13771   4.998   3.022   6.082
 4291SOL    HW113772   4.914   3.013   6.028
 4291SOL    HW213773   5.034   2.931   6.103
 4292SOL     OW13774   5.061   2.124   0.248
 4292SOL    HW113775   5.094   2.039   0.207
 4292SOL    HW213776   5.136   2.171   0.293
 4293SOL     OW13777   4.543   4.008   7.006
 4293SOL    HW113778   4.506   3.972   0.065
 4293SOL    HW213779   4.479   4.074   6.967
 4294SOL     OW13780   2.801   1.527   6.206
 4294SOL    HW113781   2.884   1.580   6.223
 4294SOL    HW213782   2.782   1.468   6.284
 4295SOL     OW13783   3.927   6.534   2.859
 4295SOL    HW113784   4.025   6.552   2.854
 4295SOL    HW213785   3.912   6.438   2.884
 4296SOL     OW13786   3.309   6.863   0.976
 4296SOL    HW113787   3.360   6.788   1.019
 4296SOL    HW213788   3.373   6.934   0.946
 4297SOL     OW13789   6.837   5.521   1.370
 4297SOL    HW113790   6.904   5.592   1.353
 4297SOL    HW213791   6.858   5.440   1.315
 4298SOL     OW13792   4.190   6.038   1.235
 4298SOL    HW113793   4.265   6.101   1.216
 4298SOL    HW213794   4.105   6.076   1.199
 4299SOL     OW13795   0.603   2.740   6.808
 4299SOL    HW113796   0.656   2.667   6.765
 4299SOL    HW213797   0.519   2.702   6.846
 4300SOL     OW13798   3.238   0.275   0.878
 4300SOL    HW113799   3.226   0.360   0.826
 4300SOL    HW213800   3.263   0.297   0.972
 4301SOL     OW13801   2.834   6.164   1.388
 4301SOL    HW113802   2.787   6.092   1.337
 4301SOL    HW213803   2.796   6.169   1.480
 4302SOL     OW13804   0.191   6.899   6.757
 4302SOL    HW113805   0.151   6.833   6.820
 4302SOL    HW213806   0.127   6.976   6.745
 4303SOL     OW13807   6.926   4.732   3.679
 4303SOL    HW113808   6.869   4.786   3.741
 4303SOL    HW213809   6.884   4.729   3.589
 4304SOL     OW13810   3.629   4.178   1.901
 4304SOL    HW113811   3.588   4.255   1.852
 4304SOL    HW213812   3.708   4.144   1.849
 4305SOL     OW13813   0.771   6.992   5.605
 4305SOL    HW113814   0.775   0.035   5.533
 4305SOL    HW213815   0.676   6.978   5.633
 4306SOL     OW13816   4.847   3.852   4.795
 4306SOL    HW113817   4.820   3.834   4.701
 4306SOL    HW213818   4.822   3.774   4.853
 4307SOL     OW13819   6.046   2.681   5.568
 4307SOL    HW113820   6.115   2.614   5.542
 4307SOL    HW213821   6.027   2.674   5.666
 4308SOL     OW13822   5.241   5.527   1.735
 4308SOL    HW113823   5.289   5.593   1.792
 4308SOL    HW213824   5.147   5.518   1.766
 4309SOL     OW13825   0.739   3.242   6.504
 4309SOL    HW113826   0.709   3.224   6.598
 4309SOL    HW213827   0.828   3.199   6.489
 4310SOL     OW13828   1.231   2.292   2.839
 4310SOL    HW113829   1.154   2.354   2.853
 4310SOL    HW213830   1.281   2.319   2.757
 4311SOL     OW13831   1.198   6.074   2.429
 4311SOL    HW113832   1.174   5.992   2.481
 4311SOL    HW213833   1.205   6.152   2.491
 4312SOL     OW13834   0.879   4.989   2.305
 4312SOL    HW113835   0.787   5.004   2.339
 4312SOL    HW213836   0.936   4.950   2.377
 4313SOL     OW13837   4.543   1.696   0.371
 4313SOL    HW113838   4.488   1.644   0.437
 4313SOL    HW213839   4.521   1.793   0.379
 4314SOL     OW13840   6.769   2.357   6.130
 4314SOL    HW113841   6.691   2.417   6.109
 4314SOL    HW213842   6.854   2.410   6.125
 4315SOL     OW13843   1.948   1.955   3.083
 4315SOL    HW113844   1.973   1.979   2.989
 4315SOL    HW213845   1.849   1.945   3.089
 4316SOL     OW13846   4.926   0.739   2.859
 4316SOL    HW113847   4.952   0.704   2.770
 4316SOL    HW213848   5.005   0.782   2.903
 4317SOL     OW13849   4.590   0.722   5.325
 4317SOL    HW113850   4.643   0.678   5.397
 4317SOL    HW213851   4.617   0.684   5.236
 4318SOL     OW13852   0.584   0.983   4.021
 4318SOL    HW113853   0.517   0.959   4.091
 4318SOL    HW213854   0.567   1.077   3.990
 4319SOL     OW13855   1.264   2.061   1.768
 4319SOL    HW113856   1.324   2.097   1.840
 4319SOL    HW213857   1.220   1.977   1.801
 4320SOL     OW13858   4.079   6.085   0.604
 4320SOL    HW113859   4.033   6.009   0.558
 4320SOL    HW213860   4.138   6.132   0.539
 4321SOL     OW13861   6.761   5.768   3.311
 4321SOL    HW113862   6.760   5.810   3.220
 4321SOL    HW213863   6.702   5.820   3.373
 4322SOL     OW13864   0.824   2.920   5.388
 4322SOL    HW113865   0.778   2.860   5.323
 4322SOL    HW213866   0.871   2.864   5.457
 4323SOL     OW13867   4.511   5.401   0.139
 4323SOL    HW113868   4.535   5.470   0.071
 4323SOL    HW213869   4.544   5.312   0.110
 4324SOL     OW13870   6.794   3.552   5.550
 4324SOL    HW113871   6.892   3.564   5.564
 4324SOL    HW213872   6.752   3.520   5.635
 4325SOL     OW13873   2.519   1.328   2.404
 4325SOL    HW113874   2.558   1.394   2.469
 4325SOL    HW213875   2.432   1.364   2.369
 4326SOL     OW13876   5.312   2.892   2.623
 4326SOL    HW113877   5.378   2.839   2.569
 4326SOL    HW213878   5.278   2.969   2.569
 4327SOL     OW13879   3.495   5.289   3.114
 4327SOL    HW113880   3.588   5.276   3.080
 4327SOL    HW213881   3.494   5.277   3.214
 4328SOL     OW13882   6.257   4.925   4.860
 4328SOL    HW113883   6.339   4.967   4.899
 4328SOL    HW213884   6.218   4.987   4.791
 4329SOL     OW13885   5.683   3.027   5.089
 4329SOL    HW113886   5.755   2.961   5.114
 4329SOL    HW213887   5.594   2.986   5.107
 4330SOL     OW13888   2.753   6.363   5.009
 4330SOL    HW113889   2.846   6.336   4.982
 4330SOL    HW213890   2.754   6.458   5.041
 4331SOL     OW13891   0.118   0.481   1.427
 4331SOL    HW113892   0.175   0.400   1.414
 4331SOL    HW213893   0.021   0.454   1.428
 4332SOL     OW13894   5.832   3.531   2.995
 4332SOL    HW113895   5.746   3.540   2.945
 4332SOL    HW213896   5.900   3.487   2.937
 4333SOL     OW13897   4.845   2.426   4.878
 4333SOL    HW113898   4.940   2.398   4.866
 4333SOL    HW213899   4.825   2.439   4.975
 4334SOL     OW13900   0.634   2.911   2.985
 4334SOL    HW113901   0.678   2.927   3.074
 4334SOL    HW213902   0.678   2.967   2.915
 4335SOL     OW13903   3.207   2.998   0.745
 4335SOL    HW113904   3.164   2.934   0.808
 4335SOL    HW213905   3.171   3.090   0.760
 4336SOL     OW13906   2.067   5.247   5.622
 4336SOL    HW113907   1.983   5.210   5.663
 4336SOL    HW213908   2.143   5.185   5.641
 4337SOL     OW13909   1.155   5.886   2.665
 4337SOL    HW113910   1.065   5.897   2.707
 4337SOL    HW213911   1.160   5.797   2.619
 4338SOL     OW13912   6.281   6.781   5.975
 4338SOL    HW113913   6.205   6.716   5.964
 4338SOL    HW213914   6.329   6.789   5.887
 4339SOL     OW13915   4.007   2.327   0.113
 4339SOL    HW113916   3.927   2.353   0.166
 4339SOL    HW213917   4.075   2.284   0.172
 4340SOL     OW13918   6.069   3.469   0.830
 4340SOL    HW113919   6.120   3.555   0.825
 4340SOL    HW213920   6.095   3.411   0.752
 4341SOL     OW13921   0.997   5.761   2.337
 4341SOL    HW113922   0.981   5.774   2.239
 4341SOL    HW213923   0.921   5.801   2.388
 4342SOL     OW13924   5.045   3.425   2.900
 4342SOL    HW113925   5.039   3.474   2.987
 4342SOL    HW213926   4.987   3.470   2.833
 4343SOL     OW13927   3.618   0.081   6.160
 4343SOL    HW113928   3.665   0.074   6.248
 4343SOL    HW213929   3.565   0.166   6.157
 4344SOL     OW13930   0.433   3.124   3.679
 4344SOL    HW113931   0.396   3.037   3.647
 4344SOL    HW213932   0.400   3.142   3.771
 4345SOL     OW13933   2.889   3.641   2.577
 4345SOL    HW113934   2.899   3.705   2.653
 4345SOL    HW213935   2.905   3.689   2.491
 4346SOL     OW13936   2.304   2.674   2.861
 4346SOL    HW113937   2.211   2.691   2.893
 4346SOL    HW213938   2.368   2.684   2.937
 4347SOL     OW13939   6.323   5.712   1.371
 4347SOL    HW113940   6.416   5.688   1.343
 4347SOL    HW213941   6.319   5.808   1.396
 4348SOL     OW13942   6.727   6.063   3.996
 4348SOL    HW113943   6.688   6.010   3.921
 4348SOL    HW213944   6.684   6.035   4.082
 4349SOL     OW13945   0.288   4.078   3.640
 4349SOL    HW113946   0.353   4.034   3.702
 4349SOL    HW213947   0.262   4.167   3.677
 4350SOL     OW13948   5.638   1.740   4.721
 4350SOL    HW113949   5.645   1.801   4.799
 4350SOL    HW213950   5.583   1.782   4.650
 4351SOL     OW13951   1.488   6.089   1.967
 4351SOL    HW113952   1.472   5.997   2.004
 4351SOL    HW213953   1.401   6.136   1.955
 4352SOL     OW13954   5.479   3.882   1.118
 4352SOL    HW113955   5.468   3.935   1.202
 4352SOL    HW213956   5.505   3.788   1.141
 4353SOL     OW13957   3.132   3.547   6.612
 4353SOL    HW113958   3.056   3.551   6.547
 4353SOL    HW213959   3.127   3.624   6.676
 4354SOL     OW13960   0.634   0.582   4.926
 4354SOL    HW113961   0.623   0.486   4.954
 4354SOL    HW213962   0.639   0.639   5.007
 4355SOL     OW13963   1.220   6.770   3.905
 4355SOL    HW113964   1.202   6.692   3.964
 4355SOL    HW213965   1.221   6.740   3.809
 4356SOL     OW13966   4.959   3.296   5.750
 4356SOL    HW113967   4.902   3.229   5.703
 4356SOL    HW213968   5.055   3.278   5.729
 4357SOL     OW13969   6.806   1.395   2.006
 4357SOL    HW113970   6.858   1.430   2.083
 4357SOL    HW213971   6.860   1.404   1.922
 4358SOL     OW13972   0.103   1.096   0.165
 4358SOL    HW113973   0.202   1.100   0.156
 4358SOL    HW213974   0.075   1.144   0.248
 4359SOL     OW13975   2.142   0.837   6.120
 4359SOL    HW113976   2.096   0.925   6.106
 4359SOL    HW213977   2.074   0.764   6.126
 4360SOL     OW13978   0.898   2.814   3.595
 4360SOL    HW113979   0.992   2.780   3.598
 4360SOL    HW213980   0.839   2.753   3.649
 4361SOL     OW13981   1.837   2.491   0.891
 4361SOL    HW113982   1.747   2.533   0.900
 4361SOL    HW213983   1.874   2.509   0.800
 4362SOL     OW13984   0.786   6.322   4.209
 4362SOL    HW113985   0.799   6.235   4.255
 4362SOL    HW213986   0.797   6.310   4.110
 4363SOL     OW13987   4.542   0.374   3.166
 4363SOL    HW113988   4.574   0.308   3.098
 4363SOL    HW213989   4.467   0.428   3.127
 4364SOL     OW13990   3.074   3.881   2.612
 4364SOL    HW113991   3.040   3.895   2.519
 4364SOL    HW213992   3.165   3.922   2.621
 4365SOL     OW13993   2.620   2.097   1.719
 4365SOL    HW113994   2.581   2.186   1.741
 4365SOL    HW213995   2.593   2.072   1.626
 4366SOL     OW13996   5.628   6.083   5.429
 4366SOL    HW113997   5.534   6.111   5.409
 4366SOL    HW213998   5.674   6.057   5.344
 4367SOL     OW13999   3.222   4.893   2.678
 4367SOL    HW114000   3.179   4.891   2.588
 4367SOL    HW214001   3.322   4.892   2.668
 4368SOL     OW14002   4.169   6.139   2.504
 4368SOL    HW114003   4.207   6.209   2.565
 4368SOL    HW214004   4.176   6.170   2.409
 4369SOL     OW14005   5.155   5.356   3.285
 4369SOL    HW114006   5.233   5.407   3.247
 4369SOL    HW214007   5.188   5.297   3.359
 4370SOL     OW14008   3.723   4.038   1.652
 4370SOL    HW114009   3.734   3.940   1.668
 4370SOL    HW214010   3.629   4.058   1.624
 4371SOL     OW14011   3.258   0.679   2.374
 4371SOL    HW114012   3.315   0.609   2.418
 4371SOL    HW214013   3.170   0.684   2.421
 4372SOL     OW14014   1.653   3.156   4.844
 4372SOL    HW114015   1.670   3.214   4.924
 4372SOL    HW214016   1.567   3.107   4.856
 4373SOL     OW14017   4.638   0.680   6.300
 4373SOL    HW114018   4.651   0.761   6.358
 4373SOL    HW214019   4.579   0.615   6.348
 4374SOL     OW14020   2.525   2.084   1.169
 4374SOL    HW114021   2.519   2.119   1.262
 4374SOL    HW214022   2.585   2.003   1.168
 4375SOL     OW14023   3.744   6.911   3.752
 4375SOL    HW114024   3.763   6.878   3.660
 4375SOL    HW214025   3.657   6.960   3.753
 4376SOL     OW14026   6.507   6.100   1.566
 4376SOL    HW114027   6.557   6.013   1.560
 4376SOL    HW214028   6.569   6.176   1.547
 4377SOL     OW14029   6.380   5.912   0.193
 4377SOL    HW114030   6.352   5.890   0.286
 4377SOL    HW214031   6.460   5.972   0.196
 4378SOL     OW14032   1.470   4.887   1.867
 4378SOL    HW114033   1.380   4.878   1.823
 4378SOL    HW214034   1.506   4.796   1.888
 4379SOL     OW14035   2.326   0.280   1.857
 4379SOL    HW114036   2.313   0.307   1.952
 4379SOL    HW214037   2.366   0.188   1.854
 4380SOL     OW14038   2.060   5.911   4.870
 4380SOL    HW114039   2.155   5.882   4.857
 4380SOL    HW214040   2.030   5.964   4.791
 4381SOL     OW14041   3.388   5.547   4.696
 4381SOL    HW114042   3.417   5.627   4.643
 4381SOL    HW214043   3.431   5.550   4.786
 4382SOL     OW14044   4.646   4.332   4.374
 4382SOL    HW114045   4.635   4.424   4.412
 4382SOL    HW214046   4.690   4.273   4.442
 4383SOL     OW14047   1.311   1.802   5.578
 4383SOL    HW114048   1.405   1.792   5.611
 4383SOL    HW214049   1.249   1.811   5.656
 4384SOL     OW14050   4.079   0.128   1.355
 4384SOL    HW114051   4.047   0.199   1.293
 4384SOL    HW214052   4.175   0.144   1.378
 4385SOL     OW14053   0.085   1.726   3.959
 4385SOL    HW114054   0.093   1.693   3.865
 4385SOL    HW214055   0.079   1.647   4.021
 4386SOL     OW14056   0.987   4.231   6.066
 4386SOL    HW114057   1.064   4.170   6.044
 4386SOL    HW214058   1.013   4.326   6.050
 4387SOL     OW14059   6.557   2.215   1.438
 4387SOL    HW114060   6.650   2.189   1.414
 4387SOL    HW214061   6.507   2.135   1.471
 4388SOL     OW14062   3.737   0.894   6.760
 4388SOL    HW114063   3.800   0.952   6.709
 4388SOL    HW214064   3.666   0.950   6.801
 4389SOL     OW14065   5.485   2.310   1.579
 4389SOL    HW114066   5.566   2.260   1.548
 4389SOL    HW214067   5.410   2.246   1.596
 4390SOL     OW14068   4.318   2.314   2.064
 4390SOL    HW114069   4.394   2.349   2.119
 4390SOL    HW214070   4.234   2.315   2.119
 4391SOL     OW14071   1.193   5.840   6.527
 4391SOL    HW114072   1.141   5.787   6.595
 4391SOL    HW214073   1.129   5.893   6.472
 4392SOL     OW14074   5.212   3.421   4.713
 4392SOL    HW114075   5.215   3.324   4.738
 4392SOL    HW214076   5.120   3.457   4.728
 4393SOL     OW14077   4.772   0.031   3.746
 4393SOL    HW114078   4.713   0.086   3.686
 4393SOL    HW214079   4.771   6.962   3.715
 4394SOL     OW14080   5.708   5.877   2.734
 4394SOL    HW114081   5.691   5.818   2.812
 4394SOL    HW214082   5.636   5.946   2.729
 4395SOL     OW14083   4.326   1.838   0.843
 4395SOL    HW114084   4.376   1.873   0.764
 4395SOL    HW214085   4.229   1.863   0.835
 4396SOL     OW14086   2.153   1.855   4.292
 4396SOL    HW114087   2.141   1.865   4.193
 4396SOL    HW214088   2.211   1.776   4.311
 4397SOL     OW14089   0.663   1.492   3.870
 4397SOL    HW114090   0.620   1.520   3.785
 4397SOL    HW214091   0.598   1.502   3.945
 4398SOL     OW14092   1.453   4.479   4.341
 4398SOL    HW114093   1.411   4.485   4.431
 4398SOL    HW214094   1.461   4.570   4.302
 4399SOL     OW14095   2.903   0.564   0.917
 4399SOL    HW114096   2.892   0.485   0.857
 4399SOL    HW214097   2.845   0.554   0.998
 4400SOL     OW14098   1.922   6.895   4.491
 4400SOL    HW114099   1.903   6.994   4.493
 4400SOL    HW214100   1.957   6.870   4.401
 4401SOL     OW14101   5.891   6.412   5.439
 4401SOL    HW114102   5.972   6.418   5.497
 4401SOL    HW214103   5.853   6.504   5.425
 4402SOL     OW14104   1.003   5.779   3.231
 4402SOL    HW114105   0.923   5.757   3.176
 4402SOL    HW214106   0.983   5.764   3.328
 4403SOL     OW14107   6.544   6.988   3.262
 4403SOL    HW114108   6.523   6.995   3.360
 4403SOL    HW214109   6.520   0.048   3.217
 4404SOL     OW14110   1.184   3.450   4.409
 4404SOL    HW114111   1.209   3.480   4.316
 4404SOL    HW214112   1.267   3.440   4.464
 4405SOL     OW14113   3.099   4.765   5.708
 4405SOL    HW114114   3.170   4.830   5.682
 4405SOL    HW214115   3.132   4.672   5.696
 4406SOL     OW14116   4.821   4.935   1.321
 4406SOL    HW114117   4.726   4.944   1.351
 4406SOL    HW214118   4.824   4.886   1.233
 4407SOL     OW14119   0.300   5.755   0.816
 4407SOL    HW114120   0.377   5.756   0.753
 4407SOL    HW214121   0.215   5.746   0.764
 4408SOL     OW14122   4.451   0.468   0.890
 4408SOL    HW114123   4.379   0.536   0.873
 4408SOL    HW214124   4.413   0.393   0.944
 4409SOL     OW14125   3.978   1.318   1.742
 4409SOL    HW114126   3.899   1.259   1.728
 4409SOL    HW214127   3.962   1.378   1.821
 4410SOL     OW14128   2.159   4.329   0.019
 4410SOL    HW114129   2.110   4.368   0.097
 4410SOL    HW214130   2.209   4.248   0.048
 4411SOL     OW14131   3.482   3.156   3.093
 4411SOL    HW114132   3.572   3.161   3.135
 4411SOL    HW214133   3.467   3.064   3.057
 4412SOL     OW14134   4.598   1.454   5.197
 4412SOL    HW114135   4.540   1.374   5.213
 4412SOL    HW214136   4.609   1.505   5.283
 4413SOL     OW14137   4.814   5.678   4.664
 4413SOL    HW114138   4.863   5.711   4.583
 4413SOL    HW214139   4.743   5.743   4.688
 4414SOL     OW14140   4.967   4.899   2.335
 4414SOL    HW114141   5.032   4.887   2.411
 4414SOL    HW214142   4.882   4.938   2.370
 4415SOL     OW14143   5.371   3.270   6.498
 4415SOL    HW114144   5.302   3.197   6.497
 4415SOL    HW214145   5.350   3.335   6.571
 4416SOL     OW14146   2.964   1.957   3.915
 4416SOL    HW114147   2.976   1.874   3.860
 4416SOL    HW214148   3.017   1.949   3.999
 4417SOL     OW14149   6.865   4.613   2.669
 4417SOL    HW114150   6.833   4.708   2.668
 4417SOL    HW214151   6.963   4.611   2.651
 4418SOL     OW14152   4.250   6.624   3.968
 4418SOL    HW114153   4.322   6.639   3.901
 4418SOL    HW214154   4.181   6.563   3.929
 4419SOL     OW14155   5.728   5.644   0.283
 4419SOL    HW114156   5.783   5.578   0.232
 4419SOL    HW214157   5.669   5.595   0.348
 4420SOL     OW14158   4.234   0.942   0.497
 4420SOL    HW114159   4.278   1.031   0.513
 4420SOL    HW214160   4.205   0.903   0.584
 4421SOL     OW14161   2.037   1.480   2.543
 4421SOL    HW114162   2.057   1.481   2.445
 4421SOL    HW214163   2.121   1.459   2.594
 4422SOL     OW14164   2.813   3.232   5.672
 4422SOL    HW114165   2.809   3.160   5.742
 4422SOL    HW214166   2.721   3.262   5.650
 4423SOL     OW14167   0.817   2.478   5.537
 4423SOL    HW114168   0.849   2.395   5.584
 4423SOL    HW214169   0.833   2.468   5.439
 4424SOL     OW14170   5.112   0.267   3.349
 4424SOL    HW114171   5.164   0.351   3.361
 4424SOL    HW214172   5.137   0.202   3.421
 4425SOL     OW14173   3.692   5.601   6.130
 4425SOL    HW114174   3.679   5.525   6.193
 4425SOL    HW214175   3.788   5.603   6.101
 4426SOL     OW14176   6.952   1.041   5.326
 4426SOL    HW114177   7.020   0.989   5.274
 4426SOL    HW214178   6.865   1.040   5.277
 4427SOL     OW14179   0.456   0.827   2.814
 4427SOL    HW114180   0.499   0.850   2.902
 4427SOL    HW214181   0.395   0.749   2.826
 4428SOL     OW14182   2.881   4.815   3.945
 4428SOL    HW114183   2.847   4.758   4.020
 4428SOL    HW214184   2.816   4.813   3.869
 4429SOL     OW14185   3.441   0.252   3.818
 4429SOL    HW114186   3.478   0.164   3.787
 4429SOL    HW214187   3.411   0.244   3.913
 4430SOL     OW14188   4.522   2.497   3.449
 4430SOL    HW114189   4.432   2.500   3.493
 4430SOL    HW214190   4.569   2.413   3.476
 4431SOL     OW14191   2.877   1.137   2.536
 4431SOL    HW114192   2.865   1.211   2.602
 4431SOL    HW214193   2.970   1.142   2.497
 4432SOL     OW14194   3.559   2.910   3.834
 4432SOL    HW114195   3.525   2.834   3.890
 4432SOL    HW214196   3.481   2.959   3.794
 4433SOL     OW14197   6.470   0.104   3.842
 4433SOL    HW114198   6.492   0.034   3.909
 4433SOL    HW214199   6.371   0.108   3.829
 4434SOL     OW14200   5.087   1.339   4.348
 4434SOL    HW114201   5.080   1.255   4.295
 4434SOL    HW214202   5.012   1.400   4.323
 4435SOL     OW14203   3.741   3.481   0.722
 4435SOL    HW114204   3.819   3.471   0.661
 4435SOL    HW214205   3.759   3.431   0.807
 4436SOL     OW14206   3.225   2.016   6.811
 4436SOL    HW114207   3.206   2.113   6.795
 4436SOL    HW214208   3.299   2.008   6.879
 4437SOL     OW14209   4.469   0.807   4.513
 4437SOL    HW114210   4.453   0.715   4.548
 4437SOL    HW214211   4.396   0.832   4.449
 4438SOL     OW14212   4.487   1.708   6.829
 4438SOL    HW114213   4.506   1.726   6.925
 4438SOL    HW214214   4.484   1.794   6.779
 4439SOL     OW14215   0.792   5.132   1.331
 4439SOL    HW114216   0.765   5.037   1.339
 4439SOL    HW214217   0.713   5.191   1.349
 4440SOL     OW14218   2.046   5.593   6.739
 4440SOL    HW114219   2.039   5.630   6.832
 4440SOL    HW214220   2.118   5.524   6.736
 4441SOL     OW14221   6.200   1.665   1.701
 4441SOL    HW114222   6.297   1.641   1.701
 4441SOL    HW214223   6.174   1.697   1.792
 4442SOL     OW14224   3.055   6.483   3.678
 4442SOL    HW114225   2.999   6.530   3.747
 4442SOL    HW214226   3.030   6.516   3.587
 4443SOL     OW14227   1.176   2.081   6.861
 4443SOL    HW114228   1.230   2.165   6.872
 4443SOL    HW214229   1.080   2.102   6.877
 4444SOL     OW14230   4.033   6.469   6.426
 4444SOL    HW114231   3.999   6.556   6.391
 4444SOL    HW214232   3.979   6.394   6.387
 4445SOL     OW14233   1.139   1.053   6.198
 4445SOL    HW114234   1.207   0.979   6.202
 4445SOL    HW214235   1.185   1.140   6.183
 4446SOL     OW14236   6.042   0.862   1.557
 4446SOL    HW114237   5.990   0.807   1.491
 4446SOL    HW214238   5.990   0.944   1.580
 4447SOL     OW14239   5.236   3.299   5.614
 4447SOL    HW114240   5.179   3.274   5.536
 4447SOL    HW214241   5.291   3.379   5.591
 4448SOL     OW14242   2.880   3.804   0.207
 4448SOL    HW114243   2.920   3.756   0.285
 4448SOL    HW214244   2.780   3.792   0.209
 4449SOL     OW14245   3.691   0.558   6.067
 4449SOL    HW114246   3.778   0.603   6.084
 4449SOL    HW214247   3.676   0.550   5.968
 4450SOL     OW14248   3.782   2.948   3.226
 4450SOL    HW114249   3.776   2.859   3.181
 4450SOL    HW214250   3.863   2.996   3.193
 4451SOL     OW14251   5.694   4.208   2.354
 4451SOL    HW114252   5.598   4.182   2.367
 4451SOL    HW214253   5.738   4.216   2.443
 4452SOL     OW14254   6.005   6.350   4.674
 4452SOL    HW114255   6.011   6.429   4.613
 4452SOL    HW214256   5.912   6.315   4.676
 4453SOL     OW14257   5.974   3.123   0.846
 4453SOL    HW114258   6.037   3.053   0.881
 4453SOL    HW214259   6.022   3.182   0.781
 4454SOL     OW14260   5.471   2.055   0.834
 4454SOL    HW114261   5.413   2.029   0.757
 4454SOL    HW214262   5.564   2.070   0.801
 4455SOL     OW14263   3.125   6.239   0.886
 4455SOL    HW114264   3.144   6.245   0.788
 4455SOL    HW214265   3.031   6.209   0.900
 4456SOL     OW14266   2.271   5.220   2.359
 4456SOL    HW114267   2.225   5.193   2.443
 4456SOL    HW214268   2.224   5.299   2.319
 4457SOL     OW14269   4.230   2.421   6.759
 4457SOL    HW114270   4.226   2.451   6.664
 4457SOL    HW214271   4.144   2.377   6.784
 4458SOL     OW14272   1.971   3.123   6.677
 4458SOL    HW114273   1.880   3.122   6.719
 4458SOL    HW214274   1.972   3.187   6.600
 4459SOL     OW14275   5.457   0.050   4.276
 4459SOL    HW114276   5.421   0.021   4.365
 4459SOL    HW214277   5.548   0.089   4.289
 4460SOL     OW14278   2.375   3.088   6.465
 4460SOL    HW114279   2.422   3.176   6.468
 4460SOL    HW214280   2.371   3.055   6.371
 4461SOL     OW14281   1.096   0.226   2.507
 4461SOL    HW114282   1.020   0.225   2.571
 4461SOL    HW214283   1.172   0.278   2.546
 4462SOL     OW14284   6.649   4.209   1.108
 4462SOL    HW114285   6.749   4.207   1.106
 4462SOL    HW214286   6.616   4.145   1.177
 4463SOL     OW14287   1.842   2.812   7.011
 4463SOL    HW114288   1.809   2.728   0.028
 4463SOL    HW214289   1.872   2.877   0.054
 4464SOL     OW14290   6.129   5.168   0.622
 4464SOL    HW114291   6.147   5.140   0.717
 4464SOL    HW214292   6.182   5.111   0.560
 4465SOL     OW14293   1.903   5.926   2.834
 4465SOL    HW114294   1.983   5.960   2.784
 4465SOL    HW214295   1.819   5.953   2.787
 4466SOL     OW14296   1.042   0.856   2.721
 4466SOL    HW114297   0.954   0.877   2.678
 4466SOL    HW214298   1.060   0.922   2.794
 4467SOL     OW14299   0.685   6.806   3.590
 4467SOL    HW114300   0.767   6.805   3.648
 4467SOL    HW214301   0.603   6.803   3.648
 4468SOL     OW14302   0.609   1.670   0.411
 4468SOL    HW114303   0.620   1.769   0.407
 4468SOL    HW214304   0.525   1.648   0.462
 4469SOL     OW14305   3.135   6.800   1.512
 4469SOL    HW114306   3.166   6.805   1.417
 4469SOL    HW214307   3.146   6.706   1.546
 4470SOL     OW14308   5.693   3.242   2.035
 4470SOL    HW114309   5.661   3.331   2.066
 4470SOL    HW214310   5.626   3.201   1.973
 4471SOL     OW14311   0.392   2.776   0.149
 4471SOL    HW114312   0.298   2.807   0.139
 4471SOL    HW214313   0.415   2.769   0.246
 4472SOL     OW14314   1.447   4.426   2.803
 4472SOL    HW114315   1.440   4.392   2.896
 4472SOL    HW214316   1.457   4.349   2.740
 4473SOL     OW14317   0.214   0.415   4.836
 4473SOL    HW114318   0.266   0.406   4.920
 4473SOL    HW214319   0.252   0.355   4.766
 4474SOL     OW14320   3.494   0.488   2.830
 4474SOL    HW114321   3.509   0.553   2.755
 4474SOL    HW214322   3.580   0.476   2.880
 4475SOL     OW14323   1.541   3.872   1.621
 4475SOL    HW114324   1.587   3.925   1.550
 4475SOL    HW214325   1.448   3.851   1.591
 4476SOL     OW14326   5.355   6.605   3.196
 4476SOL    HW114327   5.445   6.600   3.151
 4476SOL    HW214328   5.349   6.533   3.266
 4477SOL     OW14329   1.793   0.231   6.628
 4477SOL    HW114330   1.707   0.186   6.605
 4477SOL    HW214331   1.821   0.292   6.554
 4478SOL     OW14332   2.110   6.409   2.916
 4478SOL    HW114333   2.065   6.351   2.984
 4478SOL    HW214334   2.136   6.496   2.958
 4479SOL     OW14335   1.429   0.689   6.410
 4479SOL    HW114336   1.398   0.594   6.408
 4479SOL    HW214337   1.434   0.721   6.504
 4480SOL     OW14338   2.176   3.348   4.507
 4480SOL    HW114339   2.131   3.367   4.595
 4480SOL    HW214340   2.140   3.411   4.438
 4481SOL     OW14341   2.006   6.555   4.412
 4481SOL    HW114342   2.083   6.602   4.456
 4481SOL    HW214343   1.955   6.504   4.481
 4482SOL     OW14344   0.760   3.733   3.850
 4482SOL    HW114345   0.834   3.770   3.906
 4482SOL    HW214346   0.799   3.689   3.769
 4483SOL     OW14347   6.522   2.614   1.437
 4483SOL    HW114348   6.457   2.540   1.422
 4483SOL    HW214349   6.574   2.630   1.353
 4484SOL     OW14350   3.655   1.711   5.304
 4484SOL    HW114351   3.694   1.803   5.309
 4484SOL    HW214352   3.696   1.662   5.227
 4485SOL     OW14353   5.074   2.367   6.562
 4485SOL    HW114354   5.089   2.457   6.520
 4485SOL    HW214355   5.037   2.379   6.654
 4486SOL     OW14356   6.462   4.107   4.939
 4486SOL    HW114357   6.423   4.134   4.851
 4486SOL    HW214358   6.494   4.012   4.933
 4487SOL     OW14359   2.513   3.587   6.865
 4487SOL    HW114360   2.594   3.635   6.832
 4487SOL    HW214361   2.525   3.488   6.851
 4488SOL     OW14362   5.250   2.543   6.717
 4488SOL    HW114363   5.302   2.467   6.755
 4488SOL    HW214364   5.219   2.603   6.791
 4489SOL     OW14365   5.473   6.217   4.148
 4489SOL    HW114366   5.489   6.237   4.051
 4489SOL    HW214367   5.425   6.130   4.157
 4490SOL     OW14368   5.507   1.995   1.675
 4490SOL    HW114369   5.457   2.013   1.760
 4490SOL    HW214370   5.599   2.033   1.682
 4491SOL     OW14371   0.777   3.023   3.207
 4491SOL    HW114372   0.717   3.093   3.245
 4491SOL    HW214373   0.853   3.006   3.271
 4492SOL     OW14374   5.232   2.864   0.676
 4492SOL    HW114375   5.310   2.926   0.672
 4492SOL    HW214376   5.264   2.772   0.700
 4493SOL     OW14377   3.916   4.915   4.208
 4493SOL    HW114378   3.838   4.972   4.236
 4493SOL    HW214379   3.942   4.855   4.284
 4494SOL     OW14380   6.995   2.505   6.136
 4494SOL    HW114381   7.009   2.466   6.227
 4494SOL    HW214382   0.044   2.566   6.114
 4495SOL     OW14383   5.385   6.952   3.499
 4495SOL    HW114384   5.369   6.916   3.591
 4495SOL    HW214385   5.329   6.902   3.433
 4496SOL     OW14386   5.406   5.049   0.600
 4496SOL    HW114387   5.457   4.990   0.663
 4496SOL    HW214388   5.411   5.143   0.632
 4497SOL     OW14389   5.186   6.362   6.837
 4497SOL    HW114390   5.249   6.381   6.762
 4497SOL    HW214391   5.225   6.289   6.895
 4498SOL     OW14392   0.432   3.437   6.512
 4498SOL    HW114393   0.497   3.481   6.573
 4498SOL    HW214394   0.339   3.449   6.549
 4499SOL     OW14395   6.689   3.196   4.242
 4499SOL    HW114396   6.605   3.245   4.263
 4499SOL    HW214397   6.684   3.161   4.148
 4500SOL     OW14398   2.983   3.831   4.034
 4500SOL    HW114399   3.012   3.736   4.031
 4500SOL    HW214400   2.954   3.861   3.943
 4501SOL     OW14401   0.782   3.740   5.576
 4501SOL    HW114402   0.803   3.707   5.668
 4501SOL    HW214403   0.723   3.674   5.529
 4502SOL     OW14404   2.189   2.506   6.103
 4502SOL    HW114405   2.188   2.407   6.119
 4502SOL    HW214406   2.101   2.535   6.066
 4503SOL     OW14407   2.163   0.354   3.063
 4503SOL    HW114408   2.085   0.330   3.004
 4503SOL    HW214409   2.129   0.389   3.150
 4504SOL     OW14410   6.514   2.362   5.397
 4504SOL    HW114411   6.419   2.349   5.370
 4504SOL    HW214412   6.537   2.459   5.392
 4505SOL     OW14413   0.252   6.210   4.789
 4505SOL    HW114414   0.293   6.119   4.802
 4505SOL    HW214415   0.189   6.229   4.864
 4506SOL     OW14416   4.253   2.305   4.599
 4506SOL    HW114417   4.270   2.325   4.503
 4506SOL    HW214418   4.198   2.221   4.607
 4507SOL     OW14419   4.948   4.455   1.710
 4507SOL    HW114420   4.886   4.396   1.761
 4507SOL    HW214421   4.896   4.519   1.654
 4508SOL     OW14422   1.379   4.268   6.751
 4508SOL    HW114423   1.476   4.288   6.764
 4508SOL    HW214424   1.369   4.184   6.697
 4509SOL     OW14425   4.508   1.648   4.256
 4509SOL    HW114426   4.571   1.704   4.311
 4509SOL    HW214427   4.500   1.687   4.164
 4510SOL     OW14428   5.523   0.309   4.794
 4510SOL    HW114429   5.485   0.400   4.811
 4510SOL    HW214430   5.580   0.282   4.872
 4511SOL     OW14431   0.114   3.228   6.494
 4511SOL    HW114432   0.085   3.167   6.421
 4511SOL    HW214433   0.042   3.295   6.512
 4512SOL     OW14434   2.408   6.780   5.904
 4512SOL    HW114435   2.386   6.766   5.808
 4512SOL    HW214436   2.497   6.824   5.912
 4513SOL     OW14437   4.702   6.755   1.072
 4513SOL    HW114438   4.662   6.818   1.138
 4513SOL    HW214439   4.715   6.802   0.984
 4514SOL     OW14440   3.952   0.847   4.644
 4514SOL    HW114441   4.021   0.905   4.601
 4514SOL    HW214442   3.896   0.903   4.706
 4515SOL     OW14443   6.422   4.066   6.884
 4515SOL    HW114444   6.366   4.036   6.807
 4515SOL    HW214445   6.379   4.144   6.929
 4516SOL     OW14446   1.307   1.286   6.193
 4516SOL    HW114447   1.292   1.315   6.288
 4516SOL    HW214448   1.277   1.359   6.131
 4517SOL     OW14449   2.618   0.158   5.795
 4517SOL    HW114450   2.561   0.230   5.836
 4517SOL    HW214451   2.574   0.124   5.712
 4518SOL     OW14452   0.052   2.080   3.798
 4518SOL    HW114453   7.003   2.029   3.838
 4518SOL    HW214454   0.035   2.095   3.700
 4519SOL     OW14455   6.968   1.426   2.264
 4519SOL    HW114456   6.886   1.450   2.317
 4519SOL    HW214457   0.019   1.483   2.294
 4520SOL     OW14458   5.373   5.050   2.748
 4520SOL    HW114459   5.297   5.106   2.715
 4520SOL    HW214460   5.358   5.026   2.844
 4521SOL     OW14461   4.699   1.559   5.835
 4521SOL    HW114462   4.614   1.612   5.837
 4521SOL    HW214463   4.771   1.613   5.791
 4522SOL     OW14464   5.081   0.059   3.736
 4522SOL    HW114465   5.088   0.150   3.776
 4522SOL    HW214466   4.985   0.037   3.718
 4523SOL     OW14467   1.579   4.061   0.023
 4523SOL    HW114468   1.568   4.065   6.950
 4523SOL    HW214469   1.489   4.071   0.067
 4524SOL     OW14470   4.982   2.063   5.552
 4524SOL    HW114471   5.048   2.137   5.565
 4524SOL    HW214472   5.001   1.989   5.616
 4525SOL     OW14473   6.703   1.824   3.887
 4525SOL    HW114474   6.731   1.758   3.818
 4525SOL    HW214475   6.671   1.908   3.842
 4526SOL     OW14476   5.208   0.341   1.471
 4526SOL    HW114477   5.209   0.242   1.461
 4526SOL    HW214478   5.129   0.368   1.526
 4527SOL     OW14479   4.528   1.044   3.853
 4527SOL    HW114480   4.482   0.959   3.877
 4527SOL    HW214481   4.512   1.065   3.757
 4528SOL     OW14482   4.906   6.368   0.170
 4528SOL    HW114483   4.868   6.460   0.164
 4528SOL    HW214484   4.926   6.334   0.077
 4529SOL     OW14485   2.697   1.166   3.508
 4529SOL    HW114486   2.629   1.094   3.499
 4529SOL    HW214487   2.652   1.252   3.533
 4530SOL     OW14488   0.546   3.671   5.896
 4530SOL    HW114489   0.493   3.628   5.969
 4530SOL    HW214490   0.527   3.623   5.809
 4531SOL     OW14491   0.944   3.979   3.360
 4531SOL    HW114492   0.870   4.042   3.334
 4531SOL    HW214493   0.911   3.885   3.353
 4532SOL     OW14494   0.251   1.588   2.036
 4532SOL    HW114495   0.182   1.631   2.094
 4532SOL    HW214496   0.208   1.518   1.979
 4533SOL     OW14497   1.499   0.408   3.697
 4533SOL    HW114498   1.498   0.497   3.743
 4533SOL    HW214499   1.526   0.337   3.763
 4534SOL     OW14500   6.299   3.627   4.731
 4534SOL    HW114501   6.229   3.610   4.800
 4534SOL    HW214502   6.254   3.646   4.643
 4535SOL     OW14503   4.591   2.137   2.562
 4535SOL    HW114504   4.546   2.158   2.649
 4535SOL    HW214505   4.557   2.049   2.528
 4536SOL     OW14506   4.928   1.585   4.539
 4536SOL    HW114507   4.998   1.520   4.511
 4536SOL    HW214508   4.946   1.674   4.496
 4537SOL     OW14509   3.545   3.267   6.517
 4537SOL    HW114510   3.484   3.325   6.571
 4537SOL    HW214511   3.538   3.292   6.420
 4538SOL     OW14512   3.477   1.961   4.216
 4538SOL    HW114513   3.476   1.870   4.257
 4538SOL    HW214514   3.567   2.003   4.229
 4539SOL     OW14515   2.686   2.017   3.946
 4539SOL    HW114516   2.664   2.021   4.043
 4539SOL    HW214517   2.782   2.041   3.933
 4540SOL     OW14518   4.009   3.718   3.539
 4540SOL    HW114519   3.933   3.709   3.475
 4540SOL    HW214520   3.999   3.651   3.612
 4541SOL     OW14521   5.679   0.627   0.344
 4541SOL    HW114522   5.620   0.575   0.283
 4541SOL    HW214523   5.650   0.723   0.344
 4542SOL     OW14524   6.070   6.050   1.904
 4542SOL    HW114525   5.994   6.025   1.844
 4542SOL    HW214526   6.051   6.020   1.997
 4543SOL     OW14527   4.575   1.426   6.814
 4543SOL    HW114528   4.548   1.522   6.813
 4543SOL    HW214529   4.635   1.408   6.736
 4544SOL     OW14530   2.453   6.168   6.226
 4544SOL    HW114531   2.449   6.154   6.127
 4544SOL    HW214532   2.477   6.263   6.245
 4545SOL     OW14533   4.952   2.294   5.375
 4545SOL    HW114534   4.962   2.372   5.437
 4545SOL    HW214535   4.890   2.227   5.416
 4546SOL     OW14536   0.814   0.001   6.215
 4546SOL    HW114537   0.902   0.026   6.254
 4546SOL    HW214538   0.815   6.931   6.187
 4547SOL     OW14539   6.137   3.149   1.937
 4547SOL    HW114540   6.094   3.079   1.993
 4547SOL    HW214541   6.235   3.155   1.960
 4548SOL     OW14542   1.429   4.727   4.246
 4548SOL    HW114543   1.373   4.806   4.268
 4548SOL    HW214544   1.525   4.749   4.260
 4549SOL     OW14545   6.576   4.078   2.876
 4549SOL    HW114546   6.635   4.037   2.945
 4549SOL    HW214547   6.517   4.146   2.920
 4550SOL     OW14548   0.591   5.925   3.823
 4550SOL    HW114549   0.542   6.012   3.823
 4550SOL    HW214550   0.531   5.853   3.858
 4551SOL     OW14551   0.293   1.613   5.543
 4551SOL    HW114552   0.224   1.570   5.601
 4551SOL    HW214553   0.279   1.712   5.542
 4552SOL     OW14554   7.018   3.044   6.286
 4552SOL    HW114555   6.995   2.984   6.363
 4552SOL    HW214556   6.935   3.083   6.247
 4553SOL     OW14557   3.922   4.492   6.914
 4553SOL    HW114558   3.864   4.421   6.953
 4553SOL    HW214559   3.964   4.545   6.988
 4554SOL     OW14560   3.990   1.068   2.428
 4554SOL    HW114561   3.978   0.995   2.360
 4554SOL    HW214562   3.904   1.083   2.476
 4555SOL     OW14563   4.224   1.305   6.616
 4555SOL    HW114564   4.197   1.401   6.624
 4555SOL    HW214565   4.264   1.274   6.703
 4556SOL     OW14566   4.249   1.147   3.889
 4556SOL    HW114567   4.245   1.219   3.958
 4556SOL    HW214568   4.339   1.104   3.890
 4557SOL     OW14569   5.361   0.319   4.529
 4557SOL    HW114570   5.428   0.309   4.602
 4557SOL    HW214571   5.280   0.365   4.565
 4558SOL     OW14572   6.505   3.845   6.339
 4558SOL    HW114573   6.571   3.843   6.415
 4558SOL    HW214574   6.465   3.936   6.332
 4559SOL     OW14575   1.559   6.883   1.984
 4559SOL    HW114576   1.656   6.890   2.007
 4559SOL    HW214577   1.505   6.935   2.051
 4560SOL     OW14578   4.993   4.372   3.148
 4560SOL    HW114579   4.924   4.304   3.172
 4560SOL    HW214580   5.030   4.413   3.232
 4561SOL     OW14581   2.754   0.550   1.134
 4561SOL    HW114582   2.662   0.563   1.171
 4561SOL    HW214583   2.821   0.587   1.198
 4562SOL     OW14584   2.781   5.696   5.127
 4562SOL    HW114585   2.685   5.680   5.149
 4562SOL    HW214586   2.801   5.794   5.136
 4563SOL     OW14587   5.847   3.851   0.568
 4563SOL    HW114588   5.888   3.840   0.477
 4563SOL    HW214589   5.751   3.876   0.558
 4564SOL     OW14590   1.315   5.450   0.866
 4564SOL    HW114591   1.278   5.376   0.922
 4564SOL    HW214592   1.360   5.518   0.924
 4565SOL     OW14593   0.487   1.133   5.380
 4565SOL    HW114594   0.573   1.165   5.419
 4565SOL    HW214595   0.427   1.212   5.363
 4566SOL     OW14596   6.777   0.592   0.401
 4566SOL    HW114597   6.861   0.538   0.405
 4566SOL    HW214598   6.797   0.682   0.364
 4567SOL     OW14599   0.417   0.958   0.833
 4567SOL    HW114600   0.370   0.886   0.884
 4567SOL    HW214601   0.405   0.942   0.735
 4568SOL     OW14602   1.789   3.850   5.269
 4568SOL    HW114603   1.851   3.786   5.224
 4568SOL    HW214604   1.771   3.927   5.209
 4569SOL     OW14605   1.757   2.167   3.709
 4569SOL    HW114606   1.788   2.226   3.784
 4569SOL    HW214607   1.659   2.150   3.719
 4570SOL     OW14608   6.993   6.036   3.330
 4570SOL    HW114609   6.906   6.081   3.309
 4570SOL    HW214610   6.992   5.943   3.293
 4571SOL     OW14611   3.665   3.916   5.197
 4571SOL    HW114612   3.742   3.854   5.206
 4571SOL    HW214613   3.580   3.865   5.198
 4572SOL     OW14614   0.364   7.013   0.875
 4572SOL    HW114615   0.332   6.957   0.798
 4572SOL    HW214616   0.463   7.025   0.868
 4573SOL     OW14617   6.227   5.661   1.071
 4573SOL    HW114618   6.239   5.728   1.145
 4573SOL    HW214619   6.134   5.626   1.073
 4574SOL     OW14620   6.936   4.508   0.958
 4574SOL    HW114621   6.971   4.469   0.873
 4574SOL    HW214622   6.892   4.596   0.939
 4575SOL     OW14623   0.161   1.976   0.599
 4575SOL    HW114624   0.230   1.972   0.670
 4575SOL    HW214625   0.200   2.019   0.517
 4576SOL     OW14626   2.806   5.570   5.953
 4576SOL    HW114627   2.712   5.600   5.969
 4576SOL    HW214628   2.861   5.586   6.034
 4577SOL     OW14629   0.127   3.424   2.839
 4577SOL    HW114630   0.110   3.331   2.873
 4577SOL    HW214631   0.223   3.447   2.852
 4578SOL     OW14632   0.694   4.199   3.611
 4578SOL    HW114633   0.676   4.101   3.614
 4578SOL    HW214634   0.775   4.220   3.665
 4579SOL     OW14635   4.412   1.573   3.159
 4579SOL    HW114636   4.511   1.581   3.172
 4579SOL    HW214637   4.392   1.490   3.107
 4580SOL     OW14638   6.128   4.736   0.579
 4580SOL    HW114639   6.099   4.784   0.662
 4580SOL    HW214640   6.226   4.753   0.563
 4581SOL     OW14641   2.931   4.998   2.358
 4581SOL    HW114642   2.885   5.004   2.270
 4581SOL    HW214643   2.912   4.909   2.400
 4582SOL     OW14644   5.843   6.455   4.315
 4582SOL    HW114645   5.778   6.514   4.363
 4582SOL    HW214646   5.934   6.467   4.355
 4583SOL     OW14647   3.024   1.801   4.985
 4583SOL    HW114648   3.026   1.713   4.938
 4583SOL    HW214649   3.071   1.793   5.073
 4584SOL     OW14650   0.356   5.868   6.378
 4584SOL    HW114651   0.426   5.798   6.361
 4584SOL    HW214652   0.274   5.847   6.324
 4585SOL     OW14653   2.765   6.364   3.028
 4585SOL    HW114654   2.710   6.445   3.050
 4585SOL    HW214655   2.705   6.286   3.014
 4586SOL     OW14656   3.576   5.084   1.272
 4586SOL    HW114657   3.558   4.986   1.258
 4586SOL    HW214658   3.621   5.121   1.191
 4587SOL     OW14659   4.295   3.824   1.692
 4587SOL    HW114660   4.225   3.792   1.756
 4587SOL    HW214661   4.327   3.746   1.637
 4588SOL     OW14662   3.644   3.303   5.246
 4588SOL    HW114663   3.626   3.249   5.164
 4588SOL    HW214664   3.609   3.254   5.326
 4589SOL     OW14665   5.899   2.059   2.712
 4589SOL    HW114666   5.925   2.099   2.799
 4589SOL    HW214667   5.937   2.113   2.637
 4590SOL     OW14668   4.269   5.932   1.596
 4590SOL    HW114669   4.208   5.853   1.592
 4590SOL    HW214670   4.221   6.013   1.561
 4591SOL     OW14671   6.607   6.016   5.421
 4591SOL    HW114672   6.568   6.077   5.490
 4591SOL    HW214673   6.544   5.940   5.406
 4592SOL     OW14674   3.918   3.093   1.648
 4592SOL    HW114675   4.007   3.058   1.618
 4592SOL    HW214676   3.846   3.031   1.618
 4593SOL     OW14677   4.471   5.538   3.200
 4593SOL    HW114678   4.427   5.569   3.284
 4593SOL    HW214679   4.466   5.610   3.130
 4594SOL     OW14680   4.405   1.490   1.621
 4594SOL    HW114681   4.355   1.406   1.645
 4594SOL    HW214682   4.403   1.503   1.522
 4595SOL     OW14683   3.635   2.825   6.155
 4595SOL    HW114684   3.583   2.741   6.139
 4595SOL    HW214685   3.721   2.822   6.104
 4596SOL     OW14686   6.057   6.575   1.808
 4596SOL    HW114687   6.037   6.658   1.860
 4596SOL    HW214688   6.062   6.497   1.870
 4597SOL     OW14689   5.003   4.943   6.527
 4597SOL    HW114690   5.004   5.043   6.518
 4597SOL    HW214691   5.048   4.916   6.612
 4598SOL     OW14692   0.995   4.963   6.526
 4598SOL    HW114693   1.076   4.977   6.583
 4598SOL    HW214694   0.991   4.868   6.496
 4599SOL     OW14695   1.229   3.842   1.499
 4599SOL    HW114696   1.260   3.747   1.505
 4599SOL    HW214697   1.130   3.846   1.508
 4600SOL     OW14698   2.902   5.090   6.156
 4600SOL    HW114699   2.802   5.092   6.159
 4600SOL    HW214700   2.935   5.158   6.090
 4601SOL     OW14701   1.909   1.201   5.508
 4601SOL    HW114702   1.957   1.184   5.422
 4601SOL    HW214703   1.817   1.234   5.488
 4602SOL     OW14704   1.296   6.606   1.205
 4602SOL    HW114705   1.369   6.551   1.245
 4602SOL    HW214706   1.208   6.564   1.226
 4603SOL     OW14707   3.907   6.446   1.123
 4603SOL    HW114708   3.842   6.375   1.097
 4603SOL    HW214709   3.902   6.462   1.221
 4604SOL     OW14710   4.054   1.079   1.013
 4604SOL    HW114711   4.108   1.084   1.098
 4604SOL    HW214712   3.957   1.095   1.034
 4605SOL     OW14713   4.976   0.710   3.984
 4605SOL    HW114714   5.035   0.788   3.963
 4605SOL    HW214715   5.031   0.633   4.016
 4606SOL     OW14716   6.844   6.558   2.420
 4606SOL    HW114717   6.942   6.550   2.435
 4606SOL    HW214718   6.801   6.469   2.432
 4607SOL     OW14719   2.307   1.868   0.687
 4607SOL    HW114720   2.321   1.936   0.760
 4607SOL    HW214721   2.246   1.905   0.618
 4608SOL     OW14722   1.323   5.315   5.024
 4608SOL    HW114723   1.254   5.382   5.051
 4608SOL    HW214724   1.277   5.230   4.997
 4609SOL     OW14725   4.439   5.220   6.273
 4609SOL    HW114726   4.391   5.155   6.213
 4609SOL    HW214727   4.373   5.286   6.308
 4610SOL     OW14728   6.967   2.822   0.295
 4610SOL    HW114729   6.883   2.820   0.242
 4610SOL    HW214730   0.019   2.836   0.234
 4611SOL     OW14731   6.625   4.156   6.459
 4611SOL    HW114732   6.645   4.129   6.553
 4611SOL    HW214733   6.526   4.156   6.444
 4612SOL     OW14734   1.668   6.343   6.640
 4612SOL    HW114735   1.740   6.397   6.684
 4612SOL    HW214736   1.691   6.246   6.643
 4613SOL     OW14737   2.243   5.974   2.719
 4613SOL    HW114738   2.327   5.920   2.726
 4613SOL    HW214739   2.174   5.924   2.667
 4614SOL     OW14740   1.765   4.929   6.208
 4614SOL    HW114741   1.696   4.982   6.257
 4614SOL    HW214742   1.780   4.842   6.255
 4615SOL     OW14743   1.951   1.573   0.086
 4615SOL    HW114744   1.852   1.560   0.085
 4615SOL    HW214745   1.981   1.615   0.000
 4616SOL     OW14746   6.990   0.740   6.455
 4616SOL    HW114747   6.923   0.759   6.383
 4616SOL    HW214748   0.039   0.686   6.417
 4617SOL     OW14749   1.026   2.695   2.283
 4617SOL    HW114750   1.110   2.644   2.302
 4617SOL    HW214751   0.949   2.649   2.329
 4618SOL     OW14752   1.475   2.695   5.141
 4618SOL    HW114753   1.413   2.618   5.153
 4618SOL    HW214754   1.512   2.694   5.049
 4619SOL     OW14755   4.767   6.775   3.650
 4619SOL    HW114756   4.728   6.773   3.558
 4619SOL    HW214757   4.721   6.708   3.708
 4620SOL     OW14758   3.387   3.785   6.725
 4620SOL    HW114759   3.300   3.821   6.757
 4620SOL    HW214760   3.454   3.859   6.720
 4621SOL     OW14761   6.362   2.259   4.257
 4621SOL    HW114762   6.362   2.237   4.354
 4621SOL    HW214763   6.311   2.344   4.243
 4622SOL     OW14764   0.932   2.902   1.058
 4622SOL    HW114765   1.030   2.902   1.078
 4622SOL    HW214766   0.893   2.814   1.086
 4623SOL     OW14767   6.955   5.293   0.679
 4623SOL    HW114768   0.007   5.318   0.735
 4623SOL    HW214769   6.982   5.224   0.612
 4624SOL     OW14770   4.649   0.435   3.983
 4624SOL    HW114771   4.663   0.336   3.976
 4624SOL    HW214772   4.639   0.460   4.079
 4625SOL     OW14773   1.415   4.475   6.937
 4625SOL    HW114774   1.409   4.416   6.856
 4625SOL    HW214775   1.380   4.426   7.017
 4626SOL     OW14776   5.990   4.932   1.684
 4626SOL    HW114777   5.956   5.012   1.734
 4626SOL    HW214778   5.917   4.865   1.673
 4627SOL     OW14779   3.294   5.739   5.379
 4627SOL    HW114780   3.210   5.702   5.418
 4627SOL    HW214781   3.333   5.673   5.315
 4628SOL     OW14782   6.058   4.082   3.215
 4628SOL    HW114783   6.091   4.147   3.284
 4628SOL    HW214784   5.994   4.018   3.259
 4629SOL     OW14785   2.140   4.935   5.981
 4629SOL    HW114786   2.086   4.851   5.978
 4629SOL    HW214787   2.080   5.014   5.986
 4630SOL     OW14788   3.381   5.792   3.567
 4630SOL    HW114789   3.353   5.720   3.504
 4630SOL    HW214790   3.319   5.870   3.559
 4631SOL     OW14791   2.894   0.239   3.799
 4631SOL    HW114792   2.976   0.237   3.742
 4631SOL    HW214793   2.917   0.277   3.889
 4632SOL     OW14794   4.253   5.281   2.810
 4632SOL    HW114795   4.250   5.207   2.743
 4632SOL    HW214796   4.166   5.284   2.860
 4633SOL     OW14797   6.725   1.915   4.436
 4633SOL    HW114798   6.702   2.004   4.397
 4633SOL    HW214799   6.692   1.842   4.376
 4634SOL     OW14800   2.663   4.429   6.579
 4634SOL    HW114801   2.717   4.391   6.654
 4634SOL    HW214802   2.700   4.395   6.492
 4635SOL     OW14803   6.035   3.336   2.330
 4635SOL    HW114804   6.064   3.240   2.328
 4635SOL    HW214805   6.058   3.379   2.243
 4636SOL     OW14806   2.890   4.583   6.859
 4636SOL    HW114807   2.975   4.610   6.903
 4636SOL    HW214808   2.813   4.607   6.919
 4637SOL     OW14809   1.375   0.798   6.649
 4637SOL    HW114810   1.407   0.889   6.674
 4637SOL    HW214811   1.275   0.793   6.658
 4638SOL     OW14812   3.978   2.571   6.384
 4638SOL    HW114813   3.983   2.639   6.458
 4638SOL    HW214814   3.985   2.618   6.296
 4639SOL     OW14815   1.569   4.436   5.561
 4639SOL    HW114816   1.591   4.443   5.658
 4639SOL    HW214817   1.485   4.486   5.541
 4640SOL     OW14818   4.844   5.232   3.793
 4640SOL    HW114819   4.879   5.299   3.859
 4640SOL    HW214820   4.878   5.254   3.702
 4641SOL     OW14821   2.684   5.280   4.145
 4641SOL    HW114822   2.623   5.280   4.224
 4641SOL    HW214823   2.778   5.264   4.175
 4642SOL     OW14824   6.318   6.306   5.363
 4642SOL    HW114825   6.328   6.371   5.287
 4642SOL    HW214826   6.274   6.223   5.330
 4643SOL     OW14827   4.531   2.525   0.614
 4643SOL    HW114828   4.559   2.552   0.705
 4643SOL    HW214829   4.434   2.548   0.600
 4644SOL     OW14830   1.641   5.163   5.396
 4644SOL    HW114831   1.575   5.096   5.429
 4644SOL    HW214832   1.611   5.199   5.307
 4645SOL     OW14833   1.807   0.108   4.543
 4645SOL    HW114834   1.805   0.202   4.577
 4645SOL    HW214835   1.724   0.089   4.492
 4646SOL     OW14836   2.687   6.507   2.397
 4646SOL    HW114837   2.703   6.457   2.482
 4646SOL    HW214838   2.632   6.450   2.335
 4647SOL     OW14839   0.922   6.685   3.197
 4647SOL    HW114840   0.851   6.720   3.259
 4647SOL    HW214841   0.884   6.612   3.141
 4648SOL     OW14842   3.669   6.912   1.405
 4648SOL    HW114843   3.757   6.959   1.404
 4648SOL    HW214844   3.680   6.819   1.369
 4649SOL     OW14845   5.011   0.469   5.543
 4649SOL    HW114846   5.093   0.415   5.524
 4649SOL    HW214847   4.986   0.458   5.640
 4650SOL     OW14848   3.564   5.889   2.996
 4650SOL    HW114849   3.537   5.910   2.902
 4650SOL    HW214850   3.500   5.932   3.060
 4651SOL     OW14851   0.288   2.182   1.830
 4651SOL    HW114852   0.252   2.185   1.923
 4651SOL    HW214853   0.224   2.226   1.768
 4652SOL     OW14854   0.678   0.185   3.534
 4652SOL    HW114855   0.751   0.254   3.530
 4652SOL    HW214856   0.610   0.212   3.602
 4653SOL     OW14857   6.833   5.477   0.052
 4653SOL    HW114858   6.813   5.452   0.147
 4653SOL    HW214859   6.787   5.562   0.029
 4654SOL     OW14860   0.679   0.129   0.154
 4654SOL    HW114861   0.742   0.187   0.205
 4654SOL    HW214862   0.730   0.065   0.097
 4655SOL     OW14863   0.101   4.605   2.317
 4655SOL    HW114864   0.002   4.615   2.313
 4655SOL    HW214865   0.131   4.540   2.247
 4656SOL     OW14866   0.750   0.013   2.797
 4656SOL    HW114867   0.774   0.075   2.723
 4656SOL    HW214868   0.806   0.034   2.878
 4657SOL     OW14869   5.248   6.895   1.975
 4657SOL    HW114870   5.235   6.979   1.923
 4657SOL    HW214871   5.338   6.897   2.020
 4658SOL     OW14872   3.500   0.226   2.581
 4658SOL    HW114873   3.543   0.280   2.654
 4658SOL    HW214874   3.470   0.287   2.508
 4659SOL     OW14875   2.034   3.669   5.226
 4659SOL    HW114876   2.101   3.739   5.249
 4659SOL    HW214877   2.080   3.582   5.209
 4660SOL     OW14878   1.299   2.510   4.636
 4660SOL    HW114879   1.328   2.606   4.634
 4660SOL    HW214880   1.379   2.452   4.649
 4661SOL     OW14881   3.971   3.800   4.772
 4661SOL    HW114882   3.974   3.792   4.673
 4661SOL    HW214883   3.880   3.778   4.805
 4662SOL     OW14884   5.072   0.499   5.112
 4662SOL    HW114885   5.046   0.543   5.198
 4662SOL    HW214886   5.159   0.451   5.125
 4663SOL     OW14887   6.725   1.336   2.759
 4663SOL    HW114888   6.718   1.362   2.855
 4663SOL    HW214889   6.656   1.385   2.705
 4664SOL     OW14890   2.199   2.431   6.633
 4664SOL    HW114891   2.249   2.401   6.714
 4664SOL    HW214892   2.209   2.530   6.622
 4665SOL     OW14893   4.777   6.884   6.895
 4665SOL    HW114894   4.720   6.966   6.901
 4665SOL    HW214895   4.849   6.889   6.964
 4666SOL     OW14896   2.351   1.061   6.978
 4666SOL    HW114897   2.258   1.094   6.994
 4666SOL    HW214898   2.395   1.042   0.039
 4667SOL     OW14899   6.679   4.841   0.066
 4667SOL    HW114900   6.693   4.792   7.006
 4667SOL    HW214901   6.589   4.885   0.065
 4668SOL     OW14902   0.295   1.857   4.406
 4668SOL    HW114903   0.210   1.892   4.367
 4668SOL    HW214904   0.278   1.767   4.447
 4669SOL     OW14905   3.270   6.508   0.799
 4669SOL    HW114906   3.210   6.534   0.724
 4669SOL    HW214907   3.227   6.436   0.853
 4670SOL     OW14908   3.391   1.287   4.955
 4670SOL    HW114909   3.465   1.238   4.909
 4670SOL    HW214910   3.334   1.334   4.887
 4671SOL     OW14911   6.096   3.484   1.719
 4671SOL    HW114912   6.041   3.425   1.778
 4671SOL    HW214913   6.073   3.579   1.738
 4672SOL     OW14914   2.948   4.824   6.192
 4672SOL    HW114915   2.970   4.915   6.156
 4672SOL    HW214916   2.898   4.833   6.278
 4673SOL     OW14917   3.754   0.230   1.259
 4673SOL    HW114918   3.833   0.287   1.284
 4673SOL    HW214919   3.782   0.163   1.191
 4674SOL     OW14920   5.414   6.135   6.433
 4674SOL    HW114921   5.383   6.211   6.375
 4674SOL    HW214922   5.489   6.087   6.387
 4675SOL     OW14923   0.570   3.694   0.816
 4675SOL    HW114924   0.593   3.685   0.719
 4675SOL    HW214925   0.480   3.654   0.833
 4676SOL     OW14926   0.881   5.465   3.855
 4676SOL    HW114927   0.798   5.504   3.816
 4676SOL    HW214928   0.867   5.368   3.873
 4677SOL     OW14929   1.745   1.802   0.579
 4677SOL    HW114930   1.824   1.845   0.622
 4677SOL    HW214931   1.775   1.727   0.520
 4678SOL     OW14932   2.480   4.433   2.990
 4678SOL    HW114933   2.451   4.361   2.927
 4678SOL    HW214934   2.531   4.502   2.940
 4679SOL     OW14935   4.544   0.048   2.109
 4679SOL    HW114936   4.465   0.043   2.171
 4679SOL    HW214937   4.622   0.002   2.151
 4680SOL     OW14938   4.079   1.572   1.105
 4680SOL    HW114939   4.135   1.565   1.022
 4680SOL    HW214940   3.995   1.520   1.094
 4681SOL     OW14941   4.436   4.952   0.084
 4681SOL    HW114942   4.433   4.876   0.019
 4681SOL    HW214943   4.529   4.991   0.085
 4682SOL     OW14944   5.615   3.078   6.090
 4682SOL    HW114945   5.694   3.023   6.115
 4682SOL    HW214946   5.637   3.175   6.102
 4683SOL     OW14947   5.853   5.396   2.862
 4683SOL    HW114948   5.863   5.327   2.791
 4683SOL    HW214949   5.838   5.486   2.819
 4684SOL     OW14950   4.524   5.808   5.915
 4684SOL    HW114951   4.591   5.882   5.913
 4684SOL    HW214952   4.432   5.845   5.901
 4685SOL     OW14953   2.073   4.057   6.155
 4685SOL    HW114954   2.011   4.093   6.224
 4685SOL    HW214955   2.136   4.130   6.126
 4686SOL     OW14956   4.036   5.599   0.248
 4686SOL    HW114957   4.107   5.529   0.254
 4686SOL    HW214958   4.073   5.687   0.277
 4687SOL     OW14959   4.225   1.846   3.924
 4687SOL    HW114960   4.159   1.776   3.900
 4687SOL    HW214961   4.247   1.841   4.021
 4688SOL     OW14962   5.780   2.489   5.582
 4688SOL    HW114963   5.868   2.443   5.588
 4688SOL    HW214964   5.793   2.583   5.552
 4689SOL     OW14965   5.724   0.363   1.103
 4689SOL    HW114966   5.818   0.336   1.124
 4689SOL    HW214967   5.697   0.324   1.015
 4690SOL     OW14968   1.850   1.014   0.643
 4690SOL    HW114969   1.776   1.030   0.709
 4690SOL    HW214970   1.929   0.976   0.691
 4691SOL     OW14971   4.413   3.857   0.146
 4691SOL    HW114972   4.391   3.821   0.056
 4691SOL    HW214973   4.423   3.781   0.211
 4692SOL     OW14974   6.089   4.694   3.268
 4692SOL    HW114975   6.123   4.649   3.185
 4692SOL    HW214976   6.135   4.782   3.279
 4693SOL     OW14977   1.301   1.002   3.757
 4693SOL    HW114978   1.232   1.011   3.829
 4693SOL    HW214979   1.391   1.024   3.794
 4694SOL     OW14980   2.250   2.354   0.510
 4694SOL    HW114981   2.349   2.364   0.518
 4694SOL    HW214982   2.205   2.442   0.525
 4695SOL     OW14983   1.774   6.024   0.746
 4695SOL    HW114984   1.793   5.964   0.824
 4695SOL    HW214985   1.791   5.975   0.661
 4696SOL     OW14986   0.210   5.577   6.617
 4696SOL    HW114987   0.304   5.609   6.631
 4696SOL    HW214988   0.210   5.494   6.561
 4697SOL     OW14989   1.203   3.510   2.004
 4697SOL    HW114990   1.249   3.528   1.917
 4697SOL    HW214991   1.272   3.498   2.076
 4698SOL     OW14992   3.658   6.883   3.433
 4698SOL    HW114993   3.659   6.784   3.438
 4698SOL    HW214994   3.710   6.914   3.353
 4699SOL     OW14995   0.592   6.568   2.824
 4699SOL    HW114996   0.546   6.530   2.904
 4699SOL    HW214997   0.583   6.667   2.823
 4700SOL     OW14998   6.668   1.718   2.196
 4700SOL    HW114999   6.698   1.708   2.101
 4700SOL    HW215000   6.571   1.697   2.203
 4701SOL     OW15001   3.203   2.204   1.758
 4701SOL    HW115002   3.296   2.234   1.735
 4701SOL    HW215003   3.205   2.158   1.846
 4702SOL     OW15004   4.749   5.076   0.652
 4702SOL    HW115005   4.726   5.082   0.749
 4702SOL    HW215006   4.715   4.990   0.615
 4703SOL     OW15007   1.128   5.419   2.682
 4703SOL    HW115008   1.174   5.483   2.621
 4703SOL    HW215009   1.053   5.374   2.634
 4704SOL     OW15010   0.539   6.270   5.673
 4704SOL    HW115011   0.444   6.283   5.702
 4704SOL    HW215012   0.544   6.193   5.609
 4705SOL     OW15013   3.120   2.343   0.592
 4705SOL    HW115014   3.219   2.328   0.591
 4705SOL    HW215015   3.075   2.268   0.640
 4706SOL     OW15016   1.821   0.382   0.764
 4706SOL    HW115017   1.758   0.313   0.730
 4706SOL    HW215018   1.804   0.469   0.717
 4707SOL     OW15019   1.379   5.867   1.702
 4707SOL    HW115020   1.370   5.860   1.801
 4707SOL    HW215021   1.466   5.912   1.680
 4708SOL     OW15022   0.906   1.974   5.651
 4708SOL    HW115023   0.839   1.957   5.723
 4708SOL    HW215024   0.998   1.953   5.686
 4709SOL     OW15025   4.384   4.935   4.622
 4709SOL    HW115026   4.463   4.904   4.569
 4709SOL    HW215027   4.328   4.996   4.565
 4710SOL     OW15028   6.296   0.298   5.167
 4710SOL    HW115029   6.350   0.335   5.242
 4710SOL    HW215030   6.356   0.249   5.104
 4711SOL     OW15031   6.569   2.565   2.918
 4711SOL    HW115032   6.508   2.643   2.931
 4711SOL    HW215033   6.659   2.586   2.957
 4712SOL     OW15034   4.000   4.469   6.372
 4712SOL    HW115035   3.985   4.378   6.335
 4712SOL    HW215036   3.995   4.466   6.472
 4713SOL     OW15037   5.341   5.705   0.927
 4713SOL    HW115038   5.244   5.702   0.901
 4713SOL    HW215039   5.351   5.681   1.023
 4714SOL     OW15040   0.278   1.865   6.526
 4714SOL    HW115041   0.363   1.816   6.547
 4714SOL    HW215042   0.200   1.804   6.540
 4715SOL     OW15043   5.718   2.379   1.116
 4715SOL    HW115044   5.803   2.341   1.080
 4715SOL    HW215045   5.656   2.400   1.040
 4716SOL     OW15046   4.854   5.586   5.951
 4716SOL    HW115047   4.880   5.605   6.045
 4716SOL    HW215048   4.787   5.512   5.948
 4717SOL     OW15049   2.123   5.207   5.291
 4717SOL    HW115050   2.066   5.141   5.340
 4717SOL    HW215051   2.068   5.286   5.266
 4718SOL     OW15052   5.052   2.976   1.116
 4718SOL    HW115053   5.018   2.883   1.102
 4718SOL    HW215054   5.129   2.975   1.179
 4719SOL     OW15055   5.141   3.801   2.747
 4719SOL    HW115056   5.186   3.719   2.711
 4719SOL    HW215057   5.071   3.773   2.813
 4720SOL     OW15058   2.364   4.413   5.607
 4720SOL    HW115059   2.463   4.418   5.602
 4720SOL    HW215060   2.324   4.495   5.566
 4721SOL     OW15061   5.730   2.578   1.748
 4721SOL    HW115062   5.795   2.654   1.756
 4721SOL    HW215063   5.761   2.515   1.677
 4722SOL     OW15064   1.044   5.616   0.042
 4722SOL    HW115065   1.076   5.586   6.978
 4722SOL    HW215066   0.950   5.650   0.034
 4723SOL     OW15067   3.619   4.102   5.405
 4723SOL    HW115068   3.670   4.046   5.340
 4723SOL    HW215069   3.662   4.192   5.412
 4724SOL     OW15070   0.213   7.013   4.079
 4724SOL    HW115071   0.207   0.029   3.988
 4724SOL    HW215072   0.176   0.049   4.147
 4725SOL     OW15073   6.059   4.725   0.305
 4725SOL    HW115074   6.062   4.737   0.404
 4725SOL    HW215075   6.059   4.815   0.261
 4726SOL     OW15076   1.121   3.043   6.182
 4726SOL    HW115077   1.196   3.100   6.149
 4726SOL    HW215078   1.158   2.959   6.223
 4727SOL     OW15079   0.374   5.799   0.284
 4727SOL    HW115080   0.311   5.751   0.223
 4727SOL    HW215081   0.455   5.827   0.233
 4728SOL     OW15082   6.589   1.684   2.940
 4728SOL    HW115083   6.538   1.688   2.854
 4728SOL    HW215084   6.555   1.754   3.003
 4729SOL     OW15085   5.001   0.175   0.525
 4729SOL    HW115086   5.025   0.209   0.616
 4729SOL    HW215087   5.084   0.146   0.477
 4730SOL     OW15088   3.600   6.199   5.296
 4730SOL    HW115089   3.612   6.210   5.197
 4730SOL    HW215090   3.549   6.115   5.314
 4731SOL     OW15091   3.052   0.794   0.897
 4731SOL    HW115092   3.017   0.700   0.896
 4731SOL    HW215093   3.150   0.793   0.915
 4732SOL     OW15094   0.904   3.749   5.332
 4732SOL    HW115095   1.000   3.776   5.337
 4732SOL    HW215096   0.858   3.771   5.418
 4733SOL     OW15097   1.766   4.312   2.704
 4733SOL    HW115098   1.709   4.290   2.784
 4733SOL    HW215099   1.772   4.231   2.645
 4734SOL     OW15100   5.087   3.189   0.186
 4734SOL    HW115101   5.178   3.153   0.169
 4734SOL    HW215102   5.094   3.282   0.223
 4735SOL     OW15103   6.714   5.691   3.968
 4735SOL    HW115104   6.662   5.673   4.052
 4735SOL    HW215105   6.665   5.758   3.913
 4736SOL     OW15106   5.830   2.046   4.285
 4736SOL    HW115107   5.853   1.959   4.330
 4736SOL    HW215108   5.776   2.027   4.203
 4737SOL     OW15109   2.428   4.357   0.825
 4737SOL    HW115110   2.500   4.385   0.762
 4737SOL    HW215111   2.419   4.258   0.824
 4738SOL     OW15112   3.573   6.614   3.912
 4738SOL    HW115113   3.551   6.710   3.924
 4738SOL    HW215114   3.496   6.567   3.869
 4739SOL     OW15115   5.710   1.972   4.041
 4739SOL    HW115116   5.613   1.996   4.046
 4739SOL    HW215117   5.732   1.939   3.949
 4740SOL     OW15118   0.455   0.483   0.645
 4740SOL    HW115119   0.532   0.424   0.623
 4740SOL    HW215120   0.422   0.526   0.561
 4741SOL     OW15121   4.710   4.662   0.896
 4741SOL    HW115122   4.763   4.706   0.823
 4741SOL    HW215123   4.773   4.619   0.961
 4742SOL     OW15124   2.937   5.297   1.292
 4742SOL    HW115125   2.898   5.299   1.384
 4742SOL    HW215126   2.988   5.381   1.275
 4743SOL     OW15127   2.032   1.369   5.863
 4743SOL    HW115128   1.982   1.441   5.912
 4743SOL    HW215129   1.969   1.297   5.836
 4744SOL     OW15130   2.524   3.338   5.617
 4744SOL    HW115131   2.477   3.306   5.535
 4744SOL    HW215132   2.481   3.423   5.649
 4745SOL     OW15133   2.467   4.860   5.445
 4745SOL    HW115134   2.504   4.817   5.362
 4745SOL    HW215135   2.368   4.868   5.438
 4746SOL     OW15136   5.932   6.140   1.268
 4746SOL    HW115137   6.026   6.172   1.278
 4746SOL    HW215138   5.879   6.209   1.218
 4747SOL     OW15139   1.173   3.468   6.355
 4747SOL    HW115140   1.209   3.399   6.418
 4747SOL    HW215141   1.091   3.510   6.395
 4748SOL     OW15142   1.519   6.956   1.235
 4748SOL    HW115143   1.518   6.961   1.335
 4748SOL    HW215144   1.558   0.014   1.198
 4749SOL     OW15145   3.237   6.334   6.141
 4749SOL    HW115146   3.258   6.314   6.045
 4749SOL    HW215147   3.143   6.308   6.161
 4750SOL     OW15148   0.483   2.069   3.959
 4750SOL    HW115149   0.491   2.108   3.867
 4750SOL    HW215150   0.388   2.078   3.990
 4751SOL     OW15151   1.985   3.307   0.421
 4751SOL    HW115152   2.075   3.265   0.412
 4751SOL    HW215153   1.931   3.288   0.339
 4752SOL     OW15154   3.069   6.533   0.658
 4752SOL    HW115155   3.021   6.621   0.663
 4752SOL    HW215156   3.004   6.458   0.673
 4753SOL     OW15157   5.470   6.722   4.286
 4753SOL    HW115158   5.421   6.654   4.231
 4753SOL    HW215159   5.492   6.801   4.230
 4754SOL     OW15160   6.366   0.284   5.784
 4754SOL    HW115161   6.388   0.367   5.836
 4754SOL    HW215162   6.426   0.278   5.705
 4755SOL     OW15163   2.501   0.648   0.216
 4755SOL    HW115164   2.432   0.690   0.157
 4755SOL    HW215165   2.536   0.717   0.280
 4756SOL     OW15166   5.745   2.168   1.541
 4756SOL    HW115167   5.776   2.116   1.462
 4756SOL    HW215168   5.757   2.114   1.624
 4757SOL     OW15169   2.074   1.697   2.098
 4757SOL    HW115170   1.989   1.644   2.089
 4757SOL    HW215171   2.052   1.793   2.114
 4758SOL     OW15172   3.449   5.924   5.055
 4758SOL    HW115173   3.411   5.988   5.122
 4758SOL    HW215174   3.397   5.839   5.058
 4759SOL     OW15175   5.441   5.663   4.698
 4759SOL    HW115176   5.502   5.676   4.776
 4759SOL    HW215177   5.416   5.751   4.659
 4760SOL     OW15178   3.160   2.223   1.289
 4760SOL    HW115179   3.104   2.268   1.218
 4760SOL    HW215180   3.227   2.289   1.324
 4761SOL     OW15181   6.488   0.797   6.846
 4761SOL    HW115182   6.469   0.828   6.753
 4761SOL    HW215183   6.581   0.822   6.871
 4762SOL     OW15184   2.915   4.929   3.297
 4762SOL    HW115185   2.980   4.945   3.372
 4762SOL    HW215186   2.934   4.994   3.223
 4763SOL     OW15187   5.774   6.392   3.327
 4763SOL    HW115188   5.753   6.483   3.362
 4763SOL    HW215189   5.868   6.390   3.294
 4764SOL     OW15190   5.140   4.032   5.171
 4764SOL    HW115191   5.143   4.107   5.237
 4764SOL    HW215192   5.056   3.980   5.184
 4765SOL     OW15193   5.061   6.639   4.443
 4765SOL    HW115194   5.075   6.561   4.381
 4765SOL    HW215195   5.038   6.606   4.534
 4766SOL     OW15196   4.263   0.514   3.792
 4766SOL    HW115197   4.201   0.584   3.756
 4766SOL    HW215198   4.303   0.462   3.717
 4767SOL     OW15199   4.628   5.881   0.023
 4767SOL    HW115200   4.668   5.958   7.001
 4767SOL    HW215201   4.534   5.903   0.049
 4768SOL     OW15202   5.493   2.095   5.014
 4768SOL    HW115203   5.544   2.177   4.988
 4768SOL    HW215204   5.545   2.014   4.989
 4769SOL     OW15205   4.310   5.187   1.498
 4769SOL    HW115206   4.316   5.110   1.434
 4769SOL    HW215207   4.277   5.268   1.449
 4770SOL     OW15208   1.913   0.227   3.656
 4770SOL    HW115209   2.000   0.183   3.631
 4770SOL    HW215210   1.846   0.157   3.680
 4771SOL     OW15211   3.530   5.045   6.270
 4771SOL    HW115212   3.469   5.124   6.264
 4771SOL    HW215213   3.492   4.970   6.216
 4772SOL     OW15214   2.114   6.292   2.183
 4772SOL    HW115215   2.141   6.274   2.278
 4772SOL    HW215216   2.098   6.390   2.171
 4773SOL     OW15217   6.750   5.603   4.557
 4773SOL    HW115218   6.706   5.661   4.488
 4773SOL    HW215219   6.680   5.560   4.614
 4774SOL     OW15220   0.793   2.746   2.578
 4774SOL    HW115221   0.861   2.816   2.555
 4774SOL    HW215222   0.779   2.745   2.676
 4775SOL     OW15223   5.709   0.449   3.145
 4775SOL    HW115224   5.720   0.351   3.125
 4775SOL    HW215225   5.798   0.489   3.167
 4776SOL     OW15226   2.407   6.683   3.810
 4776SOL    HW115227   2.347   6.731   3.746
 4776SOL    HW215228   2.409   6.586   3.787
 4777SOL     OW15229   2.424   4.830   1.128
 4777SOL    HW115230   2.383   4.830   1.037
 4777SOL    HW215231   2.431   4.736   1.161
 4778SOL     OW15232   5.257   2.789   1.952
 4778SOL    HW115233   5.219   2.711   2.001
 4778SOL    HW215234   5.292   2.760   1.864
 4779SOL     OW15235   6.175   6.971   2.128
 4779SOL    HW115236   6.271   6.964   2.153
 4779SOL    HW215237   6.165   0.009   2.052
 4780SOL     OW15238   1.002   6.614   6.816
 4780SOL    HW115239   1.091   6.629   6.861
 4780SOL    HW215240   1.006   6.648   6.722
 4781SOL     OW15241   3.140   6.032   1.121
 4781SOL    HW115242   3.154   6.088   1.039
 4781SOL    HW215243   3.080   5.955   1.100
 4782SOL     OW15244   4.776   6.593   0.109
 4782SOL    HW115245   4.846   6.661   0.128
 4782SOL    HW215246   4.705   6.598   0.179
 4783SOL     OW15247   4.818   4.404   0.412
 4783SOL    HW115248   4.913   4.432   0.402
 4783SOL    HW215249   4.809   4.307   0.390
 4784SOL     OW15250   6.153   4.524   0.144
 4784SOL    HW115251   6.133   4.581   0.224
 4784SOL    HW215252   6.221   4.569   0.087
 4785SOL     OW15253   0.041   6.074   1.489
 4785SOL    HW115254   7.022   6.097   1.403
 4785SOL    HW215255   6.999   6.073   1.563
 4786SOL     OW15256   1.852   2.343   1.949
 4786SOL    HW115257   1.768   2.337   2.003
 4786SOL    HW215258   1.927   2.373   2.007
 4787SOL     OW15259   3.335   2.113   3.428
 4787SOL    HW115260   3.363   2.150   3.517
 4787SOL    HW215261   3.345   2.014   3.428
 4788SOL     OW15262   1.624   5.268   6.224
 4788SOL    HW115263   1.586   5.346   6.273
 4788SOL    HW215264   1.571   5.186   6.246
 4789SOL     OW15265   5.237   0.819   0.416
 4789SOL    HW115266   5.294   0.872   0.354
 4789SOL    HW215267   5.280   0.730   0.434
 4790SOL     OW15268   6.492   3.445   6.626
 4790SOL    HW115269   6.504   3.378   6.699
 4790SOL    HW215270   6.435   3.520   6.659
 4791SOL     OW15271   5.600   2.267   2.002
 4791SOL    HW115272   5.649   2.347   1.967
 4791SOL    HW215273   5.535   2.296   2.072
 4792SOL     OW15274   1.490   3.051   2.630
 4792SOL    HW115275   1.572   3.097   2.597
 4792SOL    HW215276   1.416   3.117   2.640
 4793SOL     OW15277   0.921   2.741   5.582
 4793SOL    HW115278   0.921   2.775   5.676
 4793SOL    HW215279   0.881   2.649   5.579
 4794SOL     OW15280   3.818   0.816   3.456
 4794SOL    HW115281   3.842   0.912   3.440
 4794SOL    HW215282   3.752   0.810   3.530
 4795SOL     OW15283   6.819   2.460   4.084
 4795SOL    HW115284   6.854   2.446   4.177
 4795SOL    HW215285   6.862   2.395   4.022
 4796SOL     OW15286   4.818   1.897   6.539
 4796SOL    HW115287   4.891   1.965   6.531
 4796SOL    HW215288   4.730   1.941   6.520
 4797SOL     OW15289   1.672   5.848   4.938
 4797SOL    HW115290   1.576   5.842   4.909
 4797SOL    HW215291   1.687   5.785   5.014
 4798SOL     OW15292   0.041   3.583   5.580
 4798SOL    HW115293   0.073   3.654   5.517
 4798SOL    HW215294   0.084   3.596   5.669
 4799SOL     OW15295   4.769   2.296   6.155
 4799SOL    HW115296   4.863   2.319   6.181
 4799SOL    HW215297   4.709   2.374   6.175
 4800SOL     OW15298   3.566   3.120   6.087
 4800SOL    HW115299   3.591   3.038   6.139
 4800SOL    HW215300   3.467   3.123   6.074
 4801SOL     OW15301   2.458   2.244   0.079
 4801SOL    HW115302   2.512   2.199   0.009
 4801SOL    HW215303   2.511   2.251   0.163
 4802SOL     OW15304   1.344   6.601   2.397
 4802SOL    HW115305   1.370   6.667   2.468
 4802SOL    HW215306   1.274   6.540   2.434
 4803SOL     OW15307   0.911   6.721   0.648
 4803SOL    HW115308   0.836   6.769   0.695
 4803SOL    HW215309   0.998   6.762   0.674
 4804SOL     OW15310   4.189   4.934   6.405
 4804SOL    HW115311   4.199   4.840   6.373
 4804SOL    HW215312   4.252   4.951   6.480
 4805SOL     OW15313   6.606   6.822   1.449
 4805SOL    HW115314   6.664   6.742   1.459
 4805SOL    HW215315   6.661   6.900   1.419
 4806SOL     OW15316   7.013   3.534   3.312
 4806SOL    HW115317   6.933   3.531   3.372
 4806SOL    HW215318   0.027   3.626   3.315
 4807SOL     OW15319   1.266   5.359   0.362
 4807SOL    HW115320   1.325   5.404   0.429
 4807SOL    HW215321   1.204   5.296   0.409
 4808SOL     OW15322   6.101   3.842   0.337
 4808SOL    HW115323   6.070   3.761   0.287
 4808SOL    HW215324   6.198   3.857   0.319
 4809SOL     OW15325   3.772   3.892   6.546
 4809SOL    HW115326   3.869   3.916   6.539
 4809SOL    HW215327   3.762   3.793   6.548
 4810SOL     OW15328   1.413   4.343   2.342
 4810SOL    HW115329   1.491   4.371   2.397
 4810SOL    HW215330   1.406   4.402   2.261
 4811SOL     OW15331   2.288   4.583   2.114
 4811SOL    HW115332   2.252   4.676   2.116
 4811SOL    HW215333   2.362   4.577   2.046
 4812SOL     OW15334   6.652   4.871   5.366
 4812SOL    HW115335   6.705   4.925   5.301
 4812SOL    HW215336   6.679   4.894   5.459
 4813SOL     OW15337   4.858   1.195   1.918
 4813SOL    HW115338   4.799   1.124   1.879
 4813SOL    HW215339   4.935   1.153   1.966
 4814SOL     OW15340   6.096   4.420   0.450
 4814SOL    HW115341   6.011   4.457   0.487
 4814SOL    HW215342   6.079   4.330   0.409
 4815SOL     OW15343   5.392   4.701   1.933
 4815SOL    HW115344   5.325   4.656   1.874
 4815SOL    HW215345   5.484   4.670   1.908
 4816SOL     OW15346   5.836   5.199   2.672
 4816SOL    HW115347   5.849   5.104   2.701
 4816SOL    HW215348   5.740   5.212   2.644
 4817SOL     OW15349   0.742   2.224   6.051
 4817SOL    HW115350   0.777   2.304   6.002
 4817SOL    HW215351   0.818   2.176   6.095
 4818SOL     OW15352   0.892   0.151   4.515
 4818SOL    HW115353   0.979   0.198   4.527
 4818SOL    HW215354   0.882   0.122   4.420
 4819SOL     OW15355   1.682   3.246   0.875
 4819SOL    HW115356   1.583   3.229   0.868
 4819SOL    HW215357   1.707   3.322   0.816
 4820SOL     OW15358   6.985   2.990   1.508
 4820SOL    HW115359   7.018   2.897   1.528
 4820SOL    HW215360   7.025   3.054   1.574
 4821SOL     OW15361   0.584   6.032   2.871
 4821SOL    HW115362   0.664   6.017   2.928
 4821SOL    HW215363   0.526   6.103   2.913
 4822SOL     OW15364   1.225   3.540   4.079
 4822SOL    HW115365   1.214   3.631   4.039
 4822SOL    HW215366   1.317   3.532   4.117
 4823SOL     OW15367   1.970   1.995   2.799
 4823SOL    HW115368   2.026   1.982   2.717
 4823SOL    HW215369   1.876   1.966   2.779
 4824SOL     OW15370   5.521   2.190   5.503
 4824SOL    HW115371   5.479   2.144   5.425
 4824SOL    HW215372   5.618   2.204   5.485
 4825SOL     OW15373   1.228   1.882   4.392
 4825SOL    HW115374   1.133   1.856   4.376
 4825SOL    HW215375   1.284   1.800   4.401
 4826SOL     OW15376   5.280   0.632   0.634
 4826SOL    HW115377   5.185   0.646   0.662
 4826SOL    HW215378   5.337   0.620   0.715
 4827SOL     OW15379   6.179   1.847   0.342
 4827SOL    HW115380   6.204   1.917   0.409
 4827SOL    HW215381   6.259   1.820   0.290
 4828SOL     OW15382   4.594   0.675   1.257
 4828SOL    HW115383   4.599   0.593   1.315
 4828SOL    HW215384   4.669   0.736   1.281
 4829SOL     OW15385   4.610   6.577   6.509
 4829SOL    HW115386   4.607   6.478   6.522
 4829SOL    HW215387   4.684   6.600   6.446
 4830SOL     OW15388   4.013   6.021   4.000
 4830SOL    HW115389   4.019   5.930   3.959
 4830SOL    HW215390   3.919   6.054   3.995
 4831SOL     OW15391   2.643   5.439   5.191
 4831SOL    HW115392   2.709   5.406   5.123
 4831SOL    HW215393   2.551   5.407   5.167
 4832SOL     OW15394   3.185   3.029   4.531
 4832SOL    HW115395   3.103   3.008   4.478
 4832SOL    HW215396   3.178   3.121   4.570
 4833SOL     OW15397   5.636   2.282   3.055
 4833SOL    HW115398   5.574   2.273   2.978
 4833SOL    HW215399   5.601   2.351   3.119
 4834SOL     OW15400   2.552   6.027   2.523
 4834SOL    HW115401   2.527   5.989   2.611
 4834SOL    HW215402   2.561   5.954   2.455
 4835SOL     OW15403   5.976   3.225   6.050
 4835SOL    HW115404   6.013   3.285   5.979
 4835SOL    HW215405   6.044   3.155   6.072
 4836SOL     OW15406   5.156   1.304   5.397
 4836SOL    HW115407   5.125   1.281   5.305
 4836SOL    HW215408   5.196   1.396   5.397
 4837SOL     OW15409   6.819   3.489   2.551
 4837SOL    HW115410   6.884   3.531   2.614
 4837SOL    HW215411   6.850   3.397   2.528
 4838SOL     OW15412   2.197   5.358   6.719
 4838SOL    HW115413   2.247   5.407   6.647
 4838SOL    HW215414   2.177   5.265   6.687
 4839SOL     OW15415   1.263   3.500   7.017
 4839SOL    HW115416   1.341   3.447   6.983
 4839SOL    HW215417   1.184   3.439   7.025
 4840SOL     OW15418   5.672   3.902   5.429
 4840SOL    HW115419   5.726   3.833   5.477
 4840SOL    HW215420   5.719   3.929   5.345
 4841SOL     OW15421   3.466   5.612   2.906
 4841SOL    HW115422   3.470   5.571   2.815
 4841SOL    HW215423   3.558   5.633   2.938
 4842SOL     OW15424   2.608   5.259   3.165
 4842SOL    HW115425   2.542   5.330   3.141
 4842SOL    HW215426   2.605   5.186   3.097
 4843SOL     OW15427   6.438   2.446   1.813
 4843SOL    HW115428   6.431   2.539   1.778
 4843SOL    HW215429   6.468   2.448   1.908
 4844SOL     OW15430   1.172   3.794   5.413
 4844SOL    HW115431   1.235   3.822   5.340
 4844SOL    HW215432   1.173   3.862   5.486
 4845SOL     OW15433   4.461   4.914   5.541
 4845SOL    HW115434   4.520   4.891   5.463
 4845SOL    HW215435   4.495   4.997   5.584
 4846SOL     OW15436   0.260   1.844   3.428
 4846SOL    HW115437   0.225   1.923   3.378
 4846SOL    HW215438   0.311   1.875   3.509
 4847SOL     OW15439   2.658   0.840   5.193
 4847SOL    HW115440   2.750   0.870   5.219
 4847SOL    HW215441   2.627   0.770   5.257
 4848SOL     OW15442   2.653   1.315   4.169
 4848SOL    HW115443   2.647   1.215   4.171
 4848SOL    HW215444   2.655   1.347   4.075
 4849SOL     OW15445   2.159   0.061   0.720
 4849SOL    HW115446   2.109   0.129   0.772
 4849SOL    HW215447   2.146   6.997   0.761
 4850SOL     OW15448   4.251   0.578   1.627
 4850SOL    HW115449   4.339   0.574   1.580
 4850SOL    HW215450   4.254   0.650   1.697
 4851SOL     OW15451   4.101   5.707   6.393
 4851SOL    HW115452   4.177   5.742   6.339
 4851SOL    HW215453   4.135   5.635   6.454
 4852SOL     OW15454   3.392   5.773   4.500
 4852SOL    HW115455   3.370   5.750   4.406
 4852SOL    HW215456   3.328   5.841   4.534
 4853SOL     OW15457   3.829   1.217   3.008
 4853SOL    HW115458   3.738   1.222   2.969
 4853SOL    HW215459   3.897   1.235   2.937
 4854SOL     OW15460   5.630   6.709   1.944
 4854SOL    HW115461   5.668   6.627   1.987
 4854SOL    HW215462   5.651   6.788   2.002
 4855SOL     OW15463   6.876   3.375   4.916
 4855SOL    HW115464   6.925   3.421   4.842
 4855SOL    HW215465   6.941   3.353   4.989
 4856SOL     OW15466   0.381   2.985   2.458
 4856SOL    HW115467   0.472   2.949   2.438
 4856SOL    HW215468   0.319   2.909   2.477
 4857SOL     OW15469   3.442   2.113   3.701
 4857SOL    HW115470   3.372   2.104   3.773
 4857SOL    HW215471   3.528   2.143   3.743
 4858SOL     OW15472   1.155   0.253   4.574
 4858SOL    HW115473   1.217   0.218   4.504
 4858SOL    HW215474   1.134   0.179   4.639
 4859SOL     OW15475   1.419   4.922   1.375
 4859SOL    HW115476   1.373   4.850   1.428
 4859SOL    HW215477   1.353   4.964   1.311
 4860SOL     OW15478   3.872   4.418   0.443
 4860SOL    HW115479   3.962   4.378   0.429
 4860SOL    HW215480   3.881   4.508   0.485
 4861SOL     OW15481   6.247   4.952   6.014
 4861SOL    HW115482   6.208   4.940   5.922
 4861SOL    HW215483   6.304   5.034   6.016
 4862SOL     OW15484   3.101   4.930   4.835
 4862SOL    HW115485   3.118   5.012   4.781
 4862SOL    HW215486   3.086   4.955   4.931
 4863SOL     OW15487   4.827   3.060   2.711
 4863SOL    HW115488   4.842   3.076   2.809
 4863SOL    HW215489   4.766   2.982   2.699
 4864SOL     OW15490   2.964   1.521   1.678
 4864SOL    HW115491   3.011   1.591   1.732
 4864SOL    HW215492   2.948   1.556   1.586
 4865SOL     OW15493   2.709   4.936   5.954
 4865SOL    HW115494   2.635   4.876   5.922
 4865SOL    HW215495   2.676   4.989   6.032
 4866SOL     OW15496   5.869   5.094   1.887
 4866SOL    HW115497   5.771   5.102   1.903
 4866SOL    HW215498   5.900   5.004   1.917
 4867SOL     OW15499   4.866   5.932   3.592
 4867SOL    HW115500   4.952   5.980   3.605
 4867SOL    HW215501   4.814   5.934   3.678
 4868SOL     OW15502   0.807   5.442   1.392
 4868SOL    HW115503   0.818   5.464   1.295
 4868SOL    HW215504   0.717   5.475   1.424
 4869SOL     OW15505   6.384   1.981   0.896
 4869SOL    HW115506   6.419   2.043   0.966
 4869SOL    HW215507   6.316   2.028   0.840
 4870SOL     OW15508   4.027   5.747   1.605
 4870SOL    HW115509   4.092   5.690   1.555
 4870SOL    HW215510   3.935   5.707   1.597
 4871SOL     OW15511   1.379   1.619   3.142
 4871SOL    HW115512   1.326   1.685   3.090
 4871SOL    HW215513   1.318   1.550   3.181
 4872SOL     OW15514   1.144   0.217   3.080
 4872SOL    HW115515   1.180   0.167   3.159
 4872SOL    HW215516   1.204   0.201   3.002
 4873SOL     OW15517   0.328   5.076   5.057
 4873SOL    HW115518   0.273   5.095   4.975
 4873SOL    HW215519   0.330   4.977   5.072
 4874SOL     OW15520   5.522   3.991   2.341
 4874SOL    HW115521   5.442   3.951   2.386
 4874SOL    HW215522   5.533   3.949   2.251
 4875SOL     OW15523   5.460   2.423   1.234
 4875SOL    HW115524   5.560   2.423   1.237
 4875SOL    HW215525   5.430   2.404   1.140
 4876SOL     OW15526   6.140   0.289   5.632
 4876SOL    HW115527   6.064   0.309   5.695
 4876SOL    HW215528   6.226   0.317   5.674
 4877SOL     OW15529   6.785   1.365   1.065
 4877SOL    HW115530   6.835   1.436   1.113
 4877SOL    HW215531   6.688   1.388   1.063
 4878SOL     OW15532   0.416   1.899   2.189
 4878SOL    HW115533   0.320   1.927   2.193
 4878SOL    HW215534   0.474   1.980   2.176
 4879SOL     OW15535   4.518   4.499   2.974
 4879SOL    HW115536   4.534   4.570   2.905
 4879SOL    HW215537   4.542   4.410   2.935
 4880SOL     OW15538   5.614   2.225   0.237
 4880SOL    HW115539   5.659   2.213   0.326
 4880SOL    HW215540   5.591   2.136   0.199
 4881SOL     OW15541   2.917   6.372   5.969
 4881SOL    HW115542   2.935   6.278   5.995
 4881SOL    HW215543   2.839   6.375   5.906
 4882SOL     OW15544   6.420   1.563   5.453
 4882SOL    HW115545   6.477   1.616   5.391
 4882SOL    HW215546   6.477   1.520   5.523
 4883SOL     OW15547   5.426   4.642   2.419
 4883SOL    HW115548   5.327   4.640   2.404
 4883SOL    HW215549   5.473   4.627   2.333
 4884SOL     OW15550   4.693   0.468   1.710
 4884SOL    HW115551   4.760   0.398   1.686
 4884SOL    HW215552   4.687   0.478   1.809
 4885SOL     OW15553   1.830   6.406   2.030
 4885SOL    HW115554   1.752   6.424   2.090
 4885SOL    HW215555   1.908   6.462   2.059
 4886SOL     OW15556   0.125   6.526   6.709
 4886SOL    HW115557   0.118   6.429   6.685
 4886SOL    HW215558   0.221   6.550   6.725
 4887SOL     OW15559   6.672   2.097   3.818
 4887SOL    HW115560   6.583   2.109   3.860
 4887SOL    HW215561   6.743   2.138   3.875
 4888SOL     OW15562   1.842   6.970   3.648
 4888SOL    HW115563   1.847   6.972   3.548
 4888SOL    HW215564   1.863   6.877   3.680
 4889SOL     OW15565   0.543   1.936   0.435
 4889SOL    HW115566   0.552   1.944   0.535
 4889SOL    HW215567   0.446   1.934   0.411
 4890SOL     OW15568   1.089   1.508   4.252
 4890SOL    HW115569   1.167   1.560   4.217
 4890SOL    HW215570   1.004   1.558   4.233
 4891SOL     OW15571   0.974   4.975   6.976
 4891SOL    HW115572   0.929   5.065   6.970
 4891SOL    HW215573   0.934   4.923   0.025
 4892SOL     OW15574   1.160   5.639   2.495
 4892SOL    HW115575   1.096   5.702   2.452
 4892SOL    HW215576   1.242   5.630   2.438
 4893SOL     OW15577   6.740   4.340   6.922
 4893SOL    HW115578   6.781   4.329   7.013
 4893SOL    HW215579   6.663   4.404   6.928
 4894SOL     OW15580   1.942   0.216   2.864
 4894SOL    HW115581   1.956   0.164   2.948
 4894SOL    HW215582   2.009   0.189   2.796
 4895SOL     OW15583   0.771   3.640   0.982
 4895SOL    HW115584   0.697   3.679   0.927
 4895SOL    HW215585   0.821   3.572   0.928
 4896SOL     OW15586   3.285   5.576   3.434
 4896SOL    HW115587   3.246   5.522   3.359
 4896SOL    HW215588   3.216   5.586   3.506
 4897SOL     OW15589   3.488   4.978   6.545
 4897SOL    HW115590   3.438   5.056   6.581
 4897SOL    HW215591   3.513   4.996   6.449
 4898SOL     OW15592   5.311   2.408   5.550
 4898SOL    HW115593   5.228   2.366   5.589
 4898SOL    HW215594   5.378   2.336   5.530
 4899SOL     OW15595   6.437   4.937   2.761
 4899SOL    HW115596   6.453   4.846   2.723
 4899SOL    HW215597   6.388   4.993   2.693
 4900SOL     OW15598   0.144   6.592   5.659
 4900SOL    HW115599   0.105   6.502   5.679
 4900SOL    HW215600   0.071   6.660   5.657
 4901SOL     OW15601   2.171   0.195   4.237
 4901SOL    HW115602   2.106   0.268   4.261
 4901SOL    HW215603   2.260   0.236   4.215
 4902SOL     OW15604   0.959   3.689   2.467
 4902SOL    HW115605   0.985   3.784   2.453
 4902SOL    HW215606   0.906   3.680   2.551
 4903SOL     OW15607   4.220   6.256   6.559
 4903SOL    HW115608   4.213   6.339   6.504
 4903SOL    HW215609   4.198   6.278   6.654
 4904SOL     OW15610   2.283   5.516   4.382
 4904SOL    HW115611   2.190   5.489   4.356
 4904SOL    HW215612   2.343   5.511   4.302
 4905SOL     OW15613   4.710   2.122   2.286
 4905SOL    HW115614   4.672   2.205   2.246
 4905SOL    HW215615   4.699   2.125   2.386
 4906SOL     OW15616   4.641   6.961   0.425
 4906SOL    HW115617   4.633   6.898   0.348
 4906SOL    HW215618   4.558   6.958   0.480
 4907SOL     OW15619   4.302   6.206   3.086
 4907SOL    HW115620   4.213   6.249   3.100
 4907SOL    HW215621   4.292   6.106   3.090
 4908SOL     OW15622   4.191   5.829   6.679
 4908SOL    HW115623   4.240   5.761   6.733
 4908SOL    HW215624   4.256   5.884   6.627
 4909SOL     OW15625   5.939   0.386   5.818
 4909SOL    HW115626   5.981   0.376   5.908
 4909SOL    HW215627   5.842   0.363   5.825
 4910SOL     OW15628   5.231   0.301   5.469
 4910SOL    HW115629   5.196   0.228   5.410
 4910SOL    HW215630   5.329   0.312   5.453
 4911SOL     OW15631   6.864   2.103   6.065
 4911SOL    HW115632   6.839   2.199   6.053
 4911SOL    HW215633   6.814   2.047   5.999
 4912SOL     OW15634   4.703   0.964   1.824
 4912SOL    HW115635   4.606   0.987   1.818
 4912SOL    HW215636   4.718   0.875   1.782
 4913SOL     OW15637   3.253   4.030   4.011
 4913SOL    HW115638   3.287   4.067   3.925
 4913SOL    HW215639   3.188   3.956   3.993
 4914SOL     OW15640   3.008   1.269   4.383
 4914SOL    HW115641   2.919   1.315   4.386
 4914SOL    HW215642   3.008   1.202   4.308
 4915SOL     OW15643   4.579   6.719   4.292
 4915SOL    HW115644   4.663   6.680   4.254
 4915SOL    HW215645   4.599   6.759   4.381
 4916SOL     OW15646   2.301   1.973   3.118
 4916SOL    HW115647   2.255   2.047   3.068
 4916SOL    HW215648   2.361   1.923   3.057
 4917SOL     OW15649   1.311   4.115   0.837
 4917SOL    HW115650   1.380   4.044   0.855
 4917SOL    HW215651   1.221   4.072   0.827
 4918SOL     OW15652   2.673   0.158   2.969
 4918SOL    HW115653   2.725   0.129   2.888
 4918SOL    HW215654   2.596   0.214   2.941
 4919SOL     OW15655   1.615   2.060   2.907
 4919SOL    HW115656   1.637   2.014   2.820
 4919SOL    HW215657   1.515   2.064   2.917
 4920SOL     OW15658   4.381   0.445   0.083
 4920SOL    HW115659   4.332   0.359   0.094
 4920SOL    HW215660   4.408   0.457   7.013
 4921SOL     OW15661   2.331   3.809   1.799
 4921SOL    HW115662   2.355   3.719   1.836
 4921SOL    HW215663   2.271   3.857   1.863
 4922SOL     OW15664   1.244   3.345   5.542
 4922SOL    HW115665   1.256   3.248   5.520
 4922SOL    HW215666   1.179   3.385   5.477
 4923SOL     OW15667   5.066   6.919   2.241
 4923SOL    HW115668   5.070   6.921   2.141
 4923SOL    HW215669   5.102   6.831   2.274
 4924SOL     OW15670   1.842   3.246   4.520
 4924SOL    HW115671   1.898   3.305   4.463
 4924SOL    HW215672   1.880   3.244   4.613
 4925SOL     OW15673   5.583   6.167   1.081
 4925SOL    HW115674   5.536   6.212   1.157
 4925SOL    HW215675   5.591   6.069   1.101
 4926SOL     OW15676   5.194   2.970   1.628
 4926SOL    HW115677   5.245   3.044   1.585
 4926SOL    HW215678   5.177   2.993   1.724
 4927SOL     OW15679   4.003   3.061   2.868
 4927SOL    HW115680   3.926   2.999   2.882
 4927SOL    HW215681   4.016   3.076   2.770
 4928SOL     OW15682   0.608   6.817   6.508
 4928SOL    HW115683   0.595   6.718   6.502
 4928SOL    HW215684   0.526   6.858   6.548
 4929SOL     OW15685   1.401   4.403   5.030
 4929SOL    HW115686   1.361   4.360   4.949
 4929SOL    HW215687   1.334   4.404   5.104
 4930SOL     OW15688   0.749   1.212   0.376
 4930SOL    HW115689   0.704   1.217   0.287
 4930SOL    HW215690   0.773   1.117   0.395
 4931SOL     OW15691   0.710   0.500   6.990
 4931SOL    HW115692   0.778   0.572   6.985
 4931SOL    HW215693   0.736   0.425   6.929
 4932SOL     OW15694   2.226   3.072   1.703
 4932SOL    HW115695   2.176   3.156   1.679
 4932SOL    HW215696   2.324   3.090   1.699
 4933SOL     OW15697   2.344   1.092   4.402
 4933SOL    HW115698   2.362   1.172   4.459
 4933SOL    HW215699   2.281   1.117   4.329
 4934SOL     OW15700   0.943   5.350   4.538
 4934SOL    HW115701   0.996   5.383   4.616
 4934SOL    HW215702   0.865   5.297   4.571
 4935SOL     OW15703   1.372   1.053   6.693
 4935SOL    HW115704   1.389   1.122   6.763
 4935SOL    HW215705   1.280   1.066   6.655
 4936SOL     OW15706   2.835   5.754   1.459
 4936SOL    HW115707   2.930   5.778   1.444
 4936SOL    HW215708   2.824   5.655   1.452
 4937SOL     OW15709   0.709   3.824   6.061
 4937SOL    HW115710   0.769   3.901   6.041
 4937SOL    HW215711   0.639   3.817   5.990
 4938SOL     OW15712   3.076   4.753   1.716
 4938SOL    HW115713   3.016   4.674   1.714
 4938SOL    HW215714   3.146   4.744   1.645
 4939SOL     OW15715   1.496   2.087   2.005
 4939SOL    HW115716   1.546   2.139   1.936
 4939SOL    HW215717   1.515   1.989   1.994
 4940SOL     OW15718   0.083   1.578   4.951
 4940SOL    HW115719   0.102   1.672   4.922
 4940SOL    HW215720   0.072   1.520   4.870
 4941SOL     OW15721   3.910   2.545   5.343
 4941SOL    HW115722   3.880   2.452   5.365
 4941SOL    HW215723   3.993   2.541   5.288
 4942SOL     OW15724   5.469   3.111   3.733
 4942SOL    HW115725   5.514   3.068   3.655
 4942SOL    HW215726   5.537   3.159   3.788
 4943SOL     OW15727   5.828   3.983   6.572
 4943SOL    HW115728   5.804   3.974   6.669
 4943SOL    HW215729   5.914   3.936   6.555
 4944SOL     OW15730   2.209   4.461   0.362
 4944SOL    HW115731   2.174   4.548   0.327
 4944SOL    HW215732   2.216   4.466   0.462
 4945SOL     OW15733   1.650   1.231   5.415
 4945SOL    HW115734   1.632   1.319   5.373
 4945SOL    HW215735   1.657   1.161   5.344
 4946SOL     OW15736   0.987   4.706   6.433
 4946SOL    HW115737   1.064   4.664   6.384
 4946SOL    HW215738   0.973   4.657   6.519
 4947SOL     OW15739   2.995   0.762   2.182
 4947SOL    HW115740   3.062   0.719   2.121
 4947SOL    HW215741   2.992   0.860   2.165
 4948SOL     OW15742   1.572   2.568   2.481
 4948SOL    HW115743   1.581   2.535   2.575
 4948SOL    HW215744   1.551   2.666   2.483
 4949SOL     OW15745   6.497   3.893   5.828
 4949SOL    HW115746   6.544   3.945   5.900
 4949SOL    HW215747   6.564   3.841   5.775
 4950SOL     OW15748   2.118   3.871   4.947
 4950SOL    HW115749   2.145   3.776   4.935
 4950SOL    HW215750   2.198   3.927   4.968
 4951SOL     OW15751   5.951   6.261   3.947
 4951SOL    HW115752   5.900   6.344   3.925
 4951SOL    HW215753   5.918   6.223   4.034
 4952SOL     OW15754   6.875   0.263   6.441
 4952SOL    HW115755   6.937   0.283   6.365
 4952SOL    HW215756   6.896   0.173   6.478
 4953SOL     OW15757   2.099   1.533   3.977
 4953SOL    HW115758   2.184   1.480   3.975
 4953SOL    HW215759   2.109   1.612   3.916
 4954SOL     OW15760   2.341   3.992   6.023
 4954SOL    HW115761   2.301   3.914   6.070
 4954SOL    HW215762   2.294   4.076   6.052
 4955SOL     OW15763   3.106   5.305   0.098
 4955SOL    HW115764   3.070   5.306   0.005
 4955SOL    HW215765   3.042   5.353   0.159
 4956SOL     OW15766   3.008   0.831   5.540
 4956SOL    HW115767   3.060   0.763   5.591
 4956SOL    HW215768   3.069   0.879   5.478
 4957SOL     OW15769   5.899   3.574   0.304
 4957SOL    HW115770   5.821   3.616   0.259
 4957SOL    HW215771   5.871   3.534   0.391
 4958SOL     OW15772   2.043   6.222   5.390
 4958SOL    HW115773   2.038   6.286   5.313
 4958SOL    HW215774   1.952   6.185   5.408
 4959SOL     OW15775   6.826   1.789   1.218
 4959SOL    HW115776   6.883   1.726   1.166
 4959SOL    HW215777   6.880   1.870   1.243
 4960SOL     OW15778   4.157   4.827   3.467
 4960SOL    HW115779   4.079   4.881   3.501
 4960SOL    HW215780   4.134   4.790   3.377
 4961SOL     OW15781   3.168   0.674   6.852
 4961SOL    HW115782   3.136   0.763   6.883
 4961SOL    HW215783   3.124   0.602   6.906
 4962SOL     OW15784   5.493   2.375   0.945
 4962SOL    HW115785   5.464   2.279   0.946
 4962SOL    HW215786   5.491   2.409   0.850
 4963SOL     OW15787   1.771   5.928   1.011
 4963SOL    HW115788   1.766   6.028   1.003
 4963SOL    HW215789   1.838   5.903   1.080
 4964SOL     OW15790   1.866   6.519   4.968
 4964SOL    HW115791   1.857   6.437   4.912
 4964SOL    HW215792   1.803   6.589   4.933
 4965SOL     OW15793   0.960   6.879   3.005
 4965SOL    HW115794   1.004   6.842   2.923
 4965SOL    HW215795   0.948   6.806   3.072
 4966SOL     OW15796   2.262   6.658   4.502
 4966SOL    HW115797   2.293   6.569   4.535
 4966SOL    HW215798   2.294   6.730   4.565
 4967SOL     OW15799   3.100   5.040   6.362
 4967SOL    HW115800   3.040   5.066   6.285
 4967SOL    HW215801   3.176   4.985   6.328
 4968SOL     OW15802   0.169   0.910   4.011
 4968SOL    HW115803   0.192   0.921   4.108
 4968SOL    HW215804   0.150   0.814   3.992
 4969SOL     OW15805   0.347   6.064   2.225
 4969SOL    HW115806   0.363   6.162   2.230
 4969SOL    HW215807   0.249   6.047   2.223
 4970SOL     OW15808   2.359   0.883   1.601
 4970SOL    HW115809   2.346   0.792   1.561
 4970SOL    HW215810   2.279   0.906   1.657
 4971SOL     OW15811   6.030   5.641   2.971
 4971SOL    HW115812   5.997   5.630   2.877
 4971SOL    HW215813   6.128   5.626   2.973
 4972SOL     OW15814   1.338   4.323   0.127
 4972SOL    HW115815   1.394   4.377   0.190
 4972SOL    HW215816   1.335   4.228   0.158
 4973SOL     OW15817   0.573   0.610   1.755
 4973SOL    HW115818   0.671   0.603   1.772
 4973SOL    HW215819   0.557   0.640   1.661
 4974SOL     OW15820   5.113   4.702   0.173
 4974SOL    HW115821   5.189   4.765   0.159
 4974SOL    HW215822   5.070   4.681   0.085
 4975SOL     OW15823   5.197   3.887   0.708
 4975SOL    HW115824   5.236   3.959   0.766
 4975SOL    HW215825   5.097   3.892   0.712
 4976SOL     OW15826   1.344   0.593   4.535
 4976SOL    HW115827   1.270   0.557   4.591
 4976SOL    HW215828   1.353   0.692   4.550
 4977SOL     OW15829   3.314   3.571   6.873
 4977SOL    HW115830   3.330   3.633   6.796
 4977SOL    HW215831   3.356   3.609   6.955
 4978SOL     OW15832   5.017   4.787   5.427
 4978SOL    HW115833   5.096   4.763   5.483
 4978SOL    HW215834   5.039   4.868   5.372
 4979SOL     OW15835   0.376   6.482   6.963
 4979SOL    HW115836   0.401   6.529   6.878
 4979SOL    HW215837   0.317   6.404   6.941
 4980SOL     OW15838   5.992   4.791   2.368
 4980SOL    HW115839   5.930   4.762   2.295
 4980SOL    HW215840   6.049   4.714   2.397
 4981SOL     OW15841   3.334   6.081   1.680
 4981SOL    HW115842   3.296   6.085   1.587
 4981SOL    HW215843   3.432   6.101   1.677
 4982SOL     OW15844   3.841   1.655   6.922
 4982SOL    HW115845   3.745   1.683   6.917
 4982SOL    HW215846   3.900   1.736   6.913
 4983SOL     OW15847   5.751   4.988   4.035
 4983SOL    HW115848   5.720   5.075   3.995
 4983SOL    HW215849   5.842   4.966   3.999
 4984SOL     OW15850   4.770   4.189   3.112
 4984SOL    HW115851   4.693   4.244   3.080
 4984SOL    HW215852   4.797   4.126   3.040
 4985SOL     OW15853   4.999   6.373   2.736
 4985SOL    HW115854   4.910   6.337   2.763
 4985SOL    HW215855   5.029   6.326   2.653
 4986SOL     OW15856   6.608   4.872   1.047
 4986SOL    HW115857   6.620   4.779   1.080
 4986SOL    HW215858   6.511   4.888   1.028
 4987SOL     OW15859   1.262   6.008   2.881
 4987SOL    HW115860   1.221   5.979   2.794
 4987SOL    HW215861   1.309   6.096   2.868
 4988SOL     OW15862   6.284   1.113   3.309
 4988SOL    HW115863   6.188   1.096   3.334
 4988SOL    HW215864   6.343   1.048   3.358
 4989SOL     OW15865   4.965   0.623   1.952
 4989SOL    HW115866   5.052   0.587   1.918
 4989SOL    HW215867   4.976   0.720   1.975
 4990SOL     OW15868   3.580   1.686   6.868
 4990SOL    HW115869   3.495   1.651   6.907
 4990SOL    HW215870   3.562   1.773   6.822
 4991SOL     OW15871   6.981   5.742   4.006
 4991SOL    HW115872   7.000   5.839   3.997
 4991SOL    HW215873   6.883   5.725   3.996
 4992SOL     OW15874   5.899   1.458   2.995
 4992SOL    HW115875   5.885   1.534   2.930
 4992SOL    HW215876   5.869   1.373   2.952
 4993SOL     OW15877   3.892   6.827   4.658
 4993SOL    HW115878   3.924   6.809   4.751
 4993SOL    HW215879   3.807   6.880   4.661
 4994SOL     OW15880   2.367   5.529   4.950
 4994SOL    HW115881   2.324   5.529   4.859
 4994SOL    HW215882   2.332   5.606   5.003
 4995SOL     OW15883   0.678   1.007   5.241
 4995SOL    HW115884   0.747   1.013   5.313
 4995SOL    HW215885   0.598   1.061   5.266
 4996SOL     OW15886   6.861   1.303   3.693
 4996SOL    HW115887   6.812   1.372   3.640
 4996SOL    HW215888   6.910   1.242   3.630
 4997SOL     OW15889   3.666   2.449   1.162
 4997SOL    HW115890   3.717   2.390   1.225
 4997SOL    HW215891   3.668   2.543   1.196
 4998SOL     OW15892   1.850   3.512   3.811
 4998SOL    HW115893   1.783   3.447   3.776
 4998SOL    HW215894   1.832   3.602   3.772
 4999SOL     OW15895   0.273   3.223   4.860
 4999SOL    HW115896   0.371   3.242   4.869
 4999SOL    HW215897   0.231   3.217   4.951
 5000SOL     OW15898   3.168   6.491   3.212
 5000SOL    HW115899   3.112   6.497   3.295
 5000SOL    HW215900   3.108   6.492   3.132
 5001SOL     OW15901   0.515   5.679   2.643
 5001SOL    HW115902   0.481   5.596   2.598
 5001SOL    HW215903   0.461   5.696   2.726
 5002SOL     OW15904   0.384   5.071   2.143
 5002SOL    HW115905   0.295   5.049   2.184
 5002SOL    HW215906   0.394   5.170   2.136
 5003SOL     OW15907   4.196   6.642   2.946
 5003SOL    HW115908   4.175   6.734   2.913
 5003SOL    HW215909   4.270   6.604   2.891
 5004SOL     OW15910   2.367   5.155   5.420
 5004SOL    HW115911   2.296   5.194   5.361
 5004SOL    HW215912   2.324   5.098   5.490
 5005SOL     OW15913   2.574   3.381   6.483
 5005SOL    HW115914   2.557   3.367   6.386
 5005SOL    HW215915   2.494   3.424   6.526
 5006SOL     OW15916   5.735   0.974   2.501
 5006SOL    HW115917   5.708   0.968   2.405
 5006SOL    HW215918   5.813   0.914   2.518
 5007SOL     OW15919   6.894   0.433   1.362
 5007SOL    HW115920   6.834   0.496   1.412
 5007SOL    HW215921   6.856   0.416   1.271
 5008SOL     OW15922   6.315   5.447   1.427
 5008SOL    HW115923   6.307   5.541   1.393
 5008SOL    HW215924   6.226   5.402   1.419
 5009SOL     OW15925   0.567   2.580   0.339
 5009SOL    HW115926   0.476   2.558   0.375
 5009SOL    HW215927   0.620   2.627   0.410
 5010SOL     OW15928   3.991   2.552   0.945
 5010SOL    HW115929   3.968   2.477   1.006
 5010SOL    HW215930   4.027   2.515   0.859
 5011SOL     OW15931   2.194   3.929   1.305
 5011SOL    HW115932   2.197   3.890   1.397
 5011SOL    HW215933   2.174   3.857   1.239
 5012SOL     OW15934   6.394   2.909   5.412
 5012SOL    HW115935   6.317   2.939   5.469
 5012SOL    HW215936   6.359   2.882   5.322
 5013SOL     OW15937   5.729   0.594   6.002
 5013SOL    HW115938   5.767   0.678   6.042
 5013SOL    HW215939   5.630   0.597   6.006
 5014SOL     OW15940   6.532   4.516   7.019
 5014SOL    HW115941   6.452   4.576   7.015
 5014SOL    HW215942   6.578   4.528   0.081
 5015SOL     OW15943   5.099   1.012   4.757
 5015SOL    HW115944   5.064   1.044   4.845
 5015SOL    HW215945   5.042   1.048   4.683
 5016SOL     OW15946   0.789   3.151   4.690
 5016SOL    HW115947   0.706   3.116   4.733
 5016SOL    HW215948   0.869   3.106   4.730
 5017SOL     OW15949   1.481   2.013   1.357
 5017SOL    HW115950   1.439   1.925   1.333
 5017SOL    HW215951   1.552   1.997   1.426
 5018SOL     OW15952   1.179   5.180   2.401
 5018SOL    HW115953   1.112   5.105   2.405
 5018SOL    HW215954   1.220   5.183   2.309
 5019SOL     OW15955   2.393   6.297   5.748
 5019SOL    HW115956   2.373   6.242   5.667
 5019SOL    HW215957   2.347   6.385   5.742
 5020SOL     OW15958   0.037   6.857   5.561
 5020SOL    HW115959   0.058   6.797   5.484
 5020SOL    HW215960   0.042   6.953   5.531
 5021SOL     OW15961   1.093   0.842   1.002
 5021SOL    HW115962   1.033   0.764   0.982
 5021SOL    HW215963   1.047   0.927   0.975
 5022SOL     OW15964   0.881   2.344   1.904
 5022SOL    HW115965   0.925   2.260   1.871
 5022SOL    HW215966   0.836   2.324   1.991
 5023SOL     OW15967   0.090   4.260   1.701
 5023SOL    HW115968   0.070   4.230   1.608
 5023SOL    HW215969   0.140   4.188   1.749
 5024SOL     OW15970   5.898   5.255   1.022
 5024SOL    HW115971   5.953   5.304   0.954
 5024SOL    HW215972   5.947   5.173   1.051
 5025SOL     OW15973   4.285   1.966   3.680
 5025SOL    HW115974   4.319   2.057   3.660
 5025SOL    HW215975   4.269   1.957   3.779
 5026SOL     OW15976   0.002   5.379   4.835
 5026SOL    HW115977   6.959   5.426   4.890
 5026SOL    HW215978   0.084   5.436   4.829
 5027SOL     OW15979   6.195   0.202   1.993
 5027SOL    HW115980   6.127   0.200   1.920
 5027SOL    HW215981   6.277   0.251   1.963
 5028SOL     OW15982   6.564   1.886   3.472
 5028SOL    HW115983   6.589   1.982   3.486
 5028SOL    HW215984   6.466   1.875   3.491
 5029SOL     OW15985   6.212   2.470   2.202
 5029SOL    HW115986   6.199   2.537   2.275
 5029SOL    HW215987   6.133   2.472   2.141
 5030SOL     OW15988   6.871   5.763   6.107
 5030SOL    HW115989   6.846   5.850   6.150
 5030SOL    HW215990   6.967   5.767   6.079
 5031SOL     OW15991   6.611   1.443   5.622
 5031SOL    HW115992   6.667   1.456   5.704
 5031SOL    HW215993   6.621   1.350   5.588
 5032SOL     OW15994   2.967   1.108   5.616
 5032SOL    HW115995   2.956   1.008   5.618
 5032SOL    HW215996   2.941   1.146   5.704
 5033SOL     OW15997   2.056   0.278   7.011
 5033SOL    HW115998   2.074   0.267   6.913
 5033SOL    HW215999   2.118   0.347   0.023
 5034SOL     OW16000   5.988   6.566   3.946
 5034SOL    HW116001   6.072   6.539   3.899
 5034SOL    HW216002   6.011   6.609   4.034
 5035SOL     OW16003   0.594   3.966   5.535
 5035SOL    HW116004   0.672   3.908   5.513
 5035SOL    HW216005   0.573   4.026   5.458
 5036SOL     OW16006   6.803   4.916   6.695
 5036SOL    HW116007   6.839   4.835   6.741
 5036SOL    HW216008   6.703   4.914   6.697
 5037SOL     OW16009   4.848   4.590   1.495
 5037SOL    HW116010   4.884   4.557   1.407
 5037SOL    HW216011   4.766   4.645   1.479
 5038SOL     OW16012   3.748   2.946   4.140
 5038SOL    HW116013   3.755   2.958   4.239
 5038SOL    HW216014   3.663   2.899   4.118
 5039SOL     OW16015   2.158   3.176   5.448
 5039SOL    HW116016   2.093   3.125   5.504
 5039SOL    HW216017   2.151   3.145   5.353
 5040SOL     OW16018   1.028   6.495   5.259
 5040SOL    HW116019   0.952   6.487   5.195
 5040SOL    HW216020   1.076   6.408   5.264
 5041SOL     OW16021   1.093   1.844   1.828
 5041SOL    HW116022   1.132   1.769   1.775
 5041SOL    HW216023   1.010   1.876   1.783
 5042SOL     OW16024   6.870   3.079   0.380
 5042SOL    HW116025   6.868   3.091   0.479
 5042SOL    HW216026   6.924   2.997   0.358
 5043SOL     OW16027   4.515   0.456   6.851
 5043SOL    HW116028   4.556   0.364   6.847
 5043SOL    HW216029   4.565   0.512   6.918
 5044SOL     OW16030   0.921   5.576   0.858
 5044SOL    HW116031   0.843   5.613   0.806
 5044SOL    HW216032   0.978   5.651   0.890
 5045SOL     OW16033   6.226   5.825   6.074
 5045SOL    HW116034   6.195   5.917   6.098
 5045SOL    HW216035   6.323   5.815   6.098
 5046SOL     OW16036   3.491   3.856   3.421
 5046SOL    HW116037   3.517   3.884   3.329
 5046SOL    HW216038   3.409   3.908   3.450
 5047SOL     OW16039   1.905   4.567   2.891
 5047SOL    HW116040   1.942   4.543   2.981
 5047SOL    HW216041   1.977   4.561   2.822
 5048SOL     OW16042   1.463   1.200   3.995
 5048SOL    HW116043   1.392   1.254   3.950
 5048SOL    HW216044   1.500   1.133   3.931
 5049SOL     OW16045   4.737   1.148   6.919
 5049SOL    HW116046   4.741   1.201   7.004
 5049SOL    HW216047   4.660   1.180   6.864
 5050SOL     OW16048   1.619   1.072   6.988
 5050SOL    HW116049   1.658   1.114   6.906
 5050SOL    HW216050   1.540   1.017   6.963
 5051SOL     OW16051   4.569   4.360   1.591
 5051SOL    HW116052   4.550   4.436   1.653
 5051SOL    HW216053   4.570   4.274   1.642
 5052SOL     OW16054   2.845   1.713   5.589
 5052SOL    HW116055   2.921   1.776   5.605
 5052SOL    HW216056   2.846   1.684   5.493
 5053SOL     OW16057   0.922   5.024   3.295
 5053SOL    HW116058   0.958   4.946   3.244
 5053SOL    HW216059   0.904   4.997   3.389
 5054SOL     OW16060   2.674   4.918   4.639
 5054SOL    HW116061   2.719   4.867   4.713
 5054SOL    HW216062   2.694   5.016   4.650
 5055SOL     OW16063   0.859   2.229   5.639
 5055SOL    HW116064   0.765   2.229   5.605
 5055SOL    HW216065   0.887   2.135   5.660
 5056SOL     OW16066   5.250   3.742   6.021
 5056SOL    HW116067   5.200   3.817   6.063
 5056SOL    HW216068   5.251   3.663   6.083
 5057SOL     OW16069   6.781   6.851   3.293
 5057SOL    HW116070   6.842   6.881   3.219
 5057SOL    HW216071   6.699   6.909   3.293
 5058SOL     OW16072   3.646   3.292   5.889
 5058SOL    HW116073   3.629   3.242   5.974
 5058SOL    HW216074   3.601   3.382   5.894
 5059SOL     OW16075   0.225   0.778   3.548
 5059SOL    HW116076   0.248   0.707   3.614
 5059SOL    HW216077   0.250   0.868   3.586
 5060SOL     OW16078   0.486   2.723   6.186
 5060SOL    HW116079   0.521   2.814   6.163
 5060SOL    HW216080   0.469   2.672   6.102
 5061SOL     OW16081   4.791   2.482   0.529
 5061SOL    HW116082   4.819   2.507   0.436
 5061SOL    HW216083   4.692   2.496   0.539
 5062SOL     OW16084   5.765   0.070   2.762
 5062SOL    HW116085   5.789   0.008   2.688
 5062SOL    HW216086   5.691   0.131   2.733
 5063SOL     OW16087   0.441   6.936   2.575
 5063SOL    HW116088   0.478   0.003   2.571
 5063SOL    HW216089   0.471   6.892   2.659
 5064SOL     OW16090   4.809   3.464   1.041
 5064SOL    HW116091   4.895   3.490   1.084
 5064SOL    HW216092   4.737   3.458   1.109
 5065SOL     OW16093   2.782   0.478   5.723
 5065SOL    HW116094   2.870   0.439   5.697
 5065SOL    HW216095   2.769   0.471   5.822
 5066SOL     OW16096   5.040   4.696   2.101
 5066SOL    HW116097   5.017   4.750   2.182
 5066SOL    HW216098   4.965   4.634   2.080
 5067SOL     OW16099   4.827   1.479   0.846
 5067SOL    HW116100   4.806   1.568   0.888
 5067SOL    HW216101   4.860   1.416   0.916
 5068SOL     OW16102   2.612   4.570   1.010
 5068SOL    HW116103   2.636   4.656   0.965
 5068SOL    HW216104   2.519   4.576   1.048
 5069SOL     OW16105   1.720   4.488   3.563
 5069SOL    HW116106   1.691   4.457   3.653
 5069SOL    HW216107   1.656   4.455   3.494
 5070SOL     OW16108   5.253   3.297   3.737
 5070SOL    HW116109   5.174   3.247   3.773
 5070SOL    HW216110   5.331   3.234   3.730
 5071SOL     OW16111   4.516   2.592   4.596
 5071SOL    HW116112   4.460   2.547   4.666
 5071SOL    HW216113   4.570   2.666   4.639
 5072SOL     OW16114   0.845   6.379   1.054
 5072SOL    HW116115   0.909   6.443   1.096
 5072SOL    HW216116   0.754   6.392   1.094
 5073SOL     OW16117   6.394   6.705   3.036
 5073SOL    HW116118   6.364   6.619   2.997
 5073SOL    HW216119   6.494   6.713   3.028
 5074SOL     OW16120   3.502   3.105   6.801
 5074SOL    HW116121   3.502   3.139   6.707
 5074SOL    HW216122   3.490   3.182   6.864
 5075SOL     OW16123   0.719   1.939   5.854
 5075SOL    HW116124   0.664   1.869   5.808
 5075SOL    HW216125   0.661   2.015   5.880
 5076SOL     OW16126   3.334   0.688   1.177
 5076SOL    HW116127   3.407   0.621   1.187
 5076SOL    HW216128   3.261   0.649   1.121
 5077SOL     OW16129   0.164   2.651   4.553
 5077SOL    HW116130   0.125   2.560   4.544
 5077SOL    HW216131   0.114   2.702   4.624
 5078SOL     OW16132   0.980   1.869   3.530
 5078SOL    HW116133   1.065   1.867   3.583
 5078SOL    HW216134   0.997   1.833   3.439
 5079SOL     OW16135   2.395   4.730   6.299
 5079SOL    HW116136   2.468   4.739   6.367
 5079SOL    HW216137   2.369   4.820   6.266
 5080SOL     OW16138   5.952   6.698   5.614
 5080SOL    HW116139   5.900   6.728   5.694
 5080SOL    HW216140   6.005   6.617   5.638
 5081SOL     OW16141   4.036   3.432   3.126
 5081SOL    HW116142   3.944   3.404   3.098
 5081SOL    HW216143   4.037   3.451   3.224
 5082SOL     OW16144   5.927   5.106   5.407
 5082SOL    HW116145   5.868   5.137   5.481
 5082SOL    HW216146   5.941   5.007   5.415
 5083SOL     OW16147   1.857   6.548   2.567
 5083SOL    HW116148   1.757   6.548   2.564
 5083SOL    HW216149   1.888   6.473   2.625
 5084SOL     OW16150   1.183   5.051   4.992
 5084SOL    HW116151   1.089   5.034   4.961
 5084SOL    HW216152   1.238   4.968   4.980
 5085SOL     OW16153   5.741   2.540   0.005
 5085SOL    HW116154   5.691   2.454   7.024
 5085SOL    HW216155   5.839   2.521   0.001
 5086SOL     OW16156   6.509   5.478   4.223
 5086SOL    HW116157   6.607   5.460   4.227
 5086SOL    HW216158   6.487   5.556   4.281
 5087SOL     OW16159   6.552   5.878   3.435
 5087SOL    HW116160   6.560   5.969   3.475
 5087SOL    HW216161   6.490   5.822   3.490
 5088SOL     OW16162   5.815   1.504   5.064
 5088SOL    HW116163   5.867   1.588   5.047
 5088SOL    HW216164   5.792   1.498   5.161
 5089SOL     OW16165   6.332   3.590   2.966
 5089SOL    HW116166   6.370   3.528   3.035
 5089SOL    HW216167   6.396   3.600   2.891
 5090SOL     OW16168   1.923   3.893   1.585
 5090SOL    HW116169   1.857   3.941   1.528
 5090SOL    HW216170   1.898   3.796   1.591
 5091SOL     OW16171   0.824   5.689   3.037
 5091SOL    HW116172   0.879   5.607   3.048
 5091SOL    HW216173   0.831   5.721   2.942
 5092SOL     OW16174   3.211   2.809   1.103
 5092SOL    HW116175   3.188   2.723   1.147
 5092SOL    HW216176   3.140   2.833   1.037
 5093SOL     OW16177   1.756   1.567   1.726
 5093SOL    HW116178   1.756   1.564   1.626
 5093SOL    HW216179   1.680   1.512   1.761
 5094SOL     OW16180   0.851   0.135   4.937
 5094SOL    HW116181   0.916   0.194   4.985
 5094SOL    HW216182   0.850   0.045   4.981
 5095SOL     OW16183   0.860   1.345   4.425
 5095SOL    HW116184   0.917   1.387   4.355
 5095SOL    HW216185   0.789   1.410   4.454
 5096SOL     OW16186   4.335   3.993   0.930
 5096SOL    HW116187   4.252   3.974   0.981
 5096SOL    HW216188   4.314   4.001   0.832
 5097SOL     OW16189   1.982   0.160   6.312
 5097SOL    HW116190   1.890   0.150   6.275
 5097SOL    HW216191   2.027   0.071   6.315
 5098SOL     OW16192   0.452   0.648   1.502
 5098SOL    HW116193   0.368   0.694   1.476
 5098SOL    HW216194   0.500   0.618   1.420
 5099SOL     OW16195   1.142   0.594   6.122
 5099SOL    HW116196   1.189   0.507   6.140
 5099SOL    HW216197   1.056   0.597   6.173
 5100SOL     OW16198   4.456   6.370   5.808
 5100SOL    HW116199   4.493   6.417   5.889
 5100SOL    HW216200   4.531   6.343   5.748
 5101SOL     OW16201   5.245   6.513   0.081
 5101SOL    HW116202   5.246   6.441   0.012
 5101SOL    HW216203   5.215   6.598   0.039
 5102SOL     OW16204   5.916   0.839   5.787
 5102SOL    HW116205   5.880   0.775   5.719
 5102SOL    HW216206   5.878   0.816   5.877
 5103SOL     OW16207   6.949   0.981   4.494
 5103SOL    HW116208   6.911   0.894   4.525
 5103SOL    HW216209   0.023   0.975   4.493
 5104SOL     OW16210   1.936   6.638   1.752
 5104SOL    HW116211   1.893   6.724   1.779
 5104SOL    HW216212   1.891   6.562   1.800
 5105SOL     OW16213   4.036   3.476   6.924
 5105SOL    HW116214   4.020   3.429   7.011
 5105SOL    HW216215   3.950   3.514   6.890
 5106SOL     OW16216   3.416   0.386   2.369
 5106SOL    HW116217   3.475   0.370   2.290
 5106SOL    HW216218   3.324   0.351   2.350
 5107SOL     OW16219   3.304   0.657   0.314
 5107SOL    HW116220   3.293   0.561   0.340
 5107SOL    HW216221   3.223   0.687   0.265
 5108SOL     OW16222   3.040   3.472   3.484
 5108SOL    HW116223   3.001   3.418   3.558
 5108SOL    HW216224   3.019   3.569   3.498
 5109SOL     OW16225   0.720   1.495   1.076
 5109SOL    HW116226   0.693   1.448   0.992
 5109SOL    HW216227   0.817   1.479   1.093
 5110SOL     OW16228   1.186   6.792   6.508
 5110SOL    HW116229   1.204   6.751   6.418
 5110SOL    HW216230   1.105   6.750   6.549
 5111SOL     OW16231   0.559   1.384   5.886
 5111SOL    HW116232   0.653   1.387   5.852
 5111SOL    HW216233   0.502   1.329   5.825
 5112SOL     OW16234   0.744   6.824   3.333
 5112SOL    HW116235   0.737   6.843   3.431
 5112SOL    HW216236   0.654   6.835   3.290
 5113SOL     OW16237   1.162   7.000   0.904
 5113SOL    HW116238   1.182   6.944   0.984
 5113SOL    HW216239   1.155   6.941   0.823
 5114SOL     OW16240   3.490   3.171   0.208
 5114SOL    HW116241   3.563   3.178   0.277
 5114SOL    HW216242   3.520   3.111   0.134
 5115SOL     OW16243   1.673   4.305   5.226
 5115SOL    HW116244   1.575   4.327   5.218
 5115SOL    HW216245   1.726   4.376   5.179
 5116SOL     OW16246   5.513   5.948   5.942
 5116SOL    HW116247   5.597   5.897   5.925
 5116SOL    HW216248   5.490   5.944   6.040
 5117SOL     OW16249   2.073   4.535   4.015
 5117SOL    HW116250   2.130   4.489   3.947
 5117SOL    HW216251   2.120   4.535   4.104
 5118SOL     OW16252   5.192   6.097   0.257
 5118SOL    HW116253   5.107   6.049   0.236
 5118SOL    HW216254   5.174   6.170   0.323
 5119SOL     OW16255   5.208   0.511   1.872
 5119SOL    HW116256   5.234   0.418   1.849
 5119SOL    HW216257   5.286   0.560   1.910
 5120SOL     OW16258   5.768   1.441   3.241
 5120SOL    HW116259   5.832   1.461   3.166
 5120SOL    HW216260   5.674   1.446   3.207
 5121SOL     OW16261   1.600   2.876   6.715
 5121SOL    HW116262   1.598   2.776   6.719
 5121SOL    HW216263   1.514   2.913   6.750
 5122SOL     OW16264   2.923   1.090   4.182
 5122SOL    HW116265   3.018   1.060   4.174
 5122SOL    HW216266   2.884   1.099   4.090
 5123SOL     OW16267   5.460   3.306   4.497
 5123SOL    HW116268   5.371   3.330   4.460
 5123SOL    HW216269   5.476   3.356   4.582
 5124SOL     OW16270   2.536   5.332   6.388
 5124SOL    HW116271   2.571   5.334   6.482
 5124SOL    HW216272   2.489   5.245   6.372
 5125SOL     OW16273   0.432   3.528   4.607
 5125SOL    HW116274   0.496   3.508   4.533
 5125SOL    HW216275   0.348   3.567   4.569
 5126SOL     OW16276   6.383   5.009   5.576
 5126SOL    HW116277   6.453   5.079   5.568
 5126SOL    HW216278   6.381   4.953   5.493
 5127SOL     OW16279   5.685   4.015   0.900
 5127SOL    HW116280   5.661   3.969   0.814
 5127SOL    HW216281   5.645   3.965   0.977
 5128SOL     OW16282   0.958   0.312   0.177
 5128SOL    HW116283   0.998   0.357   0.257
 5128SOL    HW216284   1.018   0.237   0.148
 5129SOL     OW16285   5.040   1.201   2.952
 5129SOL    HW116286   5.040   1.224   2.855
 5129SOL    HW216287   5.127   1.228   2.993
 5130SOL     OW16288   1.168   5.935   4.937
 5130SOL    HW116289   1.180   5.998   5.015
 5130SOL    HW216290   1.243   5.869   4.936
 5131SOL     OW16291   3.206   5.043   3.432
 5131SOL    HW116292   3.229   5.114   3.498
 5131SOL    HW216293   3.234   5.071   3.341
 5132SOL     OW16294   3.587   1.513   6.163
 5132SOL    HW116295   3.627   1.471   6.244
 5132SOL    HW216296   3.636   1.597   6.141
 5133SOL     OW16297   3.338   5.237   6.226
 5133SOL    HW116298   3.284   5.257   6.145
 5133SOL    HW216299   3.295   5.281   6.306
 5134SOL     OW16300   6.466   7.016   2.133
 5134SOL    HW116301   6.474   7.014   2.033
 5134SOL    HW216302   6.496   0.079   2.166
 5135SOL     OW16303   6.503   3.666   2.772
 5135SOL    HW116304   6.544   3.655   2.681
 5135SOL    HW216305   6.445   3.748   2.773
 5136SOL     OW16306   6.721   1.702   5.539
 5136SOL    HW116307   6.805   1.716   5.486
 5136SOL    HW216308   6.719   1.608   5.573
 5137SOL     OW16309   4.926   2.993   5.146
 5137SOL    HW116310   4.988   2.959   5.216
 5137SOL    HW216311   4.962   3.078   5.107
 5138SOL     OW16312   3.337   3.683   3.886
 5138SOL    HW116313   3.375   3.743   3.815
 5138SOL    HW216314   3.411   3.629   3.927
 5139SOL     OW16315   1.111   0.497   4.655
 5139SOL    HW116316   1.131   0.407   4.615
 5139SOL    HW216317   1.014   0.519   4.643
 5140SOL     OW16318   3.922   1.637   6.169
 5140SOL    HW116319   3.890   1.617   6.077
 5140SOL    HW216320   3.975   1.560   6.204
 5141SOL     OW16321   6.166   2.681   1.007
 5141SOL    HW116322   6.203   2.723   1.089
 5141SOL    HW216323   6.198   2.730   0.926
 5142SOL     OW16324   5.994   6.786   4.520
 5142SOL    HW116325   5.991   6.856   4.591
 5142SOL    HW216326   6.070   6.723   4.537
 5143SOL     OW16327   1.172   3.771   4.469
 5143SOL    HW116328   1.098   3.754   4.405
 5143SOL    HW216329   1.166   3.706   4.545
 5144SOL     OW16330   1.918   3.719   6.770
 5144SOL    HW116331   1.915   3.819   6.764
 5144SOL    HW216332   2.001   3.686   6.725
 5145SOL     OW16333   3.327   5.867   6.414
 5145SOL    HW116334   3.289   5.957   6.394
 5145SOL    HW216335   3.421   5.862   6.380
 5146SOL     OW16336   4.017   4.049   5.617
 5146SOL    HW116337   3.925   4.060   5.654
 5146SOL    HW216338   4.024   4.096   5.529
 5147SOL     OW16339   5.474   4.280   3.397
 5147SOL    HW116340   5.418   4.356   3.364
 5147SOL    HW216341   5.475   4.281   3.497
 5148SOL     OW16342   0.756   0.616   2.082
 5148SOL    HW116343   0.808   0.590   2.163
 5148SOL    HW216344   0.658   0.612   2.103
 5149SOL     OW16345   5.461   4.869   4.405
 5149SOL    HW116346   5.535   4.806   4.429
 5149SOL    HW216347   5.381   4.849   4.462
 5150SOL     OW16348   1.419   4.858   3.732
 5150SOL    HW116349   1.330   4.884   3.695
 5150SOL    HW216350   1.405   4.808   3.818
 5151SOL     OW16351   5.559   4.416   1.701
 5151SOL    HW116352   5.600   4.383   1.616
 5151SOL    HW216353   5.500   4.345   1.740
 5152SOL     OW16354   1.449   6.255   6.950
 5152SOL    HW116355   1.406   6.193   6.883
 5152SOL    HW216356   1.401   6.342   6.950
 5153SOL     OW16357   1.549   1.432   0.316
 5153SOL    HW116358   1.595   1.387   0.392
 5153SOL    HW216359   1.465   1.475   0.348
 5154SOL     OW16360   1.368   2.922   6.882
 5154SOL    HW116361   1.381   2.955   6.975
 5154SOL    HW216362   1.299   2.849   6.882
 5155SOL     OW16363   2.814   1.823   0.804
 5155SOL    HW116364   2.737   1.782   0.754
 5155SOL    HW216365   2.789   1.916   0.833
 5156SOL     OW16366   5.635   5.223   4.822
 5156SOL    HW116367   5.555   5.167   4.844
 5156SOL    HW216368   5.644   5.296   4.890
 5157SOL     OW16369   3.026   1.768   1.764
 5157SOL    HW116370   3.111   1.800   1.804
 5157SOL    HW216371   3.006   1.821   1.682
 5158SOL     OW16372   3.258   1.939   1.185
 5158SOL    HW116373   3.272   1.846   1.221
 5158SOL    HW216374   3.224   1.998   1.259
 5159SOL     OW16375   6.030   3.813   6.574
 5159SOL    HW116376   6.023   3.733   6.633
 5159SOL    HW216377   6.062   3.785   6.483
 5160SOL     OW16378   6.363   6.101   3.317
 5160SOL    HW116379   6.381   6.183   3.371
 5160SOL    HW216380   6.425   6.028   3.344
 5161SOL     OW16381   1.162   3.743   6.947
 5161SOL    HW116382   1.218   3.778   6.872
 5161SOL    HW216383   1.204   3.660   6.984
 5162SOL     OW16384   0.428   5.338   2.147
 5162SOL    HW116385   0.505   5.318   2.207
 5162SOL    HW216386   0.400   5.434   2.158
 5163SOL     OW16387   2.974   6.298   1.604
 5163SOL    HW116388   3.002   6.338   1.517
 5163SOL    HW216389   2.874   6.295   1.609
 5164SOL     OW16390   2.717   3.011   0.368
 5164SOL    HW116391   2.759   2.969   0.287
 5164SOL    HW216392   2.783   3.011   0.443
 5165SOL     OW16393   1.143   4.365   6.528
 5165SOL    HW116394   1.207   4.440   6.508
 5165SOL    HW216395   1.136   4.352   6.626
 5166SOL     OW16396   1.461   5.559   2.108
 5166SOL    HW116397   1.474   5.467   2.071
 5166SOL    HW216398   1.506   5.626   2.048
 5167SOL     OW16399   6.243   4.206   5.312
 5167SOL    HW116400   6.163   4.241   5.263
 5167SOL    HW216401   6.308   4.280   5.329
 5168SOL     OW16402   4.460   1.931   2.427
 5168SOL    HW116403   4.385   1.868   2.447
 5168SOL    HW216404   4.425   2.009   2.375
 5169SOL     OW16405   4.521   1.701   3.956
 5169SOL    HW116406   4.557   1.723   3.865
 5169SOL    HW216407   4.473   1.614   3.953
 5170SOL     OW16408   1.518   3.551   6.319
 5170SOL    HW116409   1.434   3.601   6.298
 5170SOL    HW216410   1.568   3.533   6.235
 5171SOL     OW16411   1.477   4.922   5.471
 5171SOL    HW116412   1.476   4.937   5.570
 5171SOL    HW216413   1.383   4.906   5.439
 5172SOL     OW16414   1.519   5.159   4.182
 5172SOL    HW116415   1.546   5.243   4.137
 5172SOL    HW216416   1.492   5.179   4.276
 5173SOL     OW16417   4.501   3.794   6.256
 5173SOL    HW116418   4.565   3.803   6.180
 5173SOL    HW216419   4.486   3.697   6.277
 5174SOL     OW16420   1.825   0.279   3.993
 5174SOL    HW116421   1.871   0.197   3.960
 5174SOL    HW216422   1.863   0.306   4.082
 5175SOL     OW16423   2.847   4.476   6.347
 5175SOL    HW116424   2.862   4.379   6.328
 5175SOL    HW216425   2.796   4.518   6.272
 5176SOL     OW16426   5.470   5.440   5.903
 5176SOL    HW116427   5.563   5.404   5.895
 5176SOL    HW216428   5.445   5.488   5.819
 5177SOL     OW16429   5.509   6.847   1.135
 5177SOL    HW116430   5.506   6.919   1.066
 5177SOL    HW216431   5.572   6.775   1.105
 5178SOL     OW16432   0.085   4.629   1.937
 5178SOL    HW116433   0.139   4.597   1.860
 5178SOL    HW216434   0.083   4.558   2.008
 5179SOL     OW16435   5.304   3.986   3.066
 5179SOL    HW116436   5.263   4.070   3.032
 5179SOL    HW216437   5.249   3.950   3.142
 5180SOL     OW16438   3.234   6.852   1.246
 5180SOL    HW116439   3.244   6.950   1.265
 5180SOL    HW216440   3.197   6.840   1.154
 5181SOL     OW16441   0.293   0.398   0.093
 5181SOL    HW116442   0.364   0.468   0.105
 5181SOL    HW216443   0.272   0.390   7.021
 5182SOL     OW16444   4.511   4.539   2.073
 5182SOL    HW116445   4.542   4.449   2.042
 5182SOL    HW216446   4.433   4.569   2.018
 5183SOL     OW16447   3.971   2.224   2.901
 5183SOL    HW116448   4.017   2.157   2.961
 5183SOL    HW216449   4.022   2.232   2.815
 5184SOL     OW16450   2.046   2.508   3.173
 5184SOL    HW116451   2.072   2.412   3.161
 5184SOL    HW216452   2.118   2.567   3.136
 5185SOL     OW16453   4.953   0.286   2.874
 5185SOL    HW116454   5.016   0.333   2.936
 5185SOL    HW216455   4.999   0.270   2.786
 5186SOL     OW16456   5.831   2.856   5.822
 5186SOL    HW116457   5.776   2.775   5.804
 5186SOL    HW216458   5.928   2.831   5.822
 5187SOL     OW16459   2.352   5.285   4.669
 5187SOL    HW116460   2.396   5.255   4.754
 5187SOL    HW216461   2.382   5.227   4.593
 5188SOL     OW16462   0.122   6.407   1.785
 5188SOL    HW116463   0.126   6.507   1.795
 5188SOL    HW216464   0.144   6.382   1.691
 5189SOL     OW16465   5.719   6.342   6.762
 5189SOL    HW116466   5.711   6.318   6.858
 5189SOL    HW216467   5.788   6.414   6.751
 5190SOL     OW16468   1.791   2.875   2.391
 5190SOL    HW116469   1.701   2.841   2.418
 5190SOL    HW216470   1.806   2.966   2.430
 5191SOL     OW16471   2.948   6.033   2.691
 5191SOL    HW116472   2.969   6.109   2.752
 5191SOL    HW216473   3.030   6.005   2.642
 5192SOL     OW16474   1.970   5.934   1.620
 5192SOL    HW116475   2.067   5.945   1.598
 5192SOL    HW216476   1.916   5.937   1.536
 5193SOL     OW16477   5.172   6.930   6.620
 5193SOL    HW116478   5.086   6.974   6.646
 5193SOL    HW216479   5.237   6.999   6.591
 5194SOL     OW16480   2.950   1.828   6.407
 5194SOL    HW116481   2.987   1.747   6.362
 5194SOL    HW216482   2.945   1.811   6.506
 5195SOL     OW16483   0.816   0.660   3.629
 5195SOL    HW116484   0.811   0.735   3.695
 5195SOL    HW216485   0.875   0.687   3.553
 5196SOL     OW16486   4.640   6.673   2.739
 5196SOL    HW116487   4.720   6.632   2.695
 5196SOL    HW216488   4.669   6.749   2.796
 5197SOL     OW16489   1.666   3.357   6.482
 5197SOL    HW116490   1.637   3.447   6.450
 5197SOL    HW216491   1.646   3.289   6.412
 5198SOL     OW16492   4.011   5.587   2.687
 5198SOL    HW116493   3.994   5.620   2.780
 5198SOL    HW216494   4.094   5.631   2.651
 5199SOL     OW16495   0.540   5.512   1.001
 5199SOL    HW116496   0.568   5.525   0.906
 5199SOL    HW216497   0.539   5.600   1.048
 5200SOL     OW16498   0.474   4.077   5.313
 5200SOL    HW116499   0.452   4.059   5.217
 5200SOL    HW216500   0.390   4.078   5.367
 5201SOL     OW16501   0.474   6.726   3.733
 5201SOL    HW116502   0.556   6.673   3.751
 5201SOL    HW216503   0.395   6.683   3.778
 5202SOL     OW16504   6.811   2.725   6.445
 5202SOL    HW116505   6.895   2.737   6.498
 5202SOL    HW216506   6.775   2.815   6.420
 5203SOL     OW16507   1.136   2.163   0.217
 5203SOL    HW116508   1.058   2.166   0.154
 5203SOL    HW216509   1.195   2.086   0.192
 5204SOL     OW16510   3.991   5.168   0.398
 5204SOL    HW116511   4.028   5.212   0.315
 5204SOL    HW216512   4.066   5.151   0.462
 5205SOL     OW16513   1.943   6.963   1.238
 5205SOL    HW116514   1.956   6.867   1.213
 5205SOL    HW216515   1.931   7.018   1.155
 5206SOL     OW16516   0.665   4.644   6.445
 5206SOL    HW116517   0.730   4.628   6.519
 5206SOL    HW216518   0.688   4.587   6.366
 5207SOL     OW16519   1.159   5.196   4.409
 5207SOL    HW116520   1.138   5.147   4.493
 5207SOL    HW216521   1.103   5.278   4.403
 5208SOL     OW16522   3.659   0.934   0.581
 5208SOL    HW116523   3.759   0.934   0.578
 5208SOL    HW216524   3.623   0.940   0.488
 5209SOL     OW16525   5.705   5.667   4.233
 5209SOL    HW116526   5.674   5.736   4.168
 5209SOL    HW216527   5.805   5.658   4.228
 5210SOL     OW16528   5.418   3.808   5.313
 5210SOL    HW116529   5.511   3.845   5.306
 5210SOL    HW216530   5.356   3.863   5.258
 5211SOL     OW16531   3.554   3.221   4.036
 5211SOL    HW116532   3.647   3.222   3.999
 5211SOL    HW216533   3.521   3.126   4.043
 5212SOL     OW16534   6.559   2.173   1.041
 5212SOL    HW116535   6.642   2.227   1.053
 5212SOL    HW216536   6.560   2.096   1.105
 5213SOL     OW16537   5.180   1.917   0.129
 5213SOL    HW116538   5.212   1.842   0.187
 5213SOL    HW216539   5.183   1.888   0.033
 5214SOL     OW16540   5.481   1.381   6.667
 5214SOL    HW116541   5.522   1.472   6.678
 5214SOL    HW216542   5.536   1.313   6.716
 5215SOL     OW16543   5.365   5.512   3.197
 5215SOL    HW116544   5.314   5.597   3.186
 5215SOL    HW216545   5.400   5.482   3.109
 5216SOL     OW16546   5.181   6.083   1.436
 5216SOL    HW116547   5.153   6.174   1.467
 5216SOL    HW216548   5.106   6.018   1.450
 5217SOL     OW16549   3.289   5.323   4.125
 5217SOL    HW116550   3.244   5.303   4.038
 5217SOL    HW216551   3.232   5.289   4.200
 5218SOL     OW16552   1.927   0.490   3.603
 5218SOL    HW116553   1.909   0.394   3.625
 5218SOL    HW216554   1.852   0.526   3.548
 5219SOL     OW16555   3.763   0.204   6.887
 5219SOL    HW116556   3.858   0.235   6.892
 5219SOL    HW216557   3.757   0.127   6.823
 5220SOL     OW16558   1.400   5.342   2.514
 5220SOL    HW116559   1.379   5.436   2.538
 5220SOL    HW216560   1.322   5.301   2.467
 5221SOL     OW16561   5.905   2.281   4.374
 5221SOL    HW116562   5.954   2.251   4.456
 5221SOL    HW216563   5.864   2.202   4.328
 5222SOL     OW16564   2.789   6.750   4.190
 5222SOL    HW116565   2.845   6.776   4.268
 5222SOL    HW216566   2.770   6.652   4.194
 5223SOL     OW16567   4.386   0.782   1.107
 5223SOL    HW116568   4.466   0.795   1.167
 5223SOL    HW216569   4.395   0.696   1.058
 5224SOL     OW16570   0.163   1.602   3.337
 5224SOL    HW116571   0.198   1.583   3.245
 5224SOL    HW216572   0.204   1.687   3.372
 5225SOL     OW16573   6.509   1.035   2.980
 5225SOL    HW116574   6.457   1.117   3.005
 5225SOL    HW216575   6.499   1.017   2.882
 5226SOL     OW16576   0.096   6.224   5.557
 5226SOL    HW116577   0.119   6.233   5.461
 5226SOL    HW216578   0.004   6.261   5.572
 5227SOL     OW16579   1.003   4.951   4.502
 5227SOL    HW116580   1.032   4.856   4.498
 5227SOL    HW216581   0.905   4.955   4.525
 5228SOL     OW16582   6.542   2.901   0.561
 5228SOL    HW116583   6.517   2.994   0.535
 5228SOL    HW216584   6.460   2.851   0.589
 5229SOL     OW16585   2.182   4.220   6.740
 5229SOL    HW116586   2.250   4.288   6.714
 5229SOL    HW216587   2.174   4.217   6.840
 5230SOL     OW16588   0.219   0.389   0.782
 5230SOL    HW116589   0.307   0.430   0.759
 5230SOL    HW216590   0.227   0.337   0.867
 5231SOL     OW16591   2.982   3.214   4.602
 5231SOL    HW116592   3.005   3.236   4.507
 5231SOL    HW216593   2.948   3.296   4.647
 5232SOL     OW16594   3.199   1.938   6.256
 5232SOL    HW116595   3.099   1.929   6.249
 5232SOL    HW216596   3.226   2.031   6.233
 5233SOL     OW16597   6.819   7.010   1.408
 5233SOL    HW116598   6.885   0.051   1.376
 5233SOL    HW216599   6.849   6.971   1.495
 5234SOL     OW16600   3.281   6.782   6.902
 5234SOL    HW116601   3.332   6.867   6.916
 5234SOL    HW216602   3.230   6.787   6.816
 5235SOL     OW16603   1.950   2.950   1.152
 5235SOL    HW116604   1.909   3.041   1.159
 5235SOL    HW216605   1.996   2.928   1.238
 5236SOL     OW16606   5.397   3.128   1.503
 5236SOL    HW116607   5.408   3.220   1.541
 5236SOL    HW216608   5.458   3.117   1.424
 5237SOL     OW16609   2.433   2.045   5.391
 5237SOL    HW116610   2.479   1.957   5.382
 5237SOL    HW216611   2.401   2.075   5.301
 5238SOL     OW16612   2.011   5.170   0.127
 5238SOL    HW116613   2.053   5.211   0.046
 5238SOL    HW216614   2.083   5.147   0.193
 5239SOL     OW16615   3.563   3.805   3.710
 5239SOL    HW116616   3.586   3.903   3.711
 5239SOL    HW216617   3.558   3.773   3.616
 5240SOL     OW16618   3.194   2.173   5.670
 5240SOL    HW116619   3.192   2.261   5.717
 5240SOL    HW216620   3.123   2.171   5.600
 5241SOL     OW16621   1.687   6.066   6.603
 5241SOL    HW116622   1.732   6.026   6.683
 5241SOL    HW216623   1.639   5.994   6.553
 5242SOL     OW16624   6.228   6.990   5.117
 5242SOL    HW116625   6.161   0.005   5.179
 5242SOL    HW216626   6.286   0.035   5.078
 5243SOL     OW16627   1.743   6.563   1.265
 5243SOL    HW116628   1.695   6.512   1.336
 5243SOL    HW216629   1.815   6.506   1.225
 5244SOL     OW16630   4.341   3.902   6.025
 5244SOL    HW116631   4.353   3.868   6.118
 5244SOL    HW216632   4.406   3.857   5.964
 5245SOL     OW16633   4.407   4.115   6.361
 5245SOL    HW116634   4.345   4.145   6.289
 5245SOL    HW216635   4.373   4.030   6.401
 5246SOL     OW16636   6.170   4.415   2.689
 5246SOL    HW116637   6.244   4.348   2.685
 5246SOL    HW216638   6.127   4.413   2.780
 5247SOL     OW16639   1.456   6.335   0.585
 5247SOL    HW116640   1.410   6.247   0.579
 5247SOL    HW216641   1.434   6.379   0.672
 5248SOL     OW16642   5.714   0.034   5.925
 5248SOL    HW116643   5.710   0.017   5.827
 5248SOL    HW216644   5.721   0.132   5.942
 5249SOL     OW16645   0.339   5.758   5.074
 5249SOL    HW116646   0.431   5.726   5.096
 5249SOL    HW216647   0.274   5.683   5.085
 5250SOL     OW16648   6.782   1.433   5.843
 5250SOL    HW116649   6.850   1.370   5.806
 5250SOL    HW216650   6.782   1.427   5.943
 5251SOL     OW16651   6.959   2.483   1.185
 5251SOL    HW116652   6.985   2.526   1.272
 5251SOL    HW216653   0.003   2.418   1.158
 5252SOL     OW16654   2.312   5.599   0.758
 5252SOL    HW116655   2.344   5.505   0.749
 5252SOL    HW216656   2.248   5.606   0.834
 5253SOL     OW16657   5.771   3.895   4.710
 5253SOL    HW116658   5.727   3.982   4.731
 5253SOL    HW216659   5.858   3.912   4.663
 5254SOL     OW16660   5.270   1.485   3.724
 5254SOL    HW116661   5.198   1.551   3.705
 5254SOL    HW216662   5.355   1.533   3.745
 5255SOL     OW16663   4.096   0.106   4.657
 5255SOL    HW116664   4.106   0.132   4.753
 5255SOL    HW216665   4.174   0.050   4.629
 5256SOL     OW16666   5.034   1.193   3.342
 5256SOL    HW116667   5.020   1.161   3.435
 5256SOL    HW216668   5.094   1.130   3.293
 5257SOL     OW16669   4.646   0.320   2.185
 5257SOL    HW116670   4.638   0.227   2.149
 5257SOL    HW216671   4.644   0.386   2.110
 5258SOL     OW16672   5.155   4.407   1.502
 5258SOL    HW116673   5.082   4.450   1.556
 5258SOL    HW216674   5.205   4.478   1.452
 5259SOL     OW16675   4.695   6.549   1.274
 5259SOL    HW116676   4.679   6.642   1.242
 5259SOL    HW216677   4.653   6.484   1.210
 5260SOL     OW16678   5.459   3.208   1.189
 5260SOL    HW116679   5.530   3.173   1.250
 5260SOL    HW216680   5.477   3.178   1.096
 5261SOL     OW16681   1.211   2.621   5.869
 5261SOL    HW116682   1.133   2.565   5.844
 5261SOL    HW216683   1.296   2.581   5.834
 5262SOL     OW16684   2.550   6.985   3.099
 5262SOL    HW116685   2.559   7.010   3.195
 5262SOL    HW216686   2.599   0.025   3.042
 5263SOL     OW16687   0.958   0.355   6.406
 5263SOL    HW116688   0.994   0.383   6.495
 5263SOL    HW216689   0.999   0.268   6.380
 5264SOL     OW16690   5.970   1.147   1.684
 5264SOL    HW116691   5.941   1.233   1.724
 5264SOL    HW216692   5.986   1.080   1.756
 5265SOL     OW16693   5.092   4.189   2.303
 5265SOL    HW116694   5.181   4.185   2.257
 5265SOL    HW216695   5.078   4.107   2.357
 5266SOL     OW16696   2.501   6.453   1.611
 5266SOL    HW116697   2.577   6.517   1.621
 5266SOL    HW216698   2.486   6.432   1.515
 5267SOL     OW16699   4.335   4.402   5.615
 5267SOL    HW116700   4.265   4.398   5.544
 5267SOL    HW216701   4.413   4.345   5.587
 5268SOL     OW16702   6.890   5.589   5.381
 5268SOL    HW116703   6.917   5.595   5.477
 5268SOL    HW216704   6.803   5.638   5.368
 5269SOL     OW16705   2.157   6.105   4.132
 5269SOL    HW116706   2.129   6.171   4.201
 5269SOL    HW216707   2.191   6.022   4.177
 5270SOL     OW16708   4.371   2.011   1.657
 5270SOL    HW116709   4.410   1.919   1.661
 5270SOL    HW216710   4.358   2.046   1.750
 5271SOL     OW16711   4.695   5.306   4.243
 5271SOL    HW116712   4.668   5.311   4.147
 5271SOL    HW216713   4.774   5.245   4.252
 5272SOL     OW16714   0.902   5.959   3.891
 5272SOL    HW116715   0.808   5.968   3.923
 5272SOL    HW216716   0.942   5.875   3.926
 5273SOL     OW16717   1.005   3.025   3.358
 5273SOL    HW116718   1.092   2.976   3.351
 5273SOL    HW216719   0.939   2.970   3.409
 5274SOL     OW16720   5.920   4.933   2.706
 5274SOL    HW116721   5.978   4.957   2.784
 5274SOL    HW216722   5.970   4.950   2.621
 5275SOL     OW16723   3.053   1.041   6.214
 5275SOL    HW116724   3.052   1.120   6.153
 5275SOL    HW216725   3.059   0.957   6.161
 5276SOL     OW16726   0.406   6.109   0.876
 5276SOL    HW116727   0.349   6.106   0.959
 5276SOL    HW216728   0.359   6.061   0.802
 5277SOL     OW16729   1.682   2.455   2.706
 5277SOL    HW116730   1.763   2.480   2.759
 5277SOL    HW216731   1.620   2.401   2.763
 5278SOL     OW16732   5.454   0.154   5.685
 5278SOL    HW116733   5.547   0.129   5.713
 5278SOL    HW216734   5.409   0.074   5.644
 5279SOL     OW16735   1.711   6.362   6.956
 5279SOL    HW116736   1.634   6.300   6.971
 5279SOL    HW216737   1.786   6.312   6.912
 5280SOL     OW16738   3.604   5.888   5.601
 5280SOL    HW116739   3.641   5.796   5.607
 5280SOL    HW216740   3.582   5.909   5.506
 5281SOL     OW16741   1.539   1.683   3.943
 5281SOL    HW116742   1.556   1.781   3.949
 5281SOL    HW216743   1.532   1.656   3.847
 5282SOL     OW16744   1.723   0.260   1.998
 5282SOL    HW116745   1.693   0.198   2.071
 5282SOL    HW216746   1.762   0.207   1.923
 5283SOL     OW16747   1.701   0.920   3.052
 5283SOL    HW116748   1.763   0.961   2.985
 5283SOL    HW216749   1.620   0.978   3.062
 5284SOL     OW16750   4.637   2.670   3.231
 5284SOL    HW116751   4.553   2.624   3.258
 5284SOL    HW216752   4.673   2.723   3.308
 5285SOL     OW16753   0.908   3.626   4.084
 5285SOL    HW116754   0.923   3.532   4.053
 5285SOL    HW216755   0.985   3.683   4.055
 5286SOL     OW16756   6.282   3.283   0.965
 5286SOL    HW116757   6.207   3.349   0.962
 5286SOL    HW216758   6.323   3.274   0.874
 5287SOL     OW16759   2.828   5.595   1.167
 5287SOL    HW116760   2.743   5.560   1.207
 5287SOL    HW216761   2.904   5.578   1.229
 5288SOL     OW16762   3.640   0.205   2.825
 5288SOL    HW116763   3.661   0.112   2.856
 5288SOL    HW216764   3.651   0.269   2.901
 5289SOL     OW16765   2.559   5.353   6.001
 5289SOL    HW116766   2.598   5.301   5.926
 5289SOL    HW216767   2.556   5.450   5.977
 5290SOL     OW16768   1.565   3.636   5.845
 5290SOL    HW116769   1.477   3.683   5.855
 5290SOL    HW216770   1.575   3.604   5.751
 5291SOL     OW16771   3.222   4.565   6.434
 5291SOL    HW116772   3.295   4.628   6.410
 5291SOL    HW216773   3.150   4.570   6.364
 5292SOL     OW16774   5.834   4.938   5.950
 5292SOL    HW116775   5.860   4.992   5.870
 5292SOL    HW216776   5.738   4.956   5.971
 5293SOL     OW16777   2.185   6.992   4.920
 5293SOL    HW116778   2.256   0.017   4.871
 5293SOL    HW216779   2.161   0.016   5.003
 5294SOL     OW16780   4.654   2.045   5.260
 5294SOL    HW116781   4.563   2.059   5.299
 5294SOL    HW216782   4.655   2.081   5.167
 5295SOL     OW16783   3.796   0.952   3.108
 5295SOL    HW116784   3.784   1.017   3.033
 5295SOL    HW216785   3.807   1.001   3.194
 5296SOL     OW16786   3.356   4.142   0.070
 5296SOL    HW116787   3.384   4.237   0.078
 5296SOL    HW216788   3.256   4.135   0.077
 5297SOL     OW16789   1.420   3.856   0.386
 5297SOL    HW116790   1.393   3.936   0.333
 5297SOL    HW216791   1.419   3.775   0.327
 5298SOL     OW16792   1.529   6.114   0.155
 5298SOL    HW116793   1.585   6.152   0.229
 5298SOL    HW216794   1.509   6.185   0.088
 5299SOL     OW16795   2.734   2.702   0.501
 5299SOL    HW116796   2.834   2.706   0.492
 5299SOL    HW216797   2.692   2.745   0.421
 5300SOL     OW16798   0.579   5.750   1.135
 5300SOL    HW116799   0.641   5.722   1.209
 5300SOL    HW216800   0.604   5.842   1.103
 5301SOL     OW16801   4.388   1.652   6.232
 5301SOL    HW116802   4.477   1.698   6.237
 5301SOL    HW216803   4.352   1.661   6.139
 5302SOL     OW16804   5.896   5.772   3.399
 5302SOL    HW116805   5.803   5.787   3.432
 5302SOL    HW216806   5.903   5.799   3.303
 5303SOL     OW16807   0.240   5.281   4.709
 5303SOL    HW116808   0.183   5.229   4.773
 5303SOL    HW216809   0.260   5.371   4.749
 5304SOL     OW16810   5.912   0.418   0.338
 5304SOL    HW116811   5.893   0.322   0.362
 5304SOL    HW216812   5.833   0.474   0.364
 5305SOL     OW16813   0.848   5.056   2.912
 5305SOL    HW116814   0.942   5.077   2.937
 5305SOL    HW216815   0.789   5.134   2.932
 5306SOL     OW16816   0.621   4.700   5.464
 5306SOL    HW116817   0.553   4.630   5.486
 5306SOL    HW216818   0.713   4.663   5.483
 5307SOL     OW16819   3.367   1.488   0.243
 5307SOL    HW116820   3.432   1.554   0.281
 5307SOL    HW216821   3.411   1.438   0.168
 5308SOL     OW16822   1.383   4.572   2.570
 5308SOL    HW116823   1.482   4.572   2.556
 5308SOL    HW216824   1.361   4.527   2.657
 5309SOL     OW16825   3.944   4.962   1.819
 5309SOL    HW116826   3.894   4.878   1.799
 5309SOL    HW216827   3.879   5.039   1.818
 5310SOL     OW16828   5.811   3.626   1.956
 5310SOL    HW116829   5.780   3.563   2.028
 5310SOL    HW216830   5.767   3.602   1.870
 5311SOL     OW16831   6.660   6.738   0.159
 5311SOL    HW116832   6.680   6.643   0.184
 5311SOL    HW216833   6.681   6.753   0.063
 5312SOL     OW16834   0.972   5.623   1.773
 5312SOL    HW116835   0.940   5.569   1.852
 5312SOL    HW216836   0.932   5.586   1.689
 5313SOL     OW16837   1.362   2.701   6.103
 5313SOL    HW116838   1.311   2.732   6.184
 5313SOL    HW216839   1.301   2.696   6.025
 5314SOL     OW16840   4.311   6.495   0.217
 5314SOL    HW116841   4.265   6.512   0.305
 5314SOL    HW216842   4.272   6.555   0.147
 5315SOL     OW16843   5.050   3.557   2.092
 5315SOL    HW116844   5.101   3.643   2.101
 5315SOL    HW216845   5.002   3.538   2.178
 5316SOL     OW16846   0.803   3.480   5.208
 5316SOL    HW116847   0.791   3.562   5.264
 5316SOL    HW216848   0.728   3.416   5.225
 5317SOL     OW16849   5.971   1.722   5.063
 5317SOL    HW116850   5.928   1.736   5.151
 5317SOL    HW216851   6.068   1.699   5.076
 5318SOL     OW16852   0.734   2.318   0.541
 5318SOL    HW116853   0.724   2.396   0.603
 5318SOL    HW216854   0.830   2.310   0.514
 5319SOL     OW16855   4.572   5.761   0.466
 5319SOL    HW116856   4.655   5.816   0.456
 5319SOL    HW216857   4.509   5.807   0.528
 5320SOL     OW16858   4.358   4.747   0.618
 5320SOL    HW116859   4.318   4.779   0.532
 5320SOL    HW216860   4.304   4.782   0.695
 5321SOL     OW16861   2.128   4.816   4.222
 5321SOL    HW116862   2.107   4.730   4.268
 5321SOL    HW216863   2.055   4.837   4.157
 5322SOL     OW16864   5.574   5.946   6.941
 5322SOL    HW116865   5.638   5.871   6.931
 5322SOL    HW216866   5.580   6.007   6.862
 5323SOL     OW16867   4.124   1.458   6.342
 5323SOL    HW116868   4.208   1.404   6.334
 5323SOL    HW216869   4.148   1.555   6.348
 5324SOL     OW16870   3.364   2.603   0.893
 5324SOL    HW116871   3.456   2.597   0.853
 5324SOL    HW216872   3.366   2.568   0.986
 5325SOL     OW16873   4.487   0.322   4.398
 5325SOL    HW116874   4.427   0.243   4.387
 5325SOL    HW216875   4.549   0.307   4.476
 5326SOL     OW16876   6.489   5.156   3.312
 5326SOL    HW116877   6.537   5.122   3.231
 5326SOL    HW216878   6.396   5.181   3.287
 5327SOL     OW16879   5.769   2.744   5.474
 5327SOL    HW116880   5.691   2.802   5.498
 5327SOL    HW216881   5.852   2.800   5.469
 5328SOL     OW16882   3.608   3.210   5.511
 5328SOL    HW116883   3.526   3.229   5.564
 5328SOL    HW216884   3.650   3.125   5.544
 5329SOL     OW16885   0.442   4.552   6.295
 5329SOL    HW116886   0.431   4.487   6.220
 5329SOL    HW216887   0.530   4.599   6.287
 5330SOL     OW16888   4.358   4.153   6.886
 5330SOL    HW116889   4.366   4.098   6.804
 5330SOL    HW216890   4.264   4.186   6.897
 5331SOL     OW16891   5.604   1.625   6.699
 5331SOL    HW116892   5.614   1.715   6.657
 5331SOL    HW216893   5.691   1.576   6.694
 5332SOL     OW16894   0.556   2.849   1.372
 5332SOL    HW116895   0.471   2.893   1.341
 5332SOL    HW216896   0.634   2.890   1.325
 5333SOL     OW16897   0.800   0.720   3.049
 5333SOL    HW116898   0.723   0.777   3.021
 5333SOL    HW216899   0.882   0.776   3.059
 5334SOL     OW16900   3.310   6.900   3.977
 5334SOL    HW116901   3.236   6.833   3.982
 5334SOL    HW216902   3.377   6.881   4.049
 5335SOL     OW16903   6.927   6.249   1.018
 5335SOL    HW116904   7.008   6.293   0.979
 5335SOL    HW216905   6.949   6.211   1.108
 5336SOL     OW16906   1.813   3.411   3.135
 5336SOL    HW116907   1.745   3.454   3.194
 5336SOL    HW216908   1.822   3.315   3.158
 5337SOL     OW16909   4.938   4.258   0.974
 5337SOL    HW116910   4.849   4.266   1.018
 5337SOL    HW216911   4.961   4.161   0.963
 5338SOL     OW16912   5.717   1.661   0.322
 5338SOL    HW116913   5.816   1.655   0.333
 5338SOL    HW216914   5.694   1.676   0.226
 5339SOL     OW16915   6.949   2.193   4.166
 5339SOL    HW116916   6.852   2.201   4.184
 5339SOL    HW216917   6.966   2.114   4.107
 5340SOL     OW16918   4.444   4.236   0.954
 5340SOL    HW116919   4.403   4.148   0.931
 5340SOL    HW216920   4.381   4.287   1.013
 5341SOL     OW16921   3.479   2.569   6.114
 5341SOL    HW116922   3.440   2.585   6.023
 5341SOL    HW216923   3.536   2.487   6.112
 5342SOL     OW16924   3.503   6.844   4.159
 5342SOL    HW116925   3.588   6.792   4.161
 5342SOL    HW216926   3.466   6.850   4.252
 5343SOL     OW16927   3.866   4.019   4.280
 5343SOL    HW116928   3.867   3.922   4.255
 5343SOL    HW216929   3.886   4.028   4.377
 5344SOL     OW16930   2.046   2.984   2.744
 5344SOL    HW116931   2.002   2.894   2.746
 5344SOL    HW216932   2.140   2.974   2.712
 5345SOL     OW16933   4.212   6.425   1.218
 5345SOL    HW116934   4.136   6.453   1.158
 5345SOL    HW216935   4.262   6.350   1.175
 5346SOL     OW16936   3.318   5.917   4.037
 5346SOL    HW116937   3.372   5.850   3.986
 5346SOL    HW216938   3.284   5.988   3.974
 5347SOL     OW16939   0.913   2.605   2.018
 5347SOL    HW116940   0.947   2.534   1.957
 5347SOL    HW216941   0.983   2.675   2.030
 5348SOL     OW16942   0.064   2.284   0.832
 5348SOL    HW116943   0.155   2.299   0.793
 5348SOL    HW216944   0.054   2.187   0.857
 5349SOL     OW16945   1.493   2.459   0.376
 5349SOL    HW116946   1.409   2.489   0.420
 5349SOL    HW216947   1.470   2.409   0.292
 5350SOL     OW16948   2.067   0.163   5.420
 5350SOL    HW116949   2.133   0.211   5.363
 5350SOL    HW216950   2.115   0.096   5.478
 5351SOL     OW16951   6.073   5.958   2.178
 5351SOL    HW116952   6.032   5.915   2.258
 5351SOL    HW216953   6.170   5.935   2.175
 5352SOL     OW16954   2.113   5.370   3.471
 5352SOL    HW116955   2.199   5.402   3.512
 5352SOL    HW216956   2.070   5.446   3.420
 5353SOL     OW16957   4.111   5.171   3.478
 5353SOL    HW116958   4.156   5.142   3.563
 5353SOL    HW216959   4.055   5.096   3.443
 5354SOL     OW16960   2.572   5.488   1.721
 5354SOL    HW116961   2.525   5.511   1.807
 5354SOL    HW216962   2.512   5.510   1.644
 5355SOL     OW16963   5.475   3.385   3.323
 5355SOL    HW116964   5.406   3.313   3.329
 5355SOL    HW216965   5.549   3.365   3.387
 5356SOL     OW16966   5.630   4.608   1.874
 5356SOL    HW116967   5.610   4.525   1.822
 5356SOL    HW216968   5.722   4.600   1.914
 5357SOL     OW16969   4.572   6.207   0.057
 5357SOL    HW116970   4.636   6.261   0.002
 5357SOL    HW216971   4.483   6.252   0.059
 5358SOL     OW16972   4.457   1.421   0.129
 5358SOL    HW116973   4.455   1.515   0.096
 5358SOL    HW216974   4.477   1.421   0.227
 5359SOL     OW16975   1.575   2.153   6.805
 5359SOL    HW116976   1.580   2.180   6.709
 5359SOL    HW216977   1.552   2.056   6.811
 5360SOL     OW16978   4.679   6.336   5.418
 5360SOL    HW116979   4.756   6.346   5.356
 5360SOL    HW216980   4.597   6.376   5.377
 5361SOL     OW16981   2.292   0.611   5.175
 5361SOL    HW116982   2.283   0.577   5.269
 5361SOL    HW216983   2.220   0.678   5.157
 5362SOL     OW16984   5.622   5.121   3.602
 5362SOL    HW116985   5.690   5.187   3.634
 5362SOL    HW216986   5.661   5.068   3.526
 5363SOL     OW16987   0.308   7.019   6.356
 5363SOL    HW116988   0.377   7.004   6.285
 5363SOL    HW216989   0.352   7.018   6.445
 5364SOL     OW16990   6.666   5.780   2.206
 5364SOL    HW116991   6.682   5.701   2.147
 5364SOL    HW216992   6.654   5.862   2.149
 5365SOL     OW16993   3.450   3.311   7.007
 5365SOL    HW116994   3.480   3.330   0.075
 5365SOL    HW216995   3.415   3.395   6.966
 5366SOL     OW16996   5.131   5.856   1.738
 5366SOL    HW116997   5.228   5.844   1.717
 5366SOL    HW216998   5.083   5.891   1.657
 5367SOL     OW16999   0.619   6.107   0.437
 5367SOL    HW117000   0.632   6.011   0.414
 5367SOL    HW217001   0.702   6.141   0.483
 5368SOL     OW17002   5.451   0.491   3.056
 5368SOL    HW117003   5.550   0.496   3.068
 5368SOL    HW217004   5.414   0.583   3.043
 5369SOL     OW17005   2.972   0.067   2.188
 5369SOL    HW117006   2.994   0.137   2.256
 5369SOL    HW217007   3.055   0.015   2.166
 5370SOL     OW17008   4.419   2.741   1.607
 5370SOL    HW117009   4.329   2.714   1.642
 5370SOL    HW217010   4.435   2.838   1.627
 5371SOL     OW17011   1.601   4.107   4.544
 5371SOL    HW117012   1.553   4.020   4.557
 5371SOL    HW217013   1.669   4.097   4.471
 5372SOL     OW17014   2.365   5.649   3.324
 5372SOL    HW117015   2.337   5.733   3.276
 5372SOL    HW217016   2.369   5.667   3.422
 5373SOL     OW17017   3.725   6.091   3.965
 5373SOL    HW117018   3.689   6.181   3.990
 5373SOL    HW217019   3.732   6.085   3.865
 5374SOL     OW17020   0.972   3.984   6.699
 5374SOL    HW117021   0.872   3.978   6.693
 5374SOL    HW217022   0.999   3.985   6.795
 5375SOL     OW17023   1.994   5.067   4.896
 5375SOL    HW117024   2.063   5.140   4.899
 5375SOL    HW217025   2.023   4.991   4.954
 5376SOL     OW17026   1.862   3.401   0.647
 5376SOL    HW117027   1.796   3.461   0.602
 5376SOL    HW217028   1.918   3.355   0.578
 5377SOL     OW17029   0.559   0.326   1.860
 5377SOL    HW117030   0.570   0.418   1.822
 5377SOL    HW217031   0.515   0.333   1.950
 5378SOL     OW17032   0.188   0.385   2.070
 5378SOL    HW117033   0.114   0.374   2.136
 5378SOL    HW217034   0.276   0.375   2.116
 5379SOL     OW17035   1.988   5.398   5.206
 5379SOL    HW117036   1.890   5.382   5.193
 5379SOL    HW217037   2.014   5.484   5.162
 5380SOL     OW17038   2.058   2.031   3.457
 5380SOL    HW117039   2.040   1.993   3.548
 5380SOL    HW217040   1.972   2.054   3.413
 5381SOL     OW17041   6.198   4.128   1.313
 5381SOL    HW117042   6.253   4.159   1.236
 5381SOL    HW217043   6.122   4.072   1.279
 5382SOL     OW17044   3.575   0.442   2.102
 5382SOL    HW117045   3.629   0.524   2.085
 5382SOL    HW217046   3.627   0.380   2.161
 5383SOL     OW17047   2.322   2.423   5.417
 5383SOL    HW117048   2.373   2.504   5.387
 5383SOL    HW217049   2.285   2.376   5.337
 5384SOL     OW17050   5.666   0.116   4.685
 5384SOL    HW117051   5.611   0.188   4.726
 5384SOL    HW217052   5.696   0.052   4.756
 5385SOL     OW17053   3.033   3.266   3.940
 5385SOL    HW117054   2.996   3.284   4.031
 5385SOL    HW217055   3.104   3.333   3.919
 5386SOL     OW17056   4.908   0.216   4.490
 5386SOL    HW117057   4.891   0.119   4.508
 5386SOL    HW217058   4.980   0.249   4.551
 5387SOL     OW17059   2.944   6.215   3.766
 5387SOL    HW117060   2.962   6.309   3.737
 5387SOL    HW217061   2.897   6.216   3.855
 5388SOL     OW17062   6.731   0.152   3.784
 5388SOL    HW117063   6.639   0.133   3.749
 5388SOL    HW217064   6.749   0.095   3.864
 5389SOL     OW17065   4.526   0.927   1.599
 5389SOL    HW117066   4.600   0.861   1.605
 5389SOL    HW217067   4.565   1.019   1.587
 5390SOL     OW17068   4.841   4.079   3.450
 5390SOL    HW117069   4.884   3.990   3.438
 5390SOL    HW217070   4.789   4.103   3.368
 5391SOL     OW17071   1.800   2.269   1.431
 5391SOL    HW117072   1.889   2.272   1.385
 5391SOL    HW217073   1.729   2.300   1.369
 5392SOL     OW17074   5.445   3.391   1.581
 5392SOL    HW117075   5.527   3.438   1.548
 5392SOL    HW217076   5.410   3.439   1.662
 5393SOL     OW17077   5.345   6.825   6.410
 5393SOL    HW117078   5.285   6.799   6.485
 5393SOL    HW217079   5.412   6.892   6.442
 5394SOL     OW17080   6.782   4.537   6.620
 5394SOL    HW117081   6.727   4.484   6.555
 5394SOL    HW217082   6.831   4.609   6.572
 5395SOL     OW17083   4.454   0.679   2.056
 5395SOL    HW117084   4.417   0.667   1.964
 5395SOL    HW217085   4.452   0.776   2.080
 5396SOL     OW17086   4.905   4.596   3.001
 5396SOL    HW117087   4.826   4.631   3.051
 5396SOL    HW217088   4.950   4.526   3.057
 5397SOL     OW17089   6.803   2.705   1.783
 5397SOL    HW117090   6.874   2.694   1.852
 5397SOL    HW217091   6.775   2.615   1.750
 5398SOL     OW17092   3.321   1.983   2.711
 5398SOL    HW117093   3.286   1.890   2.716
 5398SOL    HW217094   3.377   1.993   2.629
 5399SOL     OW17095   2.386   5.341   0.095
 5399SOL    HW117096   2.313   5.301   0.149
 5399SOL    HW217097   2.429   5.416   0.146
 5400SOL     OW17098   2.089   4.132   0.915
 5400SOL    HW117099   2.014   4.067   0.933
 5400SOL    HW217100   2.145   4.141   0.996
 5401SOL     OW17101   5.717   3.647   1.696
 5401SOL    HW117102   5.739   3.580   1.625
 5401SOL    HW217103   5.741   3.739   1.665
 5402SOL     OW17104   2.055   4.729   1.662
 5402SOL    HW117105   2.153   4.718   1.677
 5402SOL    HW217106   2.006   4.656   1.710
 5403SOL     OW17107   6.134   2.559   6.247
 5403SOL    HW117108   6.098   2.623   6.315
 5403SOL    HW217109   6.233   2.568   6.242
 5404SOL     OW17110   0.837   1.113   2.871
 5404SOL    HW117111   0.806   1.124   2.965
 5404SOL    HW217112   0.780   1.170   2.811
 5405SOL     OW17113   6.089   5.941   0.072
 5405SOL    HW117114   6.141   5.888   0.005
 5405SOL    HW217115   6.129   5.929   0.162
 5406SOL     OW17116   2.696   0.462   0.133
 5406SOL    HW117117   2.633   0.539   0.138
 5406SOL    HW217118   2.737   0.458   0.042
 5407SOL     OW17119   4.171   3.056   1.552
 5407SOL    HW117120   4.159   3.061   1.453
 5407SOL    HW217121   4.267   3.038   1.574
 5408SOL     OW17122   3.278   1.360   6.320
 5408SOL    HW117123   3.256   1.412   6.403
 5408SOL    HW217124   3.237   1.269   6.325
 5409SOL     OW17125   6.312   1.386   3.818
 5409SOL    HW117126   6.242   1.367   3.887
 5409SOL    HW217127   6.304   1.319   3.744
 5410SOL     OW17128   1.848   3.043   1.544
 5410SOL    HW117129   1.872   3.136   1.517
 5410SOL    HW217130   1.904   2.978   1.492
 5411SOL     OW17131   6.573   5.184   5.673
 5411SOL    HW117132   6.654   5.190   5.615
 5411SOL    HW217133   6.586   5.238   5.755
 5412SOL     OW17134   4.023   0.608   6.778
 5412SOL    HW117135   4.111   0.568   6.751
 5412SOL    HW217136   4.037   0.705   6.797
 5413SOL     OW17137   1.839   0.943   1.318
 5413SOL    HW117138   1.767   1.001   1.280
 5413SOL    HW217139   1.799   0.877   1.381
 5414SOL     OW17140   5.728   2.833   4.750
 5414SOL    HW117141   5.704   2.845   4.654
 5414SOL    HW217142   5.709   2.918   4.800
 5415SOL     OW17143   1.629   6.073   1.415
 5415SOL    HW117144   1.552   6.069   1.352
 5415SOL    HW217145   1.637   5.987   1.464
 5416SOL     OW17146   4.715   4.528   6.191
 5416SOL    HW117147   4.725   4.571   6.102
 5416SOL    HW217148   4.619   4.533   6.220
 5417SOL     OW17149   3.966   6.653   5.448
 5417SOL    HW117150   4.052   6.617   5.411
 5417SOL    HW217151   3.889   6.609   5.403
 5418SOL     OW17152   4.032   6.391   4.362
 5418SOL    HW117153   4.031   6.310   4.420
 5418SOL    HW217154   4.124   6.430   4.359
 5419SOL     OW17155   2.986   4.946   0.177
 5419SOL    HW117156   3.022   4.898   0.256
 5419SOL    HW217157   3.058   5.001   0.135
 5420SOL     OW17158   1.258   2.106   2.127
 5420SOL    HW117159   1.216   2.188   2.086
 5420SOL    HW217160   1.356   2.107   2.110
 5421SOL     OW17161   2.035   3.460   2.497
 5421SOL    HW117162   2.070   3.415   2.415
 5421SOL    HW217163   1.991   3.546   2.471
 5422SOL     OW17164   0.799   5.532   6.808
 5422SOL    HW117165   0.800   5.572   6.899
 5422SOL    HW217166   0.711   5.488   6.791
 5423SOL     OW17167   5.789   2.746   0.151
 5423SOL    HW117168   5.879   2.762   0.110
 5423SOL    HW217169   5.744   2.671   0.102
 5424SOL     OW17170   4.836   3.123   3.997
 5424SOL    HW117171   4.910   3.089   4.055
 5424SOL    HW217172   4.795   3.047   3.948
 5425SOL     OW17173   4.404   1.351   4.213
 5425SOL    HW117174   4.475   1.280   4.206
 5425SOL    HW217175   4.436   1.424   4.273
 5426SOL     OW17176   6.399   5.080   3.898
 5426SOL    HW117177   6.385   5.028   3.982
 5426SOL    HW217178   6.404   5.177   3.919
 5427SOL     OW17179   4.980   4.842   0.450
 5427SOL    HW117180   5.001   4.787   0.370
 5427SOL    HW217181   4.953   4.934   0.422
 5428SOL     OW17182   0.245   0.161   1.848
 5428SOL    HW117183   0.212   0.195   1.760
 5428SOL    HW217184   0.227   0.229   1.919
 5429SOL     OW17185   1.164   1.957   5.770
 5429SOL    HW117186   1.193   1.966   5.865
 5429SOL    HW217187   1.220   2.015   5.712
 5430SOL     OW17188   0.986   3.424   5.909
 5430SOL    HW117189   0.941   3.346   5.866
 5430SOL    HW217190   1.084   3.418   5.893
 5431SOL     OW17191   3.653   5.541   7.006
 5431SOL    HW117192   3.713   5.620   7.004
 5431SOL    HW217193   3.558   5.571   7.011
 5432SOL     OW17194   4.816   6.686   6.339
 5432SOL    HW117195   4.881   6.729   6.402
 5432SOL    HW217196   4.826   6.586   6.344
 5433SOL     OW17197   0.882   1.738   3.901
 5433SOL    HW117198   0.809   1.691   3.952
 5433SOL    HW217199   0.915   1.679   3.828
 5434SOL     OW17200   3.837   1.056   4.783
 5434SOL    HW117201   3.875   1.135   4.736
 5434SOL    HW217202   3.777   1.087   4.857
 5435SOL     OW17203   5.243   1.098   1.648
 5435SOL    HW117204   5.253   1.175   1.710
 5435SOL    HW217205   5.333   1.069   1.615
 5436SOL     OW17206   5.148   3.573   4.018
 5436SOL    HW117207   5.232   3.571   3.964
 5436SOL    HW217208   5.087   3.643   3.982
 5437SOL     OW17209   2.814   4.881   6.417
 5437SOL    HW117210   2.719   4.911   6.413
 5437SOL    HW217211   2.824   4.812   6.489
 5438SOL     OW17212   5.947   3.926   2.918
 5438SOL    HW117213   6.039   3.895   2.941
 5438SOL    HW217214   5.935   4.021   2.948
 5439SOL     OW17215   1.096   2.431   1.357
 5439SOL    HW117216   1.194   2.425   1.341
 5439SOL    HW217217   1.076   2.411   1.453
 5440SOL     OW17218   0.616   0.999   2.072
 5440SOL    HW117219   0.546   1.044   2.128
 5440SOL    HW217220   0.582   0.909   2.044
 5441SOL     OW17221   4.842   2.295   3.024
 5441SOL    HW117222   4.842   2.239   2.941
 5441SOL    HW217223   4.903   2.373   3.011
 5442SOL     OW17224   3.382   5.931   3.214
 5442SOL    HW117225   3.383   5.832   3.200
 5442SOL    HW217226   3.295   5.969   3.182
 5443SOL     OW17227   2.701   0.616   3.569
 5443SOL    HW117228   2.708   0.524   3.608
 5443SOL    HW217229   2.792   0.652   3.550
 5444SOL     OW17230   1.639   0.713   4.059
 5444SOL    HW117231   1.574   0.711   4.135
 5444SOL    HW217232   1.728   0.681   4.090
 5445SOL     OW17233   5.690   4.096   4.211
 5445SOL    HW117234   5.678   4.101   4.112
 5445SOL    HW217235   5.603   4.068   4.253
 5446SOL     OW17236   6.597   5.064   4.976
 5446SOL    HW117237   6.630   5.021   4.892
 5446SOL    HW217238   6.656   5.036   5.052
 5447SOL     OW17239   2.313   1.606   6.705
 5447SOL    HW117240   2.252   1.613   6.785
 5447SOL    HW217241   2.386   1.673   6.714
 5448SOL     OW17242   5.118   3.119   4.785
 5448SOL    HW117243   5.020   3.100   4.791
 5448SOL    HW217244   5.152   3.096   4.694
 5449SOL     OW17245   1.597   2.591   6.720
 5449SOL    HW117246   1.685   2.565   6.680
 5449SOL    HW217247   1.586   2.548   6.809
 5450SOL     OW17248   1.654   0.653   2.241
 5450SOL    HW117249   1.716   0.683   2.313
 5450SOL    HW217250   1.656   0.719   2.166
 5451SOL     OW17251   0.995   6.046   3.653
 5451SOL    HW117252   1.059   6.108   3.698
 5451SOL    HW217253   0.941   5.998   3.722
 5452SOL     OW17254   2.322   4.099   0.114
 5452SOL    HW117255   2.278   4.028   0.169
 5452SOL    HW217256   2.389   4.148   0.171
 5453SOL     OW17257   5.151   4.280   1.900
 5453SOL    HW117258   5.223   4.241   1.957
 5453SOL    HW217259   5.156   4.239   1.809
 5454SOL     OW17260   0.244   3.753   6.349
 5454SOL    HW117261   0.312   3.814   6.307
 5454SOL    HW217262   0.153   3.788   6.330
 5455SOL     OW17263   6.377   2.849   0.797
 5455SOL    HW117264   6.307   2.908   0.836
 5455SOL    HW217265   6.463   2.861   0.847
 5456SOL     OW17266   2.919   0.074   6.873
 5456SOL    HW117267   2.970   0.007   6.926
 5456SOL    HW217268   2.827   0.038   6.853
 5457SOL     OW17269   6.342   2.483   6.702
 5457SOL    HW117270   6.360   2.413   6.633
 5457SOL    HW217271   6.353   2.573   6.662
 5458SOL     OW17272   1.046   4.443   0.172
 5458SOL    HW117273   1.129   4.496   0.154
 5458SOL    HW217274   1.071   4.349   0.195
 5459SOL     OW17275   1.782   3.965   0.164
 5459SOL    HW117276   1.848   3.924   0.101
 5459SOL    HW217277   1.703   3.998   0.114
 5460SOL     OW17278   3.582   0.785   3.179
 5460SOL    HW117279   3.542   0.797   3.088
 5460SOL    HW217280   3.677   0.817   3.178
 5461SOL     OW17281   5.840   0.495   5.592
 5461SOL    HW117282   5.881   0.487   5.683
 5461SOL    HW217283   5.820   0.591   5.573
 5462SOL     OW17284   0.762   6.970   6.731
 5462SOL    HW117285   0.745   6.880   6.689
 5462SOL    HW217286   0.742   0.015   6.664
 5463SOL     OW17287   6.710   2.336   0.687
 5463SOL    HW117288   6.680   2.354   0.593
 5463SOL    HW217289   6.726   2.238   0.698
 5464SOL     OW17290   1.239   1.387   4.009
 5464SOL    HW117291   1.224   1.474   4.056
 5464SOL    HW217292   1.262   1.317   4.077
 5465SOL     OW17293   3.408   6.450   3.415
 5465SOL    HW117294   3.402   6.351   3.423
 5465SOL    HW217295   3.320   6.486   3.383
 5466SOL     OW17296   5.369   3.419   5.283
 5466SOL    HW117297   5.433   3.349   5.315
 5466SOL    HW217298   5.354   3.485   5.357
 5467SOL     OW17299   5.309   2.854   3.092
 5467SOL    HW117300   5.315   2.907   3.007
 5467SOL    HW217301   5.213   2.845   3.118
 5468SOL     OW17302   5.876   2.456   4.677
 5468SOL    HW117303   5.961   2.407   4.694
 5468SOL    HW217304   5.800   2.391   4.678
 5469SOL     OW17305   4.101   6.073   6.369
 5469SOL    HW117306   4.047   5.999   6.409
 5469SOL    HW217307   4.143   6.127   6.442
 5470SOL     OW17308   3.183   5.974   2.561
 5470SOL    HW117309   3.186   6.073   2.546
 5470SOL    HW217310   3.211   5.926   2.478
 5471SOL     OW17311   4.942   0.068   2.409
 5471SOL    HW117312   5.001   0.127   2.463
 5471SOL    HW217313   4.998   0.017   2.343
 5472SOL     OW17314   4.637   3.541   6.082
 5472SOL    HW117315   4.685   3.465   6.037
 5472SOL    HW217316   4.596   3.509   6.168
 5473SOL     OW17317   0.141   3.129   2.358
 5473SOL    HW117318   0.240   3.147   2.351
 5473SOL    HW217319   0.126   3.031   2.369
 5474SOL     OW17320   1.516   5.017   4.795
 5474SOL    HW117321   1.598   5.039   4.848
 5474SOL    HW217322   1.496   4.920   4.804
 5475SOL     OW17323   2.475   3.156   1.618
 5475SOL    HW117324   2.513   3.248   1.629
 5475SOL    HW217325   2.544   3.089   1.646
 5476SOL     OW17326   1.880   4.202   5.661
 5476SOL    HW117327   1.844   4.293   5.642
 5476SOL    HW217328   1.942   4.175   5.587
 5477SOL     OW17329   2.497   4.837   3.328
 5477SOL    HW117330   2.588   4.813   3.294
 5477SOL    HW217331   2.481   4.935   3.318
 5478SOL     OW17332   3.725   5.189   4.840
 5478SOL    HW117333   3.765   5.169   4.929
 5478SOL    HW217334   3.651   5.256   4.851
 5479SOL     OW17335   4.951   1.589   6.493
 5479SOL    HW117336   4.861   1.581   6.451
 5479SOL    HW217337   4.962   1.517   6.563
 5480SOL     OW17338   6.224   4.490   3.119
 5480SOL    HW117339   6.294   4.532   3.061
 5480SOL    HW217340   6.258   4.484   3.213
 5481SOL     OW17341   4.305   1.604   4.442
 5481SOL    HW117342   4.364   1.585   4.364
 5481SOL    HW217343   4.358   1.600   4.527
 5482SOL     OW17344   3.520   4.762   1.514
 5482SOL    HW117345   3.569   4.797   1.594
 5482SOL    HW217346   3.479   4.674   1.537
 5483SOL     OW17347   0.355   1.903   5.587
 5483SOL    HW117348   0.450   1.874   5.587
 5483SOL    HW217349   0.338   1.967   5.512
 5484SOL     OW17350   4.225   1.342   4.602
 5484SOL    HW117351   4.194   1.420   4.547
 5484SOL    HW217352   4.321   1.323   4.582
 5485SOL     OW17353   4.734   0.204   5.738
 5485SOL    HW117354   4.694   0.175   5.652
 5485SOL    HW217355   4.827   0.167   5.746
 5486SOL     OW17356   2.315   5.867   5.424
 5486SOL    HW117357   2.335   5.769   5.427
 5486SOL    HW217358   2.220   5.881   5.392
 5487SOL     OW17359   3.964   3.082   6.850
 5487SOL    HW117360   3.919   3.130   6.775
 5487SOL    HW217361   4.063   3.090   6.839
 5488SOL     OW17362   5.548   0.054   0.999
 5488SOL    HW117363   5.585   0.061   1.091
 5488SOL    HW217364   5.586   0.127   0.942
 5489SOL     OW17365   0.138   3.839   1.415
 5489SOL    HW117366   0.209   3.908   1.403
 5489SOL    HW217367   0.121   3.794   1.327
 5490SOL     OW17368   2.848   0.554   2.769
 5490SOL    HW117369   2.879   0.459   2.764
 5490SOL    HW217370   2.854   0.595   2.678
 5491SOL     OW17371   0.690   2.668   0.082
 5491SOL    HW117372   0.640   2.646   0.166
 5491SOL    HW217373   0.642   2.740   0.033
 5492SOL     OW17374   0.590   3.234   6.801
 5492SOL    HW117375   0.632   3.324   6.810
 5492SOL    HW217376   0.657   3.163   6.824
 5493SOL     OW17377   3.947   3.459   3.642
 5493SOL    HW117378   4.005   3.379   3.657
 5493SOL    HW217379   3.862   3.448   3.693
 5494SOL     OW17380   6.673   3.415   5.348
 5494SOL    HW117381   6.742   3.472   5.392
 5494SOL    HW217382   6.714   3.363   5.273
 5495SOL     OW17383   5.911   0.653   1.430
 5495SOL    HW117384   5.986   0.597   1.396
 5495SOL    HW217385   5.830   0.639   1.372
 5496SOL     OW17386   4.379   0.832   3.893
 5496SOL    HW117387   4.284   0.846   3.867
 5496SOL    HW217388   4.386   0.752   3.953
 5497SOL     OW17389   0.840   1.265   5.018
 5497SOL    HW117390   0.926   1.316   5.018
 5497SOL    HW217391   0.834   1.210   5.101
 5498SOL     OW17392   0.187   4.941   2.258
 5498SOL    HW117393   0.246   4.885   2.316
 5498SOL    HW217394   0.185   4.903   2.166
 5499SOL     OW17395   0.819   0.585   3.893
 5499SOL    HW117396   0.850   0.506   3.841
 5499SOL    HW217397   0.765   0.645   3.834
 5500SOL     OW17398   0.658   1.075   6.439
 5500SOL    HW117399   0.650   0.975   6.442
 5500SOL    HW217400   0.730   1.100   6.374
 5501SOL     OW17401   3.632   1.927   0.712
 5501SOL    HW117402   3.691   1.914   0.632
 5501SOL    HW217403   3.631   2.024   0.737
 5502SOL     OW17404   5.470   3.398   6.269
 5502SOL    HW117405   5.438   3.356   6.354
 5502SOL    HW217406   5.553   3.351   6.238
 5503SOL     OW17407   7.014   4.298   0.615
 5503SOL    HW117408   7.018   4.202   0.643
 5503SOL    HW217409   6.922   4.318   0.581
 5504SOL     OW17410   4.913   1.115   5.244
 5504SOL    HW117411   4.870   1.070   5.166
 5504SOL    HW217412   4.952   1.202   5.213
 5505SOL     OW17413   2.146   4.900   3.057
 5505SOL    HW117414   2.241   4.869   3.045
 5505SOL    HW217415   2.140   4.957   3.139
 5506SOL     OW17416   0.265   3.331   0.714
 5506SOL    HW117417   0.210   3.336   0.631
 5506SOL    HW217418   0.236   3.252   0.769
 5507SOL     OW17419   3.303   0.603   5.105
 5507SOL    HW117420   3.288   0.701   5.101
 5507SOL    HW217421   3.401   0.584   5.103
 5508SOL     OW17422   1.079   0.714   0.355
 5508SOL    HW117423   1.073   0.622   0.394
 5508SOL    HW217424   1.134   0.711   0.272
 5509SOL     OW17425   1.174   6.048   0.578
 5509SOL    HW117426   1.142   6.133   0.619
 5509SOL    HW217427   1.141   5.970   0.631
 5510SOL     OW17428   4.401   5.254   6.791
 5510SOL    HW117429   4.344   5.300   6.858
 5510SOL    HW217430   4.421   5.317   6.716
 5511SOL     OW17431   1.668   0.998   5.270
 5511SOL    HW117432   1.585   0.960   5.313
 5511SOL    HW217433   1.643   1.041   5.184
 5512SOL     OW17434   3.388   1.472   0.762
 5512SOL    HW117435   3.454   1.522   0.705
 5512SOL    HW217436   3.350   1.534   0.830
 5513SOL     OW17437   3.527   5.189   5.906
 5513SOL    HW117438   3.482   5.163   5.991
 5513SOL    HW217439   3.485   5.272   5.869
 5514SOL     OW17440   3.446   0.519   4.834
 5514SOL    HW117441   3.499   0.438   4.811
 5514SOL    HW217442   3.483   0.561   4.917
 5515SOL     OW17443   1.613   5.688   1.859
 5515SOL    HW117444   1.588   5.757   1.927
 5515SOL    HW217445   1.693   5.637   1.890
 5516SOL     OW17446   2.025   2.866   4.400
 5516SOL    HW117447   2.092   2.932   4.435
 5516SOL    HW217448   2.074   2.791   4.355
 5517SOL     OW17449   2.074   3.658   1.834
 5517SOL    HW117450   2.091   3.746   1.877
 5517SOL    HW217451   2.146   3.594   1.861
 5518SOL     OW17452   6.189   4.923   5.756
 5518SOL    HW117453   6.275   4.928   5.704
 5518SOL    HW217454   6.119   4.976   5.708
 5519SOL     OW17455   5.793   3.446   3.244
 5519SOL    HW117456   5.723   3.377   3.227
 5519SOL    HW217457   5.834   3.474   3.158
 5520SOL     OW17458   5.305   6.811   2.630
 5520SOL    HW117459   5.374   6.741   2.614
 5520SOL    HW217460   5.226   6.770   2.676
 5521SOL     OW17461   5.874   5.958   1.747
 5521SOL    HW117462   5.860   5.859   1.738
 5521SOL    HW217463   5.818   6.006   1.679
 5522SOL     OW17464   6.466   5.345   1.210
 5522SOL    HW117465   6.487   5.422   1.151
 5522SOL    HW217466   6.413   5.376   1.289
 5523SOL     OW17467   4.459   0.943   2.079
 5523SOL    HW117468   4.473   1.005   2.001
 5523SOL    HW217469   4.459   0.996   2.164
 5524SOL     OW17470   3.370   0.140   4.829
 5524SOL    HW117471   3.448   0.192   4.792
 5524SOL    HW217472   3.305   0.121   4.756
 5525SOL     OW17473   0.975   2.227   0.432
 5525SOL    HW117474   1.046   2.197   0.368
 5525SOL    HW217475   0.997   2.193   0.523
 5526SOL     OW17476   5.051   4.984   2.999
 5526SOL    HW117477   4.974   4.920   2.993
 5526SOL    HW217478   5.019   5.072   3.034
 5527SOL     OW17479   5.056   3.663   3.177
 5527SOL    HW117480   5.060   3.612   3.262
 5527SOL    HW217481   5.147   3.662   3.134
 5528SOL     OW17482   2.163   0.705   1.094
 5528SOL    HW117483   2.077   0.750   1.114
 5528SOL    HW217484   2.156   0.656   1.007
 5529SOL     OW17485   3.151   0.076   4.089
 5529SOL    HW117486   3.068   0.020   4.095
 5529SOL    HW217487   3.224   0.022   4.047
 5530SOL     OW17488   6.078   2.065   1.413
 5530SOL    HW117489   6.034   2.040   1.499
 5530SOL    HW217490   6.060   1.995   1.344
 5531SOL     OW17491   3.850   3.517   1.509
 5531SOL    HW117492   3.821   3.440   1.452
 5531SOL    HW217493   3.927   3.488   1.567
 5532SOL     OW17494   1.431   3.183   0.816
 5532SOL    HW117495   1.392   3.094   0.838
 5532SOL    HW217496   1.358   3.250   0.802
 5533SOL     OW17497   4.999   1.245   3.618
 5533SOL    HW117498   5.092   1.279   3.631
 5533SOL    HW217499   4.938   1.286   3.685
 5534SOL     OW17500   1.148   1.042   6.511
 5534SOL    HW117501   1.116   1.040   6.416
 5534SOL    HW217502   1.133   0.952   6.552
 5535SOL     OW17503   1.046   1.327   2.479
 5535SOL    HW117504   1.143   1.349   2.477
 5535SOL    HW217505   1.026   1.257   2.410
 5536SOL     OW17506   4.305   0.510   4.352
 5536SOL    HW117507   4.225   0.458   4.321
 5536SOL    HW217508   4.388   0.458   4.335
 5537SOL     OW17509   3.790   1.169   2.603
 5537SOL    HW117510   3.825   1.249   2.651
 5537SOL    HW217511   3.743   1.197   2.520
 5538SOL     OW17512   3.676   6.235   5.038
 5538SOL    HW117513   3.582   6.253   5.011
 5538SOL    HW217514   3.732   6.221   4.956
 5539SOL     OW17515   1.616   3.627   1.794
 5539SOL    HW117516   1.573   3.557   1.737
 5539SOL    HW217517   1.602   3.717   1.754
 5540SOL     OW17518   5.029   4.441   4.000
 5540SOL    HW117519   4.938   4.467   3.967
 5540SOL    HW217520   5.083   4.523   4.018
 5541SOL     OW17521   5.341   0.448   6.659
 5541SOL    HW117522   5.321   0.454   6.561
 5541SOL    HW217523   5.280   0.509   6.709
 5542SOL     OW17524   4.205   3.359   6.362
 5542SOL    HW117525   4.183   3.341   6.266
 5542SOL    HW217526   4.121   3.368   6.415
 5543SOL     OW17527   5.536   3.701   6.519
 5543SOL    HW117528   5.445   3.691   6.477
 5543SOL    HW217529   5.599   3.740   6.452
 5544SOL     OW17530   5.212   0.098   6.167
 5544SOL    HW117531   5.273   0.132   6.239
 5544SOL    HW217532   5.265   0.080   6.084
 5545SOL     OW17533   4.078   1.899   2.889
 5545SOL    HW117534   4.082   1.801   2.904
 5545SOL    HW217535   4.130   1.923   2.807
 5546SOL     OW17536   1.217   5.723   5.431
 5546SOL    HW117537   1.124   5.689   5.417
 5546SOL    HW217538   1.236   5.795   5.366
 5547SOL     OW17539   2.654   6.276   4.770
 5547SOL    HW117540   2.658   6.313   4.863
 5547SOL    HW217541   2.571   6.221   4.760
 5548SOL     OW17542   6.395   3.676   5.998
 5548SOL    HW117543   6.428   3.760   5.955
 5548SOL    HW217544   6.295   3.676   5.998
 5549SOL     OW17545   3.644   4.681   0.134
 5549SOL    HW117546   3.720   4.728   0.181
 5549SOL    HW217547   3.654   4.582   0.145
 5550SOL     OW17548   2.460   5.533   1.964
 5550SOL    HW117549   2.400   5.613   1.968
 5550SOL    HW217550   2.522   5.534   2.042
 5551SOL     OW17551   1.486   0.614   3.111
 5551SOL    HW117552   1.514   0.671   3.188
 5551SOL    HW217553   1.476   0.670   3.029
 5552SOL     OW17554   7.025   1.651   0.260
 5552SOL    HW117555   7.006   1.746   0.282
 5552SOL    HW217556   0.097   1.639   0.244
 5553SOL     OW17557   4.230   6.764   0.075
 5553SOL    HW117558   4.280   6.845   0.105
 5553SOL    HW217559   4.266   6.733   7.013
 5554SOL     OW17560   3.009   2.436   5.640
 5554SOL    HW117561   3.030   2.412   5.545
 5554SOL    HW217562   2.918   2.402   5.664
 5555SOL     OW17563   0.368   5.909   3.583
 5555SOL    HW117564   0.375   5.810   3.600
 5555SOL    HW217565   0.329   5.954   3.663
 5556SOL     OW17566   0.771   2.200   4.871
 5556SOL    HW117567   0.800   2.110   4.838
 5556SOL    HW217568   0.777   2.266   4.796
 5557SOL     OW17569   2.682   5.785   3.988
 5557SOL    HW117570   2.735   5.704   4.013
 5557SOL    HW217571   2.641   5.770   3.897
 5558SOL     OW17572   5.128   2.681   4.967
 5558SOL    HW117573   5.087   2.625   4.895
 5558SOL    HW217574   5.079   2.666   5.053
 5559SOL     OW17575   2.369   0.369   1.027
 5559SOL    HW117576   2.459   0.345   1.063
 5559SOL    HW217577   2.376   0.385   0.929
 5560SOL     OW17578   0.250   0.605   2.793
 5560SOL    HW117579   0.208   0.515   2.800
 5560SOL    HW217580   0.187   0.668   2.747
 5561SOL     OW17581   1.444   3.328   3.715
 5561SOL    HW117582   1.465   3.314   3.812
 5561SOL    HW217583   1.369   3.267   3.688
 5562SOL     OW17584   1.907   2.771   6.168
 5562SOL    HW117585   1.843   2.748   6.242
 5562SOL    HW217586   1.915   2.694   6.106
 5563SOL     OW17587   4.410   6.460   2.353
 5563SOL    HW117588   4.469   6.451   2.433
 5563SOL    HW217589   4.332   6.518   2.376
 5564SOL     OW17590   5.040   3.849   1.775
 5564SOL    HW117591   4.976   3.812   1.843
 5564SOL    HW217592   5.013   3.817   1.684
 5565SOL     OW17593   4.136   2.538   5.511
 5565SOL    HW117594   4.145   2.634   5.540
 5565SOL    HW217595   4.048   2.525   5.466
 5566SOL     OW17596   1.678   5.589   0.669
 5566SOL    HW117597   1.627   5.502   0.673
 5566SOL    HW217598   1.644   5.650   0.740
 5567SOL     OW17599   1.948   5.577   1.132
 5567SOL    HW117600   1.908   5.486   1.125
 5567SOL    HW217601   1.975   5.595   1.227
 5568SOL     OW17602   4.289   1.565   0.873
 5568SOL    HW117603   4.378   1.539   0.912
 5568SOL    HW217604   4.282   1.665   0.872
 5569SOL     OW17605   4.095   1.449   1.510
 5569SOL    HW117606   4.157   1.380   1.472
 5569SOL    HW217607   4.070   1.422   1.603
 5570SOL     OW17608   5.990   4.833   5.342
 5570SOL    HW117609   6.021   4.847   5.249
 5570SOL    HW217610   6.049   4.766   5.387
 5571SOL     OW17611   0.465   5.832   0.547
 5571SOL    HW117612   0.435   5.794   0.459
 5571SOL    HW217613   0.416   5.918   0.564
 5572SOL     OW17614   4.328   2.296   6.353
 5572SOL    HW117615   4.258   2.266   6.417
 5572SOL    HW217616   4.399   2.346   6.402
 5573SOL     OW17617   1.177   4.069   0.536
 5573SOL    HW117618   1.220   3.984   0.567
 5573SOL    HW217619   1.202   4.143   0.598
 5574SOL     OW17620   0.681   6.825   4.822
 5574SOL    HW117621   0.747   6.864   4.886
 5574SOL    HW217622   0.693   6.865   4.732
 5575SOL     OW17623   1.676   0.876   0.891
 5575SOL    HW117624   1.592   0.921   0.921
 5575SOL    HW217625   1.660   0.778   0.878
 5576SOL     OW17626   6.086   5.531   0.648
 5576SOL    HW117627   6.113   5.481   0.565
 5576SOL    HW217628   6.010   5.593   0.627
 5577SOL     OW17629   2.033   3.417   5.507
 5577SOL    HW117630   2.098   3.341   5.499
 5577SOL    HW217631   2.084   3.502   5.523
 5578SOL     OW17632   3.773   2.083   7.011
 5578SOL    HW117633   3.786   1.992   0.025
 5578SOL    HW217634   3.862   2.119   6.982
 5579SOL     OW17635   5.004   3.557   6.894
 5579SOL    HW117636   4.997   3.458   6.905
 5579SOL    HW217637   5.014   3.579   6.797
 5580SOL     OW17638   5.087   1.617   0.421
 5580SOL    HW117639   4.993   1.651   0.422
 5580SOL    HW217640   5.118   1.601   0.515
 5581SOL     OW17641   2.067   0.535   6.640
 5581SOL    HW117642   2.143   0.599   6.648
 5581SOL    HW217643   2.096   0.445   6.674
 5582SOL     OW17644   3.515   3.515   4.011
 5582SOL    HW117645   3.512   3.416   3.996
 5582SOL    HW217646   3.549   3.533   4.103
 5583SOL     OW17647   3.231   6.903   2.102
 5583SOL    HW117648   3.269   6.939   2.017
 5583SOL    HW217649   3.213   6.805   2.091
 5584SOL     OW17650   6.160   4.249   3.448
 5584SOL    HW117651   6.257   4.273   3.437
 5584SOL    HW217652   6.104   4.332   3.437
 5585SOL     OW17653   6.526   0.638   3.668
 5585SOL    HW117654   6.566   0.547   3.679
 5585SOL    HW217655   6.587   0.695   3.613
 5586SOL     OW17656   2.321   1.587   6.028
 5586SOL    HW117657   2.254   1.638   5.973
 5586SOL    HW217658   2.413   1.606   5.993
 5587SOL     OW17659   3.975   0.653   3.297
 5587SOL    HW117660   3.907   0.700   3.353
 5587SOL    HW217661   3.964   0.554   3.309
 5588SOL     OW17662   2.345   0.077   5.250
 5588SOL    HW117663   2.327   0.130   5.167
 5588SOL    HW217664   2.380   7.013   5.226
 5589SOL     OW17665   5.001   2.456   6.244
 5589SOL    HW117666   5.045   2.538   6.280
 5589SOL    HW217667   4.921   2.433   6.300
 5590SOL     OW17668   6.486   6.248   4.484
 5590SOL    HW117669   6.452   6.167   4.436
 5590SOL    HW217670   6.507   6.319   4.417
 5591SOL     OW17671   5.728   0.794   0.040
 5591SOL    HW117672   5.707   0.844   0.124
 5591SOL    HW217673   5.805   0.733   0.056
 5592SOL     OW17674   1.336   4.254   2.618
 5592SOL    HW117675   1.332   4.294   2.527
 5592SOL    HW217676   1.244   4.245   2.656
 5593SOL     OW17677   1.001   2.802   5.902
 5593SOL    HW117678   1.072   2.735   5.922
 5593SOL    HW217679   1.042   2.883   5.860
 5594SOL     OW17680   2.312   0.065   0.287
 5594SOL    HW117681   2.372   0.082   0.365
 5594SOL    HW217682   2.366   0.061   0.203
 5595SOL     OW17683   6.395   1.013   5.509
 5595SOL    HW117684   6.348   0.946   5.567
 5595SOL    HW217685   6.347   1.101   5.514
 5596SOL     OW17686   5.266   0.465   2.221
 5596SOL    HW117687   5.172   0.482   2.191
 5596SOL    HW217688   5.276   0.491   2.317
 5597SOL     OW17689   5.753   1.213   6.289
 5597SOL    HW117690   5.776   1.244   6.197
 5597SOL    HW217691   5.837   1.201   6.342
 5598SOL     OW17692   5.360   1.712   4.004
 5598SOL    HW117693   5.419   1.705   3.923
 5598SOL    HW217694   5.344   1.621   4.042
 5599SOL     OW17695   5.038   4.075   1.642
 5599SOL    HW117696   5.030   3.994   1.699
 5599SOL    HW217697   4.954   4.128   1.647
 5600SOL     OW17698   1.963   0.605   2.812
 5600SOL    HW117699   1.995   0.517   2.846
 5600SOL    HW217700   1.903   0.647   2.880
 5601SOL     OW17701   5.198   3.023   5.674
 5601SOL    HW117702   5.242   3.026   5.764
 5601SOL    HW217703   5.210   3.110   5.627
 5602SOL     OW17704   0.797   2.368   3.642
 5602SOL    HW117705   0.809   2.269   3.627
 5602SOL    HW217706   0.885   2.414   3.631
 5603SOL     OW17707   4.384   2.437   4.797
 5603SOL    HW117708   4.342   2.390   4.720
 5603SOL    HW217709   4.321   2.436   4.875
 5604SOL     OW17710   1.096   0.165   4.142
 5604SOL    HW117711   1.066   0.242   4.199
 5604SOL    HW217712   1.140   0.201   4.059
 5605SOL     OW17713   2.015   6.781   4.270
 5605SOL    HW117714   1.957   6.788   4.188
 5605SOL    HW217715   2.006   6.689   4.309
 5606SOL     OW17716   4.620   1.924   0.686
 5606SOL    HW117717   4.702   1.921   0.744
 5606SOL    HW217718   4.643   1.891   0.595
 5607SOL     OW17719   6.201   2.416   2.590
 5607SOL    HW117720   6.178   2.421   2.687
 5607SOL    HW217721   6.202   2.508   2.551
 5608SOL     OW17722   5.598   1.153   3.911
 5608SOL    HW117723   5.519   1.097   3.888
 5608SOL    HW217724   5.665   1.097   3.960
 5609SOL     OW17725   5.723   6.604   1.231
 5609SOL    HW117726   5.747   6.645   1.143
 5609SOL    HW217727   5.785   6.640   1.301
 5610SOL     OW17728   5.562   4.476   7.002
 5610SOL    HW117729   5.525   4.569   7.010
 5610SOL    HW217730   5.572   4.437   0.067
 5611SOL     OW17731   0.546   5.251   1.417
 5611SOL    HW117732   0.511   5.333   1.372
 5611SOL    HW217733   0.487   5.173   1.397
 5612SOL     OW17734   2.974   1.147   0.748
 5612SOL    HW117735   3.056   1.102   0.714
 5612SOL    HW217736   2.959   1.122   0.844
 5613SOL     OW17737   0.088   5.123   4.868
 5613SOL    HW117738   0.055   5.030   4.886
 5613SOL    HW217739   0.011   5.185   4.856
 5614SOL     OW17740   5.917   2.085   4.740
 5614SOL    HW117741   5.844   2.153   4.736
 5614SOL    HW217742   5.916   2.039   4.829
 5615SOL     OW17743   6.811   2.431   2.206
 5615SOL    HW117744   6.768   2.511   2.248
 5615SOL    HW217745   6.800   2.351   2.266
 5616SOL     OW17746   1.860   3.229   3.399
 5616SOL    HW117747   1.951   3.217   3.440
 5616SOL    HW217748   1.798   3.268   3.467
 5617SOL     OW17749   2.226   5.482   5.867
 5617SOL    HW117750   2.234   5.431   5.782
 5617SOL    HW217751   2.304   5.545   5.876
 5618SOL     OW17752   6.794   5.444   4.132
 5618SOL    HW117753   6.801   5.542   4.119
 5618SOL    HW217754   6.885   5.406   4.149
 5619SOL     OW17755   3.567   3.537   4.299
 5619SOL    HW117756   3.489   3.596   4.318
 5619SOL    HW217757   3.638   3.554   4.367
 5620SOL     OW17758   4.177   4.401   5.393
 5620SOL    HW117759   4.219   4.414   5.303
 5620SOL    HW217760   4.121   4.481   5.415
 5621SOL     OW17761   1.557   2.650   4.870
 5621SOL    HW117762   1.496   2.706   4.816
 5621SOL    HW217763   1.628   2.610   4.811
 5622SOL     OW17764   4.415   5.286   4.684
 5622SOL    HW117765   4.500   5.335   4.706
 5622SOL    HW217766   4.414   5.263   4.587
 5623SOL     OW17767   4.433   6.298   4.158
 5623SOL    HW117768   4.399   6.391   4.143
 5623SOL    HW217769   4.356   6.234   4.159
 5624SOL     OW17770   0.002   5.729   4.290
 5624SOL    HW117771   7.016   5.748   4.193
 5624SOL    HW217772   6.992   5.805   4.344
 5625SOL     OW17773   1.426   5.800   4.819
 5625SOL    HW117774   1.384   5.861   4.752
 5625SOL    HW217775   1.450   5.714   4.775
 5626SOL     OW17776   2.141   3.840   4.199
 5626SOL    HW117777   2.166   3.784   4.121
 5626SOL    HW217778   2.202   3.820   4.276
 5627SOL     OW17779   1.409   5.788   0.420
 5627SOL    HW117780   1.399   5.754   0.513
 5627SOL    HW217781   1.430   5.886   0.423
 5628SOL     OW17782   2.987   2.717   0.501
 5628SOL    HW117783   2.992   2.649   0.428
 5628SOL    HW217784   3.067   2.708   0.560
 5629SOL     OW17785   4.751   3.922   1.190
 5629SOL    HW117786   4.741   3.989   1.263
 5629SOL    HW217787   4.662   3.903   1.149
 5630SOL     OW17788   1.481   3.988   6.734
 5630SOL    HW117789   1.394   3.971   6.689
 5630SOL    HW217790   1.550   3.923   6.700
 5631SOL     OW17791   4.299   0.797   2.340
 5631SOL    HW117792   4.267   0.815   2.247
 5631SOL    HW217793   4.399   0.806   2.343
 5632SOL     OW17794   6.108   0.334   6.029
 5632SOL    HW117795   6.133   0.302   6.120
 5632SOL    HW217796   6.146   0.273   5.960
 5633SOL     OW17797   0.441   4.596   5.631
 5633SOL    HW117798   0.405   4.661   5.697
 5633SOL    HW217799   0.442   4.505   5.670
 5634SOL     OW17800   2.856   6.071   6.177
 5634SOL    HW117801   2.934   6.008   6.177
 5634SOL    HW217802   2.779   6.028   6.224
 5635SOL     OW17803   2.915   6.792   6.414
 5635SOL    HW117804   2.855   6.865   6.447
 5635SOL    HW217805   2.880   6.704   6.447
 5636SOL     OW17806   6.571   0.854   5.352
 5636SOL    HW117807   6.512   0.912   5.408
 5636SOL    HW217808   6.562   0.879   5.256
 5637SOL     OW17809   4.878   6.138   4.493
 5637SOL    HW117810   4.888   6.080   4.411
 5637SOL    HW217811   4.792   6.116   4.538
 5638SOL     OW17812   5.335   5.967   1.203
 5638SOL    HW117813   5.430   5.940   1.190
 5638SOL    HW217814   5.325   6.015   1.290
 5639SOL     OW17815   1.511   0.415   1.401
 5639SOL    HW117816   1.578   0.385   1.333
 5639SOL    HW217817   1.437   0.348   1.407
 5640SOL     OW17818   2.483   6.004   3.091
 5640SOL    HW117819   2.398   6.029   3.045
 5640SOL    HW217820   2.461   5.957   3.176
 5641SOL     OW17821   1.422   5.282   4.753
 5641SOL    HW117822   1.384   5.299   4.844
 5641SOL    HW217823   1.464   5.191   4.752
 5642SOL     OW17824   1.273   4.923   6.094
 5642SOL    HW117825   1.245   4.832   6.062
 5642SOL    HW217826   1.206   4.959   6.158
 5643SOL     OW17827   3.754   2.077   4.446
 5643SOL    HW117828   3.746   2.079   4.346
 5643SOL    HW217829   3.843   2.113   4.473
 5644SOL     OW17830   5.476   1.552   5.121
 5644SOL    HW117831   5.391   1.578   5.076
 5644SOL    HW217832   5.515   1.631   5.168
 5645SOL     OW17833   4.998   5.300   2.098
 5645SOL    HW117834   5.073   5.235   2.088
 5645SOL    HW217835   4.917   5.253   2.131
 5646SOL     OW17836   0.189   5.955   3.809
 5646SOL    HW117837   0.122   5.966   3.735
 5646SOL    HW217838   0.206   6.043   3.852
 5647SOL     OW17839   6.691   5.726   0.017
 5647SOL    HW117840   6.636   5.794   0.065
 5647SOL    HW217841   6.670   5.730   6.945
 5648SOL     OW17842   2.038   1.688   2.927
 5648SOL    HW117843   2.137   1.684   2.922
 5648SOL    HW217844   2.010   1.764   2.986
 5649SOL     OW17845   1.879   0.372   4.624
 5649SOL    HW117846   1.814   0.434   4.668
 5649SOL    HW217847   1.955   0.424   4.587
 5650SOL     OW17848   0.042   4.991   1.062
 5650SOL    HW117849   6.989   4.997   1.002
 5650SOL    HW217850   0.013   4.980   1.157
 5651SOL     OW17851   0.228   1.660   1.683
 5651SOL    HW117852   0.306   1.598   1.688
 5651SOL    HW217853   0.257   1.753   1.706
 5652SOL     OW17854   5.374   5.821   1.666
 5652SOL    HW117855   5.399   5.900   1.610
 5652SOL    HW217856   5.439   5.747   1.650
 5653SOL     OW17857   6.542   5.957   5.746
 5653SOL    HW117858   6.587   6.033   5.698
 5653SOL    HW217859   6.594   5.933   5.828
 5654SOL     OW17860   0.257   0.401   6.026
 5654SOL    HW117861   0.255   0.330   6.097
 5654SOL    HW217862   0.170   0.400   5.976
 5655SOL     OW17863   1.353   3.591   3.674
 5655SOL    HW117864   1.253   3.579   3.671
 5655SOL    HW217865   1.396   3.503   3.695
 5656SOL     OW17866   2.825   3.860   0.677
 5656SOL    HW117867   2.869   3.855   0.767
 5656SOL    HW217868   2.893   3.887   0.608
 5657SOL     OW17869   4.670   6.926   1.285
 5657SOL    HW117870   4.587   6.908   1.337
 5657SOL    HW217871   4.712   7.010   1.318
 5658SOL     OW17872   2.926   6.680   5.513
 5658SOL    HW117873   2.902   6.596   5.463
 5658SOL    HW217874   2.991   6.657   5.586
 5659SOL     OW17875   3.009   3.127   2.862
 5659SOL    HW117876   2.994   3.225   2.850
 5659SOL    HW217877   3.032   3.108   2.957
 5660SOL     OW17878   5.506   0.321   0.408
 5660SOL    HW117879   5.455   0.302   0.324
 5660SOL    HW217880   5.592   0.269   0.407
 5661SOL     OW17881   0.099   6.272   5.274
 5661SOL    HW117882   0.011   6.229   5.254
 5661SOL    HW217883   0.096   6.368   5.246
 5662SOL     OW17884   2.391   4.427   3.767
 5662SOL    HW117885   2.443   4.469   3.693
 5662SOL    HW217886   2.335   4.353   3.730
 5663SOL     OW17887   1.069   4.187   0.307
 5663SOL    HW117888   1.116   4.151   0.387
 5663SOL    HW217889   0.973   4.159   0.309
 5664SOL     OW17890   0.069   4.753   3.224
 5664SOL    HW117891   0.074   4.765   3.125
 5664SOL    HW217892   0.161   4.745   3.261
 5665SOL     OW17893   1.832   2.540   6.590
 5665SOL    HW117894   1.886   2.460   6.563
 5665SOL    HW217895   1.788   2.580   6.510
 5666SOL     OW17896   4.577   5.684   0.992
 5666SOL    HW117897   4.502   5.629   1.028
 5666SOL    HW217898   4.660   5.665   1.045
 5667SOL     OW17899   0.312   5.064   3.314
 5667SOL    HW117900   0.330   4.976   3.270
 5667SOL    HW217901   0.304   5.051   3.413
 5668SOL     OW17902   4.689   1.355   6.587
 5668SOL    HW117903   4.641   1.402   6.514
 5668SOL    HW217904   4.660   1.260   6.592
 5669SOL     OW17905   0.207   5.137   5.657
 5669SOL    HW117906   0.116   5.109   5.687
 5669SOL    HW217907   0.199   5.205   5.584
 5670SOL     OW17908   0.368   3.210   3.422
 5670SOL    HW117909   0.367   3.207   3.522
 5670SOL    HW217910   0.306   3.281   3.391
 5671SOL     OW17911   2.406   6.631   6.133
 5671SOL    HW117912   2.407   6.684   6.049
 5671SOL    HW217913   2.322   6.652   6.185
 5672SOL     OW17914   4.994   3.545   6.385
 5672SOL    HW117915   4.925   3.615   6.370
 5672SOL    HW217916   4.953   3.455   6.373
 5673SOL     OW17917   0.494   0.582   2.525
 5673SOL    HW117918   0.507   0.666   2.472
 5673SOL    HW217919   0.398   0.574   2.552
 5674SOL     OW17920   0.174   3.774   1.665
 5674SOL    HW117921   0.135   3.804   1.578
 5674SOL    HW217922   0.250   3.833   1.690
 5675SOL     OW17923   4.397   2.755   5.419
 5675SOL    HW117924   4.382   2.731   5.515
 5675SOL    HW217925   4.318   2.806   5.384
 5676SOL     OW17926   1.745   0.585   1.199
 5676SOL    HW117927   1.701   0.653   1.258
 5676SOL    HW217928   1.701   0.585   1.109
 5677SOL     OW17929   6.630   2.141   3.560
 5677SOL    HW117930   6.649   2.110   3.653
 5677SOL    HW217931   6.566   2.217   3.563
 5678SOL     OW17932   3.582   6.431   2.758
 5678SOL    HW117933   3.645   6.492   2.711
 5678SOL    HW217934   3.575   6.345   2.706
 5679SOL     OW17935   1.309   6.866   4.838
 5679SOL    HW117936   1.293   6.775   4.874
 5679SOL    HW217937   1.238   6.890   4.772
 5680SOL     OW17938   1.837   5.348   6.695
 5680SOL    HW117939   1.924   5.380   6.731
 5680SOL    HW217940   1.783   5.427   6.664
 5681SOL     OW17941   0.655   2.866   6.445
 5681SOL    HW117942   0.651   2.923   6.362
 5681SOL    HW217943   0.726   2.797   6.434
 5682SOL     OW17944   1.710   3.087   5.654
 5682SOL    HW117945   1.760   3.167   5.687
 5682SOL    HW217946   1.724   3.078   5.555
 5683SOL     OW17947   3.821   2.344   6.383
 5683SOL    HW117948   3.898   2.398   6.415
 5683SOL    HW217949   3.842   2.305   6.293
 5684SOL     OW17950   4.044   3.146   4.282
 5684SOL    HW117951   4.025   3.048   4.283
 5684SOL    HW217952   3.958   3.197   4.287
 5685SOL     OW17953   0.605   4.832   2.116
 5685SOL    HW117954   0.564   4.920   2.095
 5685SOL    HW217955   0.537   4.773   2.161
 5686SOL     OW17956   3.521   6.983   0.467
 5686SOL    HW117957   3.499   6.886   0.478
 5686SOL    HW217958   3.456   7.025   0.402
 5687SOL     OW17959   6.372   4.180   4.693
 5687SOL    HW117960   6.441   4.111   4.670
 5687SOL    HW217961   6.373   4.251   4.622
 5688SOL     OW17962   6.184   1.793   0.878
 5688SOL    HW117963   6.128   1.831   0.951
 5688SOL    HW217964   6.279   1.821   0.891
 5689SOL     OW17965   4.516   1.368   0.379
 5689SOL    HW117966   4.606   1.342   0.413
 5689SOL    HW217967   4.469   1.423   0.448
 5690SOL     OW17968   3.658   5.946   0.502
 5690SOL    HW117969   3.565   5.915   0.523
 5690SOL    HW217970   3.654   6.028   0.445
 5691SOL     OW17971   2.881   6.151   2.154
 5691SOL    HW117972   2.805   6.180   2.212
 5691SOL    HW217973   2.897   6.219   2.084
 5692SOL     OW17974   6.620   1.940   6.409
 5692SOL    HW117975   6.556   1.988   6.470
 5692SOL    HW217976   6.673   2.007   6.357
 5693SOL     OW17977   5.081   2.824   2.254
 5693SOL    HW117978   5.041   2.882   2.326
 5693SOL    HW217979   5.008   2.774   2.207
 5694SOL     OW17980   0.496   1.102   3.423
 5694SOL    HW117981   0.533   1.166   3.356
 5694SOL    HW217982   0.404   1.074   3.396
 5695SOL     OW17983   1.085   2.443   3.632
 5695SOL    HW117984   1.088   2.399   3.722
 5695SOL    HW217985   1.164   2.413   3.578
 5696SOL     OW17986   3.112   1.241   4.693
 5696SOL    HW117987   3.114   1.318   4.630
 5696SOL    HW217988   3.170   1.167   4.658
 5697SOL     OW17989   6.886   2.056   0.951
 5697SOL    HW117990   6.864   2.001   1.032
 5697SOL    HW217991   6.866   2.152   0.970
 5698SOL     OW17992   0.230   2.250   2.103
 5698SOL    HW117993   0.171   2.310   2.155
 5698SOL    HW217994   0.316   2.297   2.082
 5699SOL     OW17995   6.381   1.628   3.737
 5699SOL    HW117996   6.379   1.531   3.760
 5699SOL    HW217997   6.396   1.682   3.819
 5700SOL     OW17998   0.589   6.676   4.472
 5700SOL    HW117999   0.641   6.703   4.553
 5700SOL    HW218000   0.652   6.642   4.401
 5701SOL     OW18001   0.379   5.586   3.253
 5701SOL    HW118002   0.469   5.562   3.218
 5701SOL    HW218003   0.369   5.686   3.253
 5702SOL     OW18004   1.730   0.152   6.203
 5702SOL    HW118005   1.733   0.182   6.108
 5702SOL    HW218006   1.737   0.052   6.206
 5703SOL     OW18007   4.959   5.167   6.840
 5703SOL    HW118008   4.860   5.160   6.824
 5703SOL    HW218009   4.979   5.136   6.933
 5704SOL     OW18010   4.363   5.742   3.035
 5704SOL    HW118011   4.349   5.671   2.967
 5704SOL    HW218012   4.341   5.831   2.995
 5705SOL     OW18013   6.273   1.102   0.814
 5705SOL    HW118014   6.328   1.023   0.840
 5705SOL    HW218015   6.262   1.163   0.893
 5706SOL     OW18016   1.669   1.583   0.079
 5706SOL    HW118017   1.616   1.524   0.140
 5706SOL    HW218018   1.635   1.676   0.085
 5707SOL     OW18019   1.217   6.998   6.690
 5707SOL    HW118020   1.195   6.925   6.625
 5707SOL    HW218021   1.149   0.045   6.682
 5708SOL     OW18022   5.527   6.919   2.153
 5708SOL    HW118023   5.598   6.986   2.174
 5708SOL    HW218024   5.447   6.936   2.210
 5709SOL     OW18025   0.511   6.449   3.112
 5709SOL    HW118026   0.454   6.406   3.182
 5709SOL    HW218027   0.598   6.477   3.153
 5710SOL     OW18028   2.631   3.754   5.785
 5710SOL    HW118029   2.727   3.728   5.796
 5710SOL    HW218030   2.620   3.808   5.702
 5711SOL     OW18031   4.761   0.802   4.142
 5711SOL    HW118032   4.719   0.723   4.188
 5711SOL    HW218033   4.854   0.778   4.114
 5712SOL     OW18034   0.489   0.239   5.435
 5712SOL    HW118035   0.536   0.327   5.428
 5712SOL    HW218036   0.471   0.219   5.532
 5713SOL     OW18037   0.392   2.417   1.468
 5713SOL    HW118038   0.461   2.442   1.537
 5713SOL    HW218039   0.434   2.356   1.400
 5714SOL     OW18040   1.388   6.539   6.905
 5714SOL    HW118041   1.485   6.563   6.909
 5714SOL    HW218042   1.356   6.544   6.811
 5715SOL     OW18043   0.951   6.065   3.373
 5715SOL    HW118044   0.956   5.982   3.318
 5715SOL    HW218045   0.941   6.041   3.469
 5716SOL     OW18046   1.421   3.976   5.765
 5716SOL    HW118047   1.502   4.030   5.741
 5716SOL    HW218048   1.428   3.946   5.860
 5717SOL     OW18049   1.872   4.890   0.437
 5717SOL    HW118050   1.865   4.916   0.533
 5717SOL    HW218051   1.794   4.926   0.386
 5718SOL     OW18052   1.602   4.623   6.789
 5718SOL    HW118053   1.645   4.703   6.832
 5718SOL    HW218054   1.525   4.593   6.846
 5719SOL     OW18055   2.787   0.933   5.875
 5719SOL    HW118056   2.754   1.002   5.811
 5719SOL    HW218057   2.721   0.858   5.879
 5720SOL     OW18058   0.598   5.128   4.946
 5720SOL    HW118059   0.631   5.050   4.999
 5720SOL    HW218060   0.500   5.117   4.929
 5721SOL     OW18061   0.871   3.380   0.155
 5721SOL    HW118062   0.924   3.458   0.185
 5721SOL    HW218063   0.932   3.302   0.138
 5722SOL     OW18064   5.519   0.895   5.442
 5722SOL    HW118065   5.593   0.945   5.398
 5722SOL    HW218066   5.517   0.801   5.406
 5723SOL     OW18067   4.369   4.894   0.894
 5723SOL    HW118068   4.271   4.903   0.878
 5723SOL    HW218069   4.418   4.968   0.847
 5724SOL     OW18070   3.981   2.310   5.935
 5724SOL    HW118071   4.064   2.364   5.921
 5724SOL    HW218072   3.901   2.368   5.918
 5725SOL     OW18073   5.151   5.603   3.626
 5725SOL    HW118074   5.137   5.647   3.537
 5725SOL    HW218075   5.116   5.662   3.699
 5726SOL     OW18076   6.526   3.756   4.780
 5726SOL    HW118077   6.434   3.717   4.777
 5726SOL    HW218078   6.553   3.770   4.876
 5727SOL     OW18079   5.674   3.207   3.184
 5727SOL    HW118080   5.576   3.218   3.197
 5727SOL    HW218081   5.704   3.122   3.229
 5728SOL     OW18082   5.467   1.240   6.420
 5728SOL    HW118083   5.564   1.248   6.395
 5728SOL    HW218084   5.448   1.297   6.499
 5729SOL     OW18085   0.396   1.642   0.561
 5729SOL    HW118086   0.371   1.549   0.588
 5729SOL    HW218087   0.425   1.694   0.641
 5730SOL     OW18088   3.698   5.611   5.547
 5730SOL    HW118089   3.610   5.576   5.515
 5730SOL    HW218090   3.729   5.557   5.626
 5731SOL     OW18091   1.277   6.415   3.938
 5731SOL    HW118092   1.351   6.356   3.908
 5731SOL    HW218093   1.227   6.449   3.859
 5732SOL     OW18094   6.093   5.188   4.186
 5732SOL    HW118095   6.110   5.230   4.097
 5732SOL    HW218096   6.171   5.208   4.247
 5733SOL     OW18097   3.477   0.950   6.602
 5733SOL    HW118098   3.497   0.864   6.649
 5733SOL    HW218099   3.469   1.024   6.669
 5734SOL     OW18100   1.239   0.103   5.446
 5734SOL    HW118101   1.200   0.016   5.477
 5734SOL    HW218102   1.167   0.172   5.444
 5735SOL     OW18103   3.878   1.433   1.973
 5735SOL    HW118104   3.959   1.421   2.030
 5735SOL    HW218105   3.797   1.437   2.031
 5736SOL     OW18106   5.328   4.586   6.126
 5736SOL    HW118107   5.313   4.487   6.119
 5736SOL    HW218108   5.426   4.605   6.121
 5737SOL     OW18109   4.865   6.545   1.013
 5737SOL    HW118110   4.918   6.521   1.094
 5737SOL    HW218111   4.794   6.611   1.039
 5738SOL     OW18112   3.658   1.316   6.479
 5738SOL    HW118113   3.604   1.397   6.500
 5738SOL    HW218114   3.752   1.344   6.457
 5739SOL     OW18115   1.720   6.684   5.707
 5739SOL    HW118116   1.802   6.659   5.657
 5739SOL    HW218117   1.737   6.678   5.806
 5740SOL     OW18118   4.802   3.416   0.780
 5740SOL    HW118119   4.807   3.438   0.878
 5740SOL    HW218120   4.813   3.317   0.768
 5741SOL     OW18121   0.670   3.951   3.657
 5741SOL    HW118122   0.705   3.901   3.736
 5741SOL    HW218123   0.586   3.908   3.625
 5742SOL     OW18124   4.145   6.904   3.794
 5742SOL    HW118125   4.085   6.896   3.875
 5742SOL    HW218126   4.163   7.001   3.776
 5743SOL     OW18127   3.696   4.797   5.990
 5743SOL    HW118128   3.711   4.788   5.892
 5743SOL    HW218129   3.621   4.736   6.018
 5744SOL     OW18130   6.212   0.931   3.115
 5744SOL    HW118131   6.158   0.968   3.040
 5744SOL    HW218132   6.270   1.003   3.153
 5745SOL     OW18133   2.602   1.968   3.276
 5745SOL    HW118134   2.508   1.971   3.311
 5745SOL    HW218135   2.612   2.036   3.203
 5746SOL     OW18136   4.116   0.246   3.708
 5746SOL    HW118137   4.067   0.270   3.791
 5746SOL    HW218138   4.211   0.226   3.730
 5747SOL     OW18139   0.951   6.184   1.986
 5747SOL    HW118140   0.958   6.084   1.991
 5747SOL    HW218141   1.021   6.218   1.923
 5748SOL     OW18142   0.488   6.746   0.787
 5748SOL    HW118143   0.516   6.654   0.760
 5748SOL    HW218144   0.396   6.764   0.752
 5749SOL     OW18145   2.088   6.683   4.983
 5749SOL    HW118146   2.014   6.616   4.991
 5749SOL    HW218147   2.080   6.731   4.896
 5750SOL     OW18148   6.671   4.569   5.442
 5750SOL    HW118149   6.660   4.665   5.419
 5750SOL    HW218150   6.743   4.528   5.385
 5751SOL     OW18151   1.383   3.554   4.742
 5751SOL    HW118152   1.462   3.584   4.796
 5751SOL    HW218153   1.416   3.505   4.661
 5752SOL     OW18154   5.874   0.291   1.489
 5752SOL    HW118155   5.915   0.212   1.534
 5752SOL    HW218156   5.896   0.374   1.540
 5753SOL     OW18157   3.212   4.057   5.134
 5753SOL    HW118158   3.196   3.961   5.157
 5753SOL    HW218159   3.285   4.063   5.066
 5754SOL     OW18160   1.480   5.894   2.325
 5754SOL    HW118161   1.434   5.980   2.346
 5754SOL    HW218162   1.515   5.853   2.409
 5755SOL     OW18163   1.572   1.959   5.917
 5755SOL    HW118164   1.635   2.029   5.951
 5755SOL    HW218165   1.593   1.872   5.961
 5756SOL     OW18166   6.830   0.354   2.437
 5756SOL    HW118167   6.793   0.264   2.463
 5756SOL    HW218168   6.862   0.401   2.518
 5757SOL     OW18169   0.265   5.586   4.175
 5757SOL    HW118170   0.191   5.529   4.141
 5757SOL    HW218171   0.248   5.610   4.270
 5758SOL     OW18172   2.156   0.165   3.524
 5758SOL    HW118173   2.203   0.226   3.460
 5758SOL    HW218174   2.123   0.085   3.475
 5759SOL     OW18175   4.784   6.966   2.179
 5759SOL    HW118176   4.801   6.870   2.158
 5759SOL    HW218177   4.849   6.997   2.248
 5760SOL     OW18178   6.820   3.173   2.242
 5760SOL    HW118179   6.864   3.161   2.153
 5760SOL    HW218180   6.742   3.235   2.231
 5761SOL     OW18181   5.055   5.969   4.774
 5761SOL    HW118182   5.050   6.051   4.832
 5761SOL    HW218183   5.015   5.891   4.823
 5762SOL     OW18184   4.516   4.496   0.428
 5762SOL    HW118185   4.567   4.414   0.404
 5762SOL    HW218186   4.460   4.525   0.351
 5763SOL     OW18187   5.532   6.376   0.588
 5763SOL    HW118188   5.524   6.290   0.538
 5763SOL    HW218189   5.500   6.451   0.530
 5764SOL     OW18190   4.345   5.598   3.425
 5764SOL    HW118191   4.279   5.525   3.409
 5764SOL    HW218192   4.336   5.632   3.519
 5765SOL     OW18193   6.593   3.731   0.704
 5765SOL    HW118194   6.548   3.692   0.784
 5765SOL    HW218195   6.610   3.829   0.719
 5766SOL     OW18196   2.175   2.307   4.443
 5766SOL    HW118197   2.182   2.385   4.380
 5766SOL    HW218198   2.203   2.335   4.535
 5767SOL     OW18199   2.676   0.011   6.778
 5767SOL    HW118200   2.672   6.969   6.706
 5767SOL    HW218201   2.584   0.045   6.797
 5768SOL     OW18202   6.991   6.764   3.465
 5768SOL    HW118203   6.922   6.816   3.415
 5768SOL    HW218204   6.967   6.667   3.465
 5769SOL     OW18205   2.804   5.168   5.122
 5769SOL    HW118206   2.727   5.104   5.129
 5769SOL    HW218207   2.783   5.238   5.053
 5770SOL     OW18208   0.193   6.272   6.970
 5770SOL    HW118209   0.198   6.240   0.038
 5770SOL    HW218210   0.098   6.278   6.941
 5771SOL     OW18211   1.940   0.340   4.234
 5771SOL    HW118212   1.942   0.427   4.184
 5771SOL    HW218213   1.873   0.346   4.309
 5772SOL     OW18214   4.522   1.242   1.353
 5772SOL    HW118215   4.498   1.175   1.283
 5772SOL    HW218216   4.576   1.197   1.424
 5773SOL     OW18217   4.066   0.562   2.699
 5773SOL    HW118218   3.971   0.590   2.714
 5773SOL    HW218219   4.073   0.517   2.610
 5774SOL     OW18220   1.699   0.843   4.321
 5774SOL    HW118221   1.797   0.858   4.314
 5774SOL    HW218222   1.651   0.906   4.259
 5775SOL     OW18223   1.078   6.263   2.934
 5775SOL    HW118224   1.083   6.319   3.017
 5775SOL    HW218225   1.054   6.169   2.958
 5776SOL     OW18226   1.359   0.295   3.332
 5776SOL    HW118227   1.345   0.391   3.306
 5776SOL    HW218228   1.406   0.247   3.257
 5777SOL     OW18229   1.143   0.513   3.480
 5777SOL    HW118230   1.137   0.505   3.380
 5777SOL    HW218231   1.175   0.426   3.519
 5778SOL     OW18232   1.816   0.664   0.135
 5778SOL    HW118233   1.730   0.683   0.182
 5778SOL    HW218234   1.796   0.629   0.043
 5779SOL     OW18235   4.373   2.330   0.361
 5779SOL    HW118236   4.400   2.289   0.448
 5779SOL    HW218237   4.408   2.424   0.356
 5780SOL     OW18238   5.091   6.282   4.481
 5780SOL    HW118239   5.075   6.341   4.402
 5780SOL    HW218240   5.009   6.228   4.500
 5781SOL     OW18241   6.365   4.414   4.561
 5781SOL    HW118242   6.338   4.431   4.656
 5781SOL    HW218243   6.365   4.500   4.511
 5782SOL     OW18244   1.311   1.519   0.454
 5782SOL    HW118245   1.234   1.534   0.392
 5782SOL    HW218246   1.302   1.580   0.533
 5783SOL     OW18247   0.912   0.562   2.337
 5783SOL    HW118248   0.979   0.503   2.292
 5783SOL    HW218249   0.956   0.647   2.366
 5784SOL     OW18250   1.003   6.559   6.189
 5784SOL    HW118251   1.088   6.579   6.238
 5784SOL    HW218252   0.966   6.644   6.152
 5785SOL     OW18253   1.446   2.091   0.128
 5785SOL    HW118254   1.437   2.095   0.228
 5785SOL    HW218255   1.377   2.149   0.086
 5786SOL     OW18256   6.781   4.575   0.659
 5786SOL    HW118257   6.688   4.558   0.692
 5786SOL    HW218258   6.814   4.494   0.610
 5787SOL     OW18259   2.263   2.444   4.952
 5787SOL    HW118260   2.232   2.535   4.982
 5787SOL    HW218261   2.188   2.399   4.903
 5788SOL     OW18262   3.019   1.482   2.445
 5788SOL    HW118263   2.936   1.525   2.480
 5788SOL    HW218264   2.997   1.424   2.367
 5789SOL     OW18265   3.543   4.338   6.772
 5789SOL    HW118266   3.473   4.333   6.702
 5789SOL    HW218267   3.530   4.420   6.827
 5790SOL     OW18268   1.858   3.857   4.180
 5790SOL    HW118269   1.840   3.758   4.176
 5790SOL    HW218270   1.957   3.872   4.182
 5791SOL     OW18271   4.237   0.497   2.133
 5791SOL    HW118272   4.320   0.552   2.125
 5791SOL    HW218273   4.162   0.542   2.085
 5792SOL     OW18274   6.846   2.392   2.643
 5792SOL    HW118275   6.888   2.380   2.553
 5792SOL    HW218276   6.823   2.488   2.658
 5793SOL     OW18277   5.504   0.617   3.792
 5793SOL    HW118278   5.525   0.674   3.872
 5793SOL    HW218279   5.469   0.674   3.718
 5794SOL     OW18280   3.805   2.258   0.650
 5794SOL    HW118281   3.777   2.301   0.736
 5794SOL    HW218282   3.724   2.220   0.604
 5795SOL     OW18283   6.340   5.607   6.573
 5795SOL    HW118284   6.315   5.544   6.646
 5795SOL    HW218285   6.265   5.672   6.558
 5796SOL     OW18286   3.735   0.608   6.732
 5796SOL    HW118287   3.740   0.706   6.749
 5796SOL    HW218288   3.819   0.564   6.765
 5797SOL     OW18289   4.561   1.573   5.433
 5797SOL    HW118290   4.461   1.566   5.440
 5797SOL    HW218291   4.604   1.516   5.502
 5798SOL     OW18292   0.704   4.830   5.048
 5798SOL    HW118293   0.772   4.757   5.053
 5798SOL    HW218294   0.620   4.795   5.007
 5799SOL     OW18295   5.471   1.562   3.311
 5799SOL    HW118296   5.417   1.480   3.332
 5799SOL    HW218297   5.411   1.643   3.313
 5800SOL     OW18298   5.807   6.127   0.853
 5800SOL    HW118299   5.742   6.072   0.800
 5800SOL    HW218300   5.859   6.068   0.914
 5801SOL     OW18301   1.390   2.193   4.305
 5801SOL    HW118302   1.345   2.124   4.249
 5801SOL    HW218303   1.483   2.163   4.327
 5802SOL     OW18304   0.795   4.641   0.918
 5802SOL    HW118305   0.769   4.642   0.821
 5802SOL    HW218306   0.738   4.706   0.968
 5803SOL     OW18307   1.356   4.451   2.091
 5803SOL    HW118308   1.366   4.375   2.026
 5803SOL    HW218309   1.401   4.532   2.054
 5804SOL     OW18310   6.927   5.099   3.836
 5804SOL    HW118311   6.893   5.149   3.757
 5804SOL    HW218312   7.022   5.126   3.855
 5805SOL     OW18313   2.836   3.400   6.009
 5805SOL    HW118314   2.755   3.455   6.031
 5805SOL    HW218315   2.869   3.355   6.092
 5806SOL     OW18316   6.884   6.356   5.610
 5806SOL    HW118317   6.885   6.435   5.671
 5806SOL    HW218318   6.801   6.357   5.554
 5807SOL     OW18319   1.072   3.956   1.884
 5807SOL    HW118320   1.087   3.891   1.959
 5807SOL    HW218321   1.138   4.031   1.891
 5808SOL     OW18322   6.174   4.072   3.891
 5808SOL    HW118323   6.205   3.987   3.934
 5808SOL    HW218324   6.200   4.149   3.949
 5809SOL     OW18325   0.047   2.058   4.803
 5809SOL    HW118326   7.023   2.047   4.888
 5809SOL    HW218327   7.014   2.033   4.726
 5810SOL     OW18328   3.757   1.423   4.197
 5810SOL    HW118329   3.813   1.434   4.115
 5810SOL    HW218330   3.660   1.422   4.171
 5811SOL     OW18331   2.878   0.114   5.556
 5811SOL    HW118332   2.804   0.100   5.491
 5811SOL    HW218333   2.906   0.025   5.594
 5812SOL     OW18334   5.976   1.205   4.099
 5812SOL    HW118335   5.941   1.143   4.029
 5812SOL    HW218336   6.075   1.191   4.110
 5813SOL     OW18337   1.537   1.465   0.694
 5813SOL    HW118338   1.445   1.460   0.654
 5813SOL    HW218339   1.554   1.558   0.725
 5814SOL     OW18340   6.313   4.870   1.015
 5814SOL    HW118341   6.261   4.801   1.066
 5814SOL    HW218342   6.302   4.959   1.060
 5815SOL     OW18343   4.580   2.482   3.842
 5815SOL    HW118344   4.575   2.388   3.808
 5815SOL    HW218345   4.585   2.480   3.942
 5816SOL     OW18346   4.841   5.722   0.149
 5816SOL    HW118347   4.797   5.721   0.239
 5816SOL    HW218348   4.789   5.780   0.087
 5817SOL     OW18349   5.551   3.129   5.678
 5817SOL    HW118350   5.514   3.194   5.745
 5817SOL    HW218351   5.649   3.120   5.691
 5818SOL     OW18352   6.423   6.131   4.735
 5818SOL    HW118353   6.497   6.078   4.777
 5818SOL    HW218354   6.456   6.176   4.652
 5819SOL     OW18355   4.391   6.652   6.340
 5819SOL    HW118356   4.309   6.694   6.379
 5819SOL    HW218357   4.451   6.622   6.415
 5820SOL     OW18358   4.579   5.985   3.886
 5820SOL    HW118359   4.554   6.043   3.808
 5820SOL    HW218360   4.497   5.940   3.921
 5821SOL     OW18361   0.297   0.276   2.586
 5821SOL    HW118362   0.343   0.303   2.671
 5821SOL    HW218363   0.251   0.189   2.600
 5822SOL     OW18364   0.259   2.575   2.493
 5822SOL    HW118365   0.359   2.576   2.484
 5822SOL    HW218366   0.234   2.534   2.581
 5823SOL     OW18367   0.863   0.917   6.190
 5823SOL    HW118368   0.867   1.017   6.202
 5823SOL    HW218369   0.908   0.893   6.104
 5824SOL     OW18370   6.651   5.395   2.503
 5824SOL    HW118371   6.750   5.400   2.490
 5824SOL    HW218372   6.605   5.451   2.433
 5825SOL     OW18373   2.582   2.249   5.506
 5825SOL    HW118374   2.606   2.297   5.422
 5825SOL    HW218375   2.500   2.193   5.491
 5826SOL     OW18376   6.821   5.000   5.163
 5826SOL    HW118377   6.877   4.960   5.089
 5826SOL    HW218378   6.880   5.024   5.240
 5827SOL     OW18379   2.136   4.799   4.583
 5827SOL    HW118380   2.214   4.856   4.557
 5827SOL    HW218381   2.146   4.772   4.679
 5828SOL     OW18382   6.732   2.903   1.560
 5828SOL    HW118383   6.820   2.947   1.540
 5828SOL    HW218384   6.747   2.823   1.618
 5829SOL     OW18385   2.419   1.539   3.140
 5829SOL    HW118386   2.494   1.483   3.176
 5829SOL    HW218387   2.366   1.577   3.216
 5830SOL     OW18388   4.670   0.062   5.510
 5830SOL    HW118389   4.575   0.069   5.542
 5830SOL    HW218390   4.706   6.998   5.533
 5831SOL     OW18391   0.016   0.305   4.007
 5831SOL    HW118392   0.061   0.247   3.939
 5831SOL    HW218393   6.943   0.301   3.994
 5832SOL     OW18394   3.880   4.484   5.780
 5832SOL    HW118395   3.836   4.569   5.807
 5832SOL    HW218396   3.824   4.406   5.809
 5833SOL     OW18397   4.102   3.176   5.264
 5833SOL    HW118398   4.088   3.133   5.174
 5833SOL    HW218399   4.136   3.269   5.251
 5834SOL     OW18400   6.087   2.862   0.462
 5834SOL    HW118401   6.144   2.781   0.474
 5834SOL    HW218402   6.014   2.862   0.531
 5835SOL     OW18403   5.020   3.550   3.442
 5835SOL    HW118404   5.097   3.490   3.465
 5835SOL    HW218405   4.990   3.598   3.524
 5836SOL     OW18406   2.718   6.714   2.700
 5836SOL    HW118407   2.652   6.710   2.775
 5836SOL    HW218408   2.671   6.745   2.617
 5837SOL     OW18409   4.416   5.111   5.946
 5837SOL    HW118410   4.442   5.061   6.029
 5837SOL    HW218411   4.491   5.106   5.880
 5838SOL     OW18412   2.859   1.239   5.818
 5838SOL    HW118413   2.760   1.239   5.835
 5838SOL    HW218414   2.882   1.318   5.761
 5839SOL     OW18415   0.276   2.147   2.758
 5839SOL    HW118416   0.223   2.094   2.692
 5839SOL    HW218417   0.353   2.092   2.790
 5840SOL     OW18418   0.999   5.438   6.625
 5840SOL    HW118419   0.937   5.360   6.637
 5840SOL    HW218420   0.978   5.508   6.693
 5841SOL     OW18421   5.107   1.493   2.515
 5841SOL    HW118422   5.149   1.584   2.512
 5841SOL    HW218423   5.022   1.495   2.462
 5842SOL     OW18424   4.755   3.080   1.327
 5842SOL    HW118425   4.822   3.146   1.294
 5842SOL    HW218426   4.802   3.002   1.369
 5843SOL     OW18427   2.104   3.702   2.149
 5843SOL    HW118428   2.161   3.621   2.134
 5843SOL    HW218429   2.033   3.680   2.216
 5844SOL     OW18430   1.173   6.873   5.767
 5844SOL    HW118431   1.103   6.917   5.824
 5844SOL    HW218432   1.136   6.788   5.729
 5845SOL     OW18433   0.864   0.231   2.671
 5845SOL    HW118434   0.914   0.260   2.752
 5845SOL    HW218435   0.838   0.311   2.617
 5846SOL     OW18436   6.458   3.132   3.590
 5846SOL    HW118437   6.458   3.139   3.690
 5846SOL    HW218438   6.483   3.040   3.563
 5847SOL     OW18439   1.777   1.795   1.869
 5847SOL    HW118440   1.817   1.860   1.804
 5847SOL    HW218441   1.763   1.707   1.824
 5848SOL     OW18442   2.523   5.065   2.984
 5848SOL    HW118443   2.476   4.977   2.983
 5848SOL    HW218444   2.482   5.126   2.917
 5849SOL     OW18445   0.197   0.329   6.871
 5849SOL    HW118446   0.130   0.273   6.920
 5849SOL    HW218447   0.173   0.332   6.774
 5850SOL     OW18448   0.622   3.827   2.201
 5850SOL    HW118449   0.693   3.812   2.133
 5850SOL    HW218450   0.537   3.855   2.155
 5851SOL     OW18451   4.934   2.808   2.885
 5851SOL    HW118452   5.010   2.770   2.833
 5851SOL    HW218453   4.968   2.878   2.948
 5852SOL     OW18454   4.830   6.635   3.056
 5852SOL    HW118455   4.824   6.535   3.056
 5852SOL    HW218456   4.754   6.673   3.107
 5853SOL     OW18457   3.404   5.470   4.322
 5853SOL    HW118458   3.380   5.431   4.233
 5853SOL    HW218459   3.431   5.397   4.384
 5854SOL     OW18460   5.949   4.499   5.474
 5854SOL    HW118461   5.889   4.524   5.398
 5854SOL    HW218462   5.909   4.533   5.559
 5855SOL     OW18463   0.363   0.425   5.089
 5855SOL    HW118464   0.441   0.362   5.094
 5855SOL    HW218465   0.381   0.505   5.147
 5856SOL     OW18466   1.880   6.239   4.032
 5856SOL    HW118467   1.914   6.294   3.957
 5856SOL    HW218468   1.951   6.174   4.061
 5857SOL     OW18469   6.144   3.037   5.590
 5857SOL    HW118470   6.182   2.975   5.659
 5857SOL    HW218471   6.046   3.018   5.580
 5858SOL     OW18472   2.654   2.380   2.229
 5858SOL    HW118473   2.610   2.298   2.193
 5858SOL    HW218474   2.739   2.397   2.178
 5859SOL     OW18475   5.142   6.633   1.505
 5859SOL    HW118476   5.068   6.667   1.448
 5859SOL    HW218477   5.159   6.697   1.580
 5860SOL     OW18478   1.758   3.359   2.024
 5860SOL    HW118479   1.767   3.444   1.972
 5860SOL    HW218480   1.820   3.291   1.987
 5861SOL     OW18481   4.688   1.785   4.645
 5861SOL    HW118482   4.782   1.761   4.620
 5861SOL    HW218483   4.661   1.734   4.727
 5862SOL     OW18484   4.885   4.982   3.300
 5862SOL    HW118485   4.849   5.060   3.352
 5862SOL    HW218486   4.981   4.968   3.325
 5863SOL     OW18487   2.872   1.093   4.601
 5863SOL    HW118488   2.871   1.114   4.503
 5863SOL    HW218489   2.966   1.099   4.635
 5864SOL     OW18490   4.086   3.513   1.871
 5864SOL    HW118491   4.084   3.495   1.773
 5864SOL    HW218492   4.132   3.438   1.918
 5865SOL     OW18493   5.977   0.221   4.999
 5865SOL    HW118494   6.037   0.300   4.988
 5865SOL    HW218495   5.987   0.185   5.092
 5866SOL     OW18496   4.561   5.598   7.014
 5866SOL    HW118497   4.591   5.684   0.031
 5866SOL    HW218498   4.627   5.571   6.945
 5867SOL     OW18499   0.135   3.901   0.897
 5867SOL    HW118500   0.055   3.920   0.841
 5867SOL    HW218501   0.127   3.949   0.984
 5868SOL     OW18502   0.544   0.913   5.696
 5868SOL    HW118503   0.623   0.943   5.751
 5868SOL    HW218504   0.574   0.893   5.603
 5869SOL     OW18505   2.807   5.517   3.146
 5869SOL    HW118506   2.782   5.430   3.104
 5869SOL    HW218507   2.726   5.557   3.190
 5870SOL     OW18508   5.134   5.855   4.547
 5870SOL    HW118509   5.078   5.884   4.625
 5870SOL    HW218510   5.225   5.895   4.555
 5871SOL     OW18511   3.813   3.098   0.069
 5871SOL    HW118512   3.887   3.100   0.002
 5871SOL    HW218513   3.734   3.052   0.030
 5872SOL     OW18514   4.026   5.382   6.837
 5872SOL    HW118515   3.961   5.366   6.911
 5872SOL    HW218516   4.115   5.406   6.876
 5873SOL     OW18517   2.328   2.604   0.996
 5873SOL    HW118518   2.310   2.553   1.080
 5873SOL    HW218519   2.281   2.559   0.920
 5874SOL     OW18520   2.810   3.188   1.053
 5874SOL    HW118521   2.745   3.158   1.123
 5874SOL    HW218522   2.899   3.204   1.096
 5875SOL     OW18523   3.337   0.968   1.499
 5875SOL    HW118524   3.310   0.964   1.403
 5875SOL    HW218525   3.297   0.890   1.548
 5876SOL     OW18526   2.602   3.216   0.132
 5876SOL    HW118527   2.575   3.121   0.148
 5876SOL    HW218528   2.701   3.220   0.119
 5877SOL     OW18529   6.927   6.765   1.253
 5877SOL    HW118530   6.927   6.815   1.166
 5877SOL    HW218531   6.842   6.784   1.302
 5878SOL     OW18532   4.975   5.276   3.080
 5878SOL    HW118533   5.030   5.307   3.158
 5878SOL    HW218534   4.879   5.293   3.099
 5879SOL     OW18535   2.717   3.825   6.482
 5879SOL    HW118536   2.627   3.869   6.481
 5879SOL    HW218537   2.779   3.878   6.539
 5880SOL     OW18538   4.609   4.362   6.718
 5880SOL    HW118539   4.609   4.288   6.786
 5880SOL    HW218540   4.703   4.394   6.705
 5881SOL     OW18541   1.515   0.270   1.800
 5881SOL    HW118542   1.529   0.275   1.701
 5881SOL    HW218543   1.600   0.295   1.847
 5882SOL     OW18544   0.962   6.500   5.903
 5882SOL    HW118545   1.038   6.472   5.962
 5882SOL    HW218546   0.891   6.429   5.905
 5883SOL     OW18547   0.311   1.217   0.796
 5883SOL    HW118548   0.310   1.136   0.855
 5883SOL    HW218549   0.369   1.199   0.716
 5884SOL     OW18550   5.840   1.236   5.031
 5884SOL    HW118551   5.761   1.220   4.972
 5884SOL    HW218552   5.873   1.329   5.018
 5885SOL     OW18553   1.207   5.587   1.276
 5885SOL    HW118554   1.226   5.514   1.342
 5885SOL    HW218555   1.144   5.653   1.317
 5886SOL     OW18556   0.905   3.295   3.386
 5886SOL    HW118557   0.933   3.199   3.378
 5886SOL    HW218558   0.806   3.303   3.371
 5887SOL     OW18559   2.609   2.167   2.055
 5887SOL    HW118560   2.591   2.086   2.000
 5887SOL    HW218561   2.708   2.178   2.067
 5888SOL     OW18562   2.465   6.845   1.195
 5888SOL    HW118563   2.557   6.835   1.156
 5888SOL    HW218564   2.405   6.890   1.130
 5889SOL     OW18565   6.593   1.205   0.512
 5889SOL    HW118566   6.606   1.304   0.515
 5889SOL    HW218567   6.662   1.161   0.568
 5890SOL     OW18568   1.546   6.749   2.752
 5890SOL    HW118569   1.573   6.655   2.732
 5890SOL    HW218570   1.524   6.795   2.666
 5891SOL     OW18571   1.786   4.216   0.281
 5891SOL    HW118572   1.805   4.120   0.258
 5891SOL    HW218573   1.711   4.220   0.346
 5892SOL     OW18574   0.166   5.133   1.802
 5892SOL    HW118575   0.132   5.213   1.851
 5892SOL    HW218576   0.134   5.050   1.847
 5893SOL     OW18577   1.769   4.657   1.558
 5893SOL    HW118578   1.790   4.662   1.460
 5893SOL    HW218579   1.851   4.626   1.608
 5894SOL     OW18580   0.618   5.690   5.054
 5894SOL    HW118581   0.644   5.787   5.056
 5894SOL    HW218582   0.679   5.641   4.993
 5895SOL     OW18583   6.465   3.921   3.658
 5895SOL    HW118584   6.379   3.960   3.625
 5895SOL    HW218585   6.449   3.830   3.696
 5896SOL     OW18586   5.270   1.391   1.197
 5896SOL    HW118587   5.188   1.408   1.251
 5896SOL    HW218588   5.264   1.302   1.153
 5897SOL     OW18589   3.726   1.255   1.602
 5897SOL    HW118590   3.646   1.302   1.564
 5897SOL    HW218591   3.771   1.202   1.530
 5898SOL     OW18592   2.196   1.415   5.610
 5898SOL    HW118593   2.147   1.376   5.688
 5898SOL    HW218594   2.239   1.501   5.638
 5899SOL     OW18595   6.784   5.496   6.137
 5899SOL    HW118596   6.816   5.590   6.137
 5899SOL    HW218597   6.791   5.459   6.230
 5900SOL     OW18598   6.736   5.294   3.291
 5900SOL    HW118599   6.641   5.268   3.306
 5900SOL    HW218600   6.748   5.324   3.197
 5901SOL     OW18601   2.128   1.272   0.753
 5901SOL    HW118602   2.109   1.189   0.805
 5901SOL    HW218603   2.044   1.326   0.745
 5902SOL     OW18604   5.677   3.263   5.201
 5902SOL    HW118605   5.701   3.341   5.144
 5902SOL    HW218606   5.679   3.180   5.146
 5903SOL     OW18607   5.205   2.959   6.834
 5903SOL    HW118608   5.143   2.918   6.766
 5903SOL    HW218609   5.235   2.888   6.897
 5904SOL     OW18610   0.991   4.283   0.878
 5904SOL    HW118611   1.023   4.376   0.891
 5904SOL    HW218612   0.972   4.241   0.967
 5905SOL     OW18613   5.714   1.162   3.657
 5905SOL    HW118614   5.678   1.189   3.747
 5905SOL    HW218615   5.666   1.080   3.625
 5906SOL     OW18616   4.946   1.994   5.026
 5906SOL    HW118617   4.878   1.933   5.066
 5906SOL    HW218618   5.036   1.951   5.031
 5907SOL     OW18619   1.667   0.016   0.453
 5907SOL    HW118620   1.677   0.023   0.354
 5907SOL    HW218621   1.753   0.043   0.497
 5908SOL     OW18622   5.322   3.888   6.993
 5908SOL    HW118623   5.374   3.805   6.972
 5908SOL    HW218624   5.282   3.879   0.058
 5909SOL     OW18625   0.586   4.881   6.134
 5909SOL    HW118626   0.505   4.827   6.156
 5909SOL    HW218627   0.609   4.868   6.037
 5910SOL     OW18628   0.941   4.546   6.966
 5910SOL    HW118629   0.956   4.540   0.038
 5910SOL    HW218630   0.969   4.637   6.934
 5911SOL     OW18631   0.436   5.736   6.114
 5911SOL    HW118632   0.511   5.711   6.175
 5911SOL    HW218633   0.353   5.688   6.141
 5912SOL     OW18634   6.248   3.294   6.689
 5912SOL    HW118635   6.265   3.328   6.597
 5912SOL    HW218636   6.182   3.220   6.686
 5913SOL     OW18637   2.119   2.836   5.752
 5913SOL    HW118638   2.039   2.820   5.694
 5913SOL    HW218639   2.129   2.760   5.817
 5914SOL     OW18640   2.820   5.418   6.966
 5914SOL    HW118641   2.841   5.490   0.006
 5914SOL    HW218642   2.745   5.361   7.001
 5915SOL     OW18643   5.526   3.509   2.056
 5915SOL    HW118644   5.518   3.586   1.993
 5915SOL    HW218645   5.510   3.540   2.149
 5916SOL     OW18646   4.234   0.531   5.651
 5916SOL    HW118647   4.221   0.450   5.709
 5916SOL    HW218648   4.311   0.584   5.686
 5917SOL     OW18649   3.544   3.598   3.493
 5917SOL    HW118650   3.482   3.529   3.530
 5917SOL    HW218651   3.492   3.669   3.446
 5918SOL     OW18652   2.073   3.581   4.934
 5918SOL    HW118653   2.130   3.545   5.008
 5918SOL    HW218654   1.992   3.625   4.973
 5919SOL     OW18655   3.191   2.284   6.717
 5919SOL    HW118656   3.269   2.304   6.658
 5919SOL    HW218657   3.115   2.344   6.693
 5920SOL     OW18658   3.721   6.880   0.108
 5920SOL    HW118659   3.755   6.810   0.046
 5920SOL    HW218660   3.704   6.839   0.198
 5921SOL     OW18661   3.461   5.300   5.424
 5921SOL    HW118662   3.558   5.290   5.447
 5921SOL    HW218663   3.409   5.227   5.469
 5922SOL     OW18664   6.331   4.931   3.689
 5922SOL    HW118665   6.307   5.004   3.626
 5922SOL    HW218666   6.361   4.970   3.776
 5923SOL     OW18667   6.387   1.244   2.387
 5923SOL    HW118668   6.311   1.180   2.397
 5923SOL    HW218669   6.352   1.338   2.388
 5924SOL     OW18670   5.905   3.048   4.875
 5924SOL    HW118671   5.976   3.114   4.900
 5924SOL    HW218672   5.847   3.029   4.954
 5925SOL     OW18673   4.376   6.665   3.186
 5925SOL    HW118674   4.427   6.748   3.207
 5925SOL    HW218675   4.286   6.690   3.149
 5926SOL     OW18676   3.112   4.984   2.100
 5926SOL    HW118677   3.171   4.928   2.043
 5926SOL    HW218678   3.152   5.076   2.109
 5927SOL     OW18679   2.192   4.349   2.241
 5927SOL    HW118680   2.224   4.426   2.185
 5927SOL    HW218681   2.270   4.296   2.273
 5928SOL     OW18682   3.188   0.574   2.656
 5928SOL    HW118683   3.104   0.536   2.695
 5928SOL    HW218684   3.266   0.519   2.685
 5929SOL     OW18685   0.722   6.310   5.908
 5929SOL    HW118686   0.716   6.260   5.822
 5929SOL    HW218687   0.631   6.345   5.931
 5930SOL     OW18688   6.657   1.447   3.508
 5930SOL    HW118689   6.649   1.498   3.594
 5930SOL    HW218690   6.670   1.510   3.432
 5931SOL     OW18691   5.719   4.836   2.566
 5931SOL    HW118692   5.772   4.764   2.521
 5931SOL    HW218693   5.778   4.886   2.629
 5932SOL     OW18694   2.878   6.152   0.974
 5932SOL    HW118695   2.796   6.151   0.918
 5932SOL    HW218696   2.859   6.201   1.060
 5933SOL     OW18697   6.695   4.926   2.359
 5933SOL    HW118698   6.679   4.945   2.262
 5933SOL    HW218699   6.692   5.012   2.410
 5934SOL     OW18700   3.374   4.099   3.766
 5934SOL    HW118701   3.333   4.107   3.676
 5934SOL    HW218702   3.473   4.086   3.757
 5935SOL     OW18703   4.043   3.484   4.623
 5935SOL    HW118704   4.072   3.431   4.544
 5935SOL    HW218705   4.119   3.492   4.688
 5936SOL     OW18706   4.704   3.428   6.599
 5936SOL    HW118707   4.688   3.343   6.549
 5936SOL    HW218708   4.716   3.408   6.696
 5937SOL     OW18709   0.580   4.363   1.854
 5937SOL    HW118710   0.516   4.397   1.786
 5937SOL    HW218711   0.537   4.290   1.907
 5938SOL     OW18712   1.232   5.145   4.159
 5938SOL    HW118713   1.212   5.178   4.252
 5938SOL    HW218714   1.329   5.158   4.139
 5939SOL     OW18715   3.002   0.279   3.199
 5939SOL    HW118716   3.057   0.210   3.152
 5939SOL    HW218717   3.037   0.292   3.292
 5940SOL     OW18718   4.225   6.616   2.554
 5940SOL    HW118719   4.219   6.715   2.541
 5940SOL    HW218720   4.137   6.574   2.531
 5941SOL     OW18721   6.157   4.268   2.054
 5941SOL    HW118722   6.133   4.312   2.140
 5941SOL    HW218723   6.185   4.174   2.071
 5942SOL     OW18724   4.833   2.284   0.184
 5942SOL    HW118725   4.859   2.370   0.227
 5942SOL    HW218726   4.899   2.213   0.208
 5943SOL     OW18727   3.267   5.530   0.111
 5943SOL    HW118728   3.215   5.445   0.100
 5943SOL    HW218729   3.305   5.557   0.023
 5944SOL     OW18730   5.603   1.540   1.653
 5944SOL    HW118731   5.643   1.531   1.744
 5944SOL    HW218732   5.640   1.621   1.607
 5945SOL     OW18733   0.154   5.343   5.472
 5945SOL    HW118734   0.219   5.410   5.509
 5945SOL    HW218735   0.088   5.389   5.414
 5946SOL     OW18736   3.373   3.305   5.653
 5946SOL    HW118737   3.399   3.335   5.745
 5946SOL    HW218738   3.297   3.241   5.660
 5947SOL     OW18739   3.892   3.182   1.911
 5947SOL    HW118740   3.892   3.145   1.818
 5947SOL    HW218741   3.982   3.219   1.933
 5948SOL     OW18742   4.291   5.349   3.116
 5948SOL    HW118743   4.368   5.413   3.121
 5948SOL    HW218744   4.280   5.318   3.022
 5949SOL     OW18745   3.871   4.051   1.155
 5949SOL    HW118746   3.792   4.018   1.104
 5949SOL    HW218747   3.948   3.988   1.142
 5950SOL     OW18748   5.131   3.202   5.110
 5950SOL    HW118749   5.173   3.234   5.026
 5950SOL    HW218750   5.201   3.171   5.174
 5951SOL     OW18751   0.672   6.297   5.199
 5951SOL    HW118752   0.618   6.338   5.125
 5951SOL    HW218753   0.697   6.368   5.265
 5952SOL     OW18754   6.242   6.401   4.004
 5952SOL    HW118755   6.301   6.321   4.005
 5952SOL    HW218756   6.146   6.372   4.008
 5953SOL     OW18757   6.886   2.681   5.777
 5953SOL    HW118758   6.800   2.713   5.737
 5953SOL    HW218759   6.911   2.739   5.855
 5954SOL     OW18760   6.897   4.459   5.342
 5954SOL    HW118761   6.965   4.486   5.274
 5954SOL    HW218762   6.942   4.409   5.416
 5955SOL     OW18763   6.154   6.012   2.483
 5955SOL    HW118764   6.077   5.961   2.521
 5955SOL    HW218765   6.194   5.961   2.407
 5956SOL     OW18766   3.134   1.957   0.787
 5956SOL    HW118767   3.176   1.866   0.794
 5956SOL    HW218768   3.109   1.974   0.692
 5957SOL     OW18769   4.615   0.241   5.984
 5957SOL    HW118770   4.647   0.236   5.889
 5957SOL    HW218771   4.677   0.299   6.037
 5958SOL     OW18772   5.748   6.832   3.112
 5958SOL    HW118773   5.715   6.837   3.018
 5958SOL    HW218774   5.847   6.825   3.113
 5959SOL     OW18775   3.224   1.498   5.736
 5959SOL    HW118776   3.260   1.412   5.773
 5959SOL    HW218777   3.298   1.563   5.724
 5960SOL     OW18778   3.436   6.831   4.473
 5960SOL    HW118779   3.377   6.847   4.552
 5960SOL    HW218780   3.476   6.740   4.479
 5961SOL     OW18781   4.735   1.166   3.994
 5961SOL    HW118782   4.690   1.215   4.068
 5961SOL    HW218783   4.666   1.137   3.927
 5962SOL     OW18784   5.021   6.066   2.110
 5962SOL    HW118785   5.055   6.095   2.020
 5962SOL    HW218786   4.921   6.072   2.111
 5963SOL     OW18787   3.684   2.921   4.632
 5963SOL    HW118788   3.744   2.911   4.712
 5963SOL    HW218789   3.594   2.953   4.663
 5964SOL     OW18790   0.222   5.289   6.134
 5964SOL    HW118791   0.278   5.367   6.106
 5964SOL    HW218792   0.279   5.207   6.138
 5965SOL     OW18793   1.931   1.973   5.773
 5965SOL    HW118794   1.903   2.068   5.757
 5965SOL    HW218795   1.859   1.925   5.822
 5966SOL     OW18796   3.206   5.295   5.992
 5966SOL    HW118797   3.185   5.376   5.936
 5966SOL    HW218798   3.214   5.215   5.933
 5967SOL     OW18799   4.014   6.143   1.972
 5967SOL    HW118800   4.083   6.179   1.910
 5967SOL    HW218801   3.969   6.064   1.930
 5968SOL     OW18802   5.708   1.876   3.196
 5968SOL    HW118803   5.684   1.862   3.100
 5968SOL    HW218804   5.786   1.938   3.202
 5969SOL     OW18805   6.654   2.030   5.283
 5969SOL    HW118806   6.747   2.002   5.307
 5969SOL    HW218807   6.654   2.127   5.256
 5970SOL     OW18808   0.338   4.746   2.370
 5970SOL    HW118809   0.277   4.675   2.335
 5970SOL    HW218810   0.433   4.716   2.362
 5971SOL     OW18811   2.534   0.315   3.207
 5971SOL    HW118812   2.544   0.278   3.115
 5971SOL    HW218813   2.579   0.404   3.212
 5972SOL     OW18814   4.450   6.262   0.409
 5972SOL    HW118815   4.537   6.239   0.365
 5972SOL    HW218816   4.469   6.306   0.497
 5973SOL     OW18817   1.916   5.100   2.733
 5973SOL    HW118818   1.876   5.140   2.815
 5973SOL    HW218819   1.909   5.001   2.738
 5974SOL     OW18820   5.427   3.948   6.206
 5974SOL    HW118821   5.509   3.958   6.262
 5974SOL    HW218822   5.349   3.928   6.265
 5975SOL     OW18823   3.742   2.388   0.870
 5975SOL    HW118824   3.749   2.382   0.970
 5975SOL    HW218825   3.710   2.479   0.844
 5976SOL     OW18826   2.851   3.575   5.242
 5976SOL    HW118827   2.803   3.504   5.293
 5976SOL    HW218828   2.798   3.660   5.246
 5977SOL     OW18829   1.847   4.736   1.269
 5977SOL    HW118830   1.937   4.780   1.269
 5977SOL    HW218831   1.853   4.649   1.220
 5978SOL     OW18832   5.313   5.098   3.232
 5978SOL    HW118833   5.413   5.090   3.231
 5978SOL    HW218834   5.283   5.162   3.162
 5979SOL     OW18835   6.807   0.593   2.842
 5979SOL    HW118836   6.804   0.629   2.749
 5979SOL    HW218837   6.716   0.598   2.882
 5980SOL     OW18838   3.763   3.621   6.537
 5980SOL    HW118839   3.813   3.576   6.463
 5980SOL    HW218840   3.665   3.610   6.523
 5981SOL     OW18841   6.385   1.735   2.014
 5981SOL    HW118842   6.339   1.650   1.990
 5981SOL    HW218843   6.366   1.758   2.109
 5982SOL     OW18844   6.134   2.141   6.938
 5982SOL    HW118845   6.064   2.078   6.972
 5982SOL    HW218846   6.091   2.209   6.878
 5983SOL     OW18847   2.786   1.778   4.359
 5983SOL    HW118848   2.866   1.740   4.405
 5983SOL    HW218849   2.712   1.788   4.425
 5984SOL     OW18850   0.208   0.079   4.518
 5984SOL    HW118851   0.279   0.012   4.497
 5984SOL    HW218852   0.172   0.117   4.432
 5985SOL     OW18853   5.237   3.094   4.533
 5985SOL    HW118854   5.256   3.162   4.463
 5985SOL    HW218855   5.322   3.048   4.559
 5986SOL     OW18856   2.978   3.380   4.176
 5986SOL    HW118857   3.049   3.356   4.242
 5986SOL    HW218858   2.933   3.465   4.205
 5987SOL     OW18859   4.182   1.452   5.073
 5987SOL    HW118860   4.210   1.518   5.002
 5987SOL    HW218861   4.262   1.404   5.107
 5988SOL     OW18862   4.478   5.683   4.848
 5988SOL    HW118863   4.499   5.726   4.761
 5988SOL    HW218864   4.404   5.617   4.836
 5989SOL     OW18865   2.767   6.073   6.555
 5989SOL    HW118866   2.768   6.029   6.645
 5989SOL    HW218867   2.753   6.003   6.484
 5990SOL     OW18868   3.918   4.148   0.813
 5990SOL    HW118869   3.935   4.057   0.849
 5990SOL    HW218870   3.839   4.146   0.751
 5991SOL     OW18871   4.404   4.834   5.087
 5991SOL    HW118872   4.419   4.932   5.100
 5991SOL    HW218873   4.332   4.820   5.020
 5992SOL     OW18874   3.821   0.592   3.885
 5992SOL    HW118875   3.914   0.628   3.895
 5992SOL    HW218876   3.824   0.494   3.868
 5993SOL     OW18877   3.980   6.969   5.747
 5993SOL    HW118878   4.025   6.881   5.731
 5993SOL    HW218879   3.899   6.955   5.804
 5994SOL     OW18880   5.923   2.234   1.983
 5994SOL    HW118881   5.953   2.310   1.925
 5994SOL    HW218882   5.873   2.269   2.062
 5995SOL     OW18883   6.403   4.983   1.931
 5995SOL    HW118884   6.347   4.989   2.013
 5995SOL    HW218885   6.346   4.957   1.853
 5996SOL     OW18886   0.729   5.308   0.116
 5996SOL    HW118887   0.814   5.341   0.157
 5996SOL    HW218888   0.666   5.384   0.104
 5997SOL     OW18889   0.812   6.402   2.806
 5997SOL    HW118890   0.723   6.409   2.852
 5997SOL    HW218891   0.815   6.319   2.751
 5998SOL     OW18892   5.753   3.362   2.341
 5998SOL    HW118893   5.852   3.370   2.332
 5998SOL    HW218894   5.729   3.269   2.369
 5999SOL     OW18895   0.871   2.324   2.557
 5999SOL    HW118896   0.870   2.231   2.595
 5999SOL    HW218897   0.844   2.389   2.627
 6000SOL     OW18898   4.185   5.690   1.872
 6000SOL    HW118899   4.130   5.691   1.789
 6000SOL    HW218900   4.127   5.712   1.951
 6001SOL     OW18901   0.530   4.193   6.114
 6001SOL    HW118902   0.503   4.285   6.083
 6001SOL    HW218903   0.609   4.200   6.174
 6002SOL     OW18904   0.352   6.612   1.461
 6002SOL    HW118905   0.382   6.647   1.372
 6002SOL    HW218906   0.256   6.584   1.455
 6003SOL     OW18907   6.312   2.499   4.782
 6003SOL    HW118908   6.319   2.484   4.881
 6003SOL    HW218909   6.317   2.411   4.735
 6004SOL     OW18910   0.278   4.439   3.345
 6004SOL    HW118911   0.278   4.439   3.245
 6004SOL    HW218912   0.270   4.345   3.378
 6005SOL     OW18913   3.993   5.138   4.580
 6005SOL    HW118914   3.966   5.047   4.613
 6005SOL    HW218915   4.034   5.190   4.655
 6006SOL     OW18916   4.177   6.442   6.782
 6006SOL    HW118917   4.086   6.425   6.820
 6006SOL    HW218918   4.210   6.532   6.811
 6007SOL     OW18919   4.884   3.074   3.683
 6007SOL    HW118920   4.918   3.149   3.739
 6007SOL    HW218921   4.851   3.001   3.742
 6008SOL     OW18922   2.345   5.555   6.280
 6008SOL    HW118923   2.433   5.586   6.245
 6008SOL    HW218924   2.319   5.470   6.234
 6009SOL     OW18925   3.187   1.498   4.590
 6009SOL    HW118926   3.215   1.483   4.495
 6009SOL    HW218927   3.258   1.549   4.638
 6010SOL     OW18928   2.157   4.399   1.889
 6010SOL    HW118929   2.180   4.457   1.966
 6010SOL    HW218930   2.232   4.400   1.823
 6011SOL     OW18931   5.162   2.596   2.111
 6011SOL    HW118932   5.094   2.523   2.107
 6011SOL    HW218933   5.130   2.668   2.173
 6012SOL     OW18934   6.698   1.818   0.476
 6012SOL    HW118935   6.660   1.875   0.550
 6012SOL    HW218936   6.623   1.770   0.430
 6013SOL     OW18937   5.038   1.578   3.014
 6013SOL    HW118938   5.017   1.671   3.043
 6013SOL    HW218939   4.959   1.539   2.967
 6014SOL     OW18940   4.627   1.407   0.675
 6014SOL    HW118941   4.677   1.340   0.620
 6014SOL    HW218942   4.685   1.439   0.750
 6015SOL     OW18943   5.643   2.334   5.764
 6015SOL    HW118944   5.551   2.371   5.751
 6015SOL    HW218945   5.710   2.403   5.738
 6016SOL     OW18946   0.368   1.422   6.977
 6016SOL    HW118947   0.460   1.449   6.952
 6016SOL    HW218948   0.301   1.474   6.923
 6017SOL     OW18949   6.371   5.243   2.632
 6017SOL    HW118950   6.280   5.282   2.618
 6017SOL    HW218951   6.403   5.201   2.547
 6018SOL     OW18952   3.779   2.694   0.141
 6018SOL    HW118953   3.711   2.695   0.068
 6018SOL    HW218954   3.780   2.784   0.186
 6019SOL     OW18955   4.984   1.952   3.917
 6019SOL    HW118956   5.041   1.918   3.992
 6019SOL    HW218957   4.898   1.987   3.954
 6020SOL     OW18958   1.467   6.278   2.494
 6020SOL    HW118959   1.461   6.217   2.573
 6020SOL    HW218960   1.513   6.231   2.418
 6021SOL     OW18961   3.990   6.877   2.436
 6021SOL    HW118962   4.057   6.837   2.374
 6021SOL    HW218963   4.032   6.891   2.526
 6022SOL     OW18964   4.362   0.559   4.621
 6022SOL    HW118965   4.339   0.521   4.532
 6022SOL    HW218966   4.278   0.582   4.671
 6023SOL     OW18967   5.902   1.715   2.904
 6023SOL    HW118968   5.816   1.765   2.912
 6023SOL    HW218969   5.979   1.778   2.920
 6024SOL     OW18970   0.467   4.674   3.048
 6024SOL    HW118971   0.402   4.726   2.993
 6024SOL    HW218972   0.506   4.600   2.992
 6025SOL     OW18973   4.137   0.511   2.398
 6025SOL    HW118974   4.046   0.511   2.357
 6025SOL    HW218975   4.204   0.541   2.330
 6026SOL     OW18976   0.365   4.378   4.278
 6026SOL    HW118977   0.439   4.317   4.305
 6026SOL    HW218978   0.311   4.335   4.206
 6027SOL     OW18979   2.064   4.064   5.463
 6027SOL    HW118980   2.157   4.082   5.496
 6027SOL    HW218981   2.062   4.077   5.364
 6028SOL     OW18982   1.036   3.993   6.960
 6028SOL    HW118983   1.077   3.903   6.977
 6028SOL    HW218984   0.948   3.999   7.007
 6029SOL     OW18985   2.236   6.564   6.676
 6029SOL    HW118986   2.218   6.512   6.593
 6029SOL    HW218987   2.328   6.604   6.672
 6030SOL     OW18988   2.570   0.108   3.372
 6030SOL    HW118989   2.563   0.181   3.304
 6030SOL    HW218990   2.505   0.125   3.446
 6031SOL     OW18991   4.342   5.343   4.281
 6031SOL    HW118992   4.422   5.335   4.341
 6031SOL    HW218993   4.352   5.281   4.203
 6032SOL     OW18994   1.888   3.529   2.721
 6032SOL    HW118995   1.906   3.460   2.650
 6032SOL    HW218996   1.973   3.578   2.742
 6033SOL     OW18997   2.233   2.622   2.605
 6033SOL    HW118998   2.230   2.659   2.697
 6033SOL    HW218999   2.203   2.526   2.606
 6034SOL     OW19000   2.251   5.532   4.688
 6034SOL    HW119001   2.290   5.442   4.667
 6034SOL    HW219002   2.260   5.591   4.607
 6035SOL     OW19003   6.443   1.750   3.978
 6035SOL    HW119004   6.542   1.737   3.974
 6035SOL    HW219005   6.420   1.815   4.051
 6036SOL     OW19006   0.457   6.920   4.138
 6036SOL    HW119007   0.373   6.946   4.091
 6036SOL    HW219008   0.504   7.002   4.169
 6037SOL     OW19009   4.660   5.384   6.117
 6037SOL    HW119010   4.620   5.451   6.054
 6037SOL    HW219011   4.588   5.337   6.167
 6038SOL     OW19012   0.985   3.157   6.424
 6038SOL    HW119013   1.041   3.185   6.502
 6038SOL    HW219014   1.044   3.137   6.346
 6039SOL     OW19015   3.287   2.935   3.278
 6039SOL    HW119016   3.381   2.920   3.311
 6039SOL    HW219017   3.226   2.949   3.355
 6040SOL     OW19018   0.552   2.042   6.093
 6040SOL    HW119019   0.625   2.101   6.058
 6040SOL    HW219020   0.506   2.088   6.169
 6041SOL     OW19021   2.019   1.375   6.222
 6041SOL    HW119022   2.113   1.344   6.238
 6041SOL    HW219023   2.021   1.461   6.170
 6042SOL     OW19024   5.549   5.394   1.953
 6042SOL    HW119025   5.532   5.424   2.047
 6042SOL    HW219026   5.630   5.441   1.917
 6043SOL     OW19027   1.153   5.550   5.117
 6043SOL    HW119028   1.073   5.535   5.174
 6043SOL    HW219029   1.127   5.543   5.021
 6044SOL     OW19030   0.825   2.143   1.186
 6044SOL    HW119031   0.846   2.058   1.234
 6044SOL    HW219032   0.759   2.196   1.239
 6045SOL     OW19033   5.938   5.608   1.116
 6045SOL    HW119034   5.897   5.645   1.198
 6045SOL    HW219035   5.869   5.559   1.062
 6046SOL     OW19036   2.547   2.274   0.897
 6046SOL    HW119037   2.542   2.366   0.857
 6046SOL    HW219038   2.454   2.241   0.914
 6047SOL     OW19039   6.276   1.843   3.162
 6047SOL    HW119040   6.280   1.744   3.174
 6047SOL    HW219041   6.261   1.886   3.251
 6048SOL     OW19042   4.634   6.758   3.416
 6048SOL    HW119043   4.558   6.697   3.435
 6048SOL    HW219044   4.603   6.833   3.359
 6049SOL     OW19045   5.260   3.665   6.436
 6049SOL    HW119046   5.221   3.616   6.358
 6049SOL    HW219047   5.187   3.709   6.487
 6050SOL     OW19048   4.011   3.721   5.861
 6050SOL    HW119049   3.958   3.723   5.776
 6050SOL    HW219050   3.994   3.805   5.913
 6051SOL     OW19051   2.637   2.492   3.358
 6051SOL    HW119052   2.597   2.422   3.418
 6051SOL    HW219053   2.632   2.581   3.403
 6052SOL     OW19054   6.702   6.510   0.338
 6052SOL    HW119055   6.795   6.502   0.302
 6052SOL    HW219056   6.701   6.578   0.412
 6053SOL     OW19057   4.000   0.443   6.430
 6053SOL    HW119058   3.925   0.379   6.416
 6053SOL    HW219059   4.072   0.400   6.485
 6054SOL     OW19060   2.002   4.203   0.671
 6054SOL    HW119061   2.039   4.161   0.755
 6054SOL    HW219062   2.029   4.148   0.592
 6055SOL     OW19063   6.116   1.113   6.272
 6055SOL    HW119064   6.065   1.177   6.330
 6055SOL    HW219065   6.189   1.162   6.224
 6056SOL     OW19066   5.159   2.375   4.699
 6056SOL    HW119067   5.199   2.352   4.611
 6056SOL    HW219068   5.217   2.340   4.773
 6057SOL     OW19069   4.957   2.197   4.571
 6057SOL    HW119070   4.859   2.185   4.552
 6057SOL    HW219071   4.969   2.265   4.643
 6058SOL     OW19072   5.288   2.552   2.835
 6058SOL    HW119073   5.348   2.520   2.762
 6058SOL    HW219074   5.343   2.579   2.914
 6059SOL     OW19075   4.646   5.134   5.789
 6059SOL    HW119076   4.712   5.155   5.862
 6059SOL    HW219077   4.668   5.188   5.708
 6060SOL     OW19078   3.119   3.920   5.539
 6060SOL    HW119079   3.038   3.975   5.519
 6060SOL    HW219080   3.201   3.970   5.512
 6061SOL     OW19081   3.906   2.552   0.536
 6061SOL    HW119082   3.956   2.537   0.450
 6061SOL    HW219083   3.967   2.532   0.613
 6062SOL     OW19084   2.456   1.307   4.553
 6062SOL    HW119085   2.548   1.279   4.584
 6062SOL    HW219086   2.390   1.287   4.625
 6063SOL     OW19087   4.131   1.701   6.477
 6063SOL    HW119088   4.181   1.663   6.555
 6063SOL    HW219089   4.037   1.722   6.504
 6064SOL     OW19090   2.404   5.705   3.017
 6064SOL    HW119091   2.494   5.729   2.981
 6064SOL    HW219092   2.400   5.606   3.034
 6065SOL     OW19093   5.868   6.911   1.803
 6065SOL    HW119094   5.930   6.864   1.866
 6065SOL    HW219095   5.797   6.847   1.773
 6066SOL     OW19096   3.962   1.429   0.624
 6066SOL    HW119097   3.941   1.337   0.592
 6066SOL    HW219098   3.960   1.493   0.547
 6067SOL     OW19099   6.012   1.746   6.380
 6067SOL    HW119100   6.001   1.832   6.330
 6067SOL    HW219101   5.937   1.684   6.357
 6068SOL     OW19102   5.921   3.490   4.593
 6068SOL    HW119103   5.982   3.411   4.601
 6068SOL    HW219104   5.853   3.473   4.521
 6069SOL     OW19105   0.360   3.392   5.784
 6069SOL    HW119106   0.396   3.334   5.858
 6069SOL    HW219107   0.302   3.463   5.822
 6070SOL     OW19108   2.940   1.479   5.692
 6070SOL    HW119109   2.893   1.567   5.689
 6070SOL    HW219110   3.037   1.493   5.711
 6071SOL     OW19111   4.777   5.898   5.363
 6071SOL    HW119112   4.689   5.916   5.319
 6071SOL    HW219113   4.763   5.880   5.460
 6072SOL     OW19114   0.987   1.123   2.279
 6072SOL    HW119115   1.073   1.155   2.238
 6072SOL    HW219116   0.913   1.186   2.255
 6073SOL     OW19117   6.551   3.649   0.298
 6073SOL    HW119118   6.494   3.576   0.262
 6073SOL    HW219119   6.514   3.680   0.386
 6074SOL     OW19120   1.137   6.897   4.585
 6074SOL    HW119121   1.046   6.889   4.545
 6074SOL    HW219122   1.206   6.888   4.513
 6075SOL     OW19123   6.991   2.091   6.345
 6075SOL    HW119124   6.947   2.099   6.256
 6075SOL    HW219125   0.045   2.152   6.348
 6076SOL     OW19126   2.443   6.860   5.170
 6076SOL    HW119127   2.403   6.822   5.087
 6076SOL    HW219128   2.542   6.848   5.167
 6077SOL     OW19129   4.853   5.736   2.208
 6077SOL    HW119130   4.894   5.698   2.125
 6077SOL    HW219131   4.851   5.665   2.279
 6078SOL     OW19132   3.907   4.966   2.205
 6078SOL    HW119133   3.927   4.930   2.296
 6078SOL    HW219134   3.959   4.914   2.137
 6079SOL     OW19135   2.930   3.373   6.262
 6079SOL    HW119136   2.949   3.304   6.331
 6079SOL    HW219137   2.884   3.451   6.305
 6080SOL     OW19138   0.466   1.754   1.967
 6080SOL    HW119139   0.466   1.810   2.050
 6080SOL    HW219140   0.398   1.681   1.976
 6081SOL     OW19141   6.994   3.533   4.734
 6081SOL    HW119142   0.038   3.597   4.766
 6081SOL    HW219143   6.911   3.584   4.711
 6082SOL     OW19144   3.834   1.088   3.363
 6082SOL    HW119145   3.810   1.180   3.393
 6082SOL    HW219146   3.923   1.063   3.400
 6083SOL     OW19147   1.108   5.572   6.113
 6083SOL    HW119148   1.079   5.662   6.079
 6083SOL    HW219149   1.074   5.560   6.207
 6084SOL     OW19150   0.148   5.559   3.880
 6084SOL    HW119151   0.229   5.584   3.933
 6084SOL    HW219152   0.074   5.623   3.900
 6085SOL     OW19153   7.021   4.290   0.111
 6085SOL    HW119154   7.019   4.190   0.107
 6085SOL    HW219155   0.068   4.324   0.052
 6086SOL     OW19156   3.364   1.545   5.098
 6086SOL    HW119157   3.389   1.453   5.066
 6086SOL    HW219158   3.421   1.613   5.052
 6087SOL     OW19159   5.344   6.894   0.291
 6087SOL    HW119160   5.316   6.937   0.377
 6087SOL    HW219161   5.443   6.902   0.281
 6088SOL     OW19162   0.042   6.469   4.209
 6088SOL    HW119163   0.127   6.518   4.192
 6088SOL    HW219164   6.998   6.533   4.240
 6089SOL     OW19165   6.912   4.162   1.484
 6089SOL    HW119166   6.881   4.252   1.452
 6089SOL    HW219167   7.011   4.155   1.474
 6090SOL     OW19168   1.061   6.283   6.299
 6090SOL    HW119169   1.121   6.234   6.235
 6090SOL    HW219170   0.973   6.300   6.255
 6091SOL     OW19171   1.023   1.648   2.352
 6091SOL    HW119172   1.003   1.589   2.274
 6091SOL    HW219173   1.111   1.623   2.391
 6092SOL     OW19174   2.805   0.852   3.283
 6092SOL    HW119175   2.833   0.771   3.334
 6092SOL    HW219176   2.881   0.884   3.226
 6093SOL     OW19177   1.516   2.684   2.829
 6093SOL    HW119178   1.576   2.614   2.791
 6093SOL    HW219179   1.561   2.773   2.822
 6094SOL     OW19180   2.654   0.962   1.286
 6094SOL    HW119181   2.664   0.899   1.363
 6094SOL    HW219182   2.588   0.926   1.221
 6095SOL     OW19183   4.666   2.391   6.998
 6095SOL    HW119184   4.680   2.490   7.002
 6095SOL    HW219185   4.725   2.346   0.038
 6096SOL     OW19186   6.017   0.849   4.200
 6096SOL    HW119187   5.936   0.792   4.214
 6096SOL    HW219188   6.020   0.881   4.106
 6097SOL     OW19189   1.950   0.063   2.505
 6097SOL    HW119190   2.015   0.012   2.560
 6097SOL    HW219191   1.991   0.150   2.476
 6098SOL     OW19192   1.707   1.985   5.454
 6098SOL    HW119193   1.776   2.051   5.484
 6098SOL    HW219194   1.659   1.948   5.533
 6099SOL     OW19195   5.691   6.035   5.750
 6099SOL    HW119196   5.685   6.073   5.657
 6099SOL    HW219197   5.606   5.988   5.772
 6100SOL     OW19198   5.979   2.863   6.236
 6100SOL    HW119199   5.979   2.783   6.295
 6100SOL    HW219200   6.064   2.914   6.248
 6101SOL     OW19201   6.562   1.908   5.658
 6101SOL    HW119202   6.470   1.871   5.646
 6101SOL    HW219203   6.630   1.839   5.635
 6102SOL     OW19204   3.851   1.049   4.402
 6102SOL    HW119205   3.865   1.122   4.334
 6102SOL    HW219206   3.926   1.051   4.468
 6103SOL     OW19207   6.918   0.983   3.985
 6103SOL    HW119208   6.849   0.922   3.947
 6103SOL    HW219209   7.007   0.938   3.985
 6104SOL     OW19210   6.567   1.686   6.478
 6104SOL    HW119211   6.578   1.776   6.436
 6104SOL    HW219212   6.519   1.695   6.565
 6105SOL     OW19213   3.259   6.256   5.850
 6105SOL    HW119214   3.349   6.244   5.809
 6105SOL    HW219215   3.201   6.309   5.787
 6106SOL     OW19216   1.937   4.959   6.616
 6106SOL    HW119217   1.912   4.864   6.598
 6106SOL    HW219218   1.872   5.020   6.570
 6107SOL     OW19219   2.725   5.518   4.542
 6107SOL    HW119220   2.673   5.491   4.623
 6107SOL    HW219221   2.698   5.610   4.514
 6108SOL     OW19222   0.769   2.014   3.049
 6108SOL    HW119223   0.799   2.092   3.103
 6108SOL    HW219224   0.680   1.983   3.082
 6109SOL     OW19225   4.981   2.805   0.082
 6109SOL    HW119226   4.945   2.855   0.004
 6109SOL    HW219227   4.973   2.862   0.165
 6110SOL     OW19228   2.943   2.761   6.788
 6110SOL    HW119229   2.910   2.761   6.694
 6110SOL    HW219230   2.888   2.698   6.843
 6111SOL     OW19231   1.407   4.913   2.589
 6111SOL    HW119232   1.355   4.924   2.504
 6111SOL    HW219233   1.494   4.867   2.569
 6112SOL     OW19234   2.608   2.168   3.085
 6112SOL    HW119235   2.554   2.215   3.015
 6112SOL    HW219236   2.665   2.234   3.134
 6113SOL     OW19237   0.227   0.951   6.405
 6113SOL    HW119238   0.160   1.008   6.451
 6113SOL    HW219239   0.194   0.856   6.401
 6114SOL     OW19240   4.908   5.220   1.164
 6114SOL    HW119241   4.887   5.192   1.258
 6114SOL    HW219242   4.836   5.281   1.131
 6115SOL     OW19243   5.304   5.759   3.103
 6115SOL    HW119244   5.233   5.782   3.037
 6115SOL    HW219245   5.394   5.767   3.060
 6116SOL     OW19246   2.605   1.426   1.555
 6116SOL    HW119247   2.561   1.500   1.605
 6116SOL    HW219248   2.639   1.460   1.467
 6117SOL     OW19249   0.134   7.009   5.238
 6117SOL    HW119250   0.164   0.006   5.145
 6117SOL    HW219251   0.151   6.912   5.255
 6118SOL     OW19252   0.172   1.642   1.399
 6118SOL    HW119253   0.168   1.614   1.495
 6118SOL    HW219254   0.260   1.687   1.381
 6119SOL     OW19255   7.007   4.489   4.409
 6119SOL    HW119256   6.917   4.448   4.394
 6119SOL    HW219257   0.030   4.494   4.323
 6120SOL     OW19258   2.953   6.997   3.698
 6120SOL    HW119259   2.903   0.045   3.743
 6120SOL    HW219260   3.022   6.961   3.761
 6121SOL     OW19261   6.661   2.642   5.096
 6121SOL    HW119262   6.711   2.636   5.183
 6121SOL    HW219263   6.640   2.737   5.077
 6122SOL     OW19264   3.409   6.661   1.784
 6122SOL    HW119265   3.411   6.561   1.797
 6122SOL    HW219266   3.458   6.684   1.701
 6123SOL     OW19267   6.699   0.636   1.387
 6123SOL    HW119268   6.628   0.576   1.351
 6123SOL    HW219269   6.720   0.708   1.321
 6124SOL     OW19270   3.124   6.687   5.120
 6124SOL    HW119271   3.111   6.668   5.023
 6124SOL    HW219272   3.166   6.777   5.131
 6125SOL     OW19273   2.404   5.485   1.489
 6125SOL    HW119274   2.367   5.396   1.463
 6125SOL    HW219275   2.342   5.558   1.458
 6126SOL     OW19276   5.207   5.963   3.899
 6126SOL    HW119277   5.245   5.979   3.807
 6126SOL    HW219278   5.180   6.050   3.939
 6127SOL     OW19279   2.507   6.796   1.482
 6127SOL    HW119280   2.409   6.783   1.500
 6127SOL    HW219281   2.520   6.826   1.388
 6128SOL     OW19282   6.466   3.149   0.483
 6128SOL    HW119283   6.367   3.146   0.466
 6128SOL    HW219284   6.514   3.147   0.395
 6129SOL     OW19285   6.420   4.255   3.351
 6129SOL    HW119286   6.439   4.187   3.281
 6129SOL    HW219287   6.502   4.267   3.408
 6130SOL     OW19288   6.449   3.056   4.759
 6130SOL    HW119289   6.467   3.147   4.797
 6130SOL    HW219290   6.530   3.024   4.710
 6131SOL     OW19291   6.977   1.679   5.432
 6131SOL    HW119292   7.006   1.623   5.354
 6131SOL    HW219293   0.007   1.657   5.512
 6132SOL     OW19294   3.617   0.711   1.051
 6132SOL    HW119295   3.593   0.807   1.070
 6132SOL    HW219296   3.633   0.700   0.953
 6133SOL     OW19297   0.452   2.546   2.800
 6133SOL    HW119298   0.453   2.630   2.854
 6133SOL    HW219299   0.374   2.490   2.828
 6134SOL     OW19300   4.462   3.138   6.420
 6134SOL    HW119301   4.382   3.195   6.439
 6134SOL    HW219302   4.439   3.069   6.352
 6135SOL     OW19303   5.906   0.263   2.149
 6135SOL    HW119304   5.860   0.336   2.099
 6135SOL    HW219305   5.949   0.199   2.084
 6136SOL     OW19306   0.961   1.498   2.693
 6136SOL    HW119307   0.985   1.594   2.678
 6136SOL    HW219308   0.988   1.444   2.613
 6137SOL     OW19309   4.062   0.981   5.649
 6137SOL    HW119310   4.160   0.988   5.667
 6137SOL    HW219311   4.017   0.929   5.722
 6138SOL     OW19312   3.483   6.809   2.326
 6138SOL    HW119313   3.455   6.783   2.234
 6138SOL    HW219314   3.568   6.764   2.350
 6139SOL     OW19315   2.229   3.042   4.474
 6139SOL    HW119316   2.208   3.139   4.490
 6139SOL    HW219317   2.307   3.015   4.531
 6140SOL     OW19318   0.433   6.486   1.701
 6140SOL    HW119319   0.429   6.537   1.787
 6140SOL    HW219320   0.392   6.541   1.628
 6141SOL     OW19321   5.792   6.063   4.885
 6141SOL    HW119322   5.799   6.120   4.802
 6141SOL    HW219323   5.827   5.971   4.865
 6142SOL     OW19324   6.942   5.034   0.564
 6142SOL    HW119325   6.877   4.960   0.577
 6142SOL    HW219326   6.930   5.074   0.473
 6143SOL     OW19327   5.639   4.258   6.873
 6143SOL    HW119328   5.622   4.176   6.927
 6143SOL    HW219329   5.601   4.337   6.921
 6144SOL     OW19330   6.343   4.981   2.497
 6144SOL    HW119331   6.378   4.889   2.514
 6144SOL    HW219332   6.379   5.014   2.409
 6145SOL     OW19333   4.787   6.221   3.833
 6145SOL    HW119334   4.861   6.262   3.779
 6145SOL    HW219335   4.719   6.183   3.771
 6146SOL     OW19336   4.477   0.883   3.445
 6146SOL    HW119337   4.416   0.804   3.438
 6146SOL    HW219338   4.539   0.871   3.523
 6147SOL     OW19339   1.611   4.821   3.302
 6147SOL    HW119340   1.620   4.794   3.398
 6147SOL    HW219341   1.702   4.825   3.260
 6148SOL     OW19342   6.836   0.161   4.321
 6148SOL    HW119343   6.791   0.092   4.378
 6148SOL    HW219344   6.779   0.181   4.241
 6149SOL     OW19345   3.632   5.181   2.780
 6149SOL    HW119346   3.685   5.104   2.814
 6149SOL    HW219347   3.562   5.148   2.717
 6150SOL     OW19348   4.352   5.009   6.660
 6150SOL    HW119349   4.352   5.086   6.724
 6150SOL    HW219350   4.426   5.021   6.594
 6151SOL     OW19351   6.798   3.713   4.682
 6151SOL    HW119352   6.708   3.750   4.706
 6151SOL    HW219353   6.854   3.786   4.641
 6152SOL     OW19354   4.877   4.503   5.713
 6152SOL    HW119355   4.835   4.551   5.636
 6152SOL    HW219356   4.809   4.445   5.757
 6153SOL     OW19357   4.731   3.765   1.657
 6153SOL    HW119358   4.678   3.680   1.665
 6153SOL    HW219359   4.670   3.843   1.669
 6154SOL     OW19360   5.189   1.271   1.993
 6154SOL    HW119361   5.153   1.256   2.085
 6154SOL    HW219362   5.116   1.305   1.933
 6155SOL     OW19363   1.579   2.965   3.943
 6155SOL    HW119364   1.599   2.968   3.845
 6155SOL    HW219365   1.589   3.057   3.981
 6156SOL     OW19366   4.768   5.048   2.432
 6156SOL    HW119367   4.676   5.015   2.455
 6156SOL    HW219368   4.786   5.131   2.484
 6157SOL     OW19369   1.240   1.862   3.671
 6157SOL    HW119370   1.242   1.956   3.638
 6157SOL    HW219371   1.284   1.802   3.604
 6158SOL     OW19372   5.031   0.839   6.790
 6158SOL    HW119373   5.075   0.801   6.708
 6158SOL    HW219374   5.053   0.782   6.869
 6159SOL     OW19375   4.718   1.333   0.096
 6159SOL    HW119376   4.771   1.416   0.116
 6159SOL    HW219377   4.622   1.358   0.081
 6160SOL     OW19378   6.075   5.964   0.624
 6160SOL    HW119379   5.978   5.944   0.637
 6160SOL    HW219380   6.101   6.045   0.677
 6161SOL     OW19381   5.910   2.387   6.225
 6161SOL    HW119382   5.858   2.393   6.140
 6161SOL    HW219383   5.988   2.450   6.221
 6162SOL     OW19384   1.032   5.546   4.837
 6162SOL    HW119385   1.030   5.447   4.823
 6162SOL    HW219386   1.115   5.584   4.796
 6163SOL     OW19387   5.715   5.518   0.957
 6163SOL    HW119388   5.663   5.560   0.883
 6163SOL    HW219389   5.702   5.418   0.955
 6164SOL     OW19390   1.633   3.000   1.688
 6164SOL    HW119391   1.645   2.910   1.730
 6164SOL    HW219392   1.712   3.019   1.628
 6165SOL     OW19393   3.957   5.966   6.980
 6165SOL    HW119394   3.876   6.020   7.001
 6165SOL    HW219395   3.969   5.960   6.881
 6166SOL     OW19396   3.516   1.143   5.408
 6166SOL    HW119397   3.611   1.126   5.436
 6166SOL    HW219398   3.484   1.228   5.451
 6167SOL     OW19399   0.616   5.012   2.372
 6167SOL    HW119400   0.595   5.083   2.439
 6167SOL    HW219401   0.535   4.993   2.317
 6168SOL     OW19402   0.249   3.812   0.678
 6168SOL    HW119403   0.206   3.860   0.754
 6168SOL    HW219404   0.299   3.732   0.713
 6169SOL     OW19405   1.285   3.033   1.917
 6169SOL    HW119406   1.225   3.075   1.849
 6169SOL    HW219407   1.371   3.085   1.922
 6170SOL     OW19408   0.306   2.987   5.302
 6170SOL    HW119409   0.315   2.890   5.278
 6170SOL    HW219410   0.361   3.006   5.384
 6171SOL     OW19411   0.201   1.442   0.661
 6171SOL    HW119412   0.161   1.528   0.693
 6171SOL    HW219413   0.241   1.394   0.739
 6172SOL     OW19414   0.528   2.624   2.551
 6172SOL    HW119415   0.509   2.572   2.634
 6172SOL    HW219416   0.611   2.679   2.565
 6173SOL     OW19417   6.814   5.506   3.058
 6173SOL    HW119418   6.912   5.490   3.068
 6173SOL    HW219419   6.788   5.590   3.105
 6174SOL     OW19420   4.475   4.987   3.530
 6174SOL    HW119421   4.506   4.893   3.545
 6174SOL    HW219422   4.535   5.050   3.579
 6175SOL     OW19423   3.419   0.751   4.683
 6175SOL    HW119424   3.503   0.804   4.669
 6175SOL    HW219425   3.442   0.664   4.726
 6176SOL     OW19426   4.543   3.466   5.417
 6176SOL    HW119427   4.558   3.557   5.378
 6176SOL    HW219428   4.599   3.399   5.368
 6177SOL     OW19429   5.023   1.848   1.988
 6177SOL    HW119430   5.076   1.872   1.906
 6177SOL    HW219431   5.018   1.927   2.049
 6178SOL     OW19432   4.878   3.737   1.979
 6178SOL    HW119433   4.807   3.715   1.912
 6178SOL    HW219434   4.901   3.655   2.031
 6179SOL     OW19435   6.704   4.450   1.572
 6179SOL    HW119436   6.637   4.466   1.644
 6179SOL    HW219437   6.795   4.472   1.607
 6180SOL     OW19438   3.184   4.873   0.782
 6180SOL    HW119439   3.203   4.869   0.684
 6180SOL    HW219440   3.226   4.795   0.827
 6181SOL     OW19441   4.878   5.716   6.179
 6181SOL    HW119442   4.921   5.672   6.258
 6181SOL    HW219443   4.874   5.815   6.194
 6182SOL     OW19444   4.200   2.171   0.236
 6182SOL    HW119445   4.270   2.234   0.270
 6182SOL    HW219446   4.233   2.126   0.153
 6183SOL     OW19447   1.687   2.034   1.531
 6183SOL    HW119448   1.727   2.120   1.497
 6183SOL    HW219449   1.749   1.958   1.513
 6184SOL     OW19450   2.979   0.533   6.400
 6184SOL    HW119451   3.036   0.488   6.469
 6184SOL    HW219452   2.886   0.497   6.404
 6185SOL     OW19453   2.806   4.103   5.878
 6185SOL    HW119454   2.884   4.055   5.917
 6185SOL    HW219455   2.722   4.051   5.894
 6186SOL     OW19456   6.936   1.959   2.107
 6186SOL    HW119457   6.937   1.872   2.059
 6186SOL    HW219458   6.884   1.950   2.192
 6187SOL     OW19459   4.725   2.805   5.083
 6187SOL    HW119460   4.788   2.878   5.109
 6187SOL    HW219461   4.723   2.796   4.984
 6188SOL     OW19462   1.651   1.504   5.357
 6188SOL    HW119463   1.605   1.581   5.315
 6188SOL    HW219464   1.717   1.466   5.292
 6189SOL     OW19465   3.829   5.574   2.498
 6189SOL    HW119466   3.756   5.525   2.545
 6189SOL    HW219467   3.913   5.569   2.552
 6190SOL     OW19468   6.128   3.742   5.980
 6190SOL    HW119469   6.165   3.802   5.909
 6190SOL    HW219470   6.031   3.764   5.995
 6191SOL     OW19471   2.299   3.017   5.629
 6191SOL    HW119472   2.255   3.101   5.599
 6191SOL    HW219473   2.230   2.954   5.666
 6192SOL     OW19474   2.293   1.973   6.069
 6192SOL    HW119475   2.376   1.975   6.123
 6192SOL    HW219476   2.237   2.053   6.090
 6193SOL     OW19477   5.015   5.392   0.622
 6193SOL    HW119478   4.988   5.296   0.627
 6193SOL    HW219479   5.069   5.408   0.539
 6194SOL     OW19480   6.613   0.774   6.458
 6194SOL    HW119481   6.647   0.867   6.469
 6194SOL    HW219482   6.515   0.772   6.477
 6195SOL     OW19483   5.376   6.807   4.784
 6195SOL    HW119484   5.429   6.839   4.705
 6195SOL    HW219485   5.339   6.717   4.765
 6196SOL     OW19486   5.554   4.559   3.173
 6196SOL    HW119487   5.589   4.533   3.083
 6196SOL    HW219488   5.548   4.659   3.178
 6197SOL     OW19489   2.417   5.171   2.727
 6197SOL    HW119490   2.321   5.148   2.717
 6197SOL    HW219491   2.439   5.249   2.668
 6198SOL     OW19492   5.771   6.213   6.532
 6198SOL    HW119493   5.824   6.281   6.480
 6198SOL    HW219494   5.736   6.255   6.616
 6199SOL     OW19495   0.453   0.836   0.578
 6199SOL    HW119496   0.381   0.901   0.555
 6199SOL    HW219497   0.418   0.743   0.569
 6200SOL     OW19498   1.177   1.106   2.682
 6200SOL    HW119499   1.253   1.170   2.673
 6200SOL    HW219500   1.090   1.156   2.679
 6201SOL     OW19501   0.716   4.473   4.509
 6201SOL    HW119502   0.802   4.461   4.559
 6201SOL    HW219503   0.709   4.568   4.477
 6202SOL     OW19504   6.146   1.856   2.917
 6202SOL    HW119505   6.191   1.826   3.000
 6202SOL    HW219506   6.158   1.955   2.906
 6203SOL     OW19507   6.096   5.379   2.078
 6203SOL    HW119508   6.088   5.315   2.002
 6203SOL    HW219509   6.143   5.335   2.154
 6204SOL     OW19510   1.183   6.218   4.821
 6204SOL    HW119511   1.273   6.193   4.787
 6204SOL    HW219512   1.158   6.158   4.897
 6205SOL     OW19513   4.786   5.115   2.151
 6205SOL    HW119514   4.769   5.097   2.248
 6205SOL    HW219515   4.804   5.029   2.104
 6206SOL     OW19516   4.508   1.799   3.688
 6206SOL    HW119517   4.428   1.858   3.685
 6206SOL    HW219518   4.591   1.854   3.695
 6207SOL     OW19519   1.619   6.256   4.066
 6207SOL    HW119520   1.588   6.169   4.105
 6207SOL    HW219521   1.719   6.258   4.068
 6208SOL     OW19522   3.651   2.351   6.106
 6208SOL    HW119523   3.738   2.314   6.141
 6208SOL    HW219524   3.586   2.276   6.093
 6209SOL     OW19525   3.255   4.345   1.204
 6209SOL    HW119526   3.322   4.419   1.200
 6209SOL    HW219527   3.178   4.367   1.144
 6210SOL     OW19528   5.291   3.692   3.023
 6210SOL    HW119529   5.319   3.786   3.005
 6210SOL    HW219530   5.365   3.630   2.996
 6211SOL     OW19531   4.356   5.387   5.748
 6211SOL    HW119532   4.296   5.364   5.671
 6211SOL    HW219533   4.333   5.329   5.826
 6212SOL     OW19534   2.585   4.580   4.461
 6212SOL    HW119535   2.581   4.503   4.398
 6212SOL    HW219536   2.510   4.573   4.527
 6213SOL     OW19537   5.087   6.522   0.517
 6213SOL    HW119538   5.089   6.586   0.593
 6213SOL    HW219539   5.120   6.568   0.434
 6214SOL     OW19540   5.336   5.516   5.690
 6214SOL    HW119541   5.261   5.564   5.734
 6214SOL    HW219542   5.338   5.538   5.593
 6215SOL     OW19543   5.217   3.044   6.490
 6215SOL    HW119544   5.149   3.110   6.458
 6215SOL    HW219545   5.173   2.976   6.549
 6216SOL     OW19546   6.095   3.004   3.297
 6216SOL    HW119547   6.060   3.065   3.226
 6216SOL    HW219548   6.191   2.984   3.279
 6217SOL     OW19549   0.400   4.607   2.066
 6217SOL    HW119550   0.302   4.588   2.054
 6217SOL    HW219551   0.446   4.524   2.099
 6218SOL     OW19552   4.994   5.906   0.315
 6218SOL    HW119553   4.930   5.933   0.387
 6218SOL    HW219554   4.948   5.847   0.249
 6219SOL     OW19555   1.907   0.911   5.254
 6219SOL    HW119556   1.813   0.943   5.263
 6219SOL    HW219557   1.969   0.989   5.251
 6220SOL     OW19558   3.569   0.534   0.216
 6220SOL    HW119559   3.596   0.503   0.125
 6220SOL    HW219560   3.498   0.604   0.208
 6221SOL     OW19561   6.558   6.015   6.291
 6221SOL    HW119562   6.560   6.088   6.360
 6221SOL    HW219563   6.635   6.027   6.229
 6222SOL     OW19564   5.852   1.359   2.244
 6222SOL    HW119565   5.942   1.395   2.218
 6222SOL    HW219566   5.803   1.328   2.162
 6223SOL     OW19567   0.519   5.509   4.044
 6223SOL    HW119568   0.431   5.550   4.067
 6223SOL    HW219569   0.589   5.543   4.107
 6224SOL     OW19570   4.229   0.971   6.207
 6224SOL    HW119571   4.251   0.915   6.287
 6224SOL    HW219572   4.315   1.000   6.163
 6225SOL     OW19573   3.933   1.306   6.463
 6225SOL    HW119574   4.021   1.341   6.433
 6225SOL    HW219575   3.913   1.221   6.416
 6226SOL     OW19576   1.599   1.346   3.678
 6226SOL    HW119577   1.695   1.372   3.689
 6226SOL    HW219578   1.541   1.409   3.729
 6227SOL     OW19579   3.150   4.521   5.351
 6227SOL    HW119580   3.067   4.525   5.296
 6227SOL    HW219581   3.206   4.602   5.332
 6228SOL     OW19582   1.414   2.727   3.940
 6228SOL    HW119583   1.471   2.807   3.958
 6228SOL    HW219584   1.419   2.704   3.842
 6229SOL     OW19585   7.015   3.334   4.494
 6229SOL    HW119586   6.972   3.406   4.549
 6229SOL    HW219587   0.075   3.306   4.536
 6230SOL     OW19588   0.326   1.565   2.910
 6230SOL    HW119589   0.332   1.665   2.912
 6230SOL    HW219590   0.296   1.536   2.819
 6231SOL     OW19591   5.586   4.282   0.179
 6231SOL    HW119592   5.650   4.241   0.244
 6231SOL    HW219593   5.566   4.216   0.106
 6232SOL     OW19594   6.055   0.730   0.590
 6232SOL    HW119595   5.988   0.735   0.516
 6232SOL    HW219596   6.133   0.675   0.561
 6233SOL     OW19597   0.306   3.445   2.064
 6233SOL    HW119598   0.354   3.423   1.979
 6233SOL    HW219599   0.334   3.380   2.135
 6234SOL     OW19600   0.081   0.129   4.280
 6234SOL    HW119601   7.010   0.126   4.301
 6234SOL    HW219602   0.106   0.220   4.246
 6235SOL     OW19603   0.123   0.628   1.919
 6235SOL    HW119604   0.175   0.551   1.957
 6235SOL    HW219605   0.176   0.712   1.928
 6236SOL     OW19606   0.639   3.669   0.533
 6236SOL    HW119607   0.584   3.589   0.511
 6236SOL    HW219608   0.591   3.752   0.502
 6237SOL     OW19609   3.785   6.680   0.594
 6237SOL    HW119610   3.734   6.724   0.668
 6237SOL    HW219611   3.806   6.586   0.619
 6238SOL     OW19612   3.240   6.210   3.591
 6238SOL    HW119613   3.234   6.283   3.659
 6238SOL    HW219614   3.179   6.231   3.514
 6239SOL     OW19615   3.513   6.985   2.009
 6239SOL    HW119616   3.582   6.983   2.081
 6239SOL    HW219617   3.483   0.053   1.993
 6240SOL     OW19618   2.849   3.920   5.115
 6240SOL    HW119619   2.904   3.878   5.043
 6240SOL    HW219620   2.794   3.994   5.075
 6241SOL     OW19621   3.914   6.913   3.977
 6241SOL    HW119622   3.852   6.921   3.899
 6241SOL    HW219623   3.886   6.977   4.048
 6242SOL     OW19624   2.313   2.043   2.835
 6242SOL    HW119625   2.383   2.067   2.769
 6242SOL    HW219626   2.280   1.950   2.818
 6243SOL     OW19627   6.556   0.617   5.665
 6243SOL    HW119628   6.651   0.645   5.683
 6243SOL    HW219629   6.543   0.523   5.697
 6244SOL     OW19630   4.744   4.098   2.671
 6244SOL    HW119631   4.681   4.137   2.604
 6244SOL    HW219632   4.810   4.040   2.625
 6245SOL     OW19633   0.849   4.679   2.336
 6245SOL    HW119634   0.763   4.672   2.387
 6245SOL    HW219635   0.870   4.775   2.320
 6246SOL     OW19636   1.485   0.011   4.691
 6246SOL    HW119637   1.546   6.982   4.633
 6246SOL    HW219638   1.426   6.977   4.744
 6247SOL     OW19639   0.293   5.208   3.714
 6247SOL    HW119640   0.224   5.205   3.786
 6247SOL    HW219641   0.271   5.281   3.650
 6248SOL     OW19642   4.236   3.082   6.865
 6248SOL    HW119643   4.241   3.182   6.874
 6248SOL    HW219644   4.294   3.039   6.934
 6249SOL     OW19645   6.915   2.521   1.461
 6249SOL    HW119646   6.846   2.531   1.533
 6249SOL    HW219647   6.901   2.435   1.413
 6250SOL     OW19648   0.085   0.028   0.678
 6250SOL    HW119649   0.119   0.073   0.760
 6250SOL    HW219650   0.049   0.096   0.615
 6251SOL     OW19651   3.393   6.880   4.818
 6251SOL    HW119652   3.302   6.855   4.785
 6251SOL    HW219653   3.391   6.974   4.852
 6252SOL     OW19654   2.984   5.022   6.655
 6252SOL    HW119655   2.895   5.002   6.696
 6252SOL    HW219656   2.980   5.007   6.557
 6253SOL     OW19657   3.122   4.920   4.520
 6253SOL    HW119658   3.052   4.921   4.449
 6253SOL    HW219659   3.093   4.860   4.595
 6254SOL     OW19660   0.691   5.737   0.731
 6254SOL    HW119661   0.620   5.800   0.698
 6254SOL    HW219662   0.653   5.645   0.738
 6255SOL     OW19663   1.768   2.238   0.980
 6255SOL    HW119664   1.677   2.218   0.944
 6255SOL    HW219665   1.805   2.318   0.933
 6256SOL     OW19666   4.812   5.856   2.463
 6256SOL    HW119667   4.789   5.804   2.381
 6256SOL    HW219668   4.796   5.953   2.446
 6257SOL     OW19669   4.314   3.697   0.560
 6257SOL    HW119670   4.239   3.754   0.594
 6257SOL    HW219671   4.288   3.600   0.566
 6258SOL     OW19672   3.895   0.073   6.126
 6258SOL    HW119673   3.821   0.032   6.071
 6258SOL    HW219674   3.981   0.029   6.103
 6259SOL     OW19675   1.722   0.113   5.819
 6259SOL    HW119676   1.648   0.054   5.785
 6259SOL    HW219677   1.728   0.194   5.761
 6260SOL     OW19678   1.571   0.795   0.409
 6260SOL    HW119679   1.514   0.731   0.358
 6260SOL    HW219680   1.611   0.862   0.347
 6261SOL     OW19681   4.848   0.265   1.592
 6261SOL    HW119682   4.862   0.185   1.651
 6261SOL    HW219683   4.923   0.330   1.606
 6262SOL     OW19684   6.356   6.158   2.859
 6262SOL    HW119685   6.440   6.208   2.879
 6262SOL    HW219686   6.378   6.061   2.844
 6263SOL     OW19687   6.931   6.673   4.321
 6263SOL    HW119688   6.953   6.753   4.266
 6263SOL    HW219689   6.866   6.698   4.393
 6264SOL     OW19690   0.738   0.002   1.166
 6264SOL    HW119691   0.670   0.074   1.176
 6264SOL    HW219692   0.750   6.981   1.253
 6265SOL     OW19693   3.571   3.164   0.796
 6265SOL    HW119694   3.661   3.204   0.814
 6265SOL    HW219695   3.539   3.116   0.878
 6266SOL     OW19696   3.137   6.043   3.096
 6266SOL    HW119697   3.148   6.088   3.008
 6266SOL    HW219698   3.058   5.981   3.092
 6267SOL     OW19699   1.154   6.231   5.304
 6267SOL    HW119700   1.065   6.197   5.334
 6267SOL    HW219701   1.214   6.243   5.383
 6268SOL     OW19702   4.045   0.540   1.941
 6268SOL    HW119703   3.985   0.485   1.999
 6268SOL    HW219704   4.021   0.525   1.845
 6269SOL     OW19705   5.519   6.306   1.513
 6269SOL    HW119706   5.617   6.286   1.514
 6269SOL    HW219707   5.499   6.371   1.440
 6270SOL     OW19708   0.964   6.307   0.226
 6270SOL    HW119709   0.925   6.364   0.154
 6270SOL    HW219710   1.064   6.305   0.216
 6271SOL     OW19711   5.811   2.999   6.821
 6271SOL    HW119712   5.830   2.910   6.779
 6271SOL    HW219713   5.712   3.015   6.819
 6272SOL     OW19714   6.878   0.693   6.704
 6272SOL    HW119715   6.803   0.758   6.714
 6272SOL    HW219716   6.917   0.700   6.612
 6273SOL     OW19717   0.151   6.535   2.391
 6273SOL    HW119718   0.230   6.531   2.453
 6273SOL    HW219719   0.152   6.621   2.340
 6274SOL     OW19720   3.126   6.611   4.860
 6274SOL    HW119721   3.102   6.517   4.882
 6274SOL    HW219722   3.153   6.617   4.764
 6275SOL     OW19723   2.646   6.346   0.602
 6275SOL    HW119724   2.595   6.313   0.681
 6275SOL    HW219725   2.608   6.305   0.519
 6276SOL     OW19726   3.275   5.477   3.096
 6276SOL    HW119727   3.345   5.405   3.088
 6276SOL    HW219728   3.307   5.560   3.050
 6277SOL     OW19729   4.861   1.895   1.649
 6277SOL    HW119730   4.817   1.854   1.729
 6277SOL    HW219731   4.938   1.838   1.621
 6278SOL     OW19732   3.301   6.894   5.794
 6278SOL    HW119733   3.241   6.974   5.800
 6278SOL    HW219734   3.349   6.894   5.706
 6279SOL     OW19735   3.184   5.467   1.037
 6279SOL    HW119736   3.269   5.504   0.997
 6279SOL    HW219737   3.159   5.383   0.989
 6280SOL     OW19738   6.310   1.936   6.793
 6280SOL    HW119739   6.241   1.994   6.836
 6280SOL    HW219740   6.359   1.885   6.863
 6281SOL     OW19741   6.342   4.308   4.314
 6281SOL    HW119742   6.414   4.247   4.282
 6281SOL    HW219743   6.350   4.320   4.413
 6282SOL     OW19744   6.924   3.907   5.869
 6282SOL    HW119745   6.911   3.830   5.931
 6282SOL    HW219746   6.887   3.884   5.779
 6283SOL     OW19747   0.744   5.974   5.380
 6283SOL    HW119748   0.776   5.895   5.432
 6283SOL    HW219749   0.796   5.982   5.295
 6284SOL     OW19750   1.666   4.895   6.769
 6284SOL    HW119751   1.722   4.976   6.785
 6284SOL    HW219752   1.673   4.868   6.672
 6285SOL     OW19753   1.713   3.721   3.179
 6285SOL    HW119754   1.718   3.688   3.085
 6285SOL    HW219755   1.803   3.750   3.209
 6286SOL     OW19756   0.511   3.536   4.861
 6286SOL    HW119757   0.520   3.446   4.903
 6286SOL    HW219758   0.471   3.527   4.770
 6287SOL     OW19759   4.104   4.722   5.190
 6287SOL    HW119760   4.170   4.649   5.175
 6287SOL    HW219761   4.149   4.801   5.232
 6288SOL     OW19762   4.285   3.429   6.831
 6288SOL    HW119763   4.192   3.440   6.865
 6288SOL    HW219764   4.297   3.483   6.747
 6289SOL     OW19765   2.503   4.123   6.709
 6289SOL    HW119766   2.544   4.091   6.623
 6289SOL    HW219767   2.465   4.215   6.695
 6290SOL     OW19768   6.115   5.288   6.196
 6290SOL    HW119769   6.184   5.232   6.241
 6290SOL    HW219770   6.137   5.297   6.099
 6291SOL     OW19771   3.330   3.263   3.320
 6291SOL    HW119772   3.367   3.248   3.228
 6291SOL    HW219773   3.276   3.183   3.347
 6292SOL     OW19774   1.826   2.275   4.529
 6292SOL    HW119775   1.841   2.194   4.473
 6292SOL    HW219776   1.772   2.341   4.478
 6293SOL     OW19777   4.761   1.269   0.481
 6293SOL    HW119778   4.839   1.280   0.419
 6293SOL    HW219779   4.720   1.179   0.466
 6294SOL     OW19780   3.753   0.842   3.789
 6294SOL    HW119781   3.763   0.762   3.848
 6294SOL    HW219782   3.818   0.913   3.817
 6295SOL     OW19783   5.210   5.107   4.865
 6295SOL    HW119784   5.210   5.118   4.766
 6295SOL    HW219785   5.232   5.011   4.888
 6296SOL     OW19786   0.392   3.581   6.090
 6296SOL    HW119787   0.314   3.642   6.108
 6296SOL    HW219788   0.406   3.521   6.169
 6297SOL     OW19789   5.928   0.174   4.540
 6297SOL    HW119790   5.843   0.196   4.587
 6297SOL    HW219791   5.937   0.075   4.533
 6298SOL     OW19792   5.518   4.074   7.026
 6298SOL    HW119793   5.443   4.015   6.997
 6298SOL    HW219794   5.595   4.018   0.029
 6299SOL     OW19795   4.858   2.518   2.664
 6299SOL    HW119796   4.877   2.616   2.672
 6299SOL    HW219797   4.921   2.478   2.597
 6300SOL     OW19798   4.091   1.057   6.659
 6300SOL    HW119799   4.029   1.014   6.594
 6300SOL    HW219800   4.130   1.139   6.618
 6301SOL     OW19801   3.479   6.503   6.813
 6301SOL    HW119802   3.508   6.598   6.820
 6301SOL    HW219803   3.398   6.489   6.870
 6302SOL     OW19804   2.322   1.669   5.733
 6302SOL    HW119805   2.411   1.713   5.727
 6302SOL    HW219806   2.261   1.725   5.789
 6303SOL     OW19807   1.318   6.560   5.685
 6303SOL    HW119808   1.364   6.484   5.730
 6303SOL    HW219809   1.385   6.612   5.631
 6304SOL     OW19810   4.211   0.785   3.358
 6304SOL    HW119811   4.152   0.712   3.324
 6304SOL    HW219812   4.265   0.823   3.282
 6305SOL     OW19813   6.667   5.683   5.662
 6305SOL    HW119814   6.585   5.680   5.605
 6305SOL    HW219815   6.639   5.692   5.758
 6306SOL     OW19816   0.598   3.904   4.036
 6306SOL    HW119817   0.622   3.825   3.979
 6306SOL    HW219818   0.575   3.873   4.128
 6307SOL     OW19819   3.917   3.957   3.660
 6307SOL    HW119820   3.937   3.991   3.752
 6307SOL    HW219821   3.958   3.866   3.649
 6308SOL     OW19822   0.315   2.343   5.667
 6308SOL    HW119823   0.236   2.285   5.687
 6308SOL    HW219824   0.290   2.410   5.598
 6309SOL     OW19825   0.877   6.799   4.447
 6309SOL    HW119826   0.882   6.868   4.375
 6309SOL    HW219827   0.875   6.708   4.405
 6310SOL     OW19828   1.525   6.752   3.330
 6310SOL    HW119829   1.613   6.760   3.282
 6310SOL    HW219830   1.451   6.770   3.266
 6311SOL     OW19831   5.193   0.787   6.578
 6311SOL    HW119832   5.280   0.775   6.626
 6311SOL    HW219833   5.209   0.787   6.479
 6312SOL     OW19834   2.952   6.692   6.720
 6312SOL    HW119835   2.905   6.629   6.659
 6312SOL    HW219836   2.892   6.716   6.796
 6313SOL     OW19837   5.425   6.211   3.365
 6313SOL    HW119838   5.377   6.126   3.343
 6313SOL    HW219839   5.360   6.287   3.369
 6314SOL     OW19840   2.982   0.108   1.392
 6314SOL    HW119841   3.082   0.108   1.390
 6314SOL    HW219842   2.950   0.140   1.481
 6315SOL     OW19843   1.850   2.552   4.441
 6315SOL    HW119844   1.870   2.640   4.484
 6315SOL    HW219845   1.754   2.530   4.454
 6316SOL     OW19846   4.567   1.754   5.639
 6316SOL    HW119847   4.584   1.853   5.638
 6316SOL    HW219848   4.554   1.721   5.546
 6317SOL     OW19849   4.960   4.315   2.566
 6317SOL    HW119850   5.042   4.307   2.510
 6317SOL    HW219851   4.986   4.334   2.661
 6318SOL     OW19852   6.594   0.102   6.625
 6318SOL    HW119853   6.673   0.042   6.639
 6318SOL    HW219854   6.624   0.198   6.627
 6319SOL     OW19855   5.603   2.718   4.984
 6319SOL    HW119856   5.526   2.659   4.958
 6319SOL    HW219857   5.655   2.743   4.903
 6320SOL     OW19858   0.669   1.134   3.696
 6320SOL    HW119859   0.577   1.170   3.713
 6320SOL    HW219860   0.665   1.065   3.624
 6321SOL     OW19861   5.306   2.608   0.718
 6321SOL    HW119862   5.384   2.560   0.677
 6321SOL    HW219863   5.245   2.542   0.761
 6322SOL     OW19864   2.260   1.219   0.478
 6322SOL    HW119865   2.318   1.295   0.508
 6322SOL    HW219866   2.165   1.237   0.505
 6323SOL     OW19867   2.809   2.897   1.216
 6323SOL    HW119868   2.882   2.858   1.271
 6323SOL    HW219869   2.744   2.825   1.192
 6324SOL     OW19870   4.721   1.021   0.991
 6324SOL    HW119871   4.707   0.945   0.927
 6324SOL    HW219872   4.633   1.047   1.031
 6325SOL     OW19873   1.484   2.526   2.232
 6325SOL    HW119874   1.498   2.601   2.167
 6325SOL    HW219875   1.540   2.542   2.314
 6326SOL     OW19876   4.570   4.788   5.851
 6326SOL    HW119877   4.471   4.797   5.853
 6326SOL    HW219878   4.609   4.862   5.796
 6327SOL     OW19879   0.300   1.937   3.704
 6327SOL    HW119880   0.366   2.011   3.692
 6327SOL    HW219881   0.211   1.975   3.730
 6328SOL     OW19882   4.847   3.718   6.116
 6328SOL    HW119883   4.783   3.648   6.086
 6328SOL    HW219884   4.799   3.805   6.124
 6329SOL     OW19885   1.198   2.780   4.903
 6329SOL    HW119886   1.264   2.723   4.854
 6329SOL    HW219887   1.121   2.723   4.933
 6330SOL     OW19888   5.824   0.768   3.439
 6330SOL    HW119889   5.792   0.683   3.481
 6330SOL    HW219890   5.913   0.793   3.477
 6331SOL     OW19891   6.268   3.156   4.541
 6331SOL    HW119892   6.313   3.112   4.619
 6331SOL    HW219893   6.296   3.252   4.537
 6332SOL     OW19894   1.793   1.569   1.458
 6332SOL    HW119895   1.822   1.662   1.437
 6332SOL    HW219896   1.794   1.513   1.375
 6333SOL     OW19897   4.837   7.013   0.610
 6333SOL    HW119898   4.900   0.055   0.571
 6333SOL    HW219899   4.791   6.964   0.536
 6334SOL     OW19900   2.682   1.790   1.874
 6334SOL    HW119901   2.752   1.861   1.872
 6334SOL    HW219902   2.710   1.718   1.938
 6335SOL     OW19903   5.202   0.762   1.051
 6335SOL    HW119904   5.250   0.687   1.096
 6335SOL    HW219905   5.131   0.726   0.991
 6336SOL     OW19906   6.939   4.545   5.914
 6336SOL    HW119907   6.929   4.632   5.962
 6336SOL    HW219908   0.000   4.542   5.866
 6337SOL     OW19909   4.209   5.811   4.926
 6337SOL    HW119910   4.297   5.766   4.913
 6337SOL    HW219911   4.158   5.811   4.840
 6338SOL     OW19912   3.239   2.135   4.314
 6338SOL    HW119913   3.321   2.091   4.277
 6338SOL    HW219914   3.191   2.182   4.240
 6339SOL     OW19915   0.559   3.565   2.633
 6339SOL    HW119916   0.563   3.664   2.620
 6339SOL    HW219917   0.633   3.521   2.581
 6340SOL     OW19918   2.572   3.898   1.307
 6340SOL    HW119919   2.592   3.856   1.396
 6340SOL    HW219920   2.534   3.989   1.321
 6341SOL     OW19921   1.309   4.139   3.861
 6341SOL    HW119922   1.338   4.201   3.789
 6341SOL    HW219923   1.233   4.180   3.911
 6342SOL     OW19924   2.121   1.016   1.722
 6342SOL    HW119925   2.115   1.063   1.634
 6342SOL    HW219926   2.061   1.061   1.788
 6343SOL     OW19927   3.713   6.118   0.007
 6343SOL    HW119928   3.643   6.058   6.995
 6343SOL    HW219929   3.703   6.210   6.995
 6344SOL     OW19930   5.882   2.612   4.106
 6344SOL    HW119931   5.912   2.526   4.064
 6344SOL    HW219932   5.901   2.609   4.205
 6345SOL     OW19933   5.014   3.325   1.933
 6345SOL    HW119934   4.932   3.328   1.877
 6345SOL    HW219935   5.039   3.418   1.961
 6346SOL     OW19936   0.056   4.066   5.702
 6346SOL    HW119937   0.004   3.998   5.753
 6346SOL    HW219938   7.022   4.115   5.639
 6347SOL     OW19939   2.738   2.268   2.474
 6347SOL    HW119940   2.704   2.175   2.463
 6347SOL    HW219941   2.726   2.318   2.388
 6348SOL     OW19942   0.367   1.833   5.910
 6348SOL    HW119943   0.352   1.791   6.000
 6348SOL    HW219944   0.459   1.809   5.878
 6349SOL     OW19945   1.315   0.279   0.376
 6349SOL    HW119946   1.236   0.237   0.421
 6349SOL    HW219947   1.399   0.252   0.422
 6350SOL     OW19948   0.976   4.877   2.544
 6350SOL    HW119949   1.010   4.806   2.482
 6350SOL    HW219950   1.009   4.859   2.636
 6351SOL     OW19951   6.603   3.819   3.295
 6351SOL    HW119952   6.641   3.748   3.354
 6351SOL    HW219953   6.503   3.812   3.293
 6352SOL     OW19954   2.624   0.674   4.171
 6352SOL    HW119955   2.673   0.697   4.256
 6352SOL    HW219956   2.547   0.737   4.159
 6353SOL     OW19957   2.637   5.240   7.014
 6353SOL    HW119958   2.674   5.154   0.022
 6353SOL    HW219959   2.541   5.248   0.016
 6354SOL     OW19960   4.712   5.410   2.936
 6354SOL    HW119961   4.649   5.353   2.884
 6354SOL    HW219962   4.718   5.377   3.030
 6355SOL     OW19963   2.480   4.904   0.600
 6355SOL    HW119964   2.514   4.866   0.686
 6355SOL    HW219965   2.531   4.986   0.577
 6356SOL     OW19966   5.067   4.902   6.803
 6356SOL    HW119967   4.992   4.862   6.856
 6356SOL    HW219968   5.059   5.002   6.804
 6357SOL     OW19969   5.774   2.016   1.311
 6357SOL    HW119970   5.677   1.991   1.300
 6357SOL    HW219971   5.831   1.949   1.263
 6358SOL     OW19972   0.682   1.656   6.591
 6358SOL    HW119973   0.642   1.720   6.526
 6358SOL    HW219974   0.620   1.579   6.604
 6359SOL     OW19975   6.057   6.588   0.866
 6359SOL    HW119976   5.984   6.520   0.871
 6359SOL    HW219977   6.136   6.548   0.818
 6360SOL     OW19978   6.862   2.714   3.973
 6360SOL    HW119979   6.835   2.634   4.027
 6360SOL    HW219980   6.791   2.733   3.904
 6361SOL     OW19981   0.038   0.700   0.112
 6361SOL    HW119982   0.097   0.716   0.191
 6361SOL    HW219983   0.023   0.787   0.064
 6362SOL     OW19984   1.008   5.946   6.352
 6362SOL    HW119985   1.049   5.973   6.265
 6362SOL    HW219986   0.933   6.007   6.375
 6363SOL     OW19987   2.905   5.190   3.604
 6363SOL    HW119988   2.836   5.214   3.672
 6363SOL    HW219989   2.861   5.173   3.516
 6364SOL     OW19990   2.321   2.440   4.649
 6364SOL    HW119991   2.309   2.486   4.737
 6364SOL    HW219992   2.411   2.397   4.646
 6365SOL     OW19993   6.097   5.699   4.541
 6365SOL    HW119994   6.026   5.769   4.531
 6365SOL    HW219995   6.056   5.614   4.571
 6366SOL     OW19996   5.687   6.641   4.710
 6366SOL    HW119997   5.727   6.568   4.766
 6366SOL    HW219998   5.666   6.720   4.767
 6367SOL     OW19999   2.907   1.891   2.590
 6367SOL    HW120000   2.818   1.874   2.633
 6367SOL    HW220001   2.917   1.988   2.571
 6368SOL     OW20002   4.624   4.290   3.897
 6368SOL    HW120003   4.603   4.196   3.872
 6368SOL    HW220004   4.666   4.292   3.988
 6369SOL     OW20005   2.826   6.263   5.654
 6369SOL    HW120006   2.856   6.190   5.716
 6369SOL    HW220007   2.763   6.224   5.587
 6370SOL     OW20008   5.251   3.843   3.393
 6370SOL    HW120009   5.295   3.761   3.357
 6370SOL    HW220010   5.320   3.914   3.408
 6371SOL     OW20011   5.331   3.817   1.827
 6371SOL    HW120012   5.232   3.826   1.817
 6371SOL    HW220013   5.373   3.802   1.737
 6372SOL     OW20014   0.222   1.464   2.684
 6372SOL    HW120015   0.201   1.372   2.716
 6372SOL    HW220016   0.271   1.458   2.597
 6373SOL     OW20017   5.581   4.081   1.266
 6373SOL    HW120018   5.522   4.149   1.224
 6373SOL    HW220019   5.628   4.122   1.345
 6374SOL     OW20020   4.647   3.110   0.295
 6374SOL    HW120021   4.550   3.135   0.290
 6374SOL    HW220022   4.690   3.127   0.206
 6375SOL     OW20023   0.306   2.591   2.211
 6375SOL    HW120024   0.324   2.670   2.153
 6375SOL    HW220025   0.296   2.621   2.306
 6376SOL     OW20026   4.750   0.556   5.496
 6376SOL    HW120027   4.728   0.588   5.588
 6376SOL    HW220028   4.844   0.524   5.494
 6377SOL     OW20029   6.881   0.539   6.975
 6377SOL    HW120030   6.878   0.580   6.883
 6377SOL    HW220031   6.958   0.577   7.026
 6378SOL     OW20032   5.013   5.760   2.673
 6378SOL    HW120033   4.997   5.675   2.723
 6378SOL    HW220034   4.971   5.754   2.582
 6379SOL     OW20035   1.963   5.544   5.939
 6379SOL    HW120036   2.056   5.509   5.930
 6379SOL    HW220037   1.964   5.632   5.986
 6380SOL     OW20038   0.542   3.299   4.951
 6380SOL    HW120039   0.524   3.285   5.048
 6380SOL    HW220040   0.559   3.211   4.907
 6381SOL     OW20041   3.976   3.166   0.506
 6381SOL    HW120042   3.935   3.078   0.531
 6381SOL    HW220043   4.073   3.166   0.531
 6382SOL     OW20044   2.744   1.935   1.178
 6382SOL    HW120045   2.758   1.996   1.256
 6382SOL    HW220046   2.832   1.914   1.136
 6383SOL     OW20047   1.867   2.677   2.757
 6383SOL    HW120048   1.784   2.731   2.759
 6383SOL    HW220049   1.897   2.666   2.662
 6384SOL     OW20050   5.997   2.515   1.978
 6384SOL    HW120051   5.901   2.529   2.003
 6384SOL    HW220052   6.023   2.580   1.907
 6385SOL     OW20053   6.837   3.624   0.957
 6385SOL    HW120054   6.830   3.709   1.011
 6385SOL    HW220055   6.745   3.593   0.932
 6386SOL     OW20056   1.965   3.698   0.589
 6386SOL    HW120057   1.963   3.679   0.688
 6386SOL    HW220058   1.872   3.694   0.553
 6387SOL     OW20059   6.031   1.110   0.137
 6387SOL    HW120060   5.982   1.096   0.051
 6387SOL    HW220061   6.087   1.029   0.156
 6388SOL     OW20062   6.512   5.207   2.884
 6388SOL    HW120063   6.476   5.244   2.797
 6388SOL    HW220064   6.588   5.146   2.865
 6389SOL     OW20065   1.739   0.024   0.170
 6389SOL    HW120066   1.838   0.015   0.162
 6389SOL    HW220067   1.696   0.004   0.082
 6390SOL     OW20068   5.904   0.773   0.389
 6390SOL    HW120069   5.933   0.809   0.300
 6390SOL    HW220070   5.825   0.713   0.377
 6391SOL     OW20071   0.910   1.173   6.013
 6391SOL    HW120072   1.000   1.135   6.032
 6391SOL    HW220073   0.919   1.266   5.978
 6392SOL     OW20074   3.562   5.642   3.347
 6392SOL    HW120075   3.621   5.562   3.355
 6392SOL    HW220076   3.468   5.617   3.369
 6393SOL     OW20077   5.691   6.725   1.679
 6393SOL    HW120078   5.680   6.697   1.774
 6393SOL    HW220079   5.602   6.726   1.633
 6394SOL     OW20080   0.816   4.942   0.745
 6394SOL    HW120081   0.870   4.921   0.663
 6394SOL    HW220082   0.726   4.975   0.717
 6395SOL     OW20083   0.407   4.055   2.785
 6395SOL    HW120084   0.388   4.021   2.693
 6395SOL    HW220085   0.339   4.018   2.849
 6396SOL     OW20086   6.614   3.361   6.879
 6396SOL    HW120087   6.535   3.311   6.915
 6396SOL    HW220088   6.604   3.458   6.898
 6397SOL     OW20089   6.371   2.356   3.098
 6397SOL    HW120090   6.383   2.302   3.015
 6397SOL    HW220091   6.345   2.297   3.174
 6398SOL     OW20092   1.280   6.085   1.525
 6398SOL    HW120093   1.213   6.049   1.459
 6398SOL    HW220094   1.331   6.009   1.565
 6399SOL     OW20095   2.190   0.018   6.723
 6399SOL    HW120096   2.191   6.972   6.654
 6399SOL    HW220097   2.138   7.014   6.803
 6400SOL     OW20098   1.366   6.019   3.399
 6400SOL    HW120099   1.366   6.077   3.317
 6400SOL    HW220100   1.443   6.045   3.458
 6401SOL     OW20101   4.424   4.899   2.751
 6401SOL    HW120102   4.419   4.926   2.847
 6401SOL    HW220103   4.501   4.836   2.738
 6402SOL     OW20104   1.632   4.398   3.813
 6402SOL    HW120105   1.711   4.437   3.861
 6402SOL    HW220106   1.633   4.299   3.822
 6403SOL     OW20107   5.596   6.469   5.197
 6403SOL    HW120108   5.589   6.515   5.286
 6403SOL    HW220109   5.511   6.483   5.147
 6404SOL     OW20110   3.863   0.923   2.726
 6404SOL    HW120111   3.942   0.920   2.787
 6404SOL    HW220112   3.845   1.018   2.699
 6405SOL     OW20113   5.316   1.339   3.335
 6405SOL    HW120114   5.320   1.287   3.249
 6405SOL    HW220115   5.246   1.410   3.328
 6406SOL     OW20116   0.797   2.690   2.917
 6406SOL    HW120117   0.826   2.650   3.004
 6406SOL    HW220118   0.764   2.783   2.934
 6407SOL     OW20119   2.152   6.398   3.633
 6407SOL    HW120120   2.096   6.461   3.580
 6407SOL    HW220121   2.125   6.304   3.612
 6408SOL     OW20122   6.637   0.629   1.008
 6408SOL    HW120123   6.703   0.704   1.015
 6408SOL    HW220124   6.597   0.628   0.916
 6409SOL     OW20125   6.408   4.924   4.115
 6409SOL    HW120126   6.479   4.962   4.174
 6409SOL    HW220127   6.347   4.865   4.169
 6410SOL     OW20128   2.458   1.385   5.515
 6410SOL    HW120129   2.366   1.424   5.523
 6410SOL    HW220130   2.484   1.344   5.602
 6411SOL     OW20131   0.231   3.114   1.904
 6411SOL    HW120132   0.170   3.132   1.827
 6411SOL    HW220133   0.318   3.162   1.890
 6412SOL     OW20134   3.414   0.714   6.730
 6412SOL    HW120135   3.429   0.626   6.684
 6412SOL    HW220136   3.332   0.709   6.787
 6413SOL     OW20137   4.119   4.779   4.444
 6413SOL    HW120138   4.164   4.723   4.374
 6413SOL    HW220139   4.146   4.874   4.432
 6414SOL     OW20140   0.797   6.954   7.019
 6414SOL    HW120141   0.795   6.951   6.919
 6414SOL    HW220142   0.783   6.861   0.028
 6415SOL     OW20143   1.292   3.508   2.760
 6415SOL    HW120144   1.264   3.591   2.713
 6415SOL    HW220145   1.227   3.487   2.834
 6416SOL     OW20146   3.157   6.930   6.399
 6416SOL    HW120147   3.240   6.876   6.385
 6416SOL    HW220148   3.077   6.878   6.368
 6417SOL     OW20149   4.828   1.920   0.857
 6417SOL    HW120150   4.884   1.962   0.785
 6417SOL    HW220151   4.848   1.965   0.944
 6418SOL     OW20152   4.472   4.564   1.757
 6418SOL    HW120153   4.410   4.601   1.826
 6418SOL    HW220154   4.430   4.484   1.713
 6419SOL     OW20155   1.018   6.247   6.706
 6419SOL    HW120156   0.942   6.199   6.751
 6419SOL    HW220157   1.097   6.249   6.767
 6420SOL     OW20158   1.497   3.390   4.042
 6420SOL    HW120159   1.517   3.481   4.079
 6420SOL    HW220160   1.467   3.330   4.116
 6421SOL     OW20161   5.508   7.003   1.499
 6421SOL    HW120162   5.563   0.015   1.573
 6421SOL    HW220163   5.527   6.905   1.491
 6422SOL     OW20164   0.280   2.499   5.443
 6422SOL    HW120165   0.233   2.575   5.400
 6422SOL    HW220166   0.305   2.431   5.374
 6423SOL     OW20167   2.930   5.887   4.354
 6423SOL    HW120168   3.001   5.875   4.284
 6423SOL    HW220169   2.973   5.898   4.444
 6424SOL     OW20170   0.546   3.045   4.787
 6424SOL    HW120171   0.536   2.987   4.706
 6424SOL    HW220172   0.533   2.990   4.869
 6425SOL     OW20173   0.019   5.697   2.941
 6425SOL    HW120174   0.082   5.766   2.906
 6425SOL    HW220175   0.019   5.618   2.880
 6426SOL     OW20176   4.512   4.619   4.759
 6426SOL    HW120177   4.591   4.659   4.806
 6426SOL    HW220178   4.444   4.591   4.827
 6427SOL     OW20179   3.186   3.582   2.976
 6427SOL    HW120180   3.093   3.551   2.995
 6427SOL    HW220181   3.212   3.555   2.883
 6428SOL     OW20182   5.003   2.299   0.552
 6428SOL    HW120183   4.969   2.208   0.573
 6428SOL    HW220184   4.927   2.364   0.554
 6429SOL     OW20185   2.069   0.767   5.097
 6429SOL    HW120186   2.011   0.821   5.158
 6429SOL    HW220187   2.012   0.706   5.043
 6430SOL     OW20188   0.126   0.922   5.161
 6430SOL    HW120189   0.079   0.835   5.145
 6430SOL    HW220190   0.201   0.931   5.095
 6431SOL     OW20191   4.956   5.684   3.129
 6431SOL    HW120192   4.864   5.676   3.090
 6431SOL    HW220193   4.950   5.687   3.229
 6432SOL     OW20194   3.474   3.662   6.501
 6432SOL    HW120195   3.406   3.619   6.441
 6432SOL    HW220196   3.428   3.705   6.579
 6433SOL     OW20197   2.965   5.632   0.063
 6433SOL    HW120198   3.049   5.659   0.110
 6433SOL    HW220199   2.962   5.673   6.999
 6434SOL     OW20200   3.160   6.086   6.349
 6434SOL    HW120201   3.147   6.092   6.250
 6434SOL    HW220202   3.120   6.167   6.393
 6435SOL     OW20203   5.757   0.151   0.368
 6435SOL    HW120204   5.848   0.113   0.384
 6435SOL    HW220205   5.701   0.084   0.319
 6436SOL     OW20206   1.086   4.076   3.578
 6436SOL    HW120207   1.031   4.123   3.647
 6436SOL    HW220208   1.031   4.060   3.496
 6437SOL     OW20209   1.005   1.252   5.308
 6437SOL    HW120210   1.072   1.319   5.340
 6437SOL    HW220211   0.966   1.203   5.386
 6438SOL     OW20212   0.521   5.551   6.643
 6438SOL    HW120213   0.506   5.466   6.592
 6438SOL    HW220214   0.504   5.536   6.740
 6439SOL     OW20215   6.516   0.937   3.878
 6439SOL    HW120216   6.593   0.918   3.816
 6439SOL    HW220217   6.543   1.009   3.942
 6440SOL     OW20218   2.386   0.427   6.475
 6440SOL    HW120219   2.479   0.416   6.508
 6440SOL    HW220220   2.345   0.508   6.516
 6441SOL     OW20221   0.298   0.666   3.286
 6441SOL    HW120222   0.243   0.691   3.366
 6441SOL    HW220223   0.393   0.693   3.302
 6442SOL     OW20224   2.275   2.107   4.844
 6442SOL    HW120225   2.275   2.008   4.856
 6442SOL    HW220226   2.369   2.140   4.836
 6443SOL     OW20227   3.765   1.927   0.481
 6443SOL    HW120228   3.765   2.006   0.419
 6443SOL    HW220229   3.842   1.868   0.460
 6444SOL     OW20230   0.083   2.680   5.373
 6444SOL    HW120231   0.051   2.753   5.314
 6444SOL    HW220232   0.038   2.594   5.348
 6445SOL     OW20233   3.319   3.411   3.519
 6445SOL    HW120234   3.336   3.358   3.437
 6445SOL    HW220235   3.220   3.426   3.530
 6446SOL     OW20236   1.857   2.034   6.306
 6446SOL    HW120237   1.899   2.112   6.260
 6446SOL    HW220238   1.924   1.993   6.369
 6447SOL     OW20239   6.392   4.525   1.205
 6447SOL    HW120240   6.314   4.584   1.226
 6447SOL    HW220241   6.413   4.468   1.285
 6448SOL     OW20242   4.592   5.485   1.862
 6448SOL    HW120243   4.502   5.481   1.905
 6448SOL    HW220244   4.655   5.426   1.913
 6449SOL     OW20245   2.565   5.793   1.399
 6449SOL    HW120246   2.499   5.839   1.458
 6449SOL    HW220247   2.657   5.807   1.435
 6450SOL     OW20248   0.521   3.986   1.048
 6450SOL    HW120249   0.547   4.012   0.955
 6450SOL    HW220250   0.467   3.902   1.044
 6451SOL     OW20251   3.413   1.903   7.004
 6451SOL    HW120252   3.440   1.963   0.053
 6451SOL    HW220253   3.473   1.919   6.925
 6452SOL     OW20254   5.327   3.592   2.696
 6452SOL    HW120255   5.307   3.495   2.715
 6452SOL    HW220256   5.383   3.599   2.614
 6453SOL     OW20257   3.540   0.053   1.174
 6453SOL    HW120258   3.473   0.036   1.247
 6453SOL    HW220259   3.606   0.121   1.205
 6454SOL     OW20260   6.755   2.051   2.691
 6454SOL    HW120261   6.823   2.014   2.754
 6454SOL    HW220262   6.775   2.148   2.673
 6455SOL     OW20263   6.678   4.435   3.119
 6455SOL    HW120264   6.775   4.456   3.118
 6455SOL    HW220265   6.631   4.491   3.187
 6456SOL     OW20266   0.610   1.271   2.492
 6456SOL    HW120267   0.527   1.327   2.485
 6456SOL    HW220268   0.590   1.189   2.546
 6457SOL     OW20269   5.083   6.838   1.685
 6457SOL    HW120270   5.037   6.819   1.771
 6457SOL    HW220271   5.091   6.937   1.673
 6458SOL     OW20272   1.198   5.054   4.663
 6458SOL    HW120273   1.272   5.002   4.706
 6458SOL    HW220274   1.133   4.990   4.622
 6459SOL     OW20275   5.822   2.920   3.287
 6459SOL    HW120276   5.843   2.865   3.368
 6459SOL    HW220277   5.904   2.969   3.258
 6460SOL     OW20278   6.837   5.433   5.053
 6460SOL    HW120279   6.773   5.462   4.982
 6460SOL    HW220280   6.786   5.399   5.132
 6461SOL     OW20281   3.158   4.666   1.012
 6461SOL    HW120282   3.092   4.591   1.005
 6461SOL    HW220283   3.241   4.632   1.056
 6462SOL     OW20284   1.859   3.599   4.575
 6462SOL    HW120285   1.805   3.683   4.583
 6462SOL    HW220286   1.943   3.609   4.628
 6463SOL     OW20287   4.997   0.673   0.793
 6463SOL    HW120288   4.946   0.642   0.714
 6463SOL    HW220289   4.952   0.641   0.877
 6464SOL     OW20290   1.134   6.478   4.762
 6464SOL    HW120291   1.138   6.385   4.798
 6464SOL    HW220292   1.184   6.483   4.676
 6465SOL     OW20293   5.721   2.628   2.023
 6465SOL    HW120294   5.697   2.631   1.926
 6465SOL    HW220295   5.642   2.657   2.078
 6466SOL     OW20296   6.753   3.013   6.394
 6466SOL    HW120297   6.803   3.036   6.477
 6466SOL    HW220298   6.662   3.055   6.397
 6467SOL     OW20299   3.319   0.812   0.875
 6467SOL    HW120300   3.399   0.778   0.826
 6467SOL    HW220301   3.284   0.894   0.829
 6468SOL     OW20302   4.183   6.262   0.404
 6468SOL    HW120303   4.166   6.345   0.457
 6468SOL    HW220304   4.281   6.253   0.387
 6469SOL     OW20305   3.110   2.200   4.041
 6469SOL    HW120306   3.195   2.233   4.001
 6469SOL    HW220307   3.099   2.103   4.021
 6470SOL     OW20308   6.603   2.629   0.374
 6470SOL    HW120309   6.676   2.561   0.380
 6470SOL    HW220310   6.605   2.687   0.456
 6471SOL     OW20311   0.465   6.608   5.145
 6471SOL    HW120312   0.402   6.540   5.183
 6471SOL    HW220313   0.414   6.672   5.088
 6472SOL     OW20314   6.753   6.281   2.436
 6472SOL    HW120315   6.686   6.208   2.420
 6472SOL    HW220316   6.767   6.291   2.535
 6473SOL     OW20317   1.851   1.456   4.308
 6473SOL    HW120318   1.807   1.493   4.226
 6473SOL    HW220319   1.950   1.454   4.295
 6474SOL     OW20320   4.336   5.125   5.293
 6474SOL    HW120321   4.393   5.127   5.211
 6474SOL    HW220322   4.292   5.214   5.305
 6475SOL     OW20323   5.575   5.113   3.207
 6475SOL    HW120324   5.635   5.176   3.158
 6475SOL    HW220325   5.625   5.072   3.283
 6476SOL     OW20326   3.952   2.094   6.742
 6476SOL    HW120327   3.972   2.187   6.774
 6476SOL    HW220328   3.867   2.095   6.689
 6477SOL     OW20329   0.226   6.017   1.052
 6477SOL    HW120330   0.133   5.997   1.023
 6477SOL    HW220331   0.266   5.936   1.095
 6478SOL     OW20332   2.721   5.889   1.674
 6478SOL    HW120333   2.780   5.826   1.623
 6478SOL    HW220334   2.634   5.845   1.694
 6479SOL     OW20335   3.537   5.889   4.181
 6479SOL    HW120336   3.449   5.890   4.132
 6479SOL    HW220337   3.611   5.911   4.118
 6480SOL     OW20338   2.322   0.647   6.660
 6480SOL    HW120339   2.413   0.667   6.695
 6480SOL    HW220340   2.269   0.732   6.654
 6481SOL     OW20341   2.924   2.278   1.708
 6481SOL    HW120342   2.901   2.324   1.794
 6481SOL    HW220343   3.021   2.254   1.708
 6482SOL     OW20344   6.977   2.416   5.871
 6482SOL    HW120345   6.976   2.429   5.970
 6482SOL    HW220346   6.947   2.501   5.826
 6483SOL     OW20347   1.299   5.697   4.316
 6483SOL    HW120348   1.391   5.734   4.309
 6483SOL    HW220349   1.281   5.638   4.237
 6484SOL     OW20350   3.008   1.470   2.869
 6484SOL    HW120351   3.057   1.402   2.922
 6484SOL    HW220352   3.011   1.558   2.916
 6485SOL     OW20353   2.367   6.593   5.035
 6485SOL    HW120354   2.423   6.578   4.954
 6485SOL    HW220355   2.287   6.649   5.010
 6486SOL     OW20356   0.990   4.836   2.819
 6486SOL    HW120357   0.907   4.781   2.825
 6486SOL    HW220358   0.978   4.920   2.873
 6487SOL     OW20359   1.073   5.276   4.793
 6487SOL    HW120360   1.043   5.208   4.860
 6487SOL    HW220361   1.141   5.236   4.732
 6488SOL     OW20362   4.683   5.408   4.733
 6488SOL    HW120363   4.713   5.495   4.693
 6488SOL    HW220364   4.762   5.347   4.741
 6489SOL     OW20365   3.650   2.991   6.400
 6489SOL    HW120366   3.625   2.926   6.328
 6489SOL    HW220367   3.583   3.065   6.404
 6490SOL     OW20368   1.549   1.729   6.785
 6490SOL    HW120369   1.639   1.755   6.819
 6490SOL    HW220370   1.491   1.811   6.778
 6491SOL     OW20371   2.297   6.977   1.026
 6491SOL    HW120372   2.249   0.015   1.085
 6491SOL    HW220373   2.245   6.963   0.942
 6492SOL     OW20374   3.626   4.164   4.292
 6492SOL    HW120375   3.625   4.180   4.391
 6492SOL    HW220376   3.720   4.167   4.259
 6493SOL     OW20377   1.657   4.368   6.288
 6493SOL    HW120378   1.667   4.291   6.350
 6493SOL    HW220379   1.730   4.367   6.220
 6494SOL     OW20380   5.723   6.565   2.298
 6494SOL    HW120381   5.625   6.553   2.282
 6494SOL    HW220382   5.748   6.526   2.386
 6495SOL     OW20383   6.489   0.188   4.581
 6495SOL    HW120384   6.472   0.237   4.495
 6495SOL    HW220385   6.413   0.126   4.599
 6496SOL     OW20386   4.811   6.428   2.044
 6496SOL    HW120387   4.812   6.401   1.947
 6496SOL    HW220388   4.735   6.384   2.090
 6497SOL     OW20389   0.461   1.651   1.120
 6497SOL    HW120390   0.533   1.586   1.094
 6497SOL    HW220391   0.372   1.612   1.097
 6498SOL     OW20392   1.044   4.685   4.492
 6498SOL    HW120393   0.996   4.622   4.553
 6498SOL    HW220394   1.101   4.633   4.429
 6499SOL     OW20395   5.381   4.135   3.940
 6499SOL    HW120396   5.327   4.147   3.856
 6499SOL    HW220397   5.352   4.204   4.007
 6500SOL     OW20398   0.537   3.561   2.238
 6500SOL    HW120399   0.580   3.483   2.191
 6500SOL    HW220400   0.590   3.644   2.220
 6501SOL     OW20401   0.102   1.690   0.768
 6501SOL    HW120402   0.018   1.677   0.716
 6501SOL    HW220403   0.147   1.774   0.739
 6502SOL     OW20404   6.186   3.738   1.373
 6502SOL    HW120405   6.093   3.700   1.367
 6502SOL    HW220406   6.182   3.829   1.413
 6503SOL     OW20407   6.579   2.565   6.043
 6503SOL    HW120408   6.616   2.657   6.053
 6503SOL    HW220409   6.545   2.553   5.950
 6504SOL     OW20410   5.174   6.495   6.399
 6504SOL    HW120411   5.144   6.507   6.493
 6504SOL    HW220412   5.162   6.580   6.348
 6505SOL     OW20413   5.881   6.472   0.267
 6505SOL    HW120414   5.968   6.479   0.219
 6505SOL    HW220415   5.878   6.386   0.319
 6506SOL     OW20416   0.099   3.497   3.654
 6506SOL    HW120417   0.085   3.399   3.669
 6506SOL    HW220418   0.038   3.529   3.581
 6507SOL     OW20419   3.488   5.536   6.396
 6507SOL    HW120420   3.545   5.466   6.352
 6507SOL    HW220421   3.402   5.544   6.346
 6508SOL     OW20422   1.535   6.495   2.135
 6508SOL    HW120423   1.500   6.529   2.048
 6508SOL    HW220424   1.603   6.558   2.171
 6509SOL     OW20425   3.785   1.296   5.210
 6509SOL    HW120426   3.772   1.356   5.289
 6509SOL    HW220427   3.828   1.211   5.240
 6510SOL     OW20428   4.261   6.095   5.720
 6510SOL    HW120429   4.232   6.012   5.768
 6510SOL    HW220430   4.314   6.153   5.781
 6511SOL     OW20431   4.047   1.241   5.709
 6511SOL    HW120432   4.132   1.261   5.757
 6511SOL    HW220433   4.056   1.156   5.658
 6512SOL     OW20434   2.999   0.358   2.303
 6512SOL    HW120435   3.070   0.344   2.372
 6512SOL    HW220436   3.042   0.364   2.212
 6513SOL     OW20437   2.655   5.794   4.658
 6513SOL    HW120438   2.714   5.845   4.595
 6513SOL    HW220439   2.564   5.784   4.617
 6514SOL     OW20440   6.215   0.504   5.483
 6514SOL    HW120441   6.177   0.415   5.509
 6514SOL    HW220442   6.144   0.560   5.441
 6515SOL     OW20443   2.062   4.551   2.412
 6515SOL    HW120444   2.103   4.479   2.357
 6515SOL    HW220445   1.977   4.581   2.370
 6516SOL     OW20446   6.963   3.214   1.994
 6516SOL    HW120447   6.991   3.294   2.047
 6516SOL    HW220448   0.016   3.156   1.976
 6517SOL     OW20449   6.584   1.925   0.719
 6517SOL    HW120450   6.653   1.997   0.724
 6517SOL    HW220451   6.513   1.942   0.787
 6518SOL     OW20452   6.813   0.905   2.189
 6518SOL    HW120453   6.835   0.978   2.254
 6518SOL    HW220454   6.815   0.942   2.096
 6519SOL     OW20455   0.576   0.911   3.050
 6519SOL    HW120456   0.505   0.885   3.115
 6519SOL    HW220457   0.547   0.993   3.000
 6520SOL     OW20458   0.151   5.846   6.761
 6520SOL    HW120459   0.168   5.922   6.698
 6520SOL    HW220460   0.143   5.761   6.709
 6521SOL     OW20461   1.769   3.144   3.169
 6521SOL    HW120462   1.819   3.153   3.255
 6521SOL    HW220463   1.682   3.192   3.175
 6522SOL     OW20464   2.899   4.273   5.686
 6522SOL    HW120465   2.917   4.214   5.608
 6522SOL    HW220466   2.850   4.221   5.757
 6523SOL     OW20467   5.379   0.217   0.171
 6523SOL    HW120468   5.448   0.153   0.138
 6523SOL    HW220469   5.335   0.262   0.094
 6524SOL     OW20470   2.615   2.387   1.880
 6524SOL    HW120471   2.705   2.431   1.889
 6524SOL    HW220472   2.606   2.316   1.949
 6525SOL     OW20473   1.773   5.278   3.845
 6525SOL    HW120474   1.796   5.201   3.785
 6525SOL    HW220475   1.747   5.357   3.790
 6526SOL     OW20476   6.983   0.188   1.316
 6526SOL    HW120477   6.963   0.283   1.343
 6526SOL    HW220478   0.054   0.170   1.331
 6527SOL     OW20479   0.313   2.594   0.431
 6527SOL    HW120480   0.293   2.644   0.516
 6527SOL    HW220481   0.328   2.497   0.452
 6528SOL     OW20482   6.620   1.557   6.199
 6528SOL    HW120483   6.536   1.515   6.163
 6528SOL    HW220484   6.604   1.592   6.291
 6529SOL     OW20485   0.460   0.894   2.367
 6529SOL    HW120486   0.445   0.965   2.298
 6529SOL    HW220487   0.429   0.806   2.332
 6530SOL     OW20488   0.477   2.410   2.103
 6530SOL    HW120489   0.422   2.474   2.156
 6530SOL    HW220490   0.572   2.441   2.101
 6531SOL     OW20491   4.036   3.239   5.708
 6531SOL    HW120492   3.985   3.223   5.623
 6531SOL    HW220493   4.062   3.335   5.713
 6532SOL     OW20494   1.723   1.270   0.555
 6532SOL    HW120495   1.748   1.192   0.612
 6532SOL    HW220496   1.665   1.333   0.607
 6533SOL     OW20497   4.665   5.510   0.326
 6533SOL    HW120498   4.610   5.585   0.364
 6533SOL    HW220499   4.607   5.450   0.272
 6534SOL     OW20500   5.011   5.086   1.840
 6534SOL    HW120501   5.077   5.141   1.892
 6534SOL    HW220502   5.030   4.989   1.854
 6535SOL     OW20503   5.742   4.173   4.806
 6535SOL    HW120504   5.652   4.216   4.803
 6535SOL    HW220505   5.801   4.214   4.736
 6536SOL     OW20506   0.515   2.259   4.727
 6536SOL    HW120507   0.533   2.166   4.692
 6536SOL    HW220508   0.587   2.321   4.695
 6537SOL     OW20509   6.325   4.517   4.863
 6537SOL    HW120510   6.388   4.588   4.830
 6537SOL    HW220511   6.365   4.471   4.942
 6538SOL     OW20512   2.046   3.470   5.864
 6538SOL    HW120513   2.024   3.538   5.794
 6538SOL    HW220514   2.008   3.381   5.837
 6539SOL     OW20515   5.365   0.810   6.839
 6539SOL    HW120516   5.387   0.898   6.796
 6539SOL    HW220517   5.361   0.821   6.938
 6540SOL     OW20518   3.079   2.656   5.997
 6540SOL    HW120519   3.112   2.738   5.950
 6540SOL    HW220520   3.007   2.614   5.942
 6541SOL     OW20521   5.435   2.436   5.967
 6541SOL    HW120522   5.456   2.533   5.981
 6541SOL    HW220523   5.342   2.426   5.933
 6542SOL     OW20524   1.129   3.636   4.731
 6542SOL    HW120525   1.057   3.567   4.739
 6542SOL    HW220526   1.216   3.590   4.712
 6543SOL     OW20527   3.576   2.358   5.335
 6543SOL    HW120528   3.498   2.337   5.394
 6543SOL    HW220529   3.583   2.457   5.322
 6544SOL     OW20530   0.361   6.656   2.178
 6544SOL    HW120531   0.426   6.680   2.250
 6544SOL    HW220532   0.276   6.707   2.191
 6545SOL     OW20533   4.242   6.926   0.899
 6545SOL    HW120534   4.238   7.017   0.859
 6545SOL    HW220535   4.284   6.931   0.990
 6546SOL     OW20536   4.306   4.645   6.584
 6546SOL    HW120537   4.324   4.575   6.654
 6546SOL    HW220538   4.245   4.715   6.621
 6547SOL     OW20539   5.010   0.138   5.747
 6547SOL    HW120540   5.093   0.086   5.724
 6547SOL    HW220541   5.022   0.182   5.836
 6548SOL     OW20542   0.759   2.627   6.222
 6548SOL    HW120543   0.796   2.658   6.309
 6548SOL    HW220544   0.662   2.650   6.216
 6549SOL     OW20545   4.947   0.144   1.913
 6549SOL    HW120546   4.855   0.128   1.879
 6549SOL    HW220547   4.945   0.155   2.012
 6550SOL     OW20548   6.501   0.063   3.510
 6550SOL    HW120549   6.436   0.058   3.586
 6550SOL    HW220550   6.569   0.134   3.528
 6551SOL     OW20551   2.728   3.407   1.667
 6551SOL    HW120552   2.636   3.446   1.658
 6551SOL    HW220553   2.761   3.379   1.577
 6552SOL     OW20554   2.229   6.620   0.907
 6552SOL    HW120555   2.306   6.576   0.954
 6552SOL    HW220556   2.189   6.557   0.841
 6553SOL     OW20557   0.562   1.394   2.958
 6553SOL    HW120558   0.476   1.444   2.948
 6553SOL    HW220559   0.614   1.399   2.873
 6554SOL     OW20560   2.505   1.184   5.315
 6554SOL    HW120561   2.481   1.244   5.392
 6554SOL    HW220562   2.593   1.140   5.335
 6555SOL     OW20563   6.172   2.047   4.158
 6555SOL    HW120564   6.087   2.097   4.144
 6555SOL    HW220565   6.248   2.112   4.167
 6556SOL     OW20566   6.374   3.063   2.471
 6556SOL    HW120567   6.416   2.984   2.515
 6556SOL    HW220568   6.318   3.113   2.537
 6557SOL     OW20569   2.018   0.303   2.421
 6557SOL    HW120570   2.083   0.380   2.425
 6557SOL    HW220571   1.950   0.321   2.351
 6558SOL     OW20572   5.820   5.099   6.877
 6558SOL    HW120573   5.728   5.059   6.885
 6558SOL    HW220574   5.883   5.030   6.840
 6559SOL     OW20575   6.738   3.614   6.619
 6559SOL    HW120576   6.710   3.707   6.594
 6559SOL    HW220577   6.661   3.567   6.661
 6560SOL     OW20578   3.973   4.684   0.418
 6560SOL    HW120579   4.062   4.721   0.392
 6560SOL    HW220580   3.901   4.748   0.391
 6561SOL     OW20581   4.143   4.963   0.776
 6561SOL    HW120582   4.153   5.023   0.696
 6561SOL    HW220583   4.047   4.939   0.788
 6562SOL     OW20584   5.648   2.808   1.341
 6562SOL    HW120585   5.685   2.715   1.335
 6562SOL    HW220586   5.569   2.809   1.402
 6563SOL     OW20587   4.773   0.420   6.123
 6563SOL    HW120588   4.720   0.504   6.127
 6563SOL    HW220589   4.768   0.372   6.211
 6564SOL     OW20590   6.354   3.997   1.910
 6564SOL    HW120591   6.345   4.000   2.010
 6564SOL    HW220592   6.366   3.903   1.880
 6565SOL     OW20593   6.044   6.766   2.889
 6565SOL    HW120594   6.058   6.840   2.954
 6565SOL    HW220595   6.131   6.719   2.873
 6566SOL     OW20596   3.074   5.592   2.356
 6566SOL    HW120597   2.981   5.597   2.394
 6566SOL    HW220598   3.071   5.617   2.259
 6567SOL     OW20599   4.106   0.787   2.092
 6567SOL    HW120600   4.118   0.859   2.024
 6567SOL    HW220601   4.064   0.707   2.049
 6568SOL     OW20602   4.732   1.595   2.642
 6568SOL    HW120603   4.636   1.575   2.622
 6568SOL    HW220604   4.758   1.552   2.729
 6569SOL     OW20605   0.582   2.971   6.119
 6569SOL    HW120606   0.572   3.046   6.185
 6569SOL    HW220607   0.679   2.946   6.112
 6570SOL     OW20608   4.120   0.938   2.840
 6570SOL    HW120609   4.162   0.896   2.760
 6570SOL    HW220610   4.094   0.867   2.906
 6571SOL     OW20611   2.383   5.083   3.305
 6571SOL    HW120612   2.300   5.118   3.261
 6571SOL    HW220613   2.459   5.145   3.287
 6572SOL     OW20614   0.966   4.005   4.307
 6572SOL    HW120615   0.942   4.027   4.402
 6572SOL    HW220616   0.960   3.906   4.293
 6573SOL     OW20617   1.485   1.270   3.454
 6573SOL    HW120618   1.525   1.304   3.539
 6573SOL    HW220619   1.557   1.229   3.398
 6574SOL     OW20620   2.765   6.721   3.678
 6574SOL    HW120621   2.855   6.753   3.709
 6574SOL    HW220622   2.725   6.790   3.619
 6575SOL     OW20623   0.193   6.911   2.939
 6575SOL    HW120624   0.283   6.951   2.958
 6575SOL    HW220625   0.204   6.812   2.924
 6576SOL     OW20626   3.542   5.101   0.294
 6576SOL    HW120627   3.608   5.063   0.359
 6576SOL    HW220628   3.555   5.200   0.289
 6577SOL     OW20629   1.779   2.530   3.044
 6577SOL    HW120630   1.714   2.547   3.118
 6577SOL    HW220631   1.872   2.528   3.080
 6578SOL     OW20632   1.138   6.262   1.775
 6578SOL    HW120633   1.215   6.319   1.802
 6578SOL    HW220634   1.171   6.176   1.738
 6579SOL     OW20635   0.450   1.739   4.200
 6579SOL    HW120636   0.531   1.797   4.192
 6579SOL    HW220637   0.401   1.763   4.284
 6580SOL     OW20638   0.979   1.145   0.849
 6580SOL    HW120639   0.950   1.094   0.768
 6580SOL    HW220640   1.016   1.234   0.822
 6581SOL     OW20641   1.178   1.278   0.566
 6581SOL    HW120642   1.226   1.353   0.521
 6581SOL    HW220643   1.180   1.197   0.507
 6582SOL     OW20644   0.002   0.823   2.338
 6582SOL    HW120645   6.943   0.771   2.346
 6582SOL    HW220646   7.009   0.912   2.297
 6583SOL     OW20647   5.173   6.483   5.269
 6583SOL    HW120648   5.198   6.430   5.350
 6583SOL    HW220649   5.255   6.525   5.230
 6584SOL     OW20650   3.678   2.649   0.733
 6584SOL    HW120651   3.751   2.630   0.668
 6584SOL    HW220652   3.615   2.717   0.694
 6585SOL     OW20653   6.903   6.353   0.004
 6585SOL    HW120654   6.940   6.363   0.096
 6585SOL    HW220655   6.837   6.277   0.002
 6586SOL     OW20656   6.439   2.058   6.172
 6586SOL    HW120657   6.412   1.975   6.124
 6586SOL    HW220658   6.530   2.045   6.213
 6587SOL     OW20659   1.444   4.730   5.934
 6587SOL    HW120660   1.345   4.745   5.931
 6587SOL    HW220661   1.471   4.701   6.026
 6588SOL     OW20662   0.936   3.190   0.958
 6588SOL    HW120663   0.961   3.107   1.007
 6588SOL    HW220664   0.863   3.169   0.893
 6589SOL     OW20665   5.440   1.002   1.836
 6589SOL    HW120666   5.419   0.951   1.753
 6589SOL    HW220667   5.421   1.099   1.822
 6590SOL     OW20668   0.658   0.324   5.018
 6590SOL    HW120669   0.608   0.270   5.085
 6590SOL    HW220670   0.712   0.263   4.959
 6591SOL     OW20671   5.149   5.578   3.988
 6591SOL    HW120672   5.077   5.518   4.025
 6591SOL    HW220673   5.109   5.645   3.926
 6592SOL     OW20674   5.172   0.427   2.979
 6592SOL    HW120675   5.128   0.504   3.024
 6592SOL    HW220676   5.241   0.388   3.039
 6593SOL     OW20677   3.014   2.167   2.248
 6593SOL    HW120678   3.053   2.211   2.329
 6593SOL    HW220679   2.963   2.233   2.194
 6594SOL     OW20680   3.442   1.607   5.644
 6594SOL    HW120681   3.521   1.660   5.676
 6594SOL    HW220682   3.468   1.510   5.641
 6595SOL     OW20683   1.247   3.050   4.927
 6595SOL    HW120684   1.240   2.950   4.925
 6595SOL    HW220685   1.214   3.084   5.015
 6596SOL     OW20686   4.287   5.974   2.925
 6596SOL    HW120687   4.190   5.978   2.902
 6596SOL    HW220688   4.342   5.980   2.841
 6597SOL     OW20689   1.299   5.260   1.690
 6597SOL    HW120690   1.373   5.225   1.747
 6597SOL    HW220691   1.212   5.247   1.738
 6598SOL     OW20692   1.805   4.316   3.189
 6598SOL    HW120693   1.857   4.388   3.234
 6598SOL    HW220694   1.865   4.265   3.127
 6599SOL     OW20695   5.533   6.023   6.680
 6599SOL    HW120696   5.496   6.074   6.603
 6599SOL    HW220697   5.472   5.948   6.703
 6600SOL     OW20698   4.436   6.927   4.757
 6600SOL    HW120699   4.348   6.914   4.711
 6600SOL    HW220700   4.421   6.972   4.846
 6601SOL     OW20701   0.602   2.600   3.187
 6601SOL    HW120702   0.659   2.636   3.260
 6601SOL    HW220703   0.629   2.641   3.100
 6602SOL     OW20704   2.714   0.224   1.371
 6602SOL    HW120705   2.797   0.168   1.375
 6602SOL    HW220706   2.693   0.247   1.276
 6603SOL     OW20707   0.733   3.064   3.626
 6603SOL    HW120708   0.739   2.977   3.577
 6603SOL    HW220709   0.637   3.088   3.639
 6604SOL     OW20710   2.166   0.203   1.099
 6604SOL    HW120711   2.099   0.226   1.027
 6604SOL    HW220712   2.255   0.242   1.075
 6605SOL     OW20713   5.635   5.823   1.902
 6605SOL    HW120714   5.609   5.916   1.875
 6605SOL    HW220715   5.604   5.758   1.833
 6606SOL     OW20716   0.152   4.105   3.185
 6606SOL    HW120717   0.214   4.126   3.260
 6606SOL    HW220718   0.198   4.045   3.119
 6607SOL     OW20719   6.548   4.702   3.680
 6607SOL    HW120720   6.468   4.735   3.731
 6607SOL    HW220721   6.621   4.770   3.683
 6608SOL     OW20722   6.731   0.370   0.605
 6608SOL    HW120723   6.752   0.409   0.515
 6608SOL    HW220724   6.650   0.313   0.598
 6609SOL     OW20725   4.954   0.996   6.475
 6609SOL    HW120726   5.030   0.974   6.536
 6609SOL    HW220727   4.874   0.941   6.500
 6610SOL     OW20728   2.854   5.800   0.229
 6610SOL    HW120729   2.877   5.728   0.164
 6610SOL    HW220730   2.763   5.782   0.267
 6611SOL     OW20731   5.096   2.770   3.795
 6611SOL    HW120732   5.145   2.778   3.882
 6611SOL    HW220733   5.023   2.702   3.804
 6612SOL     OW20734   6.710   2.199   6.354
 6612SOL    HW120735   6.796   2.172   6.397
 6612SOL    HW220736   6.729   2.250   6.270
 6613SOL     OW20737   5.826   6.879   6.376
 6613SOL    HW120738   5.899   6.825   6.334
 6613SOL    HW220739   5.829   6.973   6.340
 6614SOL     OW20740   4.732   0.076   1.026
 6614SOL    HW120741   4.798   0.012   0.985
 6614SOL    HW220742   4.716   0.050   1.121
 6615SOL     OW20743   2.063   5.552   0.269
 6615SOL    HW120744   1.977   5.543   0.319
 6615SOL    HW220745   2.139   5.551   0.333
 6616SOL     OW20746   4.439   6.736   5.658
 6616SOL    HW120747   4.414   6.805   5.590
 6616SOL    HW220748   4.365   6.669   5.665
 6617SOL     OW20749   4.003   6.812   3.568
 6617SOL    HW120750   4.029   6.842   3.659
 6617SOL    HW220751   4.017   6.886   3.502
 6618SOL     OW20752   0.474   1.125   2.944
 6618SOL    HW120753   0.380   1.126   2.978
 6618SOL    HW220754   0.500   1.218   2.917
 6619SOL     OW20755   4.853   6.807   3.967
 6619SOL    HW120756   4.835   6.847   4.057
 6619SOL    HW220757   4.875   6.879   3.902
 6620SOL     OW20758   2.029   3.477   3.604
 6620SOL    HW120759   2.063   3.383   3.594
 6620SOL    HW220760   1.966   3.481   3.681
 6621SOL     OW20761   3.720   3.117   5.049
 6621SOL    HW120762   3.677   3.044   4.996
 6621SOL    HW220763   3.812   3.134   5.013
 6622SOL     OW20764   6.020   5.908   1.366
 6622SOL    HW120765   5.986   5.992   1.324
 6622SOL    HW220766   6.110   5.925   1.407
 6623SOL     OW20767   4.007   4.092   5.118
 6623SOL    HW120768   4.003   4.129   5.211
 6623SOL    HW220769   4.072   4.146   5.064
 6624SOL     OW20770   0.559   3.315   5.573
 6624SOL    HW120771   0.639   3.260   5.598
 6624SOL    HW220772   0.498   3.323   5.652
 6625SOL     OW20773   6.082   1.948   5.389
 6625SOL    HW120774   6.100   1.850   5.399
 6625SOL    HW220775   6.000   1.962   5.333
 6626SOL     OW20776   3.535   0.227   5.588
 6626SOL    HW120777   3.513   0.131   5.574
 6626SOL    HW220778   3.621   0.249   5.542
 6627SOL     OW20779   1.611   6.521   3.932
 6627SOL    HW120780   1.602   6.456   4.008
 6627SOL    HW220781   1.626   6.613   3.968
 6628SOL     OW20782   5.418   5.283   3.652
 6628SOL    HW120783   5.402   5.279   3.751
 6628SOL    HW220784   5.490   5.218   3.628
 6629SOL     OW20785   4.564   5.062   6.473
 6629SOL    HW120786   4.560   5.115   6.389
 6629SOL    HW220787   4.608   4.975   6.456
 6630SOL     OW20788   3.883   1.635   1.475
 6630SOL    HW120789   3.816   1.616   1.546
 6630SOL    HW220790   3.956   1.567   1.478
 6631SOL     OW20791   2.110   5.041   4.398
 6631SOL    HW120792   2.160   4.963   4.359
 6631SOL    HW220793   2.018   5.044   4.360
 6632SOL     OW20794   1.517   1.282   0.904
 6632SOL    HW120795   1.520   1.336   0.820
 6632SOL    HW220796   1.423   1.279   0.938
 6633SOL     OW20797   3.131   4.801   5.967
 6633SOL    HW120798   3.067   4.753   6.026
 6633SOL    HW220799   3.128   4.761   5.875
 6634SOL     OW20800   4.816   2.371   5.156
 6634SOL    HW120801   4.878   2.339   5.227
 6634SOL    HW220802   4.764   2.294   5.119
 6635SOL     OW20803   4.985   3.853   3.378
 6635SOL    HW120804   5.084   3.847   3.360
 6635SOL    HW220805   4.936   3.792   3.316
 6636SOL     OW20806   3.037   1.001   2.076
 6636SOL    HW120807   3.117   1.033   2.128
 6636SOL    HW220808   2.978   1.079   2.055
 6637SOL     OW20809   2.669   0.246   0.298
 6637SOL    HW120810   2.702   0.328   0.253
 6637SOL    HW220811   2.570   0.240   0.288
 6638SOL     OW20812   3.361   3.531   3.204
 6638SOL    HW120813   3.327   3.447   3.247
 6638SOL    HW220814   3.313   3.545   3.117
 6639SOL     OW20815   3.777   3.238   6.681
 6639SOL    HW120816   3.757   3.297   6.759
 6639SOL    HW220817   3.710   3.254   6.608
 6640SOL     OW20818   6.729   2.357   5.738
 6640SOL    HW120819   6.817   2.333   5.780
 6640SOL    HW220820   6.693   2.278   5.689
 6641SOL     OW20821   3.543   1.757   0.332
 6641SOL    HW120822   3.448   1.789   0.330
 6641SOL    HW220823   3.598   1.819   0.387
 6642SOL     OW20824   2.497   5.006   6.672
 6642SOL    HW120825   2.431   4.942   6.711
 6642SOL    HW220826   2.476   5.099   6.701
 6643SOL     OW20827   6.577   6.733   1.013
 6643SOL    HW120828   6.488   6.693   1.031
 6643SOL    HW220829   6.648   6.677   1.054
 6644SOL     OW20830   1.681   6.348   3.528
 6644SOL    HW120831   1.663   6.432   3.580
 6644SOL    HW220832   1.653   6.362   3.433
 6645SOL     OW20833   5.527   2.965   0.612
 6645SOL    HW120834   5.472   3.025   0.554
 6645SOL    HW220835   5.586   3.021   0.670
 6646SOL     OW20836   4.435   0.501   6.402
 6646SOL    HW120837   4.356   0.550   6.365
 6646SOL    HW220838   4.407   0.408   6.428
 6647SOL     OW20839   4.391   6.580   1.046
 6647SOL    HW120840   4.337   6.579   0.962
 6647SOL    HW220841   4.340   6.535   1.119
 6648SOL     OW20842   3.638   5.768   4.619
 6648SOL    HW120843   3.695   5.688   4.603
 6648SOL    HW220844   3.570   5.776   4.546
 6649SOL     OW20845   6.048   3.073   6.617
 6649SOL    HW120846   5.958   3.032   6.605
 6649SOL    HW220847   6.111   3.006   6.656
 6650SOL     OW20848   3.684   1.413   4.815
 6650SOL    HW120849   3.624   1.339   4.785
 6650SOL    HW220850   3.761   1.375   4.867
 6651SOL     OW20851   1.589   1.843   0.100
 6651SOL    HW120852   1.624   1.858   0.193
 6651SOL    HW220853   1.529   1.919   0.074
 6652SOL     OW20854   0.699   4.405   6.952
 6652SOL    HW120855   0.650   4.433   0.008
 6652SOL    HW220856   0.777   4.466   6.937
 6653SOL     OW20857   4.852   3.095   0.949
 6653SOL    HW120858   4.786   3.021   0.941
 6653SOL    HW220859   4.933   3.063   0.998
 6654SOL     OW20860   0.365   5.206   2.648
 6654SOL    HW120861   0.311   5.169   2.724
 6654SOL    HW220862   0.429   5.136   2.616
 6655SOL     OW20863   0.235   5.949   1.828
 6655SOL    HW120864   0.237   5.877   1.759
 6655SOL    HW220865   0.302   6.020   1.803
 6656SOL     OW20866   4.897   1.828   2.794
 6656SOL    HW120867   4.829   1.784   2.853
 6656SOL    HW220868   4.868   1.821   2.699
 6657SOL     OW20869   6.025   2.766   4.519
 6657SOL    HW120870   6.006   2.673   4.488
 6657SOL    HW220871   5.994   2.776   4.614
 6658SOL     OW20872   6.725   0.152   5.291
 6658SOL    HW120873   6.638   0.119   5.253
 6658SOL    HW220874   6.779   0.074   5.322
 6659SOL     OW20875   1.240   4.174   1.905
 6659SOL    HW120876   1.337   4.149   1.903
 6659SOL    HW220877   1.221   4.241   1.833
 6660SOL     OW20878   1.724   5.121   1.628
 6660SOL    HW120879   1.641   5.161   1.666
 6660SOL    HW220880   1.709   5.097   1.532
 6661SOL     OW20881   3.024   0.832   4.904
 6661SOL    HW120882   3.038   0.774   4.824
 6661SOL    HW220883   3.014   0.927   4.874
 6662SOL     OW20884   2.264   0.514   1.243
 6662SOL    HW120885   2.301   0.457   1.169
 6662SOL    HW220886   2.237   0.602   1.205
 6663SOL     OW20887   1.096   6.021   5.608
 6663SOL    HW120888   1.058   6.075   5.533
 6663SOL    HW220889   1.195   6.036   5.613
 6664SOL     OW20890   2.336   0.608   1.510
 6664SOL    HW120891   2.288   0.590   1.424
 6664SOL    HW220892   2.310   0.538   1.577
 6665SOL     OW20893   1.888   6.339   5.943
 6665SOL    HW120894   1.952   6.412   5.917
 6665SOL    HW220895   1.914   6.254   5.897
 6666SOL     OW20896   6.627   5.501   4.868
 6666SOL    HW120897   6.585   5.585   4.833
 6666SOL    HW220898   6.556   5.431   4.881
 6667SOL     OW20899   6.871   6.564   5.815
 6667SOL    HW120900   6.898   6.573   5.911
 6667SOL    HW220901   6.832   6.651   5.783
 6668SOL     OW20902   6.869   6.089   1.258
 6668SOL    HW120903   6.802   6.015   1.256
 6668SOL    HW220904   6.825   6.172   1.292
 6669SOL     OW20905   4.012   2.151   1.441
 6669SOL    HW120906   3.994   2.086   1.515
 6669SOL    HW220907   4.092   2.122   1.389
 6670SOL     OW20908   3.173   1.025   6.688
 6670SOL    HW120909   3.169   1.024   6.788
 6670SOL    HW220910   3.164   0.932   6.653
 6671SOL     OW20911   5.664   6.913   0.672
 6671SOL    HW120912   5.698   6.819   0.662
 6671SOL    HW220913   5.740   6.972   0.701
 6672SOL     OW20914   1.261   2.264   0.597
 6672SOL    HW120915   1.275   2.198   0.524
 6672SOL    HW220916   1.185   2.236   0.655
 6673SOL     OW20917   4.837   3.885   3.670
 6673SOL    HW120918   4.839   3.965   3.730
 6673SOL    HW220919   4.747   3.879   3.625
 6674SOL     OW20920   0.067   3.064   6.918
 6674SOL    HW120921   0.105   2.995   6.856
 6674SOL    HW220922   0.130   3.141   6.924
 6675SOL     OW20923   5.257   2.298   0.376
 6675SOL    HW120924   5.332   2.352   0.336
 6675SOL    HW220925   5.188   2.360   0.413
 6676SOL     OW20926   0.950   3.581   2.790
 6676SOL    HW120927   0.949   3.558   2.887
 6676SOL    HW220928   0.928   3.678   2.778
 6677SOL     OW20929   0.728   0.741   6.469
 6677SOL    HW120930   0.729   0.696   6.380
 6677SOL    HW220931   0.819   0.777   6.489
 6678SOL     OW20932   1.920   4.413   0.989
 6678SOL    HW120933   1.931   4.393   1.087
 6678SOL    HW220934   1.997   4.376   0.938
 6679SOL     OW20935   4.116   0.855   3.827
 6679SOL    HW120936   4.118   0.807   3.740
 6679SOL    HW220937   4.045   0.926   3.825
 6680SOL     OW20938   4.585   6.069   6.336
 6680SOL    HW120939   4.629   6.032   6.417
 6680SOL    HW220940   4.626   6.029   6.254
 6681SOL     OW20941   4.859   5.679   1.415
 6681SOL    HW120942   4.941   5.624   1.400
 6681SOL    HW220943   4.803   5.637   1.487
 6682SOL     OW20944   2.273   4.656   6.657
 6682SOL    HW120945   2.199   4.676   6.592
 6682SOL    HW220946   2.289   4.736   6.714
 6683SOL     OW20947   5.720   3.320   6.129
 6683SOL    HW120948   5.741   3.386   6.201
 6683SOL    HW220949   5.802   3.303   6.074
 6684SOL     OW20950   3.475   6.723   2.049
 6684SOL    HW120951   3.452   6.685   1.960
 6684SOL    HW220952   3.480   6.823   2.043
 6685SOL     OW20953   4.694   2.707   6.738
 6685SOL    HW120954   4.627   2.696   6.664
 6685SOL    HW220955   4.649   2.690   6.826
 6686SOL     OW20956   6.201   6.110   3.726
 6686SOL    HW120957   6.127   6.056   3.686
 6686SOL    HW220958   6.163   6.190   3.773
 6687SOL     OW20959   0.680   2.784   2.115
 6687SOL    HW120960   0.740   2.843   2.061
 6687SOL    HW220961   0.725   2.695   2.129
 6688SOL     OW20962   4.058   4.381   0.781
 6688SOL    HW120963   4.023   4.288   0.790
 6688SOL    HW220964   4.081   4.417   0.872
 6689SOL     OW20965   4.140   3.275   6.098
 6689SOL    HW120966   4.175   3.234   6.014
 6689SOL    HW220967   4.088   3.357   6.076
 6690SOL     OW20968   1.264   6.338   0.188
 6690SOL    HW120969   1.330   6.410   0.210
 6690SOL    HW220970   1.279   6.261   0.250
 6691SOL     OW20971   1.366   0.369   2.596
 6691SOL    HW120972   1.353   0.448   2.537
 6691SOL    HW220973   1.398   0.400   2.686
 6692SOL     OW20974   4.117   3.765   1.876
 6692SOL    HW120975   4.108   3.665   1.878
 6692SOL    HW220976   4.161   3.796   1.960
 6693SOL     OW20977   4.421   1.628   5.058
 6693SOL    HW120978   4.341   1.679   5.089
 6693SOL    HW220979   4.454   1.570   5.132
 6694SOL     OW20980   4.608   5.932   1.273
 6694SOL    HW120981   4.582   5.926   1.369
 6694SOL    HW220982   4.672   5.859   1.251
 6695SOL     OW20983   2.746   1.891   6.944
 6695SOL    HW120984   2.837   1.873   6.906
 6695SOL    HW220985   2.676   1.859   6.879
 6696SOL     OW20986   4.126   3.705   3.102
 6696SOL    HW120987   4.111   3.614   3.064
 6696SOL    HW220988   4.100   3.774   3.035
 6697SOL     OW20989   4.825   2.496   3.344
 6697SOL    HW120990   4.757   2.564   3.315
 6697SOL    HW220991   4.834   2.425   3.275
 6698SOL     OW20992   3.098   3.618   1.387
 6698SOL    HW120993   3.046   3.539   1.421
 6698SOL    HW220994   3.118   3.606   1.290
 6699SOL     OW20995   2.287   6.464   5.263
 6699SOL    HW120996   2.327   6.485   5.174
 6699SOL    HW220997   2.358   6.468   5.333
 6700SOL     OW20998   5.651   0.806   1.160
 6700SOL    HW120999   5.671   0.720   1.207
 6700SOL    HW221000   5.734   0.861   1.154
 6701SOL     OW21001   5.524   6.372   2.133
 6701SOL    HW121002   5.458   6.447   2.144
 6701SOL    HW221003   5.592   6.397   2.064
 6702SOL     OW21004   1.893   2.598   1.807
 6702SOL    HW121005   1.875   2.501   1.820
 6702SOL    HW221006   1.955   2.631   1.878
 6703SOL     OW21007   0.958   1.192   6.956
 6703SOL    HW121008   0.968   1.279   7.004
 6703SOL    HW221009   0.995   1.118   7.013
 6704SOL     OW21010   4.030   2.135   4.510
 6704SOL    HW121011   4.002   2.152   4.604
 6704SOL    HW221012   4.079   2.048   4.505
 6705SOL     OW21013   6.120   2.403   1.082
 6705SOL    HW121014   6.136   2.500   1.063
 6705SOL    HW221015   6.201   2.350   1.056
 6706SOL     OW21016   1.892   6.263   0.729
 6706SOL    HW121017   1.876   6.309   0.641
 6706SOL    HW221018   1.835   6.182   0.735
 6707SOL     OW21019   5.586   0.042   3.151
 6707SOL    HW121020   5.573   6.980   3.105
 6707SOL    HW221021   5.513   0.105   3.124
 6708SOL     OW21022   5.744   5.347   1.222
 6708SOL    HW121023   5.725   5.437   1.181
 6708SOL    HW221024   5.812   5.299   1.167
 6709SOL     OW21025   0.442   4.911   2.597
 6709SOL    HW121026   0.536   4.881   2.609
 6709SOL    HW221027   0.394   4.848   2.536
 6710SOL     OW21028   4.103   1.383   0.846
 6710SOL    HW121029   4.038   1.414   0.777
 6710SOL    HW221030   4.163   1.458   0.871
 6711SOL     OW21031   5.152   6.615   5.745
 6711SOL    HW121032   5.074   6.676   5.733
 6711SOL    HW221033   5.151   6.577   5.838
 6712SOL     OW21034   6.077   3.353   1.455
 6712SOL    HW121035   6.111   3.406   1.533
 6712SOL    HW221036   6.141   3.280   1.433
 6713SOL     OW21037   1.230   1.282   3.310
 6713SOL    HW121038   1.189   1.199   3.271
 6713SOL    HW221039   1.330   1.273   3.310
 6714SOL     OW21040   5.785   1.099   0.655
 6714SOL    HW121041   5.862   1.037   0.669
 6714SOL    HW221042   5.792   1.140   0.564
 6715SOL     OW21043   1.538   0.733   1.313
 6715SOL    HW121044   1.444   0.710   1.336
 6715SOL    HW221045   1.593   0.738   1.396
 6716SOL     OW21046   6.733   5.720   2.838
 6716SOL    HW121047   6.809   5.684   2.893
 6716SOL    HW221048   6.665   5.648   2.825
 6717SOL     OW21049   2.546   2.364   6.340
 6717SOL    HW121050   2.627   2.382   6.395
 6717SOL    HW221051   2.572   2.316   6.256
 6718SOL     OW21052   3.644   0.614   1.315
 6718SOL    HW121053   3.645   0.624   1.216
 6718SOL    HW221054   3.627   0.703   1.358
 6719SOL     OW21055   2.414   6.710   0.221
 6719SOL    HW121056   2.360   6.781   0.176
 6719SOL    HW221057   2.352   6.642   0.261
 6720SOL     OW21058   2.541   1.483   4.825
 6720SOL    HW121059   2.605   1.432   4.768
 6720SOL    HW221060   2.465   1.424   4.851
 6721SOL     OW21061   6.696   6.690   0.553
 6721SOL    HW121062   6.654   6.770   0.510
 6721SOL    HW221063   6.755   6.720   0.628
 6722SOL     OW21064   0.047   2.240   0.463
 6722SOL    HW121065   0.057   2.338   0.479
 6722SOL    HW221066   0.052   2.190   0.549
 6723SOL     OW21067   1.810   6.924   6.218
 6723SOL    HW121068   1.868   6.883   6.148
 6723SOL    HW221069   1.726   6.871   6.227
 6724SOL     OW21070   2.275   2.292   6.360
 6724SOL    HW121071   2.374   2.305   6.358
 6724SOL    HW221072   2.243   2.287   6.454
 6725SOL     OW21073   6.722   2.810   2.139
 6725SOL    HW121074   6.714   2.713   2.160
 6725SOL    HW221075   6.734   2.862   2.223
 6726SOL     OW21076   0.511   2.050   4.360
 6726SOL    HW121077   0.429   2.001   4.389
 6726SOL    HW221078   0.549   2.006   4.279
 6727SOL     OW21079   0.278   4.129   6.018
 6727SOL    HW121080   0.237   4.167   5.936
 6727SOL    HW221081   0.374   4.155   6.023
 6728SOL     OW21082   3.480   1.288   3.330
 6728SOL    HW121083   3.451   1.284   3.426
 6728SOL    HW221084   3.485   1.195   3.294
 6729SOL     OW21085   6.932   1.897   0.315
 6729SOL    HW121086   6.858   1.862   0.371
 6729SOL    HW221087   6.918   1.994   0.296
 6730SOL     OW21088   1.818   0.023   1.019
 6730SOL    HW121089   1.744   0.087   1.039
 6730SOL    HW221090   1.783   6.972   0.968
 6731SOL     OW21091   1.844   6.797   0.865
 6731SOL    HW121092   1.828   6.737   0.787
 6731SOL    HW221093   1.780   6.774   0.938
 6732SOL     OW21094   5.086   4.238   4.303
 6732SOL    HW121095   5.002   4.194   4.271
 6732SOL    HW221096   5.136   4.275   4.224
 6733SOL     OW21097   4.238   5.550   6.125
 6733SOL    HW121098   4.267   5.625   6.185
 6733SOL    HW221099   4.236   5.584   6.030
 6734SOL     OW21100   5.247   2.138   5.919
 6734SOL    HW121101   5.224   2.078   5.995
 6734SOL    HW221102   5.329   2.103   5.873
 6735SOL     OW21103   5.397   3.426   4.163
 6735SOL    HW121104   5.429   3.516   4.193
 6735SOL    HW221105   5.388   3.426   4.063
 6736SOL     OW21106   3.334   3.473   6.344
 6736SOL    HW121107   3.415   3.456   6.288
 6736SOL    HW221108   3.255   3.488   6.285
 6737SOL     OW21109   1.202   3.188   1.240
 6737SOL    HW121110   1.147   3.268   1.217
 6737SOL    HW221111   1.197   3.171   1.338
 6738SOL     OW21112   1.414   5.576   3.970
 6738SOL    HW121113   1.370   5.605   3.885
 6738SOL    HW221114   1.345   5.538   4.031
 6739SOL     OW21115   6.581   6.119   3.559
 6739SOL    HW121116   6.673   6.103   3.594
 6739SOL    HW221117   6.532   6.181   3.621
 6740SOL     OW21118   6.864   0.176   5.044
 6740SOL    HW121119   6.903   0.226   4.966
 6740SOL    HW221120   6.845   0.240   5.118
 6741SOL     OW21121   3.473   2.180   6.034
 6741SOL    HW121122   3.398   2.198   6.097
 6741SOL    HW221123   3.438   2.138   5.951
 6742SOL     OW21124   5.654   5.527   3.791
 6742SOL    HW121125   5.626   5.541   3.696
 6742SOL    HW221126   5.584   5.565   3.852
 6743SOL     OW21127   3.649   3.933   6.298
 6743SOL    HW121128   3.582   3.878   6.348
 6743SOL    HW221129   3.742   3.907   6.326
 6744SOL     OW21130   0.501   6.450   6.006
 6744SOL    HW121131   0.563   6.514   6.052
 6744SOL    HW221132   0.423   6.500   5.969
 6745SOL     OW21133   6.801   6.394   3.684
 6745SOL    HW121134   6.781   6.297   3.671
 6745SOL    HW221135   6.734   6.435   3.746
 6746SOL     OW21136   1.699   0.561   3.486
 6746SOL    HW121137   1.633   0.630   3.459
 6746SOL    HW221138   1.652   0.485   3.532
 6747SOL     OW21139   6.300   0.286   7.011
 6747SOL    HW121140   6.349   0.364   6.972
 6747SOL    HW221141   6.252   0.315   0.068
 6748SOL     OW21142   2.985   1.883   3.464
 6748SOL    HW121143   2.988   1.802   3.407
 6748SOL    HW221144   3.041   1.955   3.424
 6749SOL     OW21145   3.655   4.467   1.186
 6749SOL    HW121146   3.690   4.411   1.111
 6749SOL    HW221147   3.701   4.444   1.271
 6750SOL     OW21148   3.208   1.857   4.434
 6750SOL    HW121149   3.294   1.810   4.415
 6750SOL    HW221150   3.220   1.918   4.512
 6751SOL     OW21151   4.860   0.750   3.366
 6751SOL    HW121152   4.923   0.720   3.437
 6751SOL    HW221153   4.806   0.672   3.333
 6752SOL     OW21154   1.824   0.264   3.273
 6752SOL    HW121155   1.762   0.294   3.200
 6752SOL    HW221156   1.896   0.333   3.286
 6753SOL     OW21157   3.098   1.829   5.946
 6753SOL    HW121158   3.114   1.801   5.851
 6753SOL    HW221159   3.174   1.799   6.003
 6754SOL     OW21160   6.456   1.363   0.818
 6754SOL    HW121161   6.398   1.395   0.743
 6754SOL    HW221162   6.499   1.442   0.863
 6755SOL     OW21163   4.095   3.879   1.069
 6755SOL    HW121164   4.024   3.828   1.020
 6755SOL    HW221165   4.117   3.832   1.155
 6756SOL     OW21166   3.817   0.303   5.496
 6756SOL    HW121167   3.869   0.266   5.572
 6756SOL    HW221168   3.859   0.274   5.410
 6757SOL     OW21169   3.514   2.223   0.806
 6757SOL    HW121170   3.445   2.179   0.864
 6757SOL    HW221171   3.584   2.265   0.864
 6758SOL     OW21172   6.207   3.126   1.666
 6758SOL    HW121173   6.290   3.073   1.678
 6758SOL    HW221174   6.181   3.166   1.754
 6759SOL     OW21175   0.001   3.162   2.699
 6759SOL    HW121176   0.099   3.169   2.717
 6759SOL    HW221177   6.995   3.246   2.655
 6760SOL     OW21178   6.310   3.793   2.356
 6760SOL    HW121179   6.361   3.727   2.301
 6760SOL    HW221180   6.262   3.746   2.430
 6761SOL     OW21181   5.714   3.124   4.706
 6761SOL    HW121182   5.805   3.117   4.746
 6761SOL    HW221183   5.680   3.217   4.715
 6762SOL     OW21184   0.788   4.882   4.732
 6762SOL    HW121185   0.704   4.851   4.776
 6762SOL    HW221186   0.813   4.818   4.659
 6763SOL     OW21187   5.052   5.420   4.469
 6763SOL    HW121188   5.150   5.427   4.491
 6763SOL    HW221189   5.012   5.511   4.467
 6764SOL     OW21190   2.193   5.196   1.723
 6764SOL    HW121191   2.264   5.199   1.792
 6764SOL    HW221192   2.115   5.143   1.757
 6765SOL     OW21193   5.644   4.527   2.554
 6765SOL    HW121194   5.566   4.574   2.511
 6765SOL    HW221195   5.644   4.547   2.652
 6766SOL     OW21196   5.336   6.481   5.606
 6766SOL    HW121197   5.297   6.411   5.546
 6766SOL    HW221198   5.263   6.531   5.651
 6767SOL     OW21199   3.310   0.331   1.174
 6767SOL    HW121200   3.393   0.363   1.221
 6767SOL    HW221201   3.236   0.397   1.190
 6768SOL     OW21202   1.860   0.642   5.300
 6768SOL    HW121203   1.905   0.567   5.252
 6768SOL    HW221204   1.883   0.728   5.255
 6769SOL     OW21205   3.193   1.585   0.576
 6769SOL    HW121206   3.114   1.541   0.619
 6769SOL    HW221207   3.275   1.565   0.629
 6770SOL     OW21208   0.123   1.299   1.943
 6770SOL    HW121209   0.105   1.243   2.023
 6770SOL    HW221210   0.209   1.270   1.901
 6771SOL     OW21211   4.781   2.303   3.538
 6771SOL    HW121212   4.852   2.295   3.607
 6771SOL    HW221213   4.797   2.385   3.483
 6772SOL     OW21214   3.621   1.500   3.210
 6772SOL    HW121215   3.590   1.512   3.115
 6772SOL    HW221216   3.564   1.432   3.256
 6773SOL     OW21217   0.012   5.357   1.902
 6773SOL    HW121218   6.956   5.300   1.908
 6773SOL    HW221219   0.009   5.428   1.972
 6774SOL     OW21220   0.389   2.001   5.334
 6774SOL    HW121221   0.460   2.060   5.296
 6774SOL    HW221222   0.368   1.928   5.269
 6775SOL     OW21223   2.499   2.743   1.781
 6775SOL    HW121224   2.558   2.668   1.811
 6775SOL    HW221225   2.553   2.810   1.731
 6776SOL     OW21226   4.152   4.747   7.017
 6776SOL    HW121227   4.240   4.763   6.974
 6776SOL    HW221228   4.146   4.652   0.022
 6777SOL     OW21229   4.283   3.668   7.009
 6777SOL    HW121230   4.211   3.650   6.942
 6777SOL    HW221231   4.367   3.621   6.982
 6778SOL     OW21232   5.959   4.855   1.990
 6778SOL    HW121233   5.909   4.807   2.062
 6778SOL    HW221234   6.044   4.893   2.028
 6779SOL     OW21235   6.680   5.057   6.226
 6779SOL    HW121236   6.698   4.963   6.257
 6779SOL    HW221237   6.636   5.108   6.300
 6780SOL     OW21238   1.220   2.513   1.811
 6780SOL    HW121239   1.301   2.455   1.816
 6780SOL    HW221240   1.244   2.606   1.838
 6781SOL     OW21241   6.435   0.387   4.929
 6781SOL    HW121242   6.445   0.438   5.015
 6781SOL    HW221243   6.368   0.433   4.871
 6782SOL     OW21244   6.994   0.265   3.432
 6782SOL    HW121245   7.020   0.351   3.477
 6782SOL    HW221246   0.045   0.230   3.381
 6783SOL     OW21247   6.289   1.165   5.805
 6783SOL    HW121248   6.206   1.204   5.763
 6783SOL    HW221249   6.355   1.238   5.822
 6784SOL     OW21250   2.421   4.090   0.831
 6784SOL    HW121251   2.447   4.019   0.765
 6784SOL    HW221252   2.365   4.050   0.903
 6785SOL     OW21253   5.170   5.219   3.575
 6785SOL    HW121254   5.258   5.241   3.616
 6785SOL    HW221255   5.110   5.298   3.578
 6786SOL     OW21256   1.395   2.063   0.390
 6786SOL    HW121257   1.473   2.062   0.452
 6786SOL    HW221258   1.360   1.970   0.379
 6787SOL     OW21259   1.632   2.334   1.232
 6787SOL    HW121260   1.649   2.432   1.217
 6787SOL    HW221261   1.690   2.280   1.171
 6788SOL     OW21262   2.091   3.469   1.351
 6788SOL    HW121263   2.189   3.488   1.346
 6788SOL    HW221264   2.041   3.551   1.322
 6789SOL     OW21265   6.646   6.239   2.898
 6789SOL    HW121266   6.634   6.310   2.968
 6789SOL    HW221267   6.719   6.177   2.926
 6790SOL     OW21268   0.893   4.180   1.126
 6790SOL    HW121269   0.810   4.226   1.156
 6790SOL    HW221270   0.871   4.088   1.094
 6791SOL     OW21271   4.176   2.663   1.690
 6791SOL    HW121272   4.152   2.637   1.597
 6791SOL    HW221273   4.208   2.582   1.740
 6792SOL     OW21274   6.220   6.058   5.170
 6792SOL    HW121275   6.209   5.961   5.194
 6792SOL    HW221276   6.132   6.103   5.173
 6793SOL     OW21277   0.888   1.617   0.717
 6793SOL    HW121278   0.824   1.666   0.777
 6793SOL    HW221279   0.846   1.602   0.628
 6794SOL     OW21280   5.220   1.473   6.679
 6794SOL    HW121281   5.313   1.437   6.688
 6794SOL    HW221282   5.162   1.406   6.633
 6795SOL     OW21283   2.510   6.370   1.333
 6795SOL    HW121284   2.490   6.462   1.300
 6795SOL    HW221285   2.582   6.329   1.277
 6796SOL     OW21286   6.457   0.924   1.898
 6796SOL    HW121287   6.494   0.915   1.991
 6796SOL    HW221288   6.529   0.905   1.831
 6797SOL     OW21289   5.455   3.046   1.959
 6797SOL    HW121290   5.422   2.975   2.020
 6797SOL    HW221291   5.398   3.128   1.968
 6798SOL     OW21292   5.093   6.631   2.697
 6798SOL    HW121293   5.004   6.651   2.655
 6798SOL    HW221294   5.085   6.548   2.753
 6799SOL     OW21295   6.428   6.462   1.101
 6799SOL    HW121296   6.522   6.442   1.074
 6799SOL    HW221297   6.423   6.474   1.200
 6800SOL     OW21298   2.407   3.719   1.194
 6800SOL    HW121299   2.331   3.759   1.142
 6800SOL    HW221300   2.475   3.789   1.213
 6801SOL     OW21301   0.692   0.498   2.863
 6801SOL    HW121302   0.743   0.564   2.918
 6801SOL    HW221303   0.728   0.497   2.770
 6802SOL     OW21304   3.404   5.951   0.603
 6802SOL    HW121305   3.345   5.877   0.570
 6802SOL    HW221306   3.354   6.037   0.602
 6803SOL     OW21307   5.100   2.768   6.108
 6803SOL    HW121308   5.182   2.720   6.136
 6803SOL    HW221309   5.057   2.720   6.032
 6804SOL     OW21310   3.419   5.304   3.842
 6804SOL    HW121311   3.463   5.328   3.928
 6804SOL    HW221312   3.442   5.210   3.817
 6805SOL     OW21313   5.961   5.042   6.186
 6805SOL    HW121314   6.016   5.121   6.159
 6805SOL    HW221315   5.926   4.995   6.105
 6806SOL     OW21316   5.912   0.361   3.597
 6806SOL    HW121317   5.900   0.282   3.537
 6806SOL    HW221318   5.973   0.427   3.553
 6807SOL     OW21319   3.487   2.819   0.359
 6807SOL    HW121320   3.558   2.871   0.311
 6807SOL    HW221321   3.422   2.883   0.401
 6808SOL     OW21322   0.285   1.784   5.210
 6808SOL    HW121323   0.340   1.702   5.196
 6808SOL    HW221324   0.204   1.779   5.151
 6809SOL     OW21325   0.965   2.983   1.427
 6809SOL    HW121326   0.957   2.901   1.483
 6809SOL    HW221327   1.057   3.021   1.436
 6810SOL     OW21328   2.101   0.036   1.654
 6810SOL    HW121329   2.197   0.015   1.669
 6810SOL    HW221330   2.092   0.129   1.618
 6811SOL     OW21331   4.761   4.166   0.672
 6811SOL    HW121332   4.725   4.164   0.578
 6811SOL    HW221333   4.810   4.080   0.690
 6812SOL     OW21334   3.111   3.106   3.092
 6812SOL    HW121335   3.089   3.191   3.141
 6812SOL    HW221336   3.191   3.063   3.133
 6813SOL     OW21337   4.888   2.126   2.823
 6813SOL    HW121338   4.904   2.028   2.835
 6813SOL    HW221339   4.877   2.146   2.725
 6814SOL     OW21340   3.256   1.749   6.665
 6814SOL    HW121341   3.233   1.833   6.713
 6814SOL    HW221342   3.237   1.760   6.567
 6815SOL     OW21343   2.851   6.893   1.609
 6815SOL    HW121344   2.934   6.864   1.562
 6815SOL    HW221345   2.835   6.990   1.592
 6816SOL     OW21346   0.425   7.008   6.598
 6816SOL    HW121347   0.478   0.048   6.652
 6816SOL    HW221348   0.345   6.979   6.650
 6817SOL     OW21349   1.433   2.210   4.010
 6817SOL    HW121350   1.505   2.174   3.950
 6817SOL    HW221351   1.396   2.136   4.066
 6818SOL     OW21352   2.941   4.984   1.696
 6818SOL    HW121353   2.977   5.051   1.761
 6818SOL    HW221354   2.993   4.899   1.705
 6819SOL     OW21355   5.397   0.978   4.433
 6819SOL    HW121356   5.339   1.058   4.417
 6819SOL    HW221357   5.382   0.943   4.525
 6820SOL     OW21358   1.600   5.550   3.198
 6820SOL    HW121359   1.651   5.472   3.232
 6820SOL    HW221360   1.503   5.527   3.190
 6821SOL     OW21361   3.227   0.964   4.636
 6821SOL    HW121362   3.304   0.913   4.674
 6821SOL    HW221363   3.172   0.902   4.579
 6822SOL     OW21364   5.379   2.342   6.859
 6822SOL    HW121365   5.462   2.294   6.888
 6822SOL    HW221366   5.301   2.308   6.912
 6823SOL     OW21367   3.390   3.289   4.242
 6823SOL    HW121368   3.432   3.373   4.277
 6823SOL    HW221369   3.446   3.252   4.169
 6824SOL     OW21370   1.155   2.578   6.385
 6824SOL    HW121371   1.242   2.553   6.428
 6824SOL    HW221372   1.111   2.495   6.351
 6825SOL     OW21373   4.738   6.922   2.487
 6825SOL    HW121374   4.714   6.962   2.576
 6825SOL    HW221375   4.804   6.981   2.441
 6826SOL     OW21376   2.207   4.040   2.285
 6826SOL    HW121377   2.241   3.948   2.266
 6826SOL    HW221378   2.188   4.087   2.198
 6827SOL     OW21379   4.585   5.577   6.507
 6827SOL    HW121380   4.519   5.511   6.545
 6827SOL    HW221381   4.604   5.553   6.412
 6828SOL     OW21382   2.485   2.381   1.642
 6828SOL    HW121383   2.387   2.383   1.661
 6828SOL    HW221384   2.535   2.377   1.728
 6829SOL     OW21385   4.383   6.541   4.189
 6829SOL    HW121386   4.326   6.591   4.123
 6829SOL    HW221387   4.452   6.602   4.227
 6830SOL     OW21388   5.211   1.439   4.024
 6830SOL    HW121389   5.182   1.504   3.953
 6830SOL    HW221390   5.138   1.428   4.091
 6831SOL     OW21391   1.336   0.458   6.699
 6831SOL    HW121392   1.430   0.491   6.690
 6831SOL    HW221393   1.289   0.469   6.611
 6832SOL     OW21394   2.167   3.711   1.064
 6832SOL    HW121395   2.215   3.729   0.978
 6832SOL    HW221396   2.073   3.683   1.046
 6833SOL     OW21397   3.964   3.858   6.154
 6833SOL    HW121398   3.947   3.931   6.219
 6833SOL    HW221399   3.997   3.897   6.068
 6834SOL     OW21400   5.731   6.724   0.960
 6834SOL    HW121401   5.810   6.770   0.921
 6834SOL    HW221402   5.705   6.647   0.901
 6835SOL     OW21403   3.803   0.604   4.557
 6835SOL    HW121404   3.902   0.599   4.539
 6835SOL    HW221405   3.760   0.518   4.528
 6836SOL     OW21406   2.962   5.397   0.323
 6836SOL    HW121407   3.043   5.440   0.364
 6836SOL    HW221408   2.897   5.468   0.296
 6837SOL     OW21409   1.860   1.823   2.370
 6837SOL    HW121410   1.777   1.795   2.418
 6837SOL    HW221411   1.839   1.845   2.275
 6838SOL     OW21412   2.901   6.324   0.669
 6838SOL    HW121413   2.803   6.340   0.657
 6838SOL    HW221414   2.930   6.248   0.611
 6839SOL     OW21415   5.442   0.292   6.842
 6839SOL    HW121416   5.398   0.328   6.760
 6839SOL    HW221417   5.527   0.342   6.858
 6840SOL     OW21418   2.927   0.899   5.179
 6840SOL    HW121419   2.960   0.869   5.090
 6840SOL    HW221420   2.999   0.890   5.247
 6841SOL     OW21421   4.704   4.124   6.397
 6841SOL    HW121422   4.605   4.138   6.392
 6841SOL    HW221423   4.749   4.181   6.328
 6842SOL     OW21424   3.102   4.290   1.420
 6842SOL    HW121425   3.027   4.349   1.449
 6842SOL    HW221426   3.151   4.332   1.344
 6843SOL     OW21427   5.848   6.384   0.807
 6843SOL    HW121428   5.838   6.286   0.824
 6843SOL    HW221429   5.758   6.423   0.788
 6844SOL     OW21430   6.084   0.964   4.468
 6844SOL    HW121431   6.073   1.059   4.438
 6844SOL    HW221432   6.059   0.902   4.394
 6845SOL     OW21433   6.197   4.018   3.621
 6845SOL    HW121434   6.200   4.053   3.714
 6845SOL    HW221435   6.155   4.086   3.561
 6846SOL     OW21436   3.775   3.627   0.437
 6846SOL    HW121437   3.823   3.715   0.437
 6846SOL    HW221438   3.724   3.617   0.523
 6847SOL     OW21439   0.003   3.677   5.125
 6847SOL    HW121440   0.017   3.585   5.160
 6847SOL    HW221441   0.037   3.683   5.031
 6848SOL     OW21442   5.302   4.687   3.535
 6848SOL    HW121443   5.299   4.722   3.441
 6848SOL    HW221444   5.270   4.757   3.598
 6849SOL     OW21445   4.507   3.922   5.617
 6849SOL    HW121446   4.417   3.914   5.659
 6849SOL    HW221447   4.551   3.832   5.611
 6850SOL     OW21448   5.342   3.003   2.866
 6850SOL    HW121449   5.392   3.090   2.858
 6850SOL    HW221450   5.339   2.958   2.777
 6851SOL     OW21451   0.480   2.011   2.884
 6851SOL    HW121452   0.579   1.999   2.871
 6851SOL    HW221453   0.464   2.057   2.972
 6852SOL     OW21454   2.390   4.537   1.217
 6852SOL    HW121455   2.453   4.488   1.277
 6852SOL    HW221456   2.304   4.486   1.211
 6853SOL     OW21457   5.284   4.279   6.413
 6853SOL    HW121458   5.366   4.288   6.470
 6853SOL    HW221459   5.232   4.364   6.417
 6854SOL     OW21460   5.445   0.287   5.932
 6854SOL    HW121461   5.401   0.347   5.865
 6854SOL    HW221462   5.422   0.192   5.912
 6855SOL     OW21463   4.395   5.835   3.658
 6855SOL    HW121464   4.295   5.834   3.656
 6855SOL    HW221465   4.430   5.907   3.598
 6856SOL     OW21466   0.559   2.587   4.862
 6856SOL    HW121467   0.516   2.556   4.778
 6856SOL    HW221468   0.530   2.680   4.883
 6857SOL     OW21469   1.232   2.822   6.309
 6857SOL    HW121470   1.280   2.882   6.373
 6857SOL    HW221471   1.208   2.736   6.355
 6858SOL     OW21472   3.997   4.045   1.755
 6858SOL    HW121473   4.095   4.056   1.736
 6858SOL    HW221474   3.969   3.951   1.734
 6859SOL     OW21475   0.595   1.012   1.118
 6859SOL    HW121476   0.688   1.013   1.154
 6859SOL    HW221477   0.598   1.014   1.018
 6860SOL     OW21478   7.000   4.950   1.335
 6860SOL    HW121479   0.053   4.971   1.392
 6860SOL    HW221480   6.957   4.865   1.367
 6861SOL     OW21481   5.024   3.868   6.520
 6861SOL    HW121482   4.940   3.918   6.501
 6861SOL    HW221483   5.097   3.902   6.459
 6862SOL     OW21484   0.107   5.883   5.873
 6862SOL    HW121485   0.072   5.893   5.780
 6862SOL    HW221486   0.132   5.787   5.890
 6863SOL     OW21487   6.619   6.481   5.775
 6863SOL    HW121488   6.709   6.517   5.798
 6863SOL    HW221489   6.573   6.542   5.711
 6864SOL     OW21490   1.996   4.837   5.060
 6864SOL    HW121491   2.021   4.833   5.157
 6864SOL    HW221492   1.896   4.843   5.052
 6865SOL     OW21493   0.836   6.888   5.048
 6865SOL    HW121494   0.902   6.814   5.063
 6865SOL    HW221495   0.767   6.886   5.121
 6866SOL     OW21496   5.342   4.937   2.995
 6866SOL    HW121497   5.244   4.945   2.975
 6866SOL    HW221498   5.355   4.933   3.094
 6867SOL     OW21499   2.127   3.322   1.657
 6867SOL    HW121500   2.169   3.412   1.652
 6867SOL    HW221501   2.105   3.301   1.752
 6868SOL     OW21502   2.042   6.865   5.186
 6868SOL    HW121503   1.987   6.938   5.146
 6868SOL    HW221504   2.052   6.790   5.119
 6869SOL     OW21505   5.213   0.776   6.059
 6869SOL    HW121506   5.135   0.836   6.042
 6869SOL    HW221507   5.194   0.685   6.022
 6870SOL     OW21508   0.367   4.248   1.154
 6870SOL    HW121509   0.410   4.300   1.081
 6870SOL    HW221510   0.402   4.154   1.153
 6871SOL     OW21511   5.906   4.198   3.027
 6871SOL    HW121512   5.938   4.190   3.121
 6871SOL    HW221513   5.969   4.256   2.975
 6872SOL     OW21514   0.094   2.707   1.541
 6872SOL    HW121515   0.020   2.646   1.514
 6872SOL    HW221516   0.160   2.714   1.466
 6873SOL     OW21517   1.104   3.784   3.947
 6873SOL    HW121518   1.103   3.709   3.881
 6873SOL    HW221519   1.121   3.871   3.899
 6874SOL     OW21520   6.590   5.104   3.547
 6874SOL    HW121521   6.527   5.067   3.615
 6874SOL    HW221522   6.542   5.117   3.460
 6875SOL     OW21523   2.380   1.667   2.117
 6875SOL    HW121524   2.282   1.674   2.100
 6875SOL    HW221525   2.422   1.757   2.107
 6876SOL     OW21526   3.865   6.613   3.909
 6876SOL    HW121527   3.896   6.699   3.949
 6876SOL    HW221528   3.769   6.597   3.932
 6877SOL     OW21529   3.378   4.184   1.721
 6877SOL    HW121530   3.340   4.149   1.807
 6877SOL    HW221531   3.331   4.269   1.695
 6878SOL     OW21532   2.726   1.832   3.486
 6878SOL    HW121533   2.678   1.874   3.409
 6878SOL    HW221534   2.821   1.862   3.487
 6879SOL     OW21535   2.364   2.410   6.853
 6879SOL    HW121536   2.274   2.388   6.892
 6879SOL    HW221537   2.431   2.345   6.887
 6880SOL     OW21538   1.020   6.206   5.866
 6880SOL    HW121539   1.094   6.273   5.869
 6880SOL    HW221540   1.016   6.164   5.775
 6881SOL     OW21541   1.546   3.152   1.258
 6881SOL    HW121542   1.516   3.080   1.322
 6881SOL    HW221543   1.472   3.173   1.195
 6882SOL     OW21544   3.007   0.581   0.582
 6882SOL    HW121545   2.946   0.656   0.555
 6882SOL    HW221546   2.957   0.519   0.644
 6883SOL     OW21547   5.535   1.399   0.072
 6883SOL    HW121548   5.548   1.442   7.009
 6883SOL    HW221549   5.612   1.338   0.091
 6884SOL     OW21550   0.944   4.552   3.107
 6884SOL    HW121551   0.974   4.646   3.090
 6884SOL    HW221552   1.004   4.489   3.058
 6885SOL     OW21553   4.291   5.024   3.250
 6885SOL    HW121554   4.314   4.930   3.275
 6885SOL    HW221555   4.328   5.087   3.319
 6886SOL     OW21556   0.072   1.430   4.727
 6886SOL    HW121557   0.126   1.360   4.681
 6886SOL    HW221558   0.025   1.486   4.659
 6887SOL     OW21559   4.730   5.555   6.807
 6887SOL    HW121560   4.808   5.615   6.827
 6887SOL    HW221561   4.740   5.520   6.713
 6888SOL     OW21562   5.277   4.984   6.411
 6888SOL    HW121563   5.305   4.922   6.485
 6888SOL    HW221564   5.206   4.940   6.357
 6889SOL     OW21565   1.960   2.556   5.987
 6889SOL    HW121566   1.867   2.520   5.992
 6889SOL    HW221567   2.005   2.522   5.905
 6890SOL     OW21568   3.985   5.778   2.040
 6890SOL    HW121569   3.953   5.828   1.960
 6890SOL    HW221570   3.908   5.764   2.103
 6891SOL     OW21571   1.891   3.322   1.495
 6891SOL    HW121572   1.946   3.356   1.419
 6891SOL    HW221573   1.951   3.301   1.573
 6892SOL     OW21574   3.866   1.462   4.441
 6892SOL    HW121575   3.962   1.487   4.424
 6892SOL    HW221576   3.815   1.465   4.355
 6893SOL     OW21577   4.769   3.884   0.074
 6893SOL    HW121578   4.678   3.921   0.055
 6893SOL    HW221579   4.833   3.960   0.089
 6894SOL     OW21580   6.356   5.124   1.109
 6894SOL    HW121581   6.399   5.191   1.170
 6894SOL    HW221582   6.356   5.159   1.015
 6895SOL     OW21583   1.841   5.155   1.301
 6895SOL    HW121584   1.924   5.103   1.325
 6895SOL    HW221585   1.770   5.091   1.271
 6896SOL     OW21586   3.171   2.132   3.750
 6896SOL    HW121587   3.127   2.055   3.795
 6896SOL    HW221588   3.109   2.172   3.683
 6897SOL     OW21589   4.901   3.329   5.208
 6897SOL    HW121590   4.892   3.428   5.202
 6897SOL    HW221591   4.980   3.299   5.154
 6898SOL     OW21592   3.539   1.409   1.493
 6898SOL    HW121593   3.450   1.364   1.489
 6898SOL    HW221594   3.530   1.503   1.460
 6899SOL     OW21595   4.739   6.091   2.394
 6899SOL    HW121596   4.763   6.185   2.373
 6899SOL    HW221597   4.640   6.079   2.385
 6900SOL     OW21598   0.019   4.323   5.075
 6900SOL    HW121599   0.038   4.257   5.147
 6900SOL    HW221600   0.058   4.412   5.100
 6901SOL     OW21601   5.581   5.930   6.412
 6901SOL    HW121602   5.675   5.948   6.381
 6901SOL    HW221603   5.581   5.919   6.511
 6902SOL     OW21604   6.980   5.470   5.914
 6902SOL    HW121605   6.944   5.488   5.823
 6902SOL    HW221606   6.904   5.451   5.977
 6903SOL     OW21607   3.071   5.048   5.094
 6903SOL    HW121608   3.081   4.956   5.131
 6903SOL    HW221609   2.983   5.086   5.124
 6904SOL     OW21610   6.439   0.488   5.919
 6904SOL    HW121611   6.419   0.565   5.980
 6904SOL    HW221612   6.470   0.410   5.974
 6905SOL     OW21613   5.329   5.452   6.510
 6905SOL    HW121614   5.424   5.485   6.513
 6905SOL    HW221615   5.273   5.509   6.569
 6906SOL     OW21616   3.922   1.035   3.860
 6906SOL    HW121617   3.967   1.096   3.926
 6906SOL    HW221618   3.879   1.089   3.788
 6907SOL     OW21619   5.887   2.402   1.597
 6907SOL    HW121620   5.830   2.320   1.590
 6907SOL    HW221621   5.952   2.403   1.521
 6908SOL     OW21622   2.172   5.113   6.604
 6908SOL    HW121623   2.090   5.056   6.614
 6908SOL    HW221624   2.200   5.114   6.508
 6909SOL     OW21625   4.896   3.905   0.741
 6909SOL    HW121626   4.919   3.911   0.838
 6909SOL    HW221627   4.902   3.810   0.711
 6910SOL     OW21628   1.136   2.936   3.001
 6910SOL    HW121629   1.135   2.861   2.936
 6910SOL    HW221630   1.117   3.022   2.953
 6911SOL     OW21631   4.209   6.893   4.347
 6911SOL    HW121632   4.239   6.986   4.367
 6911SOL    HW221633   4.238   6.867   4.255
 6912SOL     OW21634   2.839   3.245   6.517
 6912SOL    HW121635   2.743   3.267   6.500
 6912SOL    HW221636   2.848   3.150   6.546
 6913SOL     OW21637   5.222   6.230   4.956
 6913SOL    HW121638   5.205   6.280   4.871
 6913SOL    HW221639   5.135   6.209   5.000
 6914SOL     OW21640   5.548   4.829   4.014
 6914SOL    HW121641   5.568   4.744   4.062
 6914SOL    HW221642   5.610   4.900   4.046
 6915SOL     OW21643   6.801   2.330   1.897
 6915SOL    HW121644   6.767   2.352   1.988
 6915SOL    HW221645   6.882   2.272   1.905
 6916SOL     OW21646   5.532   0.485   0.085
 6916SOL    HW121647   5.594   0.407   0.095
 6916SOL    HW221648   5.550   0.532   7.025
 6917SOL     OW21649   4.226   6.287   1.890
 6917SOL    HW121650   4.245   6.371   1.838
 6917SOL    HW221651   4.290   6.215   1.862
 6918SOL     OW21652   0.041   2.836   3.821
 6918SOL    HW121653   0.106   2.875   3.886
 6918SOL    HW221654   6.993   2.792   3.871
 6919SOL     OW21655   6.693   5.696   3.627
 6919SOL    HW121656   6.649   5.624   3.573
 6919SOL    HW221657   6.792   5.691   3.616
 6920SOL     OW21658   4.567   6.906   5.173
 6920SOL    HW121659   4.504   6.925   5.098
 6920SOL    HW221660   4.613   6.990   5.200
 6921SOL     OW21661   4.161   6.600   3.454
 6921SOL    HW121662   4.130   6.625   3.362
 6921SOL    HW221663   4.133   6.671   3.518
 6922SOL     OW21664   1.790   6.118   5.479
 6922SOL    HW121665   1.834   6.044   5.528
 6922SOL    HW221666   1.730   6.081   5.408
 6923SOL     OW21667   5.328   5.794   2.703
 6923SOL    HW121668   5.231   5.793   2.682
 6923SOL    HW221669   5.373   5.717   2.658
 6924SOL     OW21670   2.894   4.082   0.191
 6924SOL    HW121671   2.855   3.990   0.183
 6924SOL    HW221672   2.953   4.100   0.112
 6925SOL     OW21673   4.876   5.587   4.897
 6925SOL    HW121674   4.847   5.629   4.811
 6925SOL    HW221675   4.946   5.518   4.878
 6926SOL     OW21676   2.432   1.727   0.358
 6926SOL    HW121677   2.353   1.787   0.345
 6926SOL    HW221678   2.497   1.742   0.283
 6927SOL     OW21679   3.393   1.731   6.347
 6927SOL    HW121680   3.308   1.777   6.322
 6927SOL    HW221681   3.470   1.776   6.301
 6928SOL     OW21682   5.878   6.187   0.574
 6928SOL    HW121683   5.946   6.260   0.579
 6928SOL    HW221684   5.843   6.167   0.666
 6929SOL     OW21685   5.052   6.023   2.433
 6929SOL    HW121686   4.960   5.985   2.437
 6929SOL    HW221687   5.075   6.066   2.520
 6930SOL     OW21688   1.321   1.116   1.370
 6930SOL    HW121689   1.244   1.064   1.333
 6930SOL    HW221690   1.406   1.082   1.331
 6931SOL     OW21691   1.451   2.015   2.432
 6931SOL    HW121692   1.360   2.054   2.417
 6931SOL    HW221693   1.514   2.051   2.363
 6932SOL     OW21694   4.597   6.504   0.871
 6932SOL    HW121695   4.664   6.573   0.842
 6932SOL    HW221696   4.542   6.540   0.946
 6933SOL     OW21697   3.435   6.717   5.518
 6933SOL    HW121698   3.406   6.654   5.590
 6933SOL    HW221699   3.410   6.679   5.429
 6934SOL     OW21700   4.470   3.517   6.314
 6934SOL    HW121701   4.389   3.475   6.273
 6934SOL    HW221702   4.490   3.471   6.401
 6935SOL     OW21703   4.046   5.945   2.802
 6935SOL    HW121704   3.983   5.981   2.733
 6935SOL    HW221705   3.995   5.897   2.873
 6936SOL     OW21706   6.307   2.718   4.653
 6936SOL    HW121707   6.314   2.635   4.707
 6936SOL    HW221708   6.241   2.780   4.695
 6937SOL     OW21709   6.347   6.129   0.678
 6937SOL    HW121710   6.321   6.161   0.587
 6937SOL    HW221711   6.273   6.147   0.742
 6938SOL     OW21712   0.092   2.392   4.578
 6938SOL    HW121713   0.150   2.338   4.639
 6938SOL    HW221714   0.097   2.355   4.485
 6939SOL     OW21715   6.916   5.332   2.498
 6939SOL    HW121716   6.934   5.282   2.414
 6939SOL    HW221717   6.933   5.272   2.577
 6940SOL     OW21718   4.523   6.828   0.150
 6940SOL    HW121719   4.525   6.747   0.207
 6940SOL    HW221720   4.533   6.802   0.054
 6941SOL     OW21721   2.943   3.794   2.065
 6941SOL    HW121722   2.967   3.697   2.074
 6941SOL    HW221723   2.956   3.839   2.153
 6942SOL     OW21724   5.512   6.595   2.612
 6942SOL    HW121725   5.498   6.535   2.692
 6942SOL    HW221726   5.596   6.568   2.565
 6943SOL     OW21727   3.648   5.411   0.856
 6943SOL    HW121728   3.710   5.486   0.877
 6943SOL    HW221729   3.583   5.440   0.785
 6944SOL     OW21730   1.318   5.182   6.014
 6944SOL    HW121731   1.400   5.172   5.957
 6944SOL    HW221732   1.285   5.092   6.040
 6945SOL     OW21733   6.810   1.742   1.532
 6945SOL    HW121734   6.727   1.726   1.586
 6945SOL    HW221735   6.787   1.744   1.435
 6946SOL     OW21736   4.248   6.457   1.692
 6946SOL    HW121737   4.342   6.477   1.666
 6946SOL    HW221738   4.199   6.542   1.710
 6947SOL     OW21739   4.242   5.380   6.361
 6947SOL    HW121740   4.200   5.448   6.300
 6947SOL    HW221741   4.185   5.298   6.364
 6948SOL     OW21742   1.039   5.951   1.097
 6948SOL    HW121743   0.959   5.980   1.044
 6948SOL    HW221744   1.078   5.868   1.056
 6949SOL     OW21745   2.416   1.382   3.365
 6949SOL    HW121746   2.349   1.454   3.352
 6949SOL    HW221747   2.369   1.294   3.376
 6950SOL     OW21748   1.528   0.647   4.898
 6950SOL    HW121749   1.431   0.631   4.879
 6950SOL    HW221750   1.549   0.616   4.991
 6951SOL     OW21751   0.249   6.014   6.580
 6951SOL    HW121752   0.319   6.059   6.636
 6951SOL    HW221753   0.290   5.984   6.494
 6952SOL     OW21754   1.474   5.211   3.345
 6952SOL    HW121755   1.426   5.287   3.302
 6952SOL    HW221756   1.433   5.125   3.315
 6953SOL     OW21757   5.254   0.143   0.422
 6953SOL    HW121758   5.328   0.093   0.469
 6953SOL    HW221759   5.280   0.159   0.327
 6954SOL     OW21760   0.674   4.289   1.322
 6954SOL    HW121761   0.582   4.307   1.359
 6954SOL    HW221762   0.704   4.368   1.269
 6955SOL     OW21763   4.677   0.889   2.914
 6955SOL    HW121764   4.760   0.834   2.906
 6955SOL    HW221765   4.664   0.917   3.009
 6956SOL     OW21766   4.884   6.048   3.358
 6956SOL    HW121767   4.925   5.959   3.337
 6956SOL    HW221768   4.856   6.051   3.454
 6957SOL     OW21769   5.993   5.487   0.004
 6957SOL    HW121770   5.980   5.585   7.017
 6957SOL    HW221771   6.088   5.470   0.031
 6958SOL     OW21772   3.936   3.426   4.939
 6958SOL    HW121773   3.946   3.423   5.039
 6958SOL    HW221774   4.014   3.475   4.899
 6959SOL     OW21775   2.017   4.010   3.282
 6959SOL    HW121776   2.049   4.079   3.217
 6959SOL    HW221777   2.050   3.919   3.253
 6960SOL     OW21778   1.692   4.280   0.906
 6960SOL    HW121779   1.763   4.338   0.946
 6960SOL    HW221780   1.634   4.243   0.978
 6961SOL     OW21781   6.097   1.322   4.745
 6961SOL    HW121782   5.998   1.315   4.757
 6961SOL    HW221783   6.128   1.412   4.776
 6962SOL     OW21784   4.459   5.924   1.003
 6962SOL    HW121785   4.490   5.831   0.981
 6962SOL    HW221786   4.457   5.935   1.103
 6963SOL     OW21787   5.617   5.258   0.936
 6963SOL    HW121788   5.565   5.228   1.015
 6963SOL    HW221789   5.703   5.206   0.930
 6964SOL     OW21790   3.436   0.656   6.238
 6964SOL    HW121791   3.344   0.617   6.236
 6964SOL    HW221792   3.497   0.600   6.183
 6965SOL     OW21793   2.010   1.679   6.854
 6965SOL    HW121794   2.010   1.593   6.803
 6965SOL    HW221795   1.981   1.753   6.794
 6966SOL     OW21796   0.276   0.678   2.315
 6966SOL    HW121797   0.188   0.725   2.303
 6966SOL    HW221798   0.265   0.606   2.384
 6967SOL     OW21799   3.399   1.402   5.393
 6967SOL    HW121800   3.319   1.353   5.429
 6967SOL    HW221801   3.368   1.482   5.341
 6968SOL     OW21802   2.685   1.375   3.901
 6968SOL    HW121803   2.693   1.467   3.861
 6968SOL    HW221804   2.708   1.307   3.832
 6969SOL     OW21805   2.849   2.122   1.365
 6969SOL    HW121806   2.815   2.204   1.411
 6969SOL    HW221807   2.933   2.144   1.314
 6970SOL     OW21808   4.201   3.470   5.249
 6970SOL    HW121809   4.241   3.532   5.182
 6970SOL    HW221810   4.185   3.520   5.335
 6971SOL     OW21811   5.756   4.782   1.259
 6971SOL    HW121812   5.850   4.788   1.293
 6971SOL    HW221813   5.754   4.727   1.176
 6972SOL     OW21814   5.436   4.318   2.363
 6972SOL    HW121815   5.509   4.365   2.414
 6972SOL    HW221816   5.382   4.263   2.426
 6973SOL     OW21817   0.312   2.583   3.671
 6973SOL    HW121818   0.400   2.547   3.640
 6973SOL    HW221819   0.274   2.523   3.741
 6974SOL     OW21820   3.173   4.015   2.875
 6974SOL    HW121821   3.204   4.098   2.827
 6974SOL    HW221822   3.126   3.955   2.809
 6975SOL     OW21823   1.626   6.876   4.512
 6975SOL    HW121824   1.718   6.851   4.542
 6975SOL    HW221825   1.596   6.813   4.441
 6976SOL     OW21826   6.116   4.319   5.887
 6976SOL    HW121827   6.123   4.350   5.792
 6976SOL    HW221828   6.103   4.219   5.889
 6977SOL     OW21829   3.399   3.163   1.137
 6977SOL    HW121830   3.444   3.238   1.088
 6977SOL    HW221831   3.407   3.079   1.084
 6978SOL     OW21832   5.467   2.524   1.770
 6978SOL    HW121833   5.477   2.434   1.727
 6978SOL    HW221834   5.555   2.571   1.769
 6979SOL     OW21835   0.956   3.578   1.181
 6979SOL    HW121836   0.987   3.662   1.225
 6979SOL    HW221837   0.879   3.598   1.121
 6980SOL     OW21838   2.061   1.314   3.496
 6980SOL    HW121839   2.127   1.354   3.559
 6980SOL    HW221840   1.997   1.384   3.465
 6981SOL     OW21841   3.953   2.961   6.036
 6981SOL    HW121842   3.889   3.009   5.976
 6981SOL    HW221843   3.977   3.019   6.114
 6982SOL     OW21844   0.810   1.011   4.200
 6982SOL    HW121845   0.726   1.004   4.147
 6982SOL    HW221846   0.883   0.959   4.155
 6983SOL     OW21847   5.184   1.668   5.061
 6983SOL    HW121848   5.152   1.707   4.975
 6983SOL    HW221849   5.106   1.645   5.118
 6984SOL     OW21850   2.053   1.782   2.548
 6984SOL    HW121851   2.052   1.685   2.571
 6984SOL    HW221852   1.985   1.799   2.476
 6985SOL     OW21853   6.537   5.441   0.763
 6985SOL    HW121854   6.582   5.508   0.704
 6985SOL    HW221855   6.599   5.364   0.779
 6986SOL     OW21856   3.597   6.775   6.834
 6986SOL    HW121857   3.549   6.815   6.911
 6986SOL    HW221858   3.683   6.733   6.865
 6987SOL     OW21859   6.548   1.418   6.460
 6987SOL    HW121860   6.582   1.511   6.447
 6987SOL    HW221861   6.461   1.421   6.510
 6988SOL     OW21862   1.726   6.685   5.983
 6988SOL    HW121863   1.644   6.736   6.012
 6988SOL    HW221864   1.731   6.599   6.033
 6989SOL     OW21865   0.102   4.733   2.948
 6989SOL    HW121866   0.195   4.761   2.927
 6989SOL    HW221867   0.052   4.717   2.863
 6990SOL     OW21868   3.841   2.828   1.287
 6990SOL    HW121869   3.858   2.923   1.312
 6990SOL    HW221870   3.927   2.784   1.260
 6991SOL     OW21871   5.288   4.524   3.245
 6991SOL    HW121872   5.223   4.569   3.184
 6991SOL    HW221873   5.376   4.573   3.242
 6992SOL     OW21874   6.457   6.447   6.492
 6992SOL    HW121875   6.363   6.482   6.499
 6992SOL    HW221876   6.493   6.469   6.401
 6993SOL     OW21877   6.220   0.671   1.642
 6993SOL    HW121878   6.314   0.672   1.608
 6993SOL    HW221879   6.174   0.755   1.614
 6994SOL     OW21880   1.253   1.288   4.304
 6994SOL    HW121881   1.193   1.367   4.300
 6994SOL    HW221882   1.201   1.206   4.281
 6995SOL     OW21883   6.874   3.777   6.854
 6995SOL    HW121884   6.895   3.874   6.842
 6995SOL    HW221885   6.959   3.726   6.864
 6996SOL     OW21886   1.504   0.645   0.172
 6996SOL    HW121887   1.456   0.687   0.095
 6996SOL    HW221888   1.481   0.548   0.177
 6997SOL     OW21889   0.389   4.729   5.121
 6997SOL    HW121890   0.409   4.808   5.179
 6997SOL    HW221891   0.433   4.648   5.160
 6998SOL     OW21892   1.578   1.741   1.067
 6998SOL    HW121893   1.485   1.706   1.053
 6998SOL    HW221894   1.588   1.769   1.163
 6999SOL     OW21895   1.961   2.281   6.176
 6999SOL    HW121896   2.048   2.242   6.144
 6999SOL    HW221897   1.976   2.328   6.264
 7000SOL     OW21898   6.125   0.462   2.503
 7000SOL    HW121899   6.154   0.418   2.418
 7000SOL    HW221900   6.072   0.397   2.557
 7001SOL     OW21901   1.051   2.390   5.015
 7001SOL    HW121902   0.983   2.463   5.017
 7001SOL    HW221903   1.047   2.342   4.928
 7002SOL     OW21904   2.135   4.930   3.821
 7002SOL    HW121905   2.225   4.890   3.840
 7002SOL    HW221906   2.144   5.027   3.800
 7003SOL     OW21907   4.507   5.842   1.557
 7003SOL    HW121908   4.435   5.907   1.535
 7003SOL    HW221909   4.493   5.805   1.648
 7004SOL     OW21910   0.665   6.403   0.386
 7004SOL    HW121911   0.642   6.370   0.294
 7004SOL    HW221912   0.730   6.341   0.429
 7005SOL     OW21913   0.845   1.071   0.609
 7005SOL    HW121914   0.913   1.107   0.544
 7005SOL    HW221915   0.816   0.980   0.579
 7006SOL     OW21916   5.635   5.831   3.436
 7006SOL    HW121917   5.562   5.818   3.503
 7006SOL    HW221918   5.653   5.929   3.424
 7007SOL     OW21919   4.069   0.585   4.496
 7007SOL    HW121920   4.159   0.563   4.458
 7007SOL    HW221921   4.072   0.674   4.540
 7008SOL     OW21922   0.604   4.257   4.353
 7008SOL    HW121923   0.665   4.305   4.416
 7008SOL    HW221924   0.656   4.224   4.274
 7009SOL     OW21925   3.881   6.837   2.146
 7009SOL    HW121926   3.926   6.803   2.228
 7009SOL    HW221927   3.848   6.760   2.091
 7010SOL     OW21928   5.598   4.388   3.921
 7010SOL    HW121929   5.632   4.300   3.955
 7010SOL    HW221930   5.676   4.443   3.889
 7011SOL     OW21931   4.046   6.738   0.594
 7011SOL    HW121932   4.067   6.834   0.615
 7011SOL    HW221933   3.947   6.726   0.592
 7012SOL     OW21934   0.850   1.805   1.282
 7012SOL    HW121935   0.779   1.791   1.214
 7012SOL    HW221936   0.810   1.843   1.366
 7013SOL     OW21937   1.802   0.011   6.832
 7013SOL    HW121938   1.810   0.085   6.766
 7013SOL    HW221939   1.707   7.007   6.837
 7014SOL     OW21940   5.570   3.348   0.570
 7014SOL    HW121941   5.601   3.294   0.492
 7014SOL    HW221942   5.501   3.414   0.540
 7015SOL     OW21943   5.647   5.010   1.652
 7015SOL    HW121944   5.558   4.965   1.639
 7015SOL    HW221945   5.644   5.102   1.614
 7016SOL     OW21946   3.980   5.091   1.380
 7016SOL    HW121947   4.028   5.014   1.422
 7016SOL    HW221948   3.948   5.064   1.289
 7017SOL     OW21949   2.986   5.136   3.139
 7017SOL    HW121950   2.977   5.199   3.061
 7017SOL    HW221951   3.082   5.133   3.168
 7018SOL     OW21952   5.195   4.043   4.493
 7018SOL    HW121953   5.146   4.106   4.433
 7018SOL    HW221954   5.134   4.013   4.566
 7019SOL     OW21955   4.031   4.868   1.558
 7019SOL    HW121956   4.018   4.921   1.642
 7019SOL    HW221957   3.956   4.803   1.548
 7020SOL     OW21958   0.231   3.861   5.881
 7020SOL    HW121959   0.234   3.910   5.968
 7020SOL    HW221960   0.188   3.919   5.812
 7021SOL     OW21961   1.707   3.239   3.959
 7021SOL    HW121962   1.645   3.312   3.988
 7021SOL    HW221963   1.771   3.218   4.033
 7022SOL     OW21964   4.977   6.804   0.180
 7022SOL    HW121965   4.947   6.898   0.200
 7022SOL    HW221966   5.026   6.767   0.259
 7023SOL     OW21967   0.164   2.831   1.056
 7023SOL    HW121968   0.080   2.885   1.055
 7023SOL    HW221969   0.144   2.738   1.024
 7024SOL     OW21970   3.829   3.529   4.415
 7024SOL    HW121971   3.806   3.449   4.360
 7024SOL    HW221972   3.901   3.505   4.480
 7025SOL     OW21973   3.510   0.965   1.082
 7025SOL    HW121974   3.423   0.919   1.063
 7025SOL    HW221975   3.549   0.999   0.996
 7026SOL     OW21976   3.804   2.004   2.065
 7026SOL    HW121977   3.753   2.075   2.017
 7026SOL    HW221978   3.758   1.982   2.151
 7027SOL     OW21979   2.268   5.901   3.862
 7027SOL    HW121980   2.210   5.901   3.943
 7027SOL    HW221981   2.214   5.877   3.782
 7028SOL     OW21982   3.954   0.292   3.918
 7028SOL    HW121983   3.944   0.221   3.987
 7028SOL    HW221984   3.873   0.294   3.859
 7029SOL     OW21985   4.611   3.642   5.658
 7029SOL    HW121986   4.554   3.569   5.620
 7029SOL    HW221987   4.702   3.638   5.617
 7030SOL     OW21988   0.587   0.942   4.365
 7030SOL    HW121989   0.680   0.968   4.338
 7030SOL    HW221990   0.563   0.855   4.322
 7031SOL     OW21991   4.122   6.009   0.167
 7031SOL    HW121992   4.180   6.090   0.156
 7031SOL    HW221993   4.043   6.017   0.106
 7032SOL     OW21994   4.057   1.007   3.460
 7032SOL    HW121995   4.083   0.910   3.463
 7032SOL    HW221996   4.124   1.061   3.511
 7033SOL     OW21997   1.521   3.237   3.273
 7033SOL    HW121998   1.568   3.321   3.299
 7033SOL    HW221999   1.427   3.258   3.247
 7034SOL     OW22000   6.895   2.215   3.022
 7034SOL    HW122001   6.884   2.120   3.050
 7034SOL    HW222002   6.829   2.236   2.949
 7035SOL     OW22003   1.994   0.226   0.880
 7035SOL    HW122004   1.933   0.290   0.835
 7035SOL    HW222005   1.941   0.163   0.937
 7036SOL     OW22006   6.563   1.970   2.214
 7036SOL    HW122007   6.630   1.898   2.196
 7036SOL    HW222008   6.535   1.966   2.310
 7037SOL     OW22009   0.418   1.453   6.363
 7037SOL    HW122010   0.397   1.357   6.343
 7037SOL    HW222011   0.399   1.472   6.459
 7038SOL     OW22012   2.513   4.557   4.931
 7038SOL    HW122013   2.486   4.547   5.027
 7038SOL    HW222014   2.613   4.557   4.925
 7039SOL     OW22015   0.212   6.216   3.892
 7039SOL    HW122016   0.177   6.209   3.986
 7039SOL    HW222017   0.164   6.289   3.843
 7040SOL     OW22018   4.903   2.393   5.768
 7040SOL    HW122019   4.886   2.440   5.681
 7040SOL    HW222020   4.828   2.331   5.788
 7041SOL     OW22021   0.425   1.987   3.191
 7041SOL    HW122022   0.391   1.896   3.215
 7041SOL    HW222023   0.375   2.056   3.243
 7042SOL     OW22024   4.705   6.310   4.204
 7042SOL    HW122025   4.606   6.301   4.196
 7042SOL    HW222026   4.750   6.235   4.157
 7043SOL     OW22027   3.035   4.945   3.609
 7043SOL    HW122028   3.100   4.946   3.533
 7043SOL    HW222029   3.000   5.038   3.623
 7044SOL     OW22030   4.909   6.351   5.285
 7044SOL    HW122031   4.943   6.403   5.207
 7044SOL    HW222032   4.983   6.299   5.327
 7045SOL     OW22033   5.251   5.747   2.323
 7045SOL    HW122034   5.343   5.724   2.354
 7045SOL    HW222035   5.210   5.667   2.279
 7046SOL     OW22036   3.316   1.555   3.938
 7046SOL    HW122037   3.269   1.588   4.021
 7046SOL    HW222038   3.306   1.623   3.865
 7047SOL     OW22039   6.958   0.967   1.555
 7047SOL    HW122040   6.885   0.902   1.577
 7047SOL    HW222041   6.923   1.036   1.492
 7048SOL     OW22042   5.736   6.389   4.961
 7048SOL    HW122043   5.668   6.335   4.912
 7048SOL    HW222044   5.696   6.424   5.046
 7049SOL     OW22045   2.994   1.651   2.047
 7049SOL    HW122046   2.986   1.711   1.967
 7049SOL    HW222047   3.071   1.680   2.104
 7050SOL     OW22048   3.885   4.091   1.440
 7050SOL    HW122049   3.854   4.046   1.356
 7050SOL    HW222050   3.824   4.066   1.515
 7051SOL     OW22051   6.654   6.286   0.989
 7051SOL    HW122052   6.753   6.273   0.998
 7051SOL    HW222053   6.608   6.199   1.009
 7052SOL     OW22054   5.745   0.563   3.590
 7052SOL    HW122055   5.804   0.484   3.606
 7052SOL    HW222056   5.668   0.560   3.653
 7053SOL     OW22057   1.763   4.073   4.337
 7053SOL    HW122058   1.742   4.144   4.270
 7053SOL    HW222059   1.810   3.997   4.292
 7054SOL     OW22060   6.960   6.929   1.639
 7054SOL    HW122061   6.948   6.833   1.617
 7054SOL    HW222062   6.965   6.940   1.739
 7055SOL     OW22063   3.082   0.041   0.227
 7055SOL    HW122064   3.099   7.011   0.145
 7055SOL    HW222065   3.018   7.019   0.286
 7056SOL     OW22066   0.055   5.715   1.247
 7056SOL    HW122067   0.004   5.796   1.220
 7056SOL    HW222068   0.143   5.714   1.199
 7057SOL     OW22069   2.938   6.040   4.043
 7057SOL    HW122070   2.945   5.942   4.057
 7057SOL    HW222071   3.001   6.087   4.105
 7058SOL     OW22072   5.324   1.707   6.553
 7058SOL    HW122073   5.254   1.755   6.500
 7058SOL    HW222074   5.284   1.626   6.597
 7059SOL     OW22075   1.449   1.042   4.313
 7059SOL    HW122076   1.482   1.019   4.405
 7059SOL    HW222077   1.502   1.119   4.277
 7060SOL     OW22078   3.926   6.566   1.386
 7060SOL    HW122079   3.925   6.613   1.474
 7060SOL    HW222080   3.967   6.625   1.316
 7061SOL     OW22081   0.342   2.739   3.236
 7061SOL    HW122082   0.339   2.831   3.274
 7061SOL    HW222083   0.437   2.707   3.233
 7062SOL     OW22084   3.933   2.104   5.081
 7062SOL    HW122085   3.925   2.006   5.064
 7062SOL    HW222086   3.861   2.134   5.143
 7063SOL     OW22087   1.103   0.196   1.820
 7063SOL    HW122088   1.030   0.221   1.756
 7063SOL    HW222089   1.179   0.156   1.770
 7064SOL     OW22090   4.481   1.545   6.472
 7064SOL    HW122091   4.431   1.573   6.390
 7064SOL    HW222092   4.418   1.499   6.535
 7065SOL     OW22093   3.703   4.350   5.321
 7065SOL    HW122094   3.761   4.428   5.295
 7065SOL    HW222095   3.610   4.382   5.336
 7066SOL     OW22096   4.389   0.111   5.844
 7066SOL    HW122097   4.456   0.179   5.876
 7066SOL    HW222098   4.387   0.111   5.744
 7067SOL     OW22099   1.140   3.134   6.665
 7067SOL    HW122100   1.194   3.217   6.671
 7067SOL    HW222101   1.200   3.056   6.644
 7068SOL     OW22102   5.734   4.337   4.357
 7068SOL    HW122103   5.780   4.402   4.296
 7068SOL    HW222104   5.705   4.257   4.305
 7069SOL     OW22105   5.868   1.708   5.311
 7069SOL    HW122106   5.930   1.630   5.311
 7069SOL    HW222107   5.840   1.728   5.405
 7070SOL     OW22108   1.169   6.428   4.168
 7070SOL    HW122109   1.128   6.520   4.169
 7070SOL    HW222110   1.225   6.417   4.087
 7071SOL     OW22111   4.803   5.901   6.505
 7071SOL    HW122112   4.728   5.887   6.570
 7071SOL    HW222113   4.854   5.983   6.531
 7072SOL     OW22114   2.208   5.017   7.025
 7072SOL    HW122115   2.291   5.038   0.051
 7072SOL    HW222116   2.131   5.007   0.061
 7073SOL     OW22117   3.542   0.123   3.157
 7073SOL    HW122118   3.523   0.197   3.222
 7073SOL    HW222119   3.624   0.073   3.187
 7074SOL     OW22120   6.528   3.534   3.450
 7074SOL    HW122121   6.603   3.505   3.391
 7074SOL    HW222122   6.442   3.494   3.417
 7075SOL     OW22123   2.717   5.181   4.660
 7075SOL    HW122124   2.663   5.209   4.580
 7075SOL    HW222125   2.807   5.223   4.656
 7076SOL     OW22126   5.938   2.817   0.899
 7076SOL    HW122127   6.017   2.767   0.934
 7076SOL    HW222128   5.875   2.836   0.975
 7077SOL     OW22129   2.383   4.332   2.754
 7077SOL    HW122130   2.375   4.250   2.696
 7077SOL    HW222131   2.364   4.413   2.700
 7078SOL     OW22132   6.124   6.123   0.873
 7078SOL    HW122133   6.144   6.201   0.933
 7078SOL    HW222134   6.085   6.049   0.928
 7079SOL     OW22135   1.108   6.927   4.102
 7079SOL    HW122136   1.152   6.878   4.028
 7079SOL    HW222137   1.120   7.026   4.089
 7080SOL     OW22138   3.921   1.892   3.990
 7080SOL    HW122139   3.921   1.819   4.059
 7080SOL    HW222140   3.957   1.976   4.031
 7081SOL     OW22141   1.309   6.128   0.345
 7081SOL    HW122142   1.262   6.091   0.425
 7081SOL    HW222143   1.406   6.105   0.350
 7082SOL     OW22144   6.861   3.925   1.026
 7082SOL    HW122145   6.861   3.937   1.125
 7082SOL    HW222146   6.860   4.014   0.981
 7083SOL     OW22147   0.281   1.823   2.909
 7083SOL    HW122148   0.352   1.885   2.875
 7083SOL    HW222149   0.237   1.864   2.989
 7084SOL     OW22150   0.641   5.600   5.566
 7084SOL    HW122151   0.615   5.567   5.475
 7084SOL    HW222152   0.685   5.690   5.558
 7085SOL     OW22153   6.433   2.595   2.688
 7085SOL    HW122154   6.484   2.576   2.772
 7085SOL    HW222155   6.454   2.525   2.620
 7086SOL     OW22156   5.812   0.464   6.811
 7086SOL    HW122157   5.726   0.516   6.817
 7086SOL    HW222158   5.805   0.396   6.739
 7087SOL     OW22159   5.440   3.518   2.461
 7087SOL    HW122160   5.476   3.448   2.523
 7087SOL    HW222161   5.381   3.475   2.393
 7088SOL     OW22162   5.115   2.245   5.719
 7088SOL    HW122163   5.043   2.312   5.740
 7088SOL    HW222164   5.158   2.214   5.803
 7089SOL     OW22165   2.568   4.941   2.677
 7089SOL    HW122166   2.658   4.969   2.641
 7089SOL    HW222167   2.515   5.022   2.700
 7090SOL     OW22168   2.580   1.763   0.664
 7090SOL    HW122169   2.577   1.730   0.570
 7090SOL    HW222170   2.494   1.808   0.687
 7091SOL     OW22171   0.890   0.835   1.521
 7091SOL    HW122172   0.989   0.845   1.524
 7091SOL    HW222173   0.862   0.755   1.574
 7092SOL     OW22174   3.991   2.689   6.038
 7092SOL    HW122175   3.976   2.787   6.023
 7092SOL    HW222176   4.008   2.645   5.950
 7093SOL     OW22177   3.340   3.299   1.600
 7093SOL    HW122178   3.248   3.329   1.628
 7093SOL    HW222179   3.362   3.213   1.646
 7094SOL     OW22180   1.531   6.941   5.449
 7094SOL    HW122181   1.478   6.862   5.479
 7094SOL    HW222182   1.629   6.920   5.452
 7095SOL     OW22183   3.546   4.991   5.726
 7095SOL    HW122184   3.547   5.067   5.791
 7095SOL    HW222185   3.640   4.961   5.708
 7096SOL     OW22186   6.907   0.534   2.054
 7096SOL    HW122187   6.935   0.454   2.107
 7096SOL    HW222188   6.989   0.585   2.026
 7097SOL     OW22189   4.790   0.807   2.143
 7097SOL    HW122190   4.743   0.748   2.208
 7097SOL    HW222191   4.741   0.808   2.057
 7098SOL     OW22192   1.497   6.394   5.826
 7098SOL    HW122193   1.569   6.363   5.763
 7098SOL    HW222194   1.538   6.450   5.898
 7099SOL     OW22195   3.700   1.762   4.226
 7099SOL    HW122196   3.623   1.719   4.179
 7099SOL    HW222197   3.785   1.718   4.198
 7100SOL     OW22198   6.765   3.111   0.843
 7100SOL    HW122199   6.727   3.086   0.933
 7100SOL    HW222200   6.701   3.171   0.796
 7101SOL     OW22201   2.614   0.359   5.482
 7101SOL    HW122202   2.633   0.379   5.386
 7101SOL    HW222203   2.699   0.363   5.534
 7102SOL     OW22204   5.614   0.255   1.338
 7102SOL    HW122205   5.687   0.229   1.401
 7102SOL    HW222206   5.654   0.288   1.253
 7103SOL     OW22207   4.845   5.559   1.989
 7103SOL    HW122208   4.878   5.550   1.895
 7103SOL    HW222209   4.879   5.484   2.044
 7104SOL     OW22210   5.316   3.891   2.485
 7104SOL    HW122211   5.377   3.847   2.550
 7104SOL    HW222212   5.247   3.944   2.533
 7105SOL     OW22213   3.910   4.034   4.543
 7105SOL    HW122214   3.850   3.971   4.591
 7105SOL    HW222215   3.956   4.093   4.609
 7106SOL     OW22216   3.026   2.900   0.934
 7106SOL    HW122217   2.971   2.822   0.906
 7106SOL    HW222218   2.970   2.964   0.986
 7107SOL     OW22219   3.748   0.087   0.396
 7107SOL    HW122220   3.667   0.040   0.432
 7107SOL    HW222221   3.733   0.111   0.300
 7108SOL     OW22222   2.663   6.225   2.300
 7108SOL    HW122223   2.603   6.214   2.379
 7108SOL    HW222224   2.615   6.276   2.228
 7109SOL     OW22225   1.711   0.802   6.560
 7109SOL    HW122226   1.751   0.756   6.639
 7109SOL    HW222227   1.783   0.848   6.508
 7110SOL     OW22228   3.430   6.245   4.157
 7110SOL    HW122229   3.477   6.174   4.211
 7110SOL    HW222230   3.494   6.284   4.091
 7111SOL     OW22231   1.299   1.631   4.153
 7111SOL    HW122232   1.362   1.634   4.230
 7111SOL    HW222233   1.336   1.683   4.077
 7112SOL     OW22234   2.215   4.256   4.932
 7112SOL    HW122235   2.217   4.157   4.941
 7112SOL    HW222236   2.251   4.283   4.843
 7113SOL     OW22237   3.298   4.762   5.299
 7113SOL    HW122238   3.209   4.777   5.255
 7113SOL    HW222239   3.353   4.846   5.292
 7114SOL     OW22240   4.201   5.581   1.470
 7114SOL    HW122241   4.287   5.573   1.419
 7114SOL    HW222242   4.154   5.493   1.468
 7115SOL     OW22243   5.634   3.743   6.948
 7115SOL    HW122244   5.654   3.705   0.012
 7115SOL    HW222245   5.668   3.682   6.877
 7116SOL     OW22246   5.915   4.025   3.583
 7116SOL    HW122247   5.863   4.110   3.590
 7116SOL    HW222248   5.877   3.967   3.512
 7117SOL     OW22249   6.835   7.003   3.972
 7117SOL    HW122250   6.788   6.917   3.950
 7117SOL    HW222251   6.905   6.986   4.041
 7118SOL     OW22252   3.987   4.177   5.386
 7118SOL    HW122253   4.038   4.264   5.391
 7118SOL    HW222254   3.889   4.196   5.380
 7119SOL     OW22255   5.352   0.937   5.098
 7119SOL    HW122256   5.288   0.934   5.175
 7119SOL    HW222257   5.335   0.861   5.037
 7120SOL     OW22258   4.677   1.492   1.300
 7120SOL    HW122259   4.620   1.411   1.290
 7120SOL    HW222260   4.621   1.574   1.286
 7121SOL     OW22261   0.406   6.234   2.957
 7121SOL    HW122262   0.355   6.283   2.886
 7121SOL    HW222263   0.443   6.300   3.022
 7122SOL     OW22264   1.996   0.052   5.898
 7122SOL    HW122265   2.056   0.056   5.818
 7122SOL    HW222266   1.907   0.090   5.876
 7123SOL     OW22267   6.761   5.184   4.053
 7123SOL    HW122268   6.819   5.182   3.971
 7123SOL    HW222269   6.742   5.279   4.079
 7124SOL     OW22270   0.454   2.114   1.571
 7124SOL    HW122271   0.367   2.116   1.619
 7124SOL    HW222272   0.524   2.160   1.626
 7125SOL     OW22273   1.184   1.257   1.580
 7125SOL    HW122274   1.121   1.202   1.634
 7125SOL    HW222275   1.252   1.197   1.537
 7126SOL     OW22276   4.372   5.883   0.592
 7126SOL    HW122277   4.378   5.977   0.626
 7126SOL    HW222278   4.289   5.872   0.537
 7127SOL     OW22279   2.669   6.391   5.823
 7127SOL    HW122280   2.571   6.373   5.822
 7127SOL    HW222281   2.709   6.362   5.736
 7128SOL     OW22282   3.960   3.819   6.939
 7128SOL    HW122283   3.992   3.914   6.941
 7128SOL    HW222284   4.012   3.768   6.870
 7129SOL     OW22285   0.959   1.272   1.385
 7129SOL    HW122286   1.022   1.267   1.463
 7129SOL    HW222287   1.012   1.283   1.301
 7130SOL     OW22288   3.701   0.347   4.487
 7130SOL    HW122289   3.668   0.376   4.397
 7130SOL    HW222290   3.764   0.271   4.477
 7131SOL     OW22291   3.169   1.405   2.019
 7131SOL    HW122292   3.188   1.436   1.926
 7131SOL    HW222293   3.124   1.478   2.071
 7132SOL     OW22294   5.304   4.364   0.244
 7132SOL    HW122295   5.381   4.300   0.239
 7132SOL    HW222296   5.336   4.451   0.282
 7133SOL     OW22297   4.341   5.112   4.096
 7133SOL    HW122298   4.246   5.108   4.126
 7133SOL    HW222299   4.353   5.189   4.033
 7134SOL     OW22300   5.326   6.429   1.888
 7134SOL    HW122301   5.411   6.420   1.835
 7134SOL    HW222302   5.343   6.485   1.968
 7135SOL     OW22303   2.121   2.871   2.254
 7135SOL    HW122304   2.166   2.883   2.165
 7135SOL    HW222305   2.073   2.955   2.279
 7136SOL     OW22306   2.218   1.739   1.199
 7136SOL    HW122307   2.302   1.740   1.144
 7136SOL    HW222308   2.232   1.681   1.279
 7137SOL     OW22309   2.987   1.484   0.708
 7137SOL    HW122310   2.948   1.545   0.776
 7137SOL    HW222311   2.991   1.391   0.744
 7138SOL     OW22312   2.075   1.088   1.456
 7138SOL    HW122313   2.002   1.025   1.428
 7138SOL    HW222314   2.159   1.066   1.406
 7139SOL     OW22315   4.778   4.928   1.927
 7139SOL    HW122316   4.807   5.016   1.890
 7139SOL    HW222317   4.835   4.855   1.888
 7140SOL     OW22318   6.023   4.992   1.050
 7140SOL    HW122319   5.984   4.900   1.053
 7140SOL    HW222320   6.051   5.020   1.142
 7141SOL     OW22321   4.441   6.846   1.447
 7141SOL    HW122322   4.398   6.757   1.432
 7141SOL    HW222323   4.429   6.873   1.543
 7142SOL     OW22324   3.594   0.632   4.029
 7142SOL    HW122325   3.687   0.645   3.996
 7142SOL    HW222326   3.529   0.644   3.953
 7143SOL     OW22327   1.296   4.063   6.976
 7143SOL    HW122328   1.196   4.068   6.977
 7143SOL    HW222329   1.329   4.076   6.883
 7144SOL     OW22330   0.408   1.197   4.036
 7144SOL    HW122331   0.470   1.275   4.051
 7144SOL    HW222332   0.327   1.228   3.987
 7145SOL     OW22333   4.363   0.870   6.741
 7145SOL    HW122334   4.456   0.833   6.748
 7145SOL    HW222335   4.342   0.922   6.824
 7146SOL     OW22336   1.974   1.631   6.042
 7146SOL    HW122337   1.994   1.652   5.946
 7146SOL    HW222338   1.931   1.711   6.084
 7147SOL     OW22339   6.128   5.732   3.538
 7147SOL    HW122340   6.041   5.725   3.489
 7147SOL    HW222341   6.111   5.724   3.636
 7148SOL     OW22342   6.076   5.389   1.248
 7148SOL    HW122343   6.109   5.300   1.216
 7148SOL    HW222344   6.040   5.441   1.170
 7149SOL     OW22345   6.777   5.254   3.677
 7149SOL    HW122346   6.713   5.199   3.622
 7149SOL    HW222347   6.833   5.310   3.615
 7150SOL     OW22348   4.356   3.133   0.283
 7150SOL    HW122349   4.311   3.115   0.370
 7150SOL    HW222350   4.346   3.230   0.260
 7151SOL     OW22351   3.479   6.554   0.985
 7151SOL    HW122352   3.523   6.640   1.010
 7151SOL    HW222353   3.420   6.568   0.906
 7152SOL     OW22354   6.189   0.813   6.387
 7152SOL    HW122355   6.234   0.751   6.323
 7152SOL    HW222356   6.148   0.889   6.337
 7153SOL     OW22357   3.408   5.040   2.134
 7153SOL    HW122358   3.507   5.043   2.118
 7153SOL    HW222359   3.361   5.024   2.047
 7154SOL     OW22360   3.967   0.773   3.034
 7154SOL    HW122361   4.001   0.730   3.117
 7154SOL    HW222362   3.904   0.847   3.058
 7155SOL     OW22363   2.569   2.385   1.176
 7155SOL    HW122364   2.509   2.383   1.256
 7155SOL    HW222365   2.549   2.306   1.118
 7156SOL     OW22366   4.905   3.563   2.690
 7156SOL    HW122367   4.875   3.599   2.602
 7156SOL    HW222368   4.915   3.639   2.755
 7157SOL     OW22369   6.183   4.697   1.220
 7157SOL    HW122370   6.105   4.735   1.270
 7157SOL    HW222371   6.153   4.615   1.170
 7158SOL     OW22372   6.455   0.371   3.812
 7158SOL    HW122373   6.481   0.386   3.717
 7158SOL    HW222374   6.472   0.275   3.837
 7159SOL     OW22375   0.693   4.758   4.447
 7159SOL    HW122376   0.631   4.836   4.446
 7159SOL    HW222377   0.743   4.754   4.360
 7160SOL     OW22378   5.769   6.448   2.571
 7160SOL    HW122379   5.836   6.390   2.523
 7160SOL    HW222380   5.816   6.524   2.614
 7161SOL     OW22381   3.760   3.802   2.993
 7161SOL    HW122382   3.748   3.708   2.959
 7161SOL    HW222383   3.845   3.839   2.957
 7162SOL     OW22384   0.104   4.817   0.487
 7162SOL    HW122385   0.049   4.901   0.489
 7162SOL    HW222386   0.103   4.780   0.394
 7163SOL     OW22387   1.890   1.038   2.895
 7163SOL    HW122388   1.968   1.041   2.957
 7163SOL    HW222389   1.917   0.997   2.808
 7164SOL     OW22390   2.026   1.424   4.950
 7164SOL    HW122391   2.107   1.439   5.008
 7164SOL    HW222392   2.047   1.356   4.881
 7165SOL     OW22393   6.163   5.885   1.674
 7165SOL    HW122394   6.145   5.982   1.659
 7165SOL    HW222395   6.127   5.857   1.763
 7166SOL     OW22396   5.699   0.315   6.379
 7166SOL    HW122397   5.717   0.379   6.304
 7166SOL    HW222398   5.626   0.252   6.352
 7167SOL     OW22399   5.444   2.067   5.768
 7167SOL    HW122400   5.454   2.151   5.714
 7167SOL    HW222401   5.453   1.988   5.708
 7168SOL     OW22402   3.214   1.435   2.660
 7168SOL    HW122403   3.164   1.434   2.574
 7168SOL    HW222404   3.149   1.433   2.736
 7169SOL     OW22405   1.270   4.301   5.279
 7169SOL    HW122406   1.184   4.281   5.326
 7169SOL    HW222407   1.346   4.263   5.331
 7170SOL     OW22408   4.311   0.051   2.303
 7170SOL    HW122409   4.234   0.052   2.238
 7170SOL    HW222410   4.313   0.137   2.353
 7171SOL     OW22411   5.742   4.565   1.059
 7171SOL    HW122412   5.735   4.468   1.083
 7171SOL    HW222413   5.678   4.586   0.985
 7172SOL     OW22414   1.798   1.726   5.142
 7172SOL    HW122415   1.793   1.666   5.062
 7172SOL    HW222416   1.849   1.680   5.215
 7173SOL     OW22417   6.361   5.206   6.314
 7173SOL    HW122418   6.432   5.142   6.347
 7173SOL    HW222419   6.391   5.300   6.331
 7174SOL     OW22420   6.651   4.646   1.274
 7174SOL    HW122421   6.582   4.595   1.222
 7174SOL    HW222422   6.605   4.698   1.347
 7175SOL     OW22423   6.433   3.947   5.235
 7175SOL    HW122424   6.367   3.978   5.167
 7175SOL    HW222425   6.467   3.857   5.210
 7176SOL     OW22426   0.766   1.334   4.076
 7176SOL    HW122427   0.833   1.260   4.064
 7176SOL    HW222428   0.749   1.378   3.987
 7177SOL     OW22429   2.004   5.734   5.532
 7177SOL    HW122430   2.053   5.745   5.619
 7177SOL    HW222431   1.989   5.636   5.516
 7178SOL     OW22432   0.962   0.789   5.728
 7178SOL    HW122433   1.061   0.797   5.718
 7178SOL    HW222434   0.935   0.824   5.818
 7179SOL     OW22435   2.392   4.570   5.186
 7179SOL    HW122436   2.308   4.518   5.198
 7179SOL    HW222437   2.449   4.559   5.267
 7180SOL     OW22438   2.614   4.110   1.010
 7180SOL    HW122439   2.666   4.027   0.991
 7180SOL    HW222440   2.530   4.110   0.956
 7181SOL     OW22441   2.302   1.176   6.186
 7181SOL    HW122442   2.284   1.219   6.098
 7181SOL    HW222443   2.229   1.198   6.250
 7182SOL     OW22444   1.425   4.032   3.509
 7182SOL    HW122445   1.362   4.063   3.580
 7182SOL    HW222446   1.381   3.961   3.454
 7183SOL     OW22447   1.843   5.891   2.080
 7183SOL    HW122448   1.860   5.989   2.086
 7183SOL    HW222449   1.886   5.854   1.998
 7184SOL     OW22450   5.793   1.208   3.392
 7184SOL    HW122451   5.754   1.283   3.338
 7184SOL    HW222452   5.744   1.201   3.479
 7185SOL     OW22453   5.416   1.162   5.376
 7185SOL    HW122454   5.424   1.063   5.385
 7185SOL    HW222455   5.336   1.194   5.427
 7186SOL     OW22456   0.270   0.803   0.970
 7186SOL    HW122457   0.182   0.758   0.986
 7186SOL    HW222458   0.338   0.734   0.944
 7187SOL     OW22459   3.119   3.845   5.277
 7187SOL    HW122460   3.046   3.886   5.223
 7187SOL    HW222461   3.106   3.865   5.374
 7188SOL     OW22462   4.722   4.135   0.410
 7188SOL    HW122463   4.802   4.088   0.373
 7188SOL    HW222464   4.649   4.069   0.426
 7189SOL     OW22465   6.082   3.667   5.654
 7189SOL    HW122466   6.146   3.735   5.691
 7189SOL    HW222467   6.127   3.578   5.650
 7190SOL     OW22468   5.960   5.942   0.998
 7190SOL    HW122469   5.976   5.860   1.054
 7190SOL    HW222470   5.927   5.915   0.908
 7191SOL     OW22471   0.289   4.165   3.397
 7191SOL    HW122472   0.386   4.176   3.375
 7191SOL    HW222473   0.281   4.127   3.489
 7192SOL     OW22474   1.856   4.275   6.108
 7192SOL    HW122475   1.800   4.230   6.038
 7192SOL    HW222476   1.891   4.206   6.171
 7193SOL     OW22477   2.810   1.320   2.746
 7193SOL    HW122478   2.748   1.282   2.814
 7193SOL    HW222479   2.867   1.391   2.788
 7194SOL     OW22480   1.946   2.042   7.006
 7194SOL    HW122481   2.033   2.003   0.012
 7194SOL    HW222482   1.899   2.087   0.057
 7195SOL     OW22483   6.091   4.285   6.735
 7195SOL    HW122484   6.107   4.378   6.700
 7195SOL    HW222485   6.057   4.290   6.829
 7196SOL     OW22486   3.279   3.910   2.177
 7196SOL    HW122487   3.348   3.911   2.104
 7196SOL    HW222488   3.312   3.963   2.255
 7197SOL     OW22489   1.019   4.188   5.678
 7197SOL    HW122490   1.080   4.110   5.693
 7197SOL    HW222491   0.924   4.158   5.689
 7198SOL     OW22492   0.507   0.563   0.133
 7198SOL    HW122493   0.586   0.515   0.093
 7198SOL    HW222494   0.499   0.653   0.092
 7199SOL     OW22495   1.084   6.940   2.486
 7199SOL    HW122496   1.109   0.009   2.502
 7199SOL    HW222497   1.101   6.916   2.390
 7200SOL     OW22498   2.018   3.467   0.860
 7200SOL    HW122499   1.946   3.429   0.801
 7200SOL    HW222500   2.105   3.423   0.839
 7201SOL     OW22501   0.159   5.534   4.442
 7201SOL    HW122502   0.070   5.557   4.404
 7201SOL    HW222503   0.153   5.448   4.491
 7202SOL     OW22504   5.315   0.457   5.719
 7202SOL    HW122505   5.338   0.551   5.692
 7202SOL    HW222506   5.308   0.400   5.638
 7203SOL     OW22507   1.172   0.816   1.650
 7203SOL    HW122508   1.267   0.839   1.632
 7203SOL    HW222509   1.167   0.728   1.697
 7204SOL     OW22510   5.970   1.496   0.148
 7204SOL    HW122511   5.994   1.563   0.218
 7204SOL    HW222512   6.053   1.454   0.112
 7205SOL     OW22513   1.404   3.239   4.566
 7205SOL    HW122514   1.331   3.248   4.635
 7205SOL    HW222515   1.486   3.285   4.598
 7206SOL     OW22516   1.077   1.568   1.405
 7206SOL    HW122517   1.158   1.512   1.388
 7206SOL    HW222518   1.033   1.591   1.318
 7207SOL     OW22519   3.095   1.447   3.674
 7207SOL    HW122520   3.061   1.484   3.761
 7207SOL    HW222521   3.195   1.454   3.671
 7208SOL     OW22522   4.739   0.184   3.961
 7208SOL    HW122523   4.745   0.139   3.872
 7208SOL    HW222524   4.828   0.183   4.005
 7209SOL     OW22525   2.001   2.418   2.225
 7209SOL    HW122526   1.910   2.443   2.259
 7209SOL    HW222527   2.070   2.477   2.267
 7210SOL     OW22528   3.759   1.879   3.334
 7210SOL    HW122529   3.843   1.825   3.322
 7210SOL    HW222530   3.720   1.899   3.245
 7211SOL     OW22531   2.996   6.107   5.031
 7211SOL    HW122532   3.027   6.118   5.125
 7211SOL    HW222533   2.911   6.055   5.029
 7212SOL     OW22534   6.968   6.451   6.310
 7212SOL    HW122535   6.900   6.395   6.356
 7212SOL    HW222536   7.002   6.521   6.373
 7213SOL     OW22537   3.742   6.574   6.559
 7213SOL    HW122538   3.817   6.512   6.537
 7213SOL    HW222539   3.662   6.521   6.586
 7214SOL     OW22540   0.083   0.942   5.796
 7214SOL    HW122541   0.047   0.992   5.717
 7214SOL    HW222542   0.137   1.003   5.852
 7215SOL     OW22543   6.460   2.852   4.331
 7215SOL    HW122544   6.431   2.758   4.353
 7215SOL    HW222545   6.380   2.911   4.325
 7216SOL     OW22546   3.044   6.007   1.969
 7216SOL    HW122547   2.973   6.027   2.037
 7216SOL    HW222548   3.024   6.056   1.884
 7217SOL     OW22549   1.577   4.153   3.319
 7217SOL    HW122550   1.533   4.101   3.393
 7217SOL    HW222551   1.671   4.174   3.343
 7218SOL     OW22552   0.387   3.452   3.656
 7218SOL    HW122553   0.294   3.475   3.626
 7218SOL    HW222554   0.381   3.398   3.741
 7219SOL     OW22555   3.500   0.078   1.486
 7219SOL    HW122556   3.480   0.059   1.582
 7219SOL    HW222557   3.571   0.014   1.454
 7220SOL     OW22558   6.612   4.750   4.041
 7220SOL    HW122559   6.550   4.820   4.075
 7220SOL    HW222560   6.573   4.660   4.058
 7221SOL     OW22561   3.279   5.984   4.623
 7221SOL    HW122562   3.270   5.992   4.722
 7221SOL    HW222563   3.342   6.054   4.589
 7222SOL     OW22564   5.393   0.237   3.158
 7222SOL    HW122565   5.363   0.245   3.253
 7222SOL    HW222566   5.424   0.326   3.125
 7223SOL     OW22567   2.748   0.764   0.651
 7223SOL    HW122568   2.833   0.815   0.639
 7223SOL    HW222569   2.702   0.794   0.735
 7224SOL     OW22570   4.650   2.239   4.529
 7224SOL    HW122571   4.606   2.329   4.528
 7224SOL    HW222572   4.589   2.172   4.572
 7225SOL     OW22573   2.011   6.610   1.064
 7225SOL    HW122574   2.085   6.638   1.002
 7225SOL    HW222575   1.939   6.566   1.012
 7226SOL     OW22576   6.162   0.538   1.338
 7226SOL    HW122577   6.195   0.632   1.338
 7226SOL    HW222578   6.229   0.479   1.381
 7227SOL     OW22579   2.720   1.415   1.837
 7227SOL    HW122580   2.690   1.459   1.753
 7227SOL    HW222581   2.733   1.484   1.909
 7228SOL     OW22582   0.819   1.404   3.494
 7228SOL    HW122583   0.801   1.370   3.585
 7228SOL    HW222584   0.891   1.350   3.451
 7229SOL     OW22585   0.151   6.825   4.795
 7229SOL    HW122586   0.159   6.924   4.808
 7229SOL    HW222587   0.153   6.804   4.698
 7230SOL     OW22588   2.872   5.495   3.484
 7230SOL    HW122589   2.925   5.512   3.401
 7230SOL    HW222590   2.842   5.400   3.485
 7231SOL     OW22591   4.122   0.845   0.762
 7231SOL    HW122592   4.093   0.832   0.857
 7231SOL    HW222593   4.044   0.833   0.701
 7232SOL     OW22594   4.586   6.367   2.589
 7232SOL    HW122595   4.491   6.336   2.578
 7232SOL    HW222596   4.638   6.297   2.636
 7233SOL     OW22597   1.356   1.035   5.149
 7233SOL    HW122598   1.390   0.968   5.215
 7233SOL    HW222599   1.350   0.993   5.058
 7234SOL     OW22600   5.514   3.185   2.731
 7234SOL    HW122601   5.516   3.285   2.733
 7234SOL    HW222602   5.487   3.153   2.640
 7235SOL     OW22603   6.307   5.131   1.560
 7235SOL    HW122604   6.319   5.039   1.597
 7235SOL    HW222605   6.256   5.187   1.625
 7236SOL     OW22606   2.126   2.369   2.633
 7236SOL    HW122607   2.198   2.347   2.567
 7236SOL    HW222608   2.040   2.386   2.586
 7237SOL     OW22609   4.154   6.808   6.449
 7237SOL    HW122610   4.081   6.750   6.416
 7237SOL    HW222611   4.179   6.874   6.378
 7238SOL     OW22612   4.567   2.394   6.548
 7238SOL    HW122613   4.649   2.400   6.606
 7238SOL    HW222614   4.517   2.480   6.552
 7239SOL     OW22615   1.096   2.821   2.051
 7239SOL    HW122616   1.096   2.764   2.133
 7239SOL    HW222617   1.190   2.840   2.023
 7240SOL     OW22618   6.469   1.640   6.916
 7240SOL    HW122619   6.434   1.585   6.992
 7240SOL    HW222620   6.549   1.595   6.877
 7241SOL     OW22621   2.722   6.811   0.583
 7241SOL    HW122622   2.667   6.860   0.516
 7241SOL    HW222623   2.674   6.811   0.671
 7242SOL     OW22624   7.022   5.403   5.234
 7242SOL    HW122625   6.975   5.467   5.295
 7242SOL    HW222626   6.970   5.392   5.150
 7243SOL     OW22627   0.084   4.477   6.369
 7243SOL    HW122628   0.010   4.429   6.416
 7243SOL    HW222629   0.109   4.426   6.286
 7244SOL     OW22630   0.043   0.604   1.063
 7244SOL    HW122631   0.015   0.678   1.124
 7244SOL    HW222632   6.998   0.534   1.060
 7245SOL     OW22633   1.283   2.498   5.154
 7245SOL    HW122634   1.338   2.414   5.148
 7245SOL    HW222635   1.193   2.483   5.114
 7246SOL     OW22636   1.855   0.711   3.788
 7246SOL    HW122637   1.769   0.662   3.772
 7246SOL    HW222638   1.923   0.683   3.720
 7247SOL     OW22639   2.968   2.132   5.531
 7247SOL    HW122640   2.953   2.094   5.439
 7247SOL    HW222641   2.886   2.118   5.586
 7248SOL     OW22642   3.072   0.945   3.256
 7248SOL    HW122643   3.057   1.042   3.239
 7248SOL    HW222644   3.054   0.893   3.172
 7249SOL     OW22645   4.648   5.157   1.822
 7249SOL    HW122646   4.726   5.216   1.801
 7249SOL    HW222647   4.612   5.118   1.738
 7250SOL     OW22648   5.027   5.265   5.930
 7250SOL    HW122649   5.096   5.299   5.993
 7250SOL    HW222650   5.068   5.251   5.840
 7251SOL     OW22651   1.041   0.355   4.942
 7251SOL    HW122652   1.060   0.399   4.854
 7251SOL    HW222653   1.121   0.302   4.970
 7252SOL     OW22654   2.945   3.645   1.738
 7252SOL    HW122655   3.041   3.627   1.757
 7252SOL    HW222656   2.896   3.558   1.730
 7253SOL     OW22657   2.100   5.933   6.707
 7253SOL    HW122658   2.096   6.017   6.653
 7253SOL    HW222659   2.009   5.891   6.710
 7254SOL     OW22660   5.294   5.503   4.548
 7254SOL    HW122661   5.364   5.440   4.514
 7254SOL    HW222662   5.336   5.571   4.608
 7255SOL     OW22663   4.525   3.573   6.930
 7255SOL    HW122664   4.513   3.474   6.924
 7255SOL    HW222665   4.613   3.592   6.974
 7256SOL     OW22666   3.489   6.262   5.689
 7256SOL    HW122667   3.487   6.304   5.598
 7256SOL    HW222668   3.575   6.211   5.700
 7257SOL     OW22669   0.830   2.085   3.582
 7257SOL    HW122670   0.769   2.056   3.655
 7257SOL    HW222671   0.898   2.014   3.565
 7258SOL     OW22672   5.484   2.257   2.801
 7258SOL    HW122673   5.385   2.266   2.808
 7258SOL    HW222674   5.507   2.195   2.727
 7259SOL     OW22675   1.229   3.184   2.250
 7259SOL    HW122676   1.219   3.189   2.349
 7259SOL    HW222677   1.162   3.244   2.206
 7260SOL     OW22678   5.331   1.798   1.923
 7260SOL    HW122679   5.280   1.821   1.840
 7260SOL    HW222680   5.370   1.881   1.963
 7261SOL     OW22681   0.782   4.473   1.167
 7261SOL    HW122682   0.721   4.501   1.093
 7261SOL    HW222683   0.867   4.438   1.128
 7262SOL     OW22684   5.220   1.943   6.701
 7262SOL    HW122685   5.312   1.979   6.685
 7262SOL    HW222686   5.226   1.845   6.720
 7263SOL     OW22687   0.609   6.392   0.091
 7263SOL    HW122688   0.538   6.416   0.025
 7263SOL    HW222689   0.614   6.293   0.101
 7264SOL     OW22690   5.409   0.906   0.686
 7264SOL    HW122691   5.386   0.892   0.782
 7264SOL    HW222692   5.334   0.872   0.629
 7265SOL     OW22693   5.548   4.543   5.522
 7265SOL    HW122694   5.517   4.451   5.545
 7265SOL    HW222695   5.629   4.537   5.462
 7266SOL     OW22696   6.179   1.469   2.993
 7266SOL    HW122697   6.080   1.467   3.008
 7266SOL    HW222698   6.225   1.503   3.075
 7267SOL     OW22699   6.495   6.854   4.672
 7267SOL    HW122700   6.503   6.853   4.772
 7267SOL    HW222701   6.437   6.931   4.645
 7268SOL     OW22702   0.072   6.285   4.424
 7268SOL    HW122703   0.120   6.327   4.501
 7268SOL    HW222704   0.070   6.349   4.347
 7269SOL     OW22705   1.999   6.174   6.206
 7269SOL    HW122706   1.980   6.243   6.136
 7269SOL    HW222707   1.922   6.167   6.268
 7270SOL     OW22708   0.216   2.969   4.812
 7270SOL    HW122709   0.238   3.066   4.818
 7270SOL    HW222710   0.127   2.958   4.767
 7271SOL     OW22711   1.620   4.887   4.504
 7271SOL    HW122712   1.694   4.912   4.566
 7271SOL    HW222713   1.547   4.955   4.510
 7272SOL     OW22714   5.942   5.823   2.484
 7272SOL    HW122715   6.003   5.753   2.446
 7272SOL    HW222716   5.867   5.840   2.420
 7273SOL     OW22717   5.978   4.137   0.740
 7273SOL    HW122718   5.902   4.075   0.717
 7273SOL    HW222719   6.006   4.122   0.834
 7274SOL     OW22720   0.214   4.835   6.893
 7274SOL    HW122721   0.236   4.737   6.884
 7274SOL    HW222722   0.261   4.886   6.821
 7275SOL     OW22723   0.132   5.940   2.847
 7275SOL    HW122724   0.074   6.000   2.792
 7275SOL    HW222725   0.153   5.985   2.934
 7276SOL     OW22726   5.189   0.774   3.511
 7276SOL    HW122727   5.145   0.850   3.558
 7276SOL    HW222728   5.129   0.694   3.513
 7277SOL     OW22729   5.420   0.477   4.277
 7277SOL    HW122730   5.384   0.415   4.346
 7277SOL    HW222731   5.497   0.434   4.230
 7278SOL     OW22732   3.310   2.799   1.509
 7278SOL    HW122733   3.328   2.779   1.605
 7278SOL    HW222734   3.392   2.781   1.455
 7279SOL     OW22735   4.387   4.704   6.056
 7279SOL    HW122736   4.406   4.643   5.979
 7279SOL    HW222737   4.367   4.650   6.138
 7280SOL     OW22738   0.229   1.208   3.616
 7280SOL    HW122739   0.263   1.286   3.564
 7280SOL    HW222740   0.138   1.183   3.583
 7281SOL     OW22741   2.998   1.882   6.909
 7281SOL    HW122742   3.054   1.952   6.865
 7281SOL    HW222743   3.049   1.838   6.982
 7282SOL     OW22744   5.643   4.868   2.938
 7282SOL    HW122745   5.676   4.867   2.844
 7282SOL    HW222746   5.557   4.918   2.942
 7283SOL     OW22747   3.963   1.640   3.038
 7283SOL    HW122748   3.923   1.569   3.095
 7283SOL    HW222749   4.048   1.674   3.080
 7284SOL     OW22750   0.620   3.200   6.260
 7284SOL    HW122751   0.685   3.255   6.208
 7284SOL    HW222752   0.644   3.203   6.357
 7285SOL     OW22753   5.215   3.322   2.658
 7285SOL    HW122754   5.255   3.249   2.602
 7285SOL    HW222755   5.116   3.324   2.645
 7286SOL     OW22756   3.077   0.786   0.210
 7286SOL    HW122757   3.009   0.713   0.220
 7286SOL    HW222758   3.054   0.842   0.131
 7287SOL     OW22759   0.248   2.384   6.003
 7287SOL    HW122760   0.266   2.301   6.056
 7287SOL    HW222761   0.165   2.371   5.948
 7288SOL     OW22762   3.171   0.426   0.433
 7288SOL    HW122763   3.199   0.336   0.466
 7288SOL    HW222764   3.115   0.471   0.502
 7289SOL     OW22765   5.325   2.110   4.231
 7289SOL    HW122766   5.307   2.195   4.281
 7289SOL    HW222767   5.391   2.055   4.282
 7290SOL     OW22768   3.660   0.764   5.647
 7290SOL    HW122769   3.585   0.769   5.713
 7290SOL    HW222770   3.657   0.676   5.600
 7291SOL     OW22771   1.847   6.478   0.911
 7291SOL    HW122772   1.821   6.485   0.815
 7291SOL    HW222773   1.916   6.406   0.922
 7292SOL     OW22774   3.027   1.232   3.321
 7292SOL    HW122775   2.950   1.286   3.356
 7292SOL    HW222776   3.056   1.268   3.232
 7293SOL     OW22777   1.376   2.236   5.206
 7293SOL    HW122778   1.475   2.233   5.224
 7293SOL    HW222779   1.333   2.154   5.245
 7294SOL     OW22780   2.358   4.854   6.854
 7294SOL    HW122781   2.282   4.889   6.909
 7294SOL    HW222782   2.431   4.821   6.915
 7295SOL     OW22783   0.588   2.213   0.744
 7295SOL    HW122784   0.636   2.247   0.664
 7295SOL    HW222785   0.620   2.262   0.825
 7296SOL     OW22786   2.808   5.261   1.520
 7296SOL    HW122787   2.751   5.187   1.487
 7296SOL    HW222788   2.809   5.262   1.620
 7297SOL     OW22789   3.723   6.248   1.108
 7297SOL    HW122790   3.672   6.271   1.026
 7297SOL    HW222791   3.662   6.203   1.174
 7298SOL     OW22792   4.700   4.555   5.160
 7298SOL    HW122793   4.796   4.543   5.188
 7298SOL    HW222794   4.697   4.606   5.074
 7299SOL     OW22795   0.264   1.631   0.314
 7299SOL    HW122796   0.299   1.656   0.405
 7299SOL    HW222797   0.296   1.539   0.290
 7300SOL     OW22798   6.419   5.861   2.877
 7300SOL    HW122799   6.474   5.778   2.887
 7300SOL    HW222800   6.371   5.879   2.963
 7301SOL     OW22801   5.891   1.574   4.575
 7301SOL    HW122802   5.898   1.558   4.476
 7301SOL    HW222803   5.916   1.669   4.595
 7302SOL     OW22804   0.620   1.848   5.601
 7302SOL    HW122805   0.687   1.922   5.609
 7302SOL    HW222806   0.618   1.816   5.506
 7303SOL     OW22807   4.269   0.196   0.021
 7303SOL    HW122808   4.256   0.130   0.095
 7303SOL    HW222809   4.273   0.149   6.960
 7304SOL     OW22810   3.885   4.835   0.864
 7304SOL    HW122811   3.887   4.756   0.803
 7304SOL    HW222812   3.816   4.900   0.833
 7305SOL     OW22813   4.840   0.744   0.180
 7305SOL    HW122814   4.871   0.839   0.171
 7305SOL    HW222815   4.861   0.711   0.272
 7306SOL     OW22816   4.997   2.306   1.902
 7306SOL    HW122817   5.085   2.337   1.868
 7306SOL    HW222818   4.949   2.255   1.831
 7307SOL     OW22819   2.294   6.957   2.481
 7307SOL    HW122820   2.272   0.017   2.434
 7307SOL    HW222821   2.381   6.967   2.529
 7308SOL     OW22822   0.047   3.501   6.081
 7308SOL    HW122823   0.022   3.422   6.025
 7308SOL    HW222824   0.084   3.470   6.168
 7309SOL     OW22825   4.815   5.780   1.171
 7309SOL    HW122826   4.827   5.750   1.266
 7309SOL    HW222827   4.891   5.839   1.145
 7310SOL     OW22828   2.182   3.814   1.542
 7310SOL    HW122829   2.241   3.805   1.622
 7310SOL    HW222830   2.089   3.834   1.572
 7311SOL     OW22831   3.536   1.977   1.823
 7311SOL    HW122832   3.596   1.997   1.746
 7311SOL    HW222833   3.545   2.049   1.892
 7312SOL     OW22834   0.321   3.558   5.522
 7312SOL    HW122835   0.356   3.487   5.583
 7312SOL    HW222836   0.349   3.648   5.557
 7313SOL     OW22837   2.824   1.416   6.469
 7313SOL    HW122838   2.791   1.487   6.531
 7313SOL    HW222839   2.839   1.332   6.520
 7314SOL     OW22840   6.860   5.463   5.660
 7314SOL    HW122841   6.836   5.375   5.619
 7314SOL    HW222842   6.790   5.531   5.637
 7315SOL     OW22843   6.797   0.657   2.362
 7315SOL    HW122844   6.700   0.665   2.382
 7315SOL    HW222845   6.811   0.591   2.288
 7316SOL     OW22846   3.192   4.284   6.821
 7316SOL    HW122847   3.269   4.346   6.835
 7316SOL    HW222848   3.175   4.273   6.724
 7317SOL     OW22849   5.138   0.930   2.933
 7317SOL    HW122850   5.123   1.021   2.971
 7317SOL    HW222851   5.176   0.938   2.841
 7318SOL     OW22852   1.423   0.977   0.925
 7318SOL    HW122853   1.335   0.939   0.897
 7318SOL    HW222854   1.436   1.067   0.883
 7319SOL     OW22855   6.551   4.433   6.435
 7319SOL    HW122856   6.565   4.342   6.474
 7319SOL    HW222857   6.570   4.429   6.337
 7320SOL     OW22858   6.255   3.645   2.059
 7320SOL    HW122859   6.309   3.634   2.143
 7320SOL    HW222860   6.295   3.589   1.986
 7321SOL     OW22861   2.351   0.271   5.493
 7321SOL    HW122862   2.444   0.290   5.523
 7321SOL    HW222863   2.352   0.196   5.427
 7322SOL     OW22864   6.666   2.468   3.776
 7322SOL    HW122865   6.658   2.411   3.694
 7322SOL    HW222866   6.752   2.448   3.822
 7323SOL     OW22867   2.043   1.989   2.074
 7323SOL    HW122868   2.079   2.026   1.988
 7323SOL    HW222869   2.092   2.030   2.151
 7324SOL     OW22870   4.789   6.344   2.388
 7324SOL    HW122871   4.758   6.413   2.453
 7324SOL    HW222872   4.889   6.344   2.384
 7325SOL     OW22873   3.562   6.352   0.418
 7325SOL    HW122874   3.520   6.437   0.448
 7325SOL    HW222875   3.590   6.298   0.497
 7326SOL     OW22876   3.030   5.935   5.714
 7326SOL    HW122877   3.120   5.944   5.756
 7326SOL    HW222878   2.962   5.984   5.769
 7327SOL     OW22879   6.114   2.162   6.168
 7327SOL    HW122880   6.048   2.237   6.169
 7327SOL    HW222881   6.199   2.192   6.211
 7328SOL     OW22882   3.406   0.251   6.385
 7328SOL    HW122883   3.441   0.291   6.301
 7328SOL    HW222884   3.309   0.228   6.373
 7329SOL     OW22885   5.775   4.271   1.075
 7329SOL    HW122886   5.720   4.187   1.075
 7329SOL    HW222887   5.867   4.250   1.044
 7330SOL     OW22888   2.649   2.181   6.908
 7330SOL    HW122889   2.711   2.105   6.926
 7330SOL    HW222890   2.700   2.257   6.868
 7331SOL     OW22891   5.769   0.030   2.239
 7331SOL    HW122892   5.773   0.044   2.337
 7331SOL    HW222893   5.803   0.112   2.192
 7332SOL     OW22894   2.154   6.084   0.869
 7332SOL    HW122895   2.096   6.150   0.916
 7332SOL    HW222896   2.117   5.992   0.881
 7333SOL     OW22897   0.570   2.370   2.442
 7333SOL    HW122898   0.541   2.462   2.467
 7333SOL    HW222899   0.590   2.366   2.345
 7334SOL     OW22900   3.191   5.554   6.772
 7334SOL    HW122901   3.133   5.473   6.771
 7334SOL    HW222902   3.165   5.615   6.697
 7335SOL     OW22903   1.472   2.694   3.114
 7335SOL    HW122904   1.501   2.680   3.019
 7335SOL    HW222905   1.488   2.789   3.140
 7336SOL     OW22906   1.305   6.749   3.137
 7336SOL    HW122907   1.255   6.664   3.153
 7336SOL    HW222908   1.312   6.766   3.039
 7337SOL     OW22909   0.086   3.448   1.593
 7337SOL    HW122910   0.177   3.448   1.635
 7337SOL    HW222911   0.068   3.537   1.553
 7338SOL     OW22912   6.352   2.400   1.380
 7338SOL    HW122913   6.430   2.345   1.410
 7338SOL    HW222914   6.268   2.362   1.419
 7339SOL     OW22915   5.920   6.627   3.395
 7339SOL    HW122916   5.832   6.626   3.443
 7339SOL    HW222917   5.907   6.598   3.300
 7340SOL     OW22918   2.482   0.819   1.127
 7340SOL    HW122919   2.388   0.847   1.111
 7340SOL    HW222920   2.483   0.740   1.188
 7341SOL     OW22921   6.647   2.811   6.763
 7341SOL    HW122922   6.589   2.883   6.724
 7341SOL    HW222923   6.734   2.850   6.793
 7342SOL     OW22924   6.985   1.615   1.761
 7342SOL    HW122925   6.931   1.624   1.677
 7342SOL    HW222926   0.054   1.635   1.741
 7343SOL     OW22927   5.437   3.595   0.186
 7343SOL    HW122928   5.407   3.574   0.279
 7343SOL    HW222929   5.360   3.585   0.123
 7344SOL     OW22930   0.247   1.091   6.743
 7344SOL    HW122931   0.253   0.997   6.709
 7344SOL    HW222932   0.152   1.112   6.765
 7345SOL     OW22933   4.669   3.794   5.311
 7345SOL    HW122934   4.754   3.803   5.363
 7345SOL    HW222935   4.677   3.720   5.245
 7346SOL     OW22936   4.209   5.815   2.397
 7346SOL    HW122937   4.257   5.844   2.314
 7346SOL    HW222938   4.153   5.891   2.431
 7347SOL     OW22939   1.077   1.820   0.737
 7347SOL    HW122940   1.010   1.762   0.690
 7347SOL    HW222941   1.073   1.803   0.836
 7348SOL     OW22942   1.393   4.352   3.693
 7348SOL    HW122943   1.457   4.381   3.763
 7348SOL    HW222944   1.428   4.377   3.603
 7349SOL     OW22945   4.178   0.252   2.035
 7349SOL    HW122946   4.210   0.338   2.076
 7349SOL    HW222947   4.126   0.201   2.102
 7350SOL     OW22948   2.747   2.407   5.677
 7350SOL    HW122949   2.725   2.497   5.639
 7350SOL    HW222950   2.682   2.340   5.642
 7351SOL     OW22951   5.912   5.500   3.866
 7351SOL    HW122952   5.972   5.576   3.840
 7351SOL    HW222953   5.817   5.522   3.843
 7352SOL     OW22954   1.741   1.945   2.675
 7352SOL    HW122955   1.762   1.850   2.700
 7352SOL    HW222956   1.763   1.959   2.578
 7353SOL     OW22957   0.246   0.402   6.587
 7353SOL    HW122958   0.325   0.457   6.561
 7353SOL    HW222959   0.204   0.363   6.505
 7354SOL     OW22960   0.984   1.722   5.138
 7354SOL    HW122961   0.945   1.753   5.051
 7354SOL    HW222962   1.071   1.676   5.121
 7355SOL     OW22963   1.314   1.031   0.476
 7355SOL    HW122964   1.401   1.079   0.461
 7355SOL    HW222965   1.329   0.956   0.540
 7356SOL     OW22966   3.982   3.384   6.513
 7356SOL    HW122967   4.007   3.401   6.608
 7356SOL    HW222968   3.893   3.340   6.509
 7357SOL     OW22969   3.367   5.889   2.099
 7357SOL    HW122970   3.336   5.915   2.007
 7357SOL    HW222971   3.406   5.969   2.144
 7358SOL     OW22972   6.408   3.370   2.444
 7358SOL    HW122973   6.402   3.346   2.541
 7358SOL    HW222974   6.349   3.308   2.391
 7359SOL     OW22975   4.613   2.431   5.558
 7359SOL    HW122976   4.638   2.501   5.491
 7359SOL    HW222977   4.660   2.346   5.536
 7360SOL     OW22978   2.917   3.498   5.585
 7360SOL    HW122979   2.893   3.400   5.589
 7360SOL    HW222980   2.914   3.529   5.490
 7361SOL     OW22981   5.555   0.639   2.434
 7361SOL    HW122982   5.592   0.701   2.364
 7361SOL    HW222983   5.489   0.688   2.491
 7362SOL     OW22984   1.469   5.804   6.265
 7362SOL    HW122985   1.492   5.761   6.177
 7362SOL    HW222986   1.552   5.842   6.305
 7363SOL     OW22987   4.480   1.559   1.058
 7363SOL    HW122988   4.479   1.625   1.132
 7363SOL    HW222989   4.564   1.569   1.005
 7364SOL     OW22990   4.252   1.118   2.263
 7364SOL    HW122991   4.279   1.023   2.245
 7364SOL    HW222992   4.178   1.119   2.331
 7365SOL     OW22993   0.719   6.306   2.015
 7365SOL    HW122994   0.657   6.236   1.978
 7365SOL    HW222995   0.813   6.274   2.006
 7366SOL     OW22996   2.224   6.907   5.502
 7366SOL    HW122997   2.292   6.920   5.430
 7366SOL    HW222998   2.151   6.848   5.468
 7367SOL     OW22999   4.660   2.506   0.873
 7367SOL    HW123000   4.649   2.447   0.953
 7367SOL    HW223001   4.758   2.522   0.857
 7368SOL     OW23002   3.787   2.952   2.409
 7368SOL    HW123003   3.797   2.996   2.499
 7368SOL    HW223004   3.872   2.961   2.358
 7369SOL     OW23005   2.788   2.400   0.991
 7369SOL    HW123006   2.785   2.346   0.907
 7369SOL    HW223007   2.704   2.387   1.043
 7370SOL     OW23008   2.563   1.252   6.499
 7370SOL    HW123009   2.553   1.338   6.547
 7370SOL    HW223010   2.553   1.267   6.400
 7371SOL     OW23011   2.621   6.553   3.146
 7371SOL    HW123012   2.688   6.580   3.215
 7371SOL    HW223013   2.529   6.558   3.186
 7372SOL     OW23014   4.702   6.631   4.819
 7372SOL    HW123015   4.716   6.533   4.831
 7372SOL    HW223016   4.608   6.649   4.793
 7373SOL     OW23017   6.251   1.829   4.747
 7373SOL    HW123018   6.163   1.833   4.700
 7373SOL    HW223019   6.260   1.906   4.809
 7374SOL     OW23020   2.529   2.233   4.825
 7374SOL    HW123021   2.614   2.185   4.805
 7374SOL    HW223022   2.549   2.329   4.846
 7375SOL     OW23023   2.444   2.585   2.251
 7375SOL    HW123024   2.498   2.524   2.193
 7375SOL    HW223025   2.477   2.580   2.345
 7376SOL     OW23026   1.404   1.846   1.610
 7376SOL    HW123027   1.398   1.792   1.694
 7376SOL    HW223028   1.485   1.905   1.614
 7377SOL     OW23029   5.376   5.102   0.320
 7377SOL    HW123030   5.283   5.064   0.312
 7377SOL    HW223031   5.410   5.084   0.413
 7378SOL     OW23032   1.389   0.844   4.579
 7378SOL    HW123033   1.335   0.918   4.537
 7378SOL    HW223034   1.432   0.878   4.662
 7379SOL     OW23035   3.388   1.238   2.024
 7379SOL    HW123036   3.369   1.208   1.931
 7379SOL    HW223037   3.334   1.319   2.045
 7380SOL     OW23038   0.397   4.583   4.117
 7380SOL    HW123039   0.492   4.597   4.089
 7380SOL    HW223040   0.395   4.537   4.205
 7381SOL     OW23041   3.954   3.431   0.557
 7381SOL    HW123042   3.907   3.473   0.479
 7381SOL    HW223043   3.965   3.333   0.540
 7382SOL     OW23044   0.025   1.259   4.988
 7382SOL    HW123045   7.000   1.181   4.952
 7382SOL    HW223046   0.021   1.335   4.923
 7383SOL     OW23047   2.943   5.864   1.015
 7383SOL    HW123048   2.867   5.811   1.053
 7383SOL    HW223049   2.914   5.960   1.004
 7384SOL     OW23050   6.507   6.877   2.643
 7384SOL    HW123051   6.547   6.909   2.557
 7384SOL    HW223052   6.548   6.790   2.669
 7385SOL     OW23053   2.931   5.369   2.582
 7385SOL    HW123054   2.976   5.430   2.648
 7385SOL    HW223055   2.995   5.298   2.554
 7386SOL     OW23056   6.926   2.977   6.613
 7386SOL    HW123057   6.868   2.971   6.694
 7386SOL    HW223058   7.021   2.958   6.639
 7387SOL     OW23059   6.741   5.272   5.281
 7387SOL    HW123060   6.740   5.184   5.234
 7387SOL    HW223061   6.647   5.300   5.301
 7388SOL     OW23062   1.284   4.896   2.281
 7388SOL    HW123063   1.242   4.909   2.191
 7388SOL    HW223064   1.258   4.807   2.317
 7389SOL     OW23065   6.615   3.859   6.640
 7389SOL    HW123066   6.524   3.834   6.673
 7389SOL    HW223067   6.656   3.928   6.701
 7390SOL     OW23068   2.531   1.712   2.337
 7390SOL    HW123069   2.627   1.682   2.336
 7390SOL    HW223070   2.483   1.673   2.259
 7391SOL     OW23071   4.009   3.096   3.156
 7391SOL    HW123072   4.014   3.067   3.060
 7391SOL    HW223073   3.999   3.195   3.160
 7392SOL     OW23074   3.954   5.981   6.684
 7392SOL    HW123075   4.030   5.919   6.666
 7392SOL    HW223076   3.892   5.981   6.605
 7393SOL     OW23077   6.406   4.685   2.954
 7393SOL    HW123078   6.413   4.785   2.952
 7393SOL    HW223079   6.493   4.644   2.928
 7394SOL     OW23080   1.605   2.739   5.957
 7394SOL    HW123081   1.518   2.720   6.002
 7394SOL    HW223082   1.648   2.653   5.929
 7395SOL     OW23083   1.889   3.638   1.258
 7395SOL    HW123084   1.812   3.670   1.314
 7395SOL    HW223085   1.865   3.643   1.162
 7396SOL     OW23086   2.093   6.650   1.343
 7396SOL    HW123087   2.078   6.621   1.248
 7396SOL    HW223088   2.054   6.583   1.405
 7397SOL     OW23089   5.218   5.142   4.597
 7397SOL    HW123090   5.281   5.147   4.520
 7397SOL    HW223091   5.124   5.142   4.564
 7398SOL     OW23092   0.944   5.440   3.058
 7398SOL    HW123093   1.027   5.440   3.002
 7398SOL    HW223094   0.960   5.385   3.140
 7399SOL     OW23095   0.180   2.919   4.302
 7399SOL    HW123096   0.258   2.863   4.328
 7399SOL    HW223097   0.177   3.001   4.360
 7400SOL     OW23098   4.142   2.804   6.263
 7400SOL    HW123099   4.080   2.853   6.325
 7400SOL    HW223100   4.090   2.773   6.183
 7401SOL     OW23101   1.207   3.440   3.033
 7401SOL    HW123102   1.269   3.367   3.062
 7401SOL    HW223103   1.237   3.527   3.072
 7402SOL     OW23104   3.282   4.266   6.111
 7402SOL    HW123105   3.209   4.217   6.158
 7402SOL    HW223106   3.242   4.337   6.053
 7403SOL     OW23107   1.497   3.532   2.448
 7403SOL    HW123108   1.540   3.498   2.532
 7403SOL    HW223109   1.501   3.632   2.446
 7404SOL     OW23110   2.726   4.732   1.714
 7404SOL    HW123111   2.747   4.829   1.727
 7404SOL    HW223112   2.754   4.680   1.795
 7405SOL     OW23113   3.387   5.055   4.210
 7405SOL    HW123114   3.366   4.990   4.136
 7405SOL    HW223115   3.309   5.115   4.224
 7406SOL     OW23116   0.754   1.540   4.656
 7406SOL    HW123117   0.846   1.545   4.694
 7406SOL    HW223118   0.690   1.513   4.728
 7407SOL     OW23119   1.513   6.654   5.517
 7407SOL    HW123120   1.584   6.679   5.583
 7407SOL    HW223121   1.556   6.610   5.438
 7408SOL     OW23122   3.797   4.153   5.750
 7408SOL    HW123123   3.736   4.080   5.719
 7408SOL    HW223124   3.746   4.219   5.805
 7409SOL     OW23125   5.535   4.210   0.511
 7409SOL    HW123126   5.586   4.295   0.503
 7409SOL    HW223127   5.437   4.229   0.501
 7410SOL     OW23128   0.247   1.000   0.554
 7410SOL    HW123129   0.301   1.072   0.509
 7410SOL    HW223130   0.167   1.041   0.597
 7411SOL     OW23131   1.880   0.688   6.743
 7411SOL    HW123132   1.942   0.619   6.707
 7411SOL    HW223133   1.840   0.655   6.829
 7412SOL     OW23134   4.230   6.646   0.823
 7412SOL    HW123135   4.219   6.742   0.851
 7412SOL    HW223136   4.163   6.625   0.752
 7413SOL     OW23137   4.217   5.015   3.664
 7413SOL    HW123138   4.302   4.994   3.616
 7413SOL    HW223139   4.181   4.932   3.707
 7414SOL     OW23140   2.383   1.258   3.039
 7414SOL    HW123141   2.341   1.263   2.948
 7414SOL    HW223142   2.424   1.347   3.061
 7415SOL     OW23143   2.112   4.706   4.860
 7415SOL    HW123144   2.205   4.739   4.849
 7415SOL    HW223145   2.063   4.766   4.924
 7416SOL     OW23146   2.396   0.620   2.300
 7416SOL    HW123147   2.450   0.605   2.217
 7416SOL    HW223148   2.456   0.622   2.379
 7417SOL     OW23149   2.002   2.179   1.756
 7417SOL    HW123150   2.091   2.215   1.732
 7417SOL    HW223151   1.947   2.251   1.800
 7418SOL     OW23152   1.616   4.970   6.491
 7418SOL    HW123153   1.625   5.057   6.540
 7418SOL    HW223154   1.563   4.985   6.407
 7419SOL     OW23155   6.916   4.106   4.180
 7419SOL    HW123156   6.974   4.186   4.166
 7419SOL    HW223157   6.956   4.048   4.252
 7420SOL     OW23158   0.076   6.393   0.856
 7420SOL    HW123159   0.165   6.407   0.901
 7420SOL    HW223160   0.083   6.423   0.760
 7421SOL     OW23161   4.132   3.491   1.179
 7421SOL    HW123162   4.067   3.565   1.194
 7421SOL    HW223163   4.213   3.526   1.132
 7422SOL     OW23164   6.889   4.217   2.142
 7422SOL    HW123165   6.835   4.141   2.106
 7422SOL    HW223166   6.909   4.200   2.239
 7423SOL     OW23167   6.340   2.850   5.809
 7423SOL    HW123168   6.382   2.940   5.803
 7423SOL    HW223169   6.409   2.783   5.835
 7424SOL     OW23170   0.018   1.860   5.701
 7424SOL    HW123171   6.985   1.817   5.770
 7424SOL    HW223172   6.989   1.922   5.645
 7425SOL     OW23173   5.073   6.869   0.609
 7425SOL    HW123174   5.119   6.934   0.549
 7425SOL    HW223175   4.991   6.912   0.647
 7426SOL     OW23176   3.388   1.793   5.427
 7426SOL    HW123177   3.459   1.770   5.360
 7426SOL    HW223178   3.412   1.754   5.516
 7427SOL     OW23179   5.053   0.889   4.255
 7427SOL    HW123180   5.098   0.849   4.175
 7427SOL    HW223181   5.019   0.980   4.232
 7428SOL     OW23182   4.264   0.268   5.451
 7428SOL    HW123183   4.261   0.365   5.476
 7428SOL    HW223184   4.174   0.239   5.419
 7429SOL     OW23185   0.985   6.303   3.578
 7429SOL    HW123186   0.922   6.343   3.511
 7429SOL    HW223187   0.971   6.204   3.581
 7430SOL     OW23188   0.061   3.556   0.854
 7430SOL    HW123189   7.000   3.591   0.888
 7430SOL    HW223190   0.075   3.462   0.885
 7431SOL     OW23191   0.587   2.289   2.820
 7431SOL    HW123192   0.513   2.356   2.816
 7431SOL    HW223193   0.577   2.224   2.744
 7432SOL     OW23194   1.903   0.715   3.333
 7432SOL    HW123195   1.831   0.690   3.398
 7432SOL    HW223196   1.908   0.646   3.261
 7433SOL     OW23197   4.586   6.322   6.487
 7433SOL    HW123198   4.618   6.274   6.569
 7433SOL    HW223199   4.556   6.255   6.418
 7434SOL     OW23200   5.579   5.253   5.352
 7434SOL    HW123201   5.674   5.228   5.335
 7434SOL    HW223202   5.518   5.184   5.312
 7435SOL     OW23203   4.506   6.522   1.643
 7435SOL    HW123204   4.496   6.573   1.558
 7435SOL    HW223205   4.601   6.493   1.654
 7436SOL     OW23206   4.443   4.272   5.984
 7436SOL    HW123207   4.480   4.182   5.962
 7436SOL    HW223208   4.355   4.262   6.030
 7437SOL     OW23209   3.272   5.137   0.373
 7437SOL    HW123210   3.245   5.111   0.280
 7437SOL    HW223211   3.372   5.130   0.381
 7438SOL     OW23212   1.318   0.001   6.966
 7438SOL    HW123213   1.291   7.006   6.872
 7438SOL    HW223214   1.239   0.037   7.016
 7439SOL     OW23215   1.687   6.301   5.652
 7439SOL    HW123216   1.766   6.350   5.688
 7439SOL    HW223217   1.714   6.247   5.572
 7440SOL     OW23218   6.700   3.065   3.995
 7440SOL    HW123219   6.751   2.994   3.947
 7440SOL    HW223220   6.648   3.119   3.929
 7441SOL     OW23221   5.736   0.074   4.280
 7441SOL    HW123222   5.781   0.072   4.190
 7441SOL    HW223223   5.712   7.007   4.307
 7442SOL     OW23224   5.573   1.520   0.592
 7442SOL    HW123225   5.507   1.496   0.521
 7442SOL    HW223226   5.657   1.469   0.578
 7443SOL     OW23227   6.492   5.584   2.390
 7443SOL    HW123228   6.469   5.640   2.469
 7443SOL    HW223229   6.555   5.634   2.331
 7444SOL     OW23230   5.711   0.906   6.284
 7444SOL    HW123231   5.709   0.918   6.383
 7444SOL    HW223232   5.618   0.906   6.247
 7445SOL     OW23233   3.301   0.736   1.883
 7445SOL    HW123234   3.276   0.660   1.823
 7445SOL    HW223235   3.315   0.701   1.976
 7446SOL     OW23236   4.966   2.041   0.642
 7446SOL    HW123237   5.052   1.997   0.665
 7446SOL    HW223238   4.921   1.992   0.567
 7447SOL     OW23239   6.287   4.732   6.234
 7447SOL    HW123240   6.274   4.821   6.189
 7447SOL    HW223241   6.230   4.663   6.189
 7448SOL     OW23242   5.631   6.583   4.446
 7448SOL    HW123243   5.568   6.634   4.387
 7448SOL    HW223244   5.647   6.634   4.531
 7449SOL     OW23245   1.001   5.844   0.665
 7449SOL    HW123246   0.951   5.828   0.579
 7449SOL    HW223247   1.053   5.762   0.689
 7450SOL     OW23248   5.429   2.450   5.232
 7450SOL    HW123249   5.445   2.504   5.150
 7450SOL    HW223250   5.498   2.475   5.301
 7451SOL     OW23251   6.136   5.702   2.335
 7451SOL    HW123252   6.112   5.648   2.255
 7451SOL    HW223253   6.217   5.757   2.314
 7452SOL     OW23254   5.770   5.707   4.565
 7452SOL    HW123255   5.817   5.782   4.520
 7452SOL    HW223256   5.709   5.662   4.499
 7453SOL     OW23257   4.149   4.978   5.007
 7453SOL    HW123258   4.177   4.906   4.943
 7453SOL    HW223259   4.168   5.068   4.968
 7454SOL     OW23260   2.619   1.580   1.006
 7454SOL    HW123261   2.597   1.513   1.077
 7454SOL    HW223262   2.718   1.595   1.005
 7455SOL     OW23263   6.607   3.332   2.162
 7455SOL    HW123264   6.625   3.308   2.067
 7455SOL    HW223265   6.567   3.424   2.166
 7456SOL     OW23266   2.362   1.256   4.805
 7456SOL    HW123267   2.370   1.228   4.901
 7456SOL    HW223268   2.269   1.238   4.772
 7457SOL     OW23269   3.142   0.396   4.299
 7457SOL    HW123270   3.225   0.429   4.344
 7457SOL    HW223271   3.073   0.468   4.299
 7458SOL     OW23272   1.457   0.079   6.036
 7458SOL    HW123273   1.513   0.161   6.048
 7458SOL    HW223274   1.420   0.076   5.943
 7459SOL     OW23275   6.058   1.396   2.561
 7459SOL    HW123276   5.991   1.465   2.587
 7459SOL    HW223277   6.012   1.308   2.545
 7460SOL     OW23278   1.314   5.907   0.116
 7460SOL    HW123279   1.383   5.979   0.125
 7460SOL    HW223280   1.352   5.820   0.149
 7461SOL     OW23281   5.887   6.175   5.918
 7461SOL    HW123282   5.834   6.144   5.839
 7461SOL    HW223283   5.832   6.236   5.974
 7462SOL     OW23284   1.954   4.502   1.762
 7462SOL    HW123285   2.004   4.449   1.829
 7462SOL    HW223286   1.900   4.441   1.704
 7463SOL     OW23287   3.172   4.031   0.302
 7463SOL    HW123288   3.247   3.994   0.247
 7463SOL    HW223289   3.092   4.044   0.244
 7464SOL     OW23290   5.927   7.022   5.474
 7464SOL    HW123291   5.990   0.015   5.399
 7464SOL    HW223292   5.978   6.982   5.551
 7465SOL     OW23293   2.741   4.925   6.733
 7465SOL    HW123294   2.646   4.934   6.704
 7465SOL    HW223295   2.780   4.841   6.693
 7466SOL     OW23296   0.173   0.686   6.045
 7466SOL    HW123297   0.211   0.624   5.976
 7466SOL    HW223298   0.234   0.764   6.057
 7467SOL     OW23299   0.589   2.296   5.565
 7467SOL    HW123300   0.506   2.289   5.620
 7467SOL    HW223301   0.643   2.373   5.598
 7468SOL     OW23302   5.061   3.055   4.147
 7468SOL    HW123303   5.117   3.137   4.153
 7468SOL    HW223304   5.055   3.012   4.237
 7469SOL     OW23305   6.187   1.284   0.276
 7469SOL    HW123306   6.205   1.253   0.369
 7469SOL    HW223307   6.130   1.217   0.229
 7470SOL     OW23308   5.211   4.381   3.463
 7470SOL    HW123309   5.186   4.285   3.452
 7470SOL    HW223310   5.224   4.423   3.373
 7471SOL     OW23311   5.170   6.015   6.248
 7471SOL    HW123312   5.161   6.076   6.169
 7471SOL    HW223313   5.266   5.990   6.260
 7472SOL     OW23314   6.654   1.205   5.519
 7472SOL    HW123315   6.746   1.167   5.512
 7472SOL    HW223316   6.593   1.138   5.562
 7473SOL     OW23317   5.149   5.855   4.164
 7473SOL    HW123318   5.173   5.758   4.167
 7473SOL    HW223319   5.171   5.892   4.074
 7474SOL     OW23320   6.868   1.773   6.735
 7474SOL    HW123321   6.797   1.706   6.713
 7474SOL    HW223322   6.825   1.860   6.760
 7475SOL     OW23323   4.652   2.541   2.133
 7475SOL    HW123324   4.628   2.526   2.038
 7475SOL    HW223325   4.603   2.477   2.191
 7476SOL     OW23326   2.243   1.607   3.344
 7476SOL    HW123327   2.288   1.654   3.420
 7476SOL    HW223328   2.147   1.633   3.340
 7477SOL     OW23329   0.033   2.869   5.157
 7477SOL    HW123330   0.035   2.783   5.105
 7477SOL    HW223331   6.968   2.883   5.194
 7478SOL     OW23332   5.822   3.597   5.300
 7478SOL    HW123333   5.746   3.557   5.250
 7478SOL    HW223334   5.817   3.569   5.396
 7479SOL     OW23335   5.204   2.435   1.759
 7479SOL    HW123336   5.300   2.459   1.772
 7479SOL    HW223337   5.152   2.517   1.733
 7480SOL     OW23338   1.921   4.301   2.201
 7480SOL    HW123339   2.020   4.312   2.200
 7480SOL    HW223340   1.893   4.258   2.286
 7481SOL     OW23341   6.425   4.938   0.093
 7481SOL    HW123342   6.338   4.958   0.048
 7481SOL    HW223343   6.412   4.936   0.192
 7482SOL     OW23344   4.516   2.341   2.274
 7482SOL    HW123345   4.549   2.381   2.360
 7482SOL    HW223346   4.446   2.272   2.294
 7483SOL     OW23347   4.849   3.127   4.813
 7483SOL    HW123348   4.758   3.104   4.778
 7483SOL    HW223349   4.859   3.226   4.817
 7484SOL     OW23350   1.767   5.185   4.543
 7484SOL    HW123351   1.807   5.124   4.610
 7484SOL    HW223352   1.813   5.173   4.455
 7485SOL     OW23353   2.465   0.623   4.588
 7485SOL    HW123354   2.407   0.702   4.566
 7485SOL    HW223355   2.519   0.643   4.670
 7486SOL     OW23356   0.866   6.224   0.465
 7486SOL    HW123357   0.937   6.237   0.535
 7486SOL    HW223358   0.905   6.246   0.375
 7487SOL     OW23359   3.283   0.449   3.489
 7487SOL    HW123360   3.375   0.456   3.529
 7487SOL    HW223361   3.266   0.529   3.431
 7488SOL     OW23362   2.280   5.945   4.464
 7488SOL    HW123363   2.224   5.899   4.394
 7488SOL    HW223364   2.365   5.977   4.423
 7489SOL     OW23365   5.928   3.317   6.788
 7489SOL    HW123366   5.993   3.244   6.767
 7489SOL    HW223367   5.942   3.347   6.883
 7490SOL     OW23368   1.799   0.666   3.052
 7490SOL    HW123369   1.778   0.762   3.071
 7490SOL    HW223370   1.733   0.608   3.099
 7491SOL     OW23371   4.776   2.898   6.939
 7491SOL    HW123372   4.749   2.848   6.857
 7491SOL    HW223373   4.710   2.970   6.958
 7492SOL     OW23374   2.001   0.804   4.334
 7492SOL    HW123375   1.997   0.822   4.433
 7492SOL    HW223376   2.064   0.869   4.291
 7493SOL     OW23377   6.459   3.112   5.836
 7493SOL    HW123378   6.506   3.128   5.749
 7493SOL    HW223379   6.463   3.195   5.892
 7494SOL     OW23380   5.970   1.357   3.700
 7494SOL    HW123381   5.917   1.272   3.688
 7494SOL    HW223382   5.955   1.417   3.622
 7495SOL     OW23383   1.224   2.988   5.537
 7495SOL    HW123384   1.254   3.027   5.450
 7495SOL    HW223385   1.229   2.888   5.532
 7496SOL     OW23386   5.489   3.686   4.223
 7496SOL    HW123387   5.442   3.762   4.180
 7496SOL    HW223388   5.534   3.717   4.307
 7497SOL     OW23389   1.834   5.330   1.084
 7497SOL    HW123390   1.806   5.263   1.151
 7497SOL    HW223391   1.931   5.316   1.060
 7498SOL     OW23392   3.207   1.094   4.121
 7498SOL    HW123393   3.299   1.066   4.094
 7498SOL    HW223394   3.183   1.180   4.076
 7499SOL     OW23395   4.396   2.192   3.580
 7499SOL    HW123396   4.440   2.168   3.493
 7499SOL    HW223397   4.340   2.274   3.567
 7500SOL     OW23398   3.536   5.860   2.449
 7500SOL    HW123399   3.461   5.855   2.384
 7500SOL    HW223400   3.507   5.909   2.531
 7501SOL     OW23401   5.401   4.561   3.885
 7501SOL    HW123402   5.414   4.651   3.925
 7501SOL    HW223403   5.468   4.497   3.922
 7502SOL     OW23404   3.159   6.644   4.095
 7502SOL    HW123405   3.179   6.549   4.119
 7502SOL    HW223406   3.144   6.698   4.178
 7503SOL     OW23407   2.412   6.057   1.210
 7503SOL    HW123408   2.378   5.987   1.274
 7503SOL    HW223409   2.456   6.130   1.262
 7504SOL     OW23410   0.237   6.344   2.748
 7504SOL    HW123411   0.318   6.374   2.699
 7504SOL    HW223412   0.173   6.301   2.684
 7505SOL     OW23413   1.625   2.194   6.532
 7505SOL    HW123414   1.700   2.128   6.526
 7505SOL    HW223415   1.660   2.286   6.515
 7506SOL     OW23416   4.246   2.368   3.454
 7506SOL    HW123417   4.218   2.458   3.419
 7506SOL    HW223418   4.186   2.298   3.417
 7507SOL     OW23419   6.092   2.712   3.378
 7507SOL    HW123420   6.099   2.802   3.335
 7507SOL    HW223421   6.147   2.710   3.461
 7508SOL     OW23422   2.528   5.046   0.222
 7508SOL    HW123423   2.537   4.949   0.199
 7508SOL    HW223424   2.572   5.063   0.310
 7509SOL     OW23425   6.106   3.272   0.651
 7509SOL    HW123426   6.173   3.218   0.599
 7509SOL    HW223427   6.048   3.323   0.587
 7510SOL     OW23428   4.012   3.719   4.506
 7510SOL    HW123429   4.070   3.770   4.442
 7510SOL    HW223430   4.065   3.643   4.544
 7511SOL     OW23431   2.827   6.329   3.355
 7511SOL    HW123432   2.847   6.274   3.436
 7511SOL    HW223433   2.737   6.304   3.320
 7512SOL     OW23434   2.607   0.847   7.000
 7512SOL    HW123435   2.680   0.851   6.931
 7512SOL    HW223436   2.525   0.808   6.959
 7513SOL     OW23437   1.862   2.135   2.477
 7513SOL    HW123438   1.943   2.096   2.519
 7513SOL    HW223439   1.849   2.229   2.510
 7514SOL     OW23440   2.170   5.358   3.052
 7514SOL    HW123441   2.173   5.289   2.979
 7514SOL    HW223442   2.135   5.444   3.014
 7515SOL     OW23443   0.290   4.572   4.733
 7515SOL    HW123444   0.325   4.570   4.639
 7515SOL    HW223445   0.323   4.491   4.782
 7516SOL     OW23446   0.441   5.375   6.413
 7516SOL    HW123447   0.344   5.351   6.406
 7516SOL    HW223448   0.493   5.328   6.343
 7517SOL     OW23449   0.962   1.742   0.065
 7517SOL    HW123450   0.981   1.748   6.993
 7517SOL    HW223451   1.042   1.774   0.116
 7518SOL     OW23452   5.372   3.625   3.318
 7518SOL    HW123453   5.410   3.533   3.326
 7518SOL    HW223454   5.411   3.670   3.237
 7519SOL     OW23455   6.528   6.812   4.406
 7519SOL    HW123456   6.501   6.807   4.502
 7519SOL    HW223457   6.619   6.772   4.395
 7520SOL     OW23458   1.485   0.793   2.617
 7520SOL    HW123459   1.396   0.822   2.582
 7520SOL    HW223460   1.537   0.873   2.646
 7521SOL     OW23461   5.367   2.543   4.946
 7521SOL    HW123462   5.277   2.586   4.960
 7521SOL    HW223463   5.385   2.536   4.848
 7522SOL     OW23464   1.569   0.211   5.216
 7522SOL    HW123465   1.663   0.203   5.249
 7522SOL    HW223466   1.565   0.275   5.140
 7523SOL     OW23467   5.280   0.510   6.398
 7523SOL    HW123468   5.277   0.607   6.374
 7523SOL    HW223469   5.261   0.455   6.317
 7524SOL     OW23470   6.819   2.989   4.861
 7524SOL    HW123471   6.755   2.954   4.792
 7524SOL    HW223472   6.901   3.023   4.815
 7525SOL     OW23473   4.777   6.446   6.748
 7525SOL    HW123474   4.680   6.467   6.733
 7525SOL    HW223475   4.832   6.488   6.676
 7526SOL     OW23476   2.630   3.094   1.281
 7526SOL    HW123477   2.700   3.022   1.286
 7526SOL    HW223478   2.561   3.070   1.213
 7527SOL     OW23479   3.577   5.682   3.699
 7527SOL    HW123480   3.644   5.645   3.635
 7527SOL    HW223481   3.507   5.733   3.648
 7528SOL     OW23482   6.019   2.328   0.191
 7528SOL    HW123483   6.013   2.386   0.109
 7528SOL    HW223484   6.007   2.233   0.164
 7529SOL     OW23485   5.136   1.842   4.534
 7529SOL    HW123486   5.114   1.829   4.437
 7529SOL    HW223487   5.058   1.886   4.579
 7530SOL     OW23488   6.086   2.037   1.890
 7530SOL    HW123489   6.169   2.048   1.945
 7530SOL    HW223490   6.020   2.108   1.915
 7531SOL     OW23491   5.094   3.120   3.193
 7531SOL    HW123492   5.079   3.102   3.096
 7531SOL    HW223493   5.030   3.189   3.225
 7532SOL     OW23494   4.936   6.297   6.930
 7532SOL    HW123495   5.029   6.318   6.898
 7532SOL    HW223496   4.871   6.361   6.888
 7533SOL     OW23497   3.756   2.136   1.714
 7533SOL    HW123498   3.724   2.203   1.781
 7533SOL    HW223499   3.850   2.109   1.735
 7534SOL     OW23500   4.907   5.969   4.271
 7534SOL    HW123501   4.857   6.004   4.192
 7534SOL    HW223502   5.001   5.948   4.245
 7535SOL     OW23503   1.756   6.681   4.702
 7535SOL    HW123504   1.799   6.593   4.680
 7535SOL    HW223505   1.827   6.751   4.714
 7536SOL     OW23506   5.110   6.166   4.003
 7536SOL    HW123507   5.143   6.232   3.936
 7536SOL    HW223508   5.103   6.209   4.093
 7537SOL     OW23509   1.803   4.525   2.025
 7537SOL    HW123510   1.828   4.501   1.931
 7537SOL    HW223511   1.814   4.445   2.084
 7538SOL     OW23512   1.782   2.548   1.356
 7538SOL    HW123513   1.710   2.615   1.372
 7538SOL    HW223514   1.841   2.542   1.436
 7539SOL     OW23515   0.985   4.790   3.804
 7539SOL    HW123516   0.949   4.806   3.712
 7539SOL    HW223517   1.025   4.874   3.839
 7540SOL     OW23518   4.051   6.445   4.885
 7540SOL    HW123519   4.014   6.371   4.829
 7540SOL    HW223520   4.083   6.518   4.825
 7541SOL     OW23521   1.329   4.446   6.043
 7541SOL    HW123522   1.397   4.374   6.032
 7541SOL    HW223523   1.358   4.527   5.992
 7542SOL     OW23524   6.723   5.400   6.446
 7542SOL    HW123525   6.631   5.388   6.408
 7542SOL    HW223526   6.715   5.443   6.536
 7543SOL     OW23527   2.895   0.614   4.979
 7543SOL    HW123528   2.919   0.564   5.062
 7543SOL    HW223529   2.951   0.696   4.971
 7544SOL     OW23530   6.942   2.836   4.434
 7544SOL    HW123531   7.012   2.797   4.374
 7544SOL    HW223532   6.867   2.872   4.379
 7545SOL     OW23533   0.369   6.943   5.980
 7545SOL    HW123534   0.280   6.986   5.967
 7545SOL    HW223535   0.361   6.845   5.960
 7546SOL     OW23536   4.725   2.319   1.492
 7546SOL    HW123537   4.771   2.284   1.574
 7546SOL    HW223538   4.680   2.405   1.513
 7547SOL     OW23539   4.671   0.799   0.847
 7547SOL    HW123540   4.704   0.705   0.852
 7547SOL    HW223541   4.685   0.835   0.755
 7548SOL     OW23542   4.412   2.312   6.943
 7548SOL    HW123543   4.503   2.353   6.948
 7548SOL    HW223544   4.363   2.350   6.864
 7549SOL     OW23545   3.887   2.808   6.832
 7549SOL    HW123546   3.794   2.829   6.802
 7549SOL    HW223547   3.924   2.885   6.885
 7550SOL     OW23548   1.836   4.821   3.134
 7550SOL    HW123549   1.822   4.722   3.124
 7550SOL    HW223550   1.934   4.840   3.138
 7551SOL     OW23551   5.486   3.194   5.400
 7551SOL    HW123552   5.585   3.192   5.385
 7551SOL    HW223553   5.467   3.187   5.497
 7552SOL     OW23554   1.534   5.859   4.354
 7552SOL    HW123555   1.626   5.835   4.385
 7552SOL    HW223556   1.539   5.934   4.288
 7553SOL     OW23557   5.358   6.782   5.769
 7553SOL    HW123558   5.290   6.709   5.765
 7553SOL    HW223559   5.384   6.798   5.865
 7554SOL     OW23560   4.545   0.619   0.350
 7554SOL    HW123561   4.482   0.586   0.420
 7554SOL    HW223562   4.509   0.702   0.309
 7555SOL     OW23563   3.262   5.569   6.242
 7555SOL    HW123564   3.192   5.501   6.265
 7555SOL    HW223565   3.237   5.657   6.284
 7556SOL     OW23566   2.329   1.298   0.213
 7556SOL    HW123567   2.305   1.289   0.309
 7556SOL    HW223568   2.410   1.242   0.193
 7557SOL     OW23569   5.008   0.112   6.942
 7557SOL    HW123570   5.107   0.098   6.956
 7557SOL    HW223571   4.973   0.173   7.013
 7558SOL     OW23572   2.210   3.011   3.460
 7558SOL    HW123573   2.270   2.994   3.382
 7558SOL    HW223574   2.125   2.961   3.448
 7559SOL     OW23575   4.038   2.280   5.649
 7559SOL    HW123576   4.076   2.364   5.611
 7559SOL    HW223577   3.986   2.300   5.732
 7560SOL     OW23578   6.404   0.045   0.052
 7560SOL    HW123579   6.357   0.133   0.042
 7560SOL    HW223580   6.417   0.004   6.988
 7561SOL     OW23581   6.061   3.397   5.857
 7561SOL    HW123582   6.132   3.403   5.786
 7561SOL    HW223583   5.983   3.454   5.831
 7562SOL     OW23584   0.865   5.020   5.177
 7562SOL    HW123585   0.827   4.938   5.134
 7562SOL    HW223586   0.795   5.066   5.231
 7563SOL     OW23587   2.545   5.954   2.092
 7563SOL    HW123588   2.571   5.890   2.019
 7563SOL    HW223589   2.539   5.905   2.179
 7564SOL     OW23590   3.836   0.341   4.828
 7564SOL    HW123591   3.923   0.294   4.826
 7564SOL    HW223592   3.850   0.438   4.807
 7565SOL     OW23593   5.399   3.947   5.653
 7565SOL    HW123594   5.388   3.967   5.751
 7565SOL    HW223595   5.335   3.874   5.627
 7566SOL     OW23596   5.252   5.411   2.408
 7566SOL    HW123597   5.304   5.330   2.383
 7566SOL    HW223598   5.249   5.474   2.331
 7567SOL     OW23599   0.771   0.964   5.874
 7567SOL    HW123600   0.713   0.895   5.915
 7567SOL    HW223601   0.791   1.036   5.941
 7568SOL     OW23602   5.236   5.217   1.986
 7568SOL    HW123603   5.295   5.282   2.034
 7568SOL    HW223604   5.272   5.124   2.000
 7569SOL     OW23605   3.956   4.075   6.310
 7569SOL    HW123606   3.964   4.044   6.404
 7569SOL    HW223607   3.868   4.121   6.297
 7570SOL     OW23608   6.772   4.023   3.945
 7570SOL    HW123609   6.677   4.048   3.962
 7570SOL    HW223610   6.832   4.087   3.992
 7571SOL     OW23611   5.572   3.846   3.156
 7571SOL    HW123612   5.667   3.830   3.129
 7571SOL    HW223613   5.527   3.905   3.089
 7572SOL     OW23614   5.300   0.503   3.365
 7572SOL    HW123615   5.372   0.565   3.334
 7572SOL    HW223616   5.319   0.475   3.460
 7573SOL     OW23617   6.755   0.653   5.361
 7573SOL    HW123618   6.686   0.724   5.371
 7573SOL    HW223619   6.806   0.668   5.276
 7574SOL     OW23620   6.029   1.228   4.459
 7574SOL    HW123621   6.026   1.289   4.379
 7574SOL    HW223622   6.014   1.282   4.542
 7575SOL     OW23623   6.525   6.351   0.756
 7575SOL    HW123624   6.456   6.279   0.763
 7575SOL    HW223625   6.588   6.344   0.833
 7576SOL     OW23626   4.813   1.897   0.471
 7576SOL    HW123627   4.820   1.800   0.491
 7576SOL    HW223628   4.787   1.909   0.375
 7577SOL     OW23629   0.381   6.104   0.574
 7577SOL    HW123630   0.475   6.123   0.545
 7577SOL    HW223631   0.320   6.172   0.534
 7578SOL     OW23632   1.644   5.387   2.277
 7578SOL    HW123633   1.569   5.453   2.280
 7578SOL    HW223634   1.641   5.336   2.191
 7579SOL     OW23635   6.677   1.324   1.435
 7579SOL    HW123636   6.680   1.299   1.532
 7579SOL    HW223637   6.606   1.393   1.420
 7580SOL     OW23638   1.266   4.472   3.290
 7580SOL    HW123639   1.305   4.547   3.237
 7580SOL    HW223640   1.190   4.506   3.345
 7581SOL     OW23641   0.377   1.413   1.727
 7581SOL    HW123642   0.424   1.370   1.650
 7581SOL    HW223643   0.375   1.350   1.804
 7582SOL     OW23644   3.911   1.744   3.729
 7582SOL    HW123645   3.963   1.814   3.779
 7582SOL    HW223646   3.969   1.663   3.715
 7583SOL     OW23647   5.606   3.573   2.833
 7583SOL    HW123648   5.562   3.505   2.891
 7583SOL    HW223649   5.642   3.529   2.751
 7584SOL     OW23650   1.456   0.104   2.628
 7584SOL    HW123651   1.414   0.183   2.582
 7584SOL    HW223652   1.549   0.127   2.655
 7585SOL     OW23653   1.280   1.982   6.013
 7585SOL    HW123654   1.270   1.892   6.054
 7585SOL    HW223655   1.373   1.992   5.975
 7586SOL     OW23656   1.996   6.412   3.354
 7586SOL    HW123657   1.904   6.379   3.334
 7586SOL    HW223658   2.013   6.495   3.301
 7587SOL     OW23659   2.549   1.497   6.942
 7587SOL    HW123660   2.565   1.546   0.001
 7587SOL    HW223661   2.458   1.456   6.943
 7588SOL     OW23662   1.596   2.457   4.362
 7588SOL    HW123663   1.508   2.416   4.387
 7588SOL    HW223664   1.636   2.404   4.287
 7589SOL     OW23665   7.021   0.797   2.960
 7589SOL    HW123666   0.018   0.787   2.863
 7589SOL    HW223667   6.930   0.837   2.968
 7590SOL     OW23668   6.052   0.794   0.089
 7590SOL    HW123669   6.140   0.761   0.122
 7590SOL    HW223670   6.004   0.720   0.042
 7591SOL     OW23671   5.368   3.630   6.758
 7591SOL    HW123672   5.455   3.679   6.751
 7591SOL    HW223673   5.328   3.618   6.667
 7592SOL     OW23674   6.352   4.930   4.560
 7592SOL    HW123675   6.392   4.958   4.473
 7592SOL    HW223676   6.293   5.003   4.595
 7593SOL     OW23677   0.071   2.664   6.855
 7593SOL    HW123678   7.008   2.652   6.898
 7593SOL    HW223679   0.142   2.639   6.921
 7594SOL     OW23680   0.911   4.977   1.014
 7594SOL    HW123681   0.886   5.073   1.029
 7594SOL    HW223682   0.885   4.950   0.922
 7595SOL     OW23683   6.531   2.990   6.614
 7595SOL    HW123684   6.503   3.000   6.519
 7595SOL    HW223685   6.594   3.064   6.638
 7596SOL     OW23686   2.793   6.956   4.742
 7596SOL    HW123687   2.724   6.947   4.669
 7596SOL    HW223688   2.839   6.869   4.755
 7597SOL     OW23689   1.980   6.880   2.998
 7597SOL    HW123690   1.886   6.864   2.971
 7597SOL    HW223691   1.984   6.953   3.066
 7598SOL     OW23692   6.222   0.694   3.257
 7598SOL    HW123693   6.210   0.773   3.197
 7598SOL    HW223694   6.314   0.658   3.247
 7599SOL     OW23695   5.296   3.375   1.342
 7599SOL    HW123696   5.361   3.313   1.296
 7599SOL    HW223697   5.319   3.381   1.439
 7600SOL     OW23698   1.166   1.006   3.249
 7600SOL    HW123699   1.206   1.020   3.340
 7600SOL    HW223700   1.161   0.908   3.230
 7601SOL     OW23701   2.906   5.329   2.087
 7601SOL    HW123702   2.858   5.243   2.102
 7601SOL    HW223703   3.005   5.313   2.088
 7602SOL     OW23704   1.005   3.130   0.145
 7602SOL    HW123705   0.967   3.058   0.087
 7602SOL    HW223706   1.080   3.175   0.098
 7603SOL     OW23707   1.644   6.445   6.061
 7603SOL    HW123708   1.694   6.374   6.012
 7603SOL    HW223709   1.665   6.439   6.159
 7604SOL     OW23710   1.442   2.022   5.421
 7604SOL    HW123711   1.418   1.925   5.430
 7604SOL    HW223712   1.541   2.031   5.416
 7605SOL     OW23713   0.964   0.637   0.828
 7605SOL    HW123714   0.882   0.684   0.861
 7605SOL    HW223715   0.937   0.551   0.785
 7606SOL     OW23716   5.451   2.882   5.122
 7606SOL    HW123717   5.365   2.897   5.074
 7606SOL    HW223718   5.494   2.799   5.087
 7607SOL     OW23719   3.835   5.317   7.015
 7607SOL    HW123720   3.770   5.393   7.006
 7607SOL    HW223721   3.784   5.231   7.018
 7608SOL     OW23722   4.836   2.565   0.275
 7608SOL    HW123723   4.752   2.607   0.242
 7608SOL    HW223724   4.913   2.627   0.261
 7609SOL     OW23725   1.094   4.316   3.969
 7609SOL    HW123726   1.040   4.300   4.052
 7609SOL    HW223727   1.125   4.411   3.968
 7610SOL     OW23728   3.842   4.991   5.658
 7610SOL    HW123729   3.926   4.939   5.670
 7610SOL    HW223730   3.822   5.042   5.742
 7611SOL     OW23731   5.464   3.645   1.240
 7611SOL    HW123732   5.418   3.562   1.207
 7611SOL    HW223733   5.555   3.621   1.273
 7612SOL     OW23734   4.636   2.439   2.806
 7612SOL    HW123735   4.612   2.522   2.855
 7612SOL    HW223736   4.731   2.445   2.774
 7613SOL     OW23737   0.957   1.766   2.066
 7613SOL    HW123738   1.010   1.798   1.987
 7613SOL    HW223739   0.972   1.668   2.079
 7614SOL     OW23740   5.245   3.732   1.535
 7614SOL    HW123741   5.266   3.634   1.535
 7614SOL    HW223742   5.149   3.746   1.509
 7615SOL     OW23743   4.567   4.021   5.862
 7615SOL    HW123744   4.569   4.001   5.764
 7615SOL    HW223745   4.557   3.936   5.913
 7616SOL     OW23746   6.967   0.058   3.657
 7616SOL    HW123747   6.882   0.086   3.702
 7616SOL    HW223748   6.983   0.115   3.577
 7617SOL     OW23749   5.656   5.718   3.194
 7617SOL    HW123750   5.658   5.781   3.272
 7617SOL    HW223751   5.621   5.765   3.114
 7618SOL     OW23752   1.081   2.833   6.895
 7618SOL    HW123753   1.025   2.888   6.957
 7618SOL    HW223754   1.050   2.846   6.801
 7619SOL     OW23755   6.865   2.588   4.600
 7619SOL    HW123756   6.831   2.580   4.693
 7619SOL    HW223757   6.920   2.671   4.591
 7620SOL     OW23758   4.181   5.165   1.067
 7620SOL    HW123759   4.093   5.127   1.093
 7620SOL    HW223760   4.192   5.159   0.968
 7621SOL     OW23761   0.618   0.327   0.914
 7621SOL    HW123762   0.578   0.342   0.824
 7621SOL    HW223763   0.687   0.254   0.909
 7622SOL     OW23764   4.206   4.633   6.326
 7622SOL    HW123765   4.153   4.548   6.319
 7622SOL    HW223766   4.232   4.648   6.421
 7623SOL     OW23767   4.147   4.435   1.028
 7623SOL    HW123768   4.226   4.496   1.028
 7623SOL    HW223769   4.168   4.354   1.083
 7624SOL     OW23770   6.539   3.576   3.720
 7624SOL    HW123771   6.460   3.595   3.778
 7624SOL    HW223772   6.506   3.556   3.627
 7625SOL     OW23773   6.750   1.827   0.076
 7625SOL    HW123774   6.789   1.852   0.165
 7625SOL    HW223775   6.695   1.903   0.041
 7626SOL     OW23776   6.661   1.057   5.940
 7626SOL    HW123777   6.676   0.968   5.983
 7626SOL    HW223778   6.711   1.060   5.853
 7627SOL     OW23779   2.801   1.781   0.425
 7627SOL    HW123780   2.778   1.722   0.502
 7627SOL    HW223781   2.865   1.733   0.364
 7628SOL     OW23782   3.689   2.945   1.615
 7628SOL    HW123783   3.752   2.868   1.614
 7628SOL    HW223784   3.690   2.990   1.525
 7629SOL     OW23785   6.909   4.432   3.545
 7629SOL    HW123786   6.950   4.357   3.494
 7629SOL    HW223787   6.905   4.513   3.487
 7630SOL     OW23788   0.973   0.789   6.400
 7630SOL    HW123789   0.983   0.866   6.338
 7630SOL    HW223790   0.963   0.705   6.346
 7631SOL     OW23791   1.574   1.147   5.682
 7631SOL    HW123792   1.649   1.099   5.728
 7631SOL    HW223793   1.602   1.173   5.590
 7632SOL     OW23794   4.299   5.031   1.288
 7632SOL    HW123795   4.255   5.059   1.203
 7632SOL    HW223796   4.304   4.931   1.293
 7633SOL     OW23797   5.289   0.729   2.123
 7633SOL    HW123798   5.285   0.633   2.149
 7633SOL    HW223799   5.379   0.749   2.085
 7634SOL     OW23800   1.528   1.399   1.827
 7634SOL    HW123801   1.551   1.333   1.755
 7634SOL    HW223802   1.571   1.371   1.913
 7635SOL     OW23803   3.174   5.218   4.343
 7635SOL    HW123804   3.084   5.261   4.338
 7635SOL    HW223805   3.213   5.232   4.434
 7636SOL     OW23806   1.354   4.212   4.499
 7636SOL    HW123807   1.449   4.182   4.505
 7636SOL    HW223808   1.326   4.215   4.403
 7637SOL     OW23809   1.391   6.252   2.793
 7637SOL    HW123810   1.486   6.227   2.807
 7637SOL    HW223811   1.376   6.347   2.821
 7638SOL     OW23812   1.265   5.410   1.954
 7638SOL    HW123813   1.266   5.450   1.862
 7638SOL    HW223814   1.228   5.477   2.019
 7639SOL     OW23815   0.446   1.229   0.545
 7639SOL    HW123816   0.402   1.278   0.469
 7639SOL    HW223817   0.542   1.255   0.551
 7640SOL     OW23818   3.298   2.625   6.991
 7640SOL    HW123819   3.310   2.649   0.061
 7640SOL    HW223820   3.271   2.529   6.983
 7641SOL     OW23821   0.041   4.166   2.685
 7641SOL    HW123822   0.014   4.070   2.692
 7641SOL    HW223823   0.040   4.208   2.775
 7642SOL     OW23824   6.141   1.004   2.657
 7642SOL    HW123825   6.170   1.008   2.561
 7642SOL    HW223826   6.055   0.954   2.664
 7643SOL     OW23827   5.307   1.416   2.687
 7643SOL    HW123828   5.366   1.345   2.649
 7643SOL    HW223829   5.257   1.460   2.613
 7644SOL     OW23830   4.786   2.920   2.306
 7644SOL    HW123831   4.859   2.985   2.329
 7644SOL    HW223832   4.756   2.936   2.212
 7645SOL     OW23833   4.320   3.314   5.507
 7645SOL    HW123834   4.372   3.391   5.468
 7645SOL    HW223835   4.248   3.350   5.566
 7646SOL     OW23836   0.697   2.838   4.142
 7646SOL    HW123837   0.653   2.927   4.146
 7646SOL    HW223838   0.740   2.825   4.053
 7647SOL     OW23839   0.410   3.071   4.459
 7647SOL    HW123840   0.480   3.134   4.426
 7647SOL    HW223841   0.453   2.993   4.503
 7648SOL     OW23842   2.334   1.361   2.210
 7648SOL    HW123843   2.338   1.414   2.126
 7648SOL    HW223844   2.363   1.267   2.191
 7649SOL     OW23845   1.504   1.437   4.348
 7649SOL    HW123846   1.416   1.389   4.354
 7649SOL    HW223847   1.542   1.424   4.256
 7650SOL     OW23848   5.981   0.313   1.233
 7650SOL    HW123849   5.956   0.302   1.329
 7650SOL    HW223850   6.025   0.402   1.219
 7651SOL     OW23851   2.587   6.032   4.436
 7651SOL    HW123852   2.636   6.097   4.378
 7651SOL    HW223853   2.600   5.939   4.401
 7652SOL     OW23854   5.491   2.850   5.709
 7652SOL    HW123855   5.526   2.943   5.697
 7652SOL    HW223856   5.428   2.828   5.634
 7653SOL     OW23857   1.499   1.316   0.066
 7653SOL    HW123858   1.504   1.331   0.165
 7653SOL    HW223859   1.561   1.242   0.040
 7654SOL     OW23860   5.466   3.678   4.614
 7654SOL    HW123861   5.416   3.645   4.534
 7654SOL    HW223862   5.410   3.665   4.696
 7655SOL     OW23863   3.944   0.455   3.621
 7655SOL    HW123864   3.848   0.437   3.643
 7655SOL    HW223865   3.993   0.368   3.610
 7656SOL     OW23866   5.133   2.617   6.467
 7656SOL    HW123867   5.183   2.606   6.553
 7656SOL    HW223868   5.195   2.602   6.390
 7657SOL     OW23869   1.972   2.594   3.917
 7657SOL    HW123870   1.962   2.691   3.894
 7657SOL    HW223871   2.038   2.585   3.992
 7658SOL     OW23872   3.240   0.506   0.721
 7658SOL    HW123873   3.316   0.511   0.656
 7658SOL    HW223874   3.156   0.537   0.677
 7659SOL     OW23875   4.825   4.205   6.993
 7659SOL    HW123876   4.809   4.144   6.915
 7659SOL    HW223877   4.920   4.196   7.023
 7660SOL     OW23878   6.158   5.506   4.189
 7660SOL    HW123879   6.058   5.504   4.185
 7660SOL    HW223880   6.195   5.417   4.164
 7661SOL     OW23881   4.876   1.929   5.355
 7661SOL    HW123882   4.911   1.986   5.430
 7661SOL    HW223883   4.793   1.970   5.318
 7662SOL     OW23884   0.782   2.714   3.327
 7662SOL    HW123885   0.856   2.739   3.264
 7662SOL    HW223886   0.799   2.754   3.417
 7663SOL     OW23887   5.111   5.563   6.660
 7663SOL    HW123888   5.074   5.655   6.671
 7663SOL    HW223889   5.097   5.511   6.744
 7664SOL     OW23890   3.527   1.508   2.889
 7664SOL    HW123891   3.463   1.554   2.951
 7664SOL    HW223892   3.580   1.576   2.839
 7665SOL     OW23893   5.673   1.761   4.263
 7665SOL    HW123894   5.608   1.730   4.332
 7665SOL    HW223895   5.632   1.833   4.208
 7666SOL     OW23896   6.995   4.885   4.340
 7666SOL    HW123897   6.974   4.950   4.413
 7666SOL    HW223898   0.055   4.911   4.296
 7667SOL     OW23899   4.265   0.382   2.741
 7667SOL    HW123900   4.343   0.442   2.725
 7667SOL    HW223901   4.180   0.433   2.730
 7668SOL     OW23902   2.736   4.602   0.420
 7668SOL    HW123903   2.775   4.636   0.506
 7668SOL    HW223904   2.804   4.544   0.374
 7669SOL     OW23905   4.369   0.877   5.346
 7669SOL    HW123906   4.463   0.845   5.351
 7669SOL    HW223907   4.336   0.899   5.438
 7670SOL     OW23908   0.867   6.031   0.849
 7670SOL    HW123909   0.883   6.125   0.819
 7670SOL    HW223910   0.912   5.968   0.785
 7671SOL     OW23911   4.383   6.938   2.708
 7671SOL    HW123912   4.380   6.875   2.630
 7671SOL    HW223913   4.476   6.971   2.721
 7672SOL     OW23914   6.511   4.577   3.275
 7672SOL    HW123915   6.543   4.536   3.361
 7672SOL    HW223916   6.492   4.674   3.289
 7673SOL     OW23917   1.623   5.712   2.507
 7673SOL    HW123918   1.640   5.731   2.604
 7673SOL    HW223919   1.698   5.749   2.452
 7674SOL     OW23920   4.604   0.029   4.316
 7674SOL    HW123921   4.575   6.998   4.392
 7674SOL    HW223922   4.627   0.121   4.351
 7675SOL     OW23923   4.547   6.505   3.446
 7675SOL    HW123924   4.504   6.485   3.358
 7675SOL    HW223925   4.490   6.470   3.520
 7676SOL     OW23926   2.972   2.094   5.994
 7676SOL    HW123927   3.029   2.015   5.973
 7676SOL    HW223928   2.905   2.107   5.921
 7677SOL     OW23929   0.298   4.644   0.625
 7677SOL    HW123930   0.235   4.714   0.592
 7677SOL    HW223931   0.259   4.553   0.608
 7678SOL     OW23932   1.479   2.951   5.243
 7678SOL    HW123933   1.486   2.870   5.186
 7678SOL    HW223934   1.570   2.979   5.274
 7679SOL     OW23935   2.001   5.475   5.466
 7679SOL    HW123936   2.023   5.396   5.522
 7679SOL    HW223937   1.998   5.447   5.369
 7680SOL     OW23938   1.329   0.423   6.418
 7680SOL    HW123939   1.420   0.379   6.413
 7680SOL    HW223940   1.276   0.396   6.338
 7681SOL     OW23941   2.876   1.020   0.302
 7681SOL    HW123942   2.879   1.114   0.336
 7681SOL    HW223943   2.809   0.968   0.355
 7682SOL     OW23944   4.317   1.363   2.015
 7682SOL    HW123945   4.309   1.414   1.930
 7682SOL    HW223946   4.386   1.405   2.074
 7683SOL     OW23947   0.618   1.212   4.634
 7683SOL    HW123948   0.661   1.253   4.714
 7683SOL    HW223949   0.673   1.230   4.553
 7684SOL     OW23950   3.888   2.535   1.499
 7684SOL    HW123951   3.794   2.508   1.480
 7684SOL    HW223952   3.927   2.475   1.568
 7685SOL     OW23953   3.228   1.319   6.892
 7685SOL    HW123954   3.160   1.294   6.961
 7685SOL    HW223955   3.233   1.418   6.884
 7686SOL     OW23956   5.560   6.672   3.972
 7686SOL    HW123957   5.525   6.739   3.907
 7686SOL    HW223958   5.572   6.715   4.062
 7687SOL     OW23959   4.849   4.755   4.743
 7687SOL    HW123960   4.922   4.819   4.767
 7687SOL    HW223961   4.780   4.756   4.815
 7688SOL     OW23962   6.789   6.213   5.842
 7688SOL    HW123963   6.869   6.184   5.894
 7688SOL    HW223964   6.820   6.259   5.758
 7689SOL     OW23965   5.073   0.221   2.624
 7689SOL    HW123966   5.101   0.131   2.656
 7689SOL    HW223967   5.151   0.267   2.582
 7690SOL     OW23968   5.696   5.404   0.631
 7690SOL    HW123969   5.599   5.391   0.650
 7690SOL    HW223970   5.732   5.324   0.583
 7691SOL     OW23971   4.761   4.638   1.895
 7691SOL    HW123972   4.773   4.540   1.878
 7691SOL    HW223973   4.679   4.670   1.848
 7692SOL     OW23974   0.857   6.267   1.633
 7692SOL    HW123975   0.949   6.281   1.669
 7692SOL    HW223976   0.794   6.333   1.673
 7693SOL     OW23977   3.182   0.553   1.713
 7693SOL    HW123978   3.104   0.576   1.655
 7693SOL    HW223979   3.255   0.514   1.656
 7694SOL     OW23980   5.590   2.862   4.482
 7694SOL    HW123981   5.680   2.842   4.443
 7694SOL    HW223982   5.526   2.885   4.408
 7695SOL     OW23983   5.795   0.670   1.664
 7695SOL    HW123984   5.785   0.765   1.695
 7695SOL    HW223985   5.831   0.669   1.571
 7696SOL     OW23986   6.830   1.271   6.088
 7696SOL    HW123987   6.787   1.194   6.041
 7696SOL    HW223988   6.805   1.269   6.185
 7697SOL     OW23989   2.916   0.862   2.547
 7697SOL    HW123990   2.898   0.959   2.530
 7697SOL    HW223991   2.889   0.809   2.467
 7698SOL     OW23992   6.921   1.744   5.073
 7698SOL    HW123993   6.988   1.683   5.030
 7698SOL    HW223994   6.829   1.710   5.056
 7699SOL     OW23995   2.711   5.200   6.764
 7699SOL    HW123996   2.692   5.220   6.860
 7699SOL    HW223997   2.745   5.106   6.756
 7700SOL     OW23998   4.212   6.030   3.402
 7700SOL    HW123999   4.178   5.999   3.491
 7700SOL    HW224000   4.149   6.003   3.330
 7701SOL     OW24001   0.322   2.064   6.371
 7701SOL    HW124002   0.367   2.146   6.406
 7701SOL    HW224003   0.297   2.004   6.447
 7702SOL     OW24004   4.234   6.176   5.124
 7702SOL    HW124005   4.149   6.214   5.160
 7702SOL    HW224006   4.234   6.077   5.138
 7703SOL     OW24007   6.542   6.766   5.318
 7703SOL    HW124008   6.548   6.703   5.241
 7703SOL    HW224009   6.446   6.784   5.340
 7704SOL     OW24010   6.586   2.025   4.167
 7704SOL    HW124011   6.512   1.993   4.227
 7704SOL    HW224012   6.609   2.119   4.192
 7705SOL     OW24013   2.590   4.880   0.856
 7705SOL    HW124014   2.537   4.953   0.899
 7705SOL    HW224015   2.683   4.913   0.837
 7706SOL     OW24016   3.571   2.928   3.412
 7706SOL    HW124017   3.616   2.870   3.480
 7706SOL    HW224018   3.638   2.956   3.343
 7707SOL     OW24019   0.266   4.901   6.598
 7707SOL    HW124020   0.216   4.967   6.542
 7707SOL    HW224021   0.255   4.809   6.561
 7708SOL     OW24022   1.558   6.698   4.315
 7708SOL    HW124023   1.607   6.730   4.234
 7708SOL    HW224024   1.561   6.598   4.318
 7709SOL     OW24025   6.522   5.378   1.627
 7709SOL    HW124026   6.466   5.364   1.545
 7709SOL    HW224027   6.468   5.357   1.708
 7710SOL     OW24028   2.180   2.499   0.785
 7710SOL    HW124029   2.240   2.551   0.724
 7710SOL    HW224030   2.086   2.532   0.774
 7711SOL     OW24031   6.027   5.499   5.734
 7711SOL    HW124032   6.070   5.540   5.815
 7711SOL    HW224033   5.961   5.564   5.695
 7712SOL     OW24034   5.919   4.550   6.900
 7712SOL    HW124035   5.928   4.583   6.807
 7712SOL    HW224036   5.854   4.474   6.903
 7713SOL     OW24037   1.903   3.933   0.980
 7713SOL    HW124038   1.853   3.966   0.900
 7713SOL    HW224039   1.891   3.834   0.988
 7714SOL     OW24040   0.337   6.582   5.468
 7714SOL    HW124041   0.348   6.513   5.396
 7714SOL    HW224042   0.260   6.558   5.526
 7715SOL     OW24043   2.656   2.159   6.533
 7715SOL    HW124044   2.696   2.113   6.455
 7715SOL    HW224045   2.726   2.213   6.580
 7716SOL     OW24046   6.895   5.175   0.321
 7716SOL    HW124047   6.841   5.164   0.238
 7716SOL    HW224048   6.984   5.216   0.298
 7717SOL     OW24049   1.536   1.705   5.217
 7717SOL    HW124050   1.627   1.747   5.217
 7717SOL    HW224051   1.478   1.752   5.151
 7718SOL     OW24052   6.670   4.572   2.862
 7718SOL    HW124053   6.671   4.480   2.901
 7718SOL    HW224054   6.730   4.575   2.782
 7719SOL     OW24055   1.035   4.348   4.990
 7719SOL    HW124056   1.109   4.281   4.981
 7719SOL    HW224057   0.953   4.302   5.023
 7720SOL     OW24058   6.307   1.803   5.612
 7720SOL    HW124059   6.230   1.760   5.659
 7720SOL    HW224060   6.345   1.739   5.545
 7721SOL     OW24061   0.493   0.322   2.384
 7721SOL    HW124062   0.529   0.411   2.411
 7721SOL    HW224063   0.417   0.297   2.445
 7722SOL     OW24064   1.885   5.285   4.099
 7722SOL    HW124065   1.851   5.289   4.004
 7722SOL    HW224066   1.982   5.263   4.098
 7723SOL     OW24067   5.008   3.625   6.623
 7723SOL    HW124068   5.004   3.577   6.535
 7723SOL    HW224069   4.988   3.722   6.608
 7724SOL     OW24070   3.320   4.436   0.635
 7724SOL    HW124071   3.362   4.350   0.665
 7724SOL    HW224072   3.363   4.467   0.551
 7725SOL     OW24073   5.886   2.647   2.780
 7725SOL    HW124074   5.803   2.662   2.834
 7725SOL    HW224075   5.963   2.690   2.825
 7726SOL     OW24076   0.847   2.954   6.113
 7726SOL    HW124077   0.925   3.012   6.137
 7726SOL    HW224078   0.878   2.878   6.056
 7727SOL     OW24079   5.971   2.790   1.355
 7727SOL    HW124080   5.974   2.871   1.413
 7727SOL    HW224081   5.882   2.744   1.365
 7728SOL     OW24082   2.258   2.669   5.125
 7728SOL    HW124083   2.305   2.670   5.213
 7728SOL    HW224084   2.321   2.698   5.053
 7729SOL     OW24085   5.377   1.528   1.959
 7729SOL    HW124086   5.356   1.619   1.922
 7729SOL    HW224087   5.301   1.497   2.016
 7730SOL     OW24088   6.391   4.702   5.938
 7730SOL    HW124089   6.433   4.784   5.897
 7730SOL    HW224090   6.321   4.729   6.003
 7731SOL     OW24091   6.613   7.017   0.587
 7731SOL    HW124092   6.600   6.972   0.675
 7731SOL    HW224093   6.535   0.051   0.568
 7732SOL     OW24094   4.382   0.092   0.272
 7732SOL    HW124095   4.348   0.123   0.361
 7732SOL    HW224096   4.459   0.030   0.286
 7733SOL     OW24097   6.108   5.307   2.596
 7733SOL    HW124098   6.013   5.282   2.611
 7733SOL    HW224099   6.119   5.405   2.613
 7734SOL     OW24100   2.488   4.891   4.435
 7734SOL    HW124101   2.500   4.797   4.402
 7734SOL    HW224102   2.547   4.906   4.514
 7735SOL     OW24103   6.312   5.501   0.078
 7735SOL    HW124104   6.310   5.503   0.178
 7735SOL    HW224105   6.311   5.406   0.047
 7736SOL     OW24106   2.357   2.927   0.659
 7736SOL    HW124107   2.271   2.966   0.692
 7736SOL    HW224108   2.431   2.950   0.723
 7737SOL     OW24109   3.013   5.702   2.103
 7737SOL    HW124110   2.996   5.715   2.005
 7737SOL    HW224111   2.987   5.785   2.153
 7738SOL     OW24112   2.611   6.024   6.807
 7738SOL    HW124113   2.530   6.004   6.752
 7738SOL    HW224114   2.599   6.113   6.851
 7739SOL     OW24115   1.220   1.632   1.666
 7739SOL    HW124116   1.287   1.648   1.738
 7739SOL    HW224117   1.256   1.564   1.601
 7740SOL     OW24118   1.750   0.912   2.562
 7740SOL    HW124119   1.792   0.875   2.479
 7740SOL    HW224120   1.807   0.985   2.599
 7741SOL     OW24121   1.025   4.028   5.171
 7741SOL    HW124122   0.932   3.993   5.159
 7741SOL    HW224123   1.023   4.126   5.187
 7742SOL     OW24124   3.948   1.454   3.992
 7742SOL    HW124125   3.881   1.437   3.920
 7742SOL    HW224126   4.025   1.506   3.954
 7743SOL     OW24127   4.990   1.059   6.926
 7743SOL    HW124128   4.899   1.100   6.921
 7743SOL    HW224129   5.000   0.989   6.856
 7744SOL     OW24130   0.503   6.042   3.366
 7744SOL    HW124131   0.554   5.972   3.316
 7744SOL    HW224132   0.447   5.998   3.437
 7745SOL     OW24133   2.810   6.679   6.961
 7745SOL    HW124134   2.754   6.597   6.970
 7745SOL    HW224135   2.803   6.734   0.018
 7746SOL     OW24136   1.514   6.956   0.861
 7746SOL    HW124137   1.527   6.924   0.767
 7746SOL    HW224138   1.438   6.907   0.903
 7747SOL     OW24139   0.640   6.115   1.287
 7747SOL    HW124140   0.650   6.215   1.281
 7747SOL    HW224141   0.629   6.077   1.195
 7748SOL     OW24142   3.254   3.819   4.815
 7748SOL    HW124143   3.177   3.794   4.874
 7748SOL    HW224144   3.243   3.914   4.785
 7749SOL     OW24145   3.140   3.700   3.619
 7749SOL    HW124146   3.197   3.706   3.537
 7749SOL    HW224147   3.187   3.643   3.687
 7750SOL     OW24148   5.800   5.823   5.963
 7750SOL    HW124149   5.766   5.753   6.026
 7750SOL    HW224150   5.869   5.879   6.009
 7751SOL     OW24151   0.993   2.208   3.092
 7751SOL    HW124152   0.983   2.180   2.997
 7751SOL    HW224153   0.961   2.302   3.103
 7752SOL     OW24154   5.848   5.719   5.682
 7752SOL    HW124155   5.845   5.787   5.756
 7752SOL    HW224156   5.755   5.691   5.659
 7753SOL     OW24157   2.649   1.048   4.237
 7753SOL    HW124158   2.588   1.022   4.311
 7753SOL    HW224159   2.741   1.061   4.273
 7754SOL     OW24160   5.341   0.253   1.843
 7754SOL    HW124161   5.400   0.242   1.922
 7754SOL    HW224162   5.397   0.265   1.761
 7755SOL     OW24163   1.232   0.798   5.758
 7755SOL    HW124164   1.286   0.732   5.705
 7755SOL    HW224165   1.260   0.793   5.854
 7756SOL     OW24166   2.801   5.751   2.363
 7756SOL    HW124167   2.878   5.803   2.325
 7756SOL    HW224168   2.715   5.790   2.328
 7757SOL     OW24169   5.085   6.424   4.270
 7757SOL    HW124170   5.012   6.459   4.211
 7757SOL    HW224171   5.173   6.435   4.224
 7758SOL     OW24172   1.348   2.278   6.891
 7758SOL    HW124173   1.442   2.252   6.872
 7758SOL    HW224174   1.347   2.360   6.948
 7759SOL     OW24175   1.831   1.364   5.146
 7759SOL    HW124176   1.890   1.412   5.081
 7759SOL    HW224177   1.836   1.266   5.131
 7760SOL     OW24178   5.911   3.618   2.477
 7760SOL    HW124179   5.984   3.573   2.529
 7760SOL    HW224180   5.936   3.622   2.381
 7761SOL     OW24181   2.363   0.184   6.315
 7761SOL    HW124182   2.366   0.226   6.405
 7761SOL    HW224183   2.281   0.127   6.308
 7762SOL     OW24184   4.210   0.705   5.173
 7762SOL    HW124185   4.287   0.697   5.109
 7762SOL    HW224186   4.242   0.748   5.257
 7763SOL     OW24187   1.438   1.429   1.219
 7763SOL    HW124188   1.521   1.377   1.240
 7763SOL    HW224189   1.408   1.409   1.126
 7764SOL     OW24190   3.704   3.070   2.651
 7764SOL    HW124191   3.609   3.090   2.627
 7764SOL    HW224192   3.755   3.155   2.661
 7765SOL     OW24193   6.206   3.163   3.650
 7765SOL    HW124194   6.214   3.182   3.748
 7765SOL    HW224195   6.295   3.132   3.615
 7766SOL     OW24196   5.210   1.378   7.020
 7766SOL    HW124197   5.270   1.455   0.019
 7766SOL    HW224198   5.138   1.369   0.062
 7767SOL     OW24199   3.851   6.466   4.164
 7767SOL    HW124200   3.917   6.454   4.238
 7767SOL    HW224201   3.893   6.519   4.090
 7768SOL     OW24202   4.220   5.052   2.624
 7768SOL    HW124203   4.126   5.023   2.643
 7768SOL    HW224204   4.283   4.996   2.678
 7769SOL     OW24205   5.071   1.718   1.512
 7769SOL    HW124206   5.169   1.739   1.507
 7769SOL    HW224207   5.031   1.724   1.420
 7770SOL     OW24208   1.778   3.841   2.167
 7770SOL    HW124209   1.815   3.786   2.093
 7770SOL    HW224210   1.681   3.858   2.151
 7771SOL     OW24211   2.468   2.655   5.316
 7771SOL    HW124212   2.557   2.652   5.362
 7771SOL    HW224213   2.422   2.742   5.339
 7772SOL     OW24214   5.239   1.197   3.856
 7772SOL    HW124215   5.229   1.294   3.876
 7772SOL    HW224216   5.257   1.185   3.758
 7773SOL     OW24217   2.904   5.185   5.375
 7773SOL    HW124218   2.863   5.165   5.285
 7773SOL    HW224219   2.949   5.103   5.410
 7774SOL     OW24220   6.050   2.234   6.456
 7774SOL    HW124221   5.990   2.267   6.383
 7774SOL    HW224222   6.008   2.154   6.499
 7775SOL     OW24223   3.373   6.818   2.935
 7775SOL    HW124224   3.331   6.893   2.986
 7775SOL    HW224225   3.468   6.841   2.914
 7776SOL     OW24226   3.002   3.332   6.737
 7776SOL    HW124227   2.955   3.291   6.658
 7776SOL    HW224228   3.078   3.387   6.704
 7777SOL     OW24229   2.475   1.763   5.373
 7777SOL    HW124230   2.481   1.749   5.274
 7777SOL    HW224231   2.544   1.708   5.419
 7778SOL     OW24232   5.208   6.636   0.308
 7778SOL    HW124233   5.224   6.557   0.248
 7778SOL    HW224234   5.245   6.718   0.266
 7779SOL     OW24235   3.688   3.220   0.390
 7779SOL    HW124236   3.665   3.303   0.442
 7779SOL    HW224237   3.779   3.189   0.416
 7780SOL     OW24238   1.740   5.177   4.946
 7780SOL    HW124239   1.706   5.240   4.876
 7780SOL    HW224240   1.834   5.152   4.925
 7781SOL     OW24241   1.638   4.345   6.747
 7781SOL    HW124242   1.697   4.308   6.819
 7781SOL    HW224243   1.656   4.443   6.737
 7782SOL     OW24244   1.629   3.556   5.562
 7782SOL    HW124245   1.586   3.467   5.579
 7782SOL    HW224246   1.697   3.547   5.489
 7783SOL     OW24247   3.084   6.348   5.653
 7783SOL    HW124248   3.097   6.446   5.668
 7783SOL    HW224249   2.986   6.327   5.652
 7784SOL     OW24250   2.242   2.329   0.207
 7784SOL    HW124251   2.324   2.301   0.156
 7784SOL    HW224252   2.268   2.351   0.301
 7785SOL     OW24253   1.559   6.973   3.741
 7785SOL    HW124254   1.658   6.977   3.754
 7785SOL    HW224255   1.515   0.015   3.799
 7786SOL     OW24256   3.437   5.613   6.023
 7786SOL    HW124257   3.389   5.580   6.104
 7786SOL    HW224258   3.532   5.633   6.047
 7787SOL     OW24259   1.822   3.522   5.366
 7787SOL    HW124260   1.883   3.477   5.432
 7787SOL    HW224261   1.874   3.587   5.310
 7788SOL     OW24262   1.698   0.272   1.574
 7788SOL    HW124263   1.681   0.182   1.533
 7788SOL    HW224264   1.629   0.337   1.544
 7789SOL     OW24265   3.700   6.732   0.348
 7789SOL    HW124266   3.753   6.669   0.291
 7789SOL    HW224267   3.722   6.716   0.444
 7790SOL     OW24268   5.857   5.124   2.290
 7790SOL    HW124269   5.880   5.078   2.376
 7790SOL    HW224270   5.798   5.064   2.236
 7791SOL     OW24271   2.962   6.638   3.911
 7791SOL    HW124272   3.016   6.614   3.991
 7791SOL    HW224273   2.871   6.598   3.918
 7792SOL     OW24274   0.811   5.644   6.017
 7792SOL    HW124275   0.904   5.681   6.020
 7792SOL    HW224276   0.785   5.625   5.922
 7793SOL     OW24277   1.679   0.496   5.896
 7793SOL    HW124278   1.645   0.470   5.805
 7793SOL    HW224279   1.778   0.506   5.893
 7794SOL     OW24280   4.793   5.222   3.440
 7794SOL    HW124281   4.866   5.283   3.470
 7794SOL    HW224282   4.726   5.213   3.514
 7795SOL     OW24283   1.862   3.758   4.931
 7795SOL    HW124284   1.935   3.825   4.917
 7795SOL    HW224285   1.773   3.804   4.923
 7796SOL     OW24286   3.069   3.890   4.300
 7796SOL    HW124287   3.136   3.964   4.309
 7796SOL    HW224288   3.028   3.892   4.209
 7797SOL     OW24289   0.916   5.942   2.757
 7797SOL    HW124290   0.859   6.022   2.739
 7797SOL    HW224291   0.866   5.859   2.731
 7798SOL     OW24292   1.278   5.104   6.445
 7798SOL    HW124293   1.269   5.191   6.492
 7798SOL    HW224294   1.211   5.099   6.371
 7799SOL     OW24295   6.931   6.293   1.900
 7799SOL    HW124296   6.931   6.287   2.000
 7799SOL    HW224297   7.012   6.342   1.869
 7800SOL     OW24298   1.221   5.091   0.760
 7800SOL    HW124299   1.204   5.143   0.844
 7800SOL    HW224300   1.211   5.152   0.681
 7801SOL     OW24301   2.536   1.923   1.510
 7801SOL    HW124302   2.576   1.869   1.436
 7801SOL    HW224303   2.436   1.923   1.501
 7802SOL     OW24304   5.260   2.267   1.356
 7802SOL    HW124305   5.192   2.333   1.388
 7802SOL    HW224306   5.344   2.315   1.330
 7803SOL     OW24307   4.443   3.158   5.710
 7803SOL    HW124308   4.537   3.135   5.684
 7803SOL    HW224309   4.409   3.229   5.648
 7804SOL     OW24310   6.479   1.252   3.545
 7804SOL    HW124311   6.524   1.341   3.546
 7804SOL    HW224312   6.381   1.265   3.529
 7805SOL     OW24313   5.518   1.083   1.524
 7805SOL    HW124314   5.514   1.176   1.487
 7805SOL    HW224315   5.545   1.020   1.451
 7806SOL     OW24316   5.756   2.439   6.008
 7806SOL    HW124317   5.714   2.372   5.946
 7806SOL    HW224318   5.734   2.531   5.976
 7807SOL     OW24319   0.389   5.062   6.080
 7807SOL    HW124320   0.488   5.053   6.087
 7807SOL    HW224321   0.345   4.992   6.136
 7808SOL     OW24322   0.366   2.731   4.348
 7808SOL    HW124323   0.319   2.673   4.415
 7808SOL    HW224324   0.429   2.674   4.295
 7809SOL     OW24325   2.409   6.103   4.727
 7809SOL    HW124326   2.318   6.143   4.738
 7809SOL    HW224327   2.425   6.084   4.630
 7810SOL     OW24328   3.375   0.105   5.397
 7810SOL    HW124329   3.409   0.026   5.448
 7810SOL    HW224330   3.420   0.188   5.430
 7811SOL     OW24331   0.072   4.636   4.101
 7811SOL    HW124332   0.133   4.670   4.029
 7811SOL    HW224333   0.060   4.706   4.171
 7812SOL     OW24334   1.278   1.996   4.138
 7812SOL    HW124335   1.262   1.931   4.212
 7812SOL    HW224336   1.254   1.954   4.050
 7813SOL     OW24337   4.260   2.247   6.101
 7813SOL    HW124338   4.234   2.326   6.045
 7813SOL    HW224339   4.269   2.275   6.197
 7814SOL     OW24340   6.879   3.588   3.529
 7814SOL    HW124341   6.896   3.686   3.529
 7814SOL    HW224342   6.786   3.570   3.559
 7815SOL     OW24343   5.049   0.587   0.054
 7815SOL    HW124344   5.100   0.541   0.128
 7815SOL    HW224345   4.975   0.640   0.094
 7816SOL     OW24346   1.419   2.520   6.507
 7816SOL    HW124347   1.463   2.492   6.422
 7816SOL    HW224348   1.486   2.564   6.566
 7817SOL     OW24349   6.257   3.841   4.003
 7817SOL    HW124350   6.333   3.790   4.043
 7817SOL    HW224351   6.170   3.804   4.038
 7818SOL     OW24352   4.380   0.864   3.143
 7818SOL    HW124353   4.374   0.855   3.044
 7818SOL    HW224354   4.473   0.893   3.169
 7819SOL     OW24355   6.676   3.260   1.900
 7819SOL    HW124356   6.656   3.296   1.809
 7819SOL    HW224357   6.765   3.214   1.899
 7820SOL     OW24358   1.532   2.257   4.578
 7820SOL    HW124359   1.578   2.204   4.506
 7820SOL    HW224360   1.497   2.194   4.648
 7821SOL     OW24361   4.882   6.183   1.194
 7821SOL    HW124362   4.856   6.108   1.256
 7821SOL    HW224363   4.964   6.156   1.143
 7822SOL     OW24364   0.223   0.398   5.501
 7822SOL    HW124365   0.161   0.399   5.423
 7822SOL    HW224366   0.315   0.372   5.470
 7823SOL     OW24367   2.236   3.854   5.296
 7823SOL    HW124368   2.153   3.909   5.291
 7823SOL    HW224369   2.310   3.901   5.249
 7824SOL     OW24370   6.248   2.029   4.954
 7824SOL    HW124371   6.216   2.121   4.936
 7824SOL    HW224372   6.281   2.023   5.049
 7825SOL     OW24373   1.540   3.138   0.578
 7825SOL    HW124374   1.541   3.039   0.567
 7825SOL    HW224375   1.528   3.160   0.675
 7826SOL     OW24376   5.847   1.243   1.352
 7826SOL    HW124377   5.760   1.247   1.401
 7826SOL    HW224378   5.879   1.336   1.335
 7827SOL     OW24379   2.059   5.877   1.168
 7827SOL    HW124380   2.100   5.828   1.091
 7827SOL    HW224381   2.131   5.908   1.230
 7828SOL     OW24382   6.456   4.641   0.319
 7828SOL    HW124383   6.552   4.622   0.296
 7828SOL    HW224384   6.431   4.732   0.285
 7829SOL     OW24385   2.667   3.434   1.008
 7829SOL    HW124386   2.697   3.341   1.030
 7829SOL    HW224387   2.572   3.447   1.038
 7830SOL     OW24388   3.239   5.105   5.437
 7830SOL    HW124389   3.282   5.082   5.350
 7830SOL    HW224390   3.209   5.201   5.434
 7831SOL     OW24391   1.857   0.129   1.784
 7831SOL    HW124392   1.948   0.091   1.765
 7831SOL    HW224393   1.817   0.164   1.699
 7832SOL     OW24394   6.513   0.701   4.638
 7832SOL    HW124395   6.545   0.737   4.725
 7832SOL    HW224396   6.416   0.724   4.627
 7833SOL     OW24397   1.217   1.082   4.836
 7833SOL    HW124398   1.309   1.043   4.833
 7833SOL    HW224399   1.186   1.102   4.743
 7834SOL     OW24400   6.931   1.593   3.456
 7834SOL    HW124401   7.016   1.576   3.406
 7834SOL    HW224402   6.859   1.619   3.391
 7835SOL     OW24403   4.257   1.840   5.137
 7835SOL    HW124404   4.162   1.811   5.144
 7835SOL    HW224405   4.279   1.901   5.213
 7836SOL     OW24406   3.251   4.248   5.341
 7836SOL    HW124407   3.211   4.339   5.330
 7836SOL    HW224408   3.235   4.195   5.258
 7837SOL     OW24409   4.938   5.735   6.841
 7837SOL    HW124410   5.028   5.719   6.882
 7837SOL    HW224411   4.923   5.833   6.830
 7838SOL     OW24412   4.278   6.602   1.453
 7838SOL    HW124413   4.220   6.605   1.534
 7838SOL    HW224414   4.239   6.539   1.385
 7839SOL     OW24415   6.492   4.381   5.036
 7839SOL    HW124416   6.498   4.290   4.995
 7839SOL    HW224417   6.549   4.384   5.118
 7840SOL     OW24418   0.338   3.297   4.277
 7840SOL    HW124419   0.278   3.290   4.196
 7840SOL    HW224420   0.314   3.224   4.341
 7841SOL     OW24421   4.256   1.596   6.715
 7841SOL    HW124422   4.199   1.571   6.793
 7841SOL    HW224423   4.341   1.638   6.747
 7842SOL     OW24424   1.797   1.224   2.297
 7842SOL    HW124425   1.799   1.129   2.267
 7842SOL    HW224426   1.839   1.282   2.227
 7843SOL     OW24427   0.186   6.582   3.588
 7843SOL    HW124428   0.144   6.613   3.503
 7843SOL    HW224429   0.284   6.602   3.587
 7844SOL     OW24430   3.480   0.836   2.926
 7844SOL    HW124431   3.496   0.929   2.892
 7844SOL    HW224432   3.406   0.793   2.874
 7845SOL     OW24433   5.065   1.784   2.320
 7845SOL    HW124434   4.996   1.712   2.322
 7845SOL    HW224435   5.030   1.865   2.367
 7846SOL     OW24436   0.810   2.542   1.622
 7846SOL    HW124437   0.731   2.509   1.675
 7846SOL    HW224438   0.883   2.473   1.625
 7847SOL     OW24439   6.473   1.353   3.264
 7847SOL    HW124440   6.416   1.271   3.275
 7847SOL    HW224441   6.553   1.346   3.323
 7848SOL     OW24442   2.836   4.619   1.164
 7848SOL    HW124443   2.801   4.611   1.257
 7848SOL    HW224444   2.766   4.590   1.099
 7849SOL     OW24445   6.125   4.159   4.830
 7849SOL    HW124446   6.100   4.255   4.842
 7849SOL    HW224447   6.222   4.153   4.804
 7850SOL     OW24448   0.703   1.934   3.811
 7850SOL    HW124449   0.624   1.925   3.873
 7850SOL    HW224450   0.781   1.885   3.850
 7851SOL     OW24451   0.170   2.305   1.595
 7851SOL    HW124452   0.158   2.392   1.642
 7851SOL    HW224453   0.244   2.312   1.529
 7852SOL     OW24454   3.018   0.869   0.524
 7852SOL    HW124455   3.015   0.877   0.424
 7852SOL    HW224456   3.110   0.845   0.553
 7853SOL     OW24457   4.891   2.866   1.434
 7853SOL    HW124458   4.990   2.878   1.442
 7853SOL    HW224459   4.863   2.783   1.482
 7854SOL     OW24460   3.239   2.429   5.806
 7854SOL    HW124461   3.164   2.467   5.752
 7854SOL    HW224462   3.277   2.501   5.865
 7855SOL     OW24463   4.396   6.042   4.714
 7855SOL    HW124464   4.332   5.987   4.768
 7855SOL    HW224465   4.354   6.068   4.628
 7856SOL     OW24466   0.412   5.324   5.127
 7856SOL    HW124467   0.508   5.312   5.103
 7856SOL    HW224468   0.362   5.239   5.110
 7857SOL     OW24469   4.899   3.179   0.696
 7857SOL    HW124470   4.890   3.139   0.787
 7857SOL    HW224471   4.985   3.149   0.655
 7858SOL     OW24472   6.689   6.982   5.055
 7858SOL    HW124473   6.736   6.903   5.017
 7858SOL    HW224474   6.735   0.039   5.024
 7859SOL     OW24475   4.487   3.692   0.357
 7859SOL    HW124476   4.583   3.678   0.381
 7859SOL    HW224477   4.432   3.691   0.440
 7860SOL     OW24478   4.555   1.013   4.675
 7860SOL    HW124479   4.514   0.937   4.624
 7860SOL    HW224480   4.610   0.977   4.750
 7861SOL     OW24481   2.689   5.029   1.722
 7861SOL    HW124482   2.665   5.115   1.768
 7861SOL    HW224483   2.788   5.024   1.711
 7862SOL     OW24484   1.650   5.781   2.781
 7862SOL    HW124485   1.595   5.775   2.864
 7862SOL    HW224486   1.747   5.772   2.804
 7863SOL     OW24487   0.670   4.540   4.034
 7863SOL    HW124488   0.738   4.504   4.097
 7863SOL    HW224489   0.694   4.634   4.008
 7864SOL     OW24490   1.340   5.517   5.825
 7864SOL    HW124491   1.393   5.441   5.787
 7864SOL    HW224492   1.314   5.494   5.919
 7865SOL     OW24493   6.309   5.636   4.388
 7865SOL    HW124494   6.272   5.577   4.316
 7865SOL    HW224495   6.236   5.661   4.451
 7866SOL     OW24496   1.028   0.703   5.256
 7866SOL    HW124497   1.071   0.668   5.340
 7866SOL    HW224498   0.954   0.642   5.229
 7867SOL     OW24499   5.608   6.813   3.368
 7867SOL    HW124500   5.644   6.819   3.274
 7867SOL    HW224501   5.519   6.857   3.373
 7868SOL     OW24502   4.726   6.053   0.908
 7868SOL    HW124503   4.807   6.004   0.939
 7868SOL    HW224504   4.653   6.041   0.976
 7869SOL     OW24505   5.277   4.426   5.840
 7869SOL    HW124506   5.205   4.495   5.847
 7869SOL    HW224507   5.240   4.343   5.799
 7870SOL     OW24508   4.961   6.610   4.702
 7870SOL    HW124509   4.870   6.645   4.678
 7870SOL    HW224510   4.952   6.515   4.733
 7871SOL     OW24511   4.891   2.417   2.124
 7871SOL    HW124512   4.798   2.449   2.110
 7871SOL    HW224513   4.929   2.386   2.036
 7872SOL     OW24514   1.852   3.803   2.434
 7872SOL    HW124515   1.827   3.799   2.337
 7872SOL    HW224516   1.787   3.750   2.488
 7873SOL     OW24517   6.245   0.078   0.552
 7873SOL    HW124518   6.311   0.077   0.477
 7873SOL    HW224519   6.243   7.015   0.596
 7874SOL     OW24520   4.341   2.432   1.116
 7874SOL    HW124521   4.416   2.423   1.182
 7874SOL    HW224522   4.304   2.525   1.119
 7875SOL     OW24523   3.808   2.916   0.286
 7875SOL    HW124524   3.758   2.952   0.365
 7875SOL    HW224525   3.814   2.986   0.216
 7876SOL     OW24526   1.363   6.408   3.442
 7876SOL    HW124527   1.282   6.419   3.385
 7876SOL    HW224528   1.340   6.426   3.537
 7877SOL     OW24529   6.996   1.507   2.814
 7877SOL    HW124530   0.038   1.524   2.742
 7877SOL    HW224531   6.922   1.451   2.777
 7878SOL     OW24532   4.880   4.165   3.714
 7878SOL    HW124533   4.851   4.260   3.719
 7878SOL    HW224534   4.872   4.132   3.619
 7879SOL     OW24535   3.685   5.329   2.527
 7879SOL    HW124536   3.623   5.310   2.603
 7879SOL    HW224537   3.631   5.352   2.446
 7880SOL     OW24538   2.331   3.753   0.835
 7880SOL    HW124539   2.309   3.828   0.773
 7880SOL    HW224540   2.363   3.674   0.781
 7881SOL     OW24541   4.847   4.059   4.336
 7881SOL    HW124542   4.850   3.962   4.360
 7881SOL    HW224543   4.863   4.114   4.418
 7882SOL     OW24544   1.906   3.596   1.635
 7882SOL    HW124545   1.947   3.521   1.584
 7882SOL    HW224546   1.965   3.618   1.713
 7883SOL     OW24547   0.997   0.555   5.895
 7883SOL    HW124548   1.070   0.562   5.964
 7883SOL    HW224549   1.006   0.629   5.829
 7884SOL     OW24550   0.926   3.736   4.312
 7884SOL    HW124551   0.916   3.706   4.217
 7884SOL    HW224552   0.865   3.682   4.371
 7885SOL     OW24553   7.004   5.839   0.946
 7885SOL    HW124554   0.016   5.861   0.857
 7885SOL    HW224555   6.910   5.874   0.952
 7886SOL     OW24556   4.324   5.855   0.062
 7886SOL    HW124557   4.254   5.910   0.109
 7886SOL    HW224558   4.348   5.777   0.119
 7887SOL     OW24559   3.602   1.974   6.809
 7887SOL    HW124560   3.596   2.037   6.732
 7887SOL    HW224561   3.678   2.000   6.868
 7888SOL     OW24562   6.183   0.460   4.535
 7888SOL    HW124563   6.133   0.378   4.562
 7888SOL    HW224564   6.120   0.526   4.496
 7889SOL     OW24565   1.677   4.938   1.267
 7889SOL    HW124566   1.737   4.859   1.282
 7889SOL    HW224567   1.585   4.916   1.300
 7890SOL     OW24568   1.727   3.879   2.750
 7890SOL    HW124569   1.704   3.973   2.776
 7890SOL    HW224570   1.695   3.816   2.821
 7891SOL     OW24571   1.616   4.191   2.918
 7891SOL    HW124572   1.600   4.264   2.984
 7891SOL    HW224573   1.651   4.110   2.965
 7892SOL     OW24574   2.030   2.530   4.214
 7892SOL    HW124575   1.963   2.560   4.281
 7892SOL    HW224576   2.006   2.438   4.181
 7893SOL     OW24577   6.213   6.809   2.574
 7893SOL    HW124578   6.309   6.835   2.564
 7893SOL    HW224579   6.161   6.840   2.494
 7894SOL     OW24580   2.695   6.194   1.643
 7894SOL    HW124581   2.647   6.109   1.663
 7894SOL    HW224582   2.650   6.270   1.691
 7895SOL     OW24583   6.509   1.308   5.859
 7895SOL    HW124584   6.593   1.257   5.881
 7895SOL    HW224585   6.528   1.406   5.861
 7896SOL     OW24586   4.881   4.457   6.615
 7896SOL    HW124587   4.964   4.404   6.632
 7896SOL    HW224588   4.891   4.507   6.529
 7897SOL     OW24589   2.818   3.794   6.183
 7897SOL    HW124590   2.783   3.833   6.269
 7897SOL    HW224591   2.759   3.822   6.107
 7898SOL     OW24592   5.449   2.140   3.571
 7898SOL    HW124593   5.480   2.103   3.483
 7898SOL    HW224594   5.434   2.065   3.635
 7899SOL     OW24595   6.582   1.480   1.871
 7899SOL    HW124596   6.622   1.390   1.891
 7899SOL    HW224597   6.652   1.551   1.882
 7900SOL     OW24598   1.197   4.824   0.780
 7900SOL    HW124599   1.195   4.787   0.873
 7900SOL    HW224600   1.183   4.923   0.783
 7901SOL     OW24601   4.727   0.442   6.601
 7901SOL    HW124602   4.630   0.453   6.581
 7901SOL    HW224603   4.761   0.524   6.649
 7902SOL     OW24604   5.177   5.117   1.610
 7902SOL    HW124605   5.139   5.084   1.696
 7902SOL    HW224606   5.120   5.085   1.534
 7903SOL     OW24607   6.157   2.348   0.727
 7903SOL    HW124608   6.093   2.423   0.709
 7903SOL    HW224609   6.228   2.379   0.789
 7904SOL     OW24610   6.290   0.689   2.888
 7904SOL    HW124611   6.295   0.787   2.904
 7904SOL    HW224612   6.234   0.646   2.959
 7905SOL     OW24613   4.553   1.692   0.101
 7905SOL    HW124614   4.544   1.702   0.201
 7905SOL    HW224615   4.648   1.707   0.075
 7906SOL     OW24616   0.550   5.518   0.100
 7906SOL    HW124617   0.464   5.484   0.140
 7906SOL    HW224618   0.529   5.580   0.025
 7907SOL     OW24619   6.104   2.238   4.575
 7907SOL    HW124620   6.159   2.177   4.518
 7907SOL    HW224621   6.065   2.186   4.651
 7908SOL     OW24622   1.436   1.695   4.384
 7908SOL    HW124623   1.466   1.757   4.457
 7908SOL    HW224624   1.457   1.601   4.409
 7909SOL     OW24625   5.186   3.759   4.696
 7909SOL    HW124626   5.161   3.782   4.790
 7909SOL    HW224627   5.276   3.798   4.675
 7910SOL     OW24628   3.258   3.113   6.027
 7910SOL    HW124629   3.203   3.109   6.111
 7910SOL    HW224630   3.211   3.169   5.959
 7911SOL     OW24631   0.304   4.119   6.386
 7911SOL    HW124632   0.357   4.047   6.340
 7911SOL    HW224633   0.320   4.206   6.340
 7912SOL     OW24634   0.326   5.109   0.375
 7912SOL    HW124635   0.320   5.077   0.469
 7912SOL    HW224636   0.403   5.172   0.366
 7913SOL     OW24637   0.578   5.192   0.339
 7913SOL    HW124638   0.622   5.103   0.334
 7913SOL    HW224639   0.614   5.251   0.267
 7914SOL     OW24640   0.171   5.369   6.387
 7914SOL    HW124641   0.180   5.397   6.291
 7914SOL    HW224642   0.077   5.342   6.405
 7915SOL     OW24643   4.936   2.491   2.401
 7915SOL    HW124644   4.921   2.463   2.306
 7915SOL    HW224645   4.874   2.567   2.424
 7916SOL     OW24646   5.788   3.900   5.180
 7916SOL    HW124647   5.866   3.930   5.127
 7916SOL    HW224648   5.756   3.811   5.146
 7917SOL     OW24649   3.893   3.100   3.939
 7917SOL    HW124650   3.976   3.145   3.971
 7917SOL    HW224651   3.861   3.035   4.008
 7918SOL     OW24652   6.926   1.432   0.837
 7918SOL    HW124653   7.000   1.369   0.862
 7918SOL    HW224654   6.864   1.443   0.916
 7919SOL     OW24655   0.174   4.572   3.554
 7919SOL    HW124656   0.075   4.566   3.550
 7919SOL    HW224657   0.212   4.549   3.464
 7920SOL     OW24658   0.174   5.112   1.491
 7920SOL    HW124659   0.147   5.115   1.588
 7920SOL    HW224660   0.271   5.090   1.484
 7921SOL     OW24661   3.654   5.821   0.220
 7921SOL    HW124662   3.734   5.789   0.170
 7921SOL    HW224663   3.682   5.882   0.294
 7922SOL     OW24664   6.832   5.870   0.386
 7922SOL    HW124665   6.858   5.950   0.332
 7922SOL    HW224666   6.768   5.898   0.458
 7923SOL     OW24667   2.358   0.410   2.707
 7923SOL    HW124668   2.434   0.472   2.729
 7923SOL    HW224669   2.297   0.454   2.642
 7924SOL     OW24670   3.810   6.574   3.175
 7924SOL    HW124671   3.790   6.579   3.272
 7924SOL    HW224672   3.738   6.523   3.128
 7925SOL     OW24673   0.228   2.078   6.752
 7925SOL    HW124674   0.276   2.038   6.673
 7925SOL    HW224675   0.294   2.101   6.823
 7926SOL     OW24676   4.645   1.233   4.248
 7926SOL    HW124677   4.694   1.284   4.319
 7926SOL    HW224678   4.632   1.138   4.279
 7927SOL     OW24679   3.871   5.761   5.156
 7927SOL    HW124680   3.900   5.735   5.248
 7927SOL    HW224681   3.805   5.835   5.161
 7928SOL     OW24682   0.911   4.162   3.810
 7928SOL    HW124683   0.817   4.161   3.845
 7928SOL    HW224684   0.970   4.211   3.875
 7929SOL     OW24685   3.996   3.834   5.039
 7929SOL    HW124686   3.981   3.835   4.940
 7929SOL    HW224687   3.998   3.928   5.074
 7930SOL     OW24688   4.787   5.813   3.899
 7930SOL    HW124689   4.745   5.737   3.949
 7930SOL    HW224690   4.718   5.882   3.879
 7931SOL     OW24691   2.191   2.110   6.748
 7931SOL    HW124692   2.285   2.102   6.715
 7931SOL    HW224693   2.179   2.197   6.797
 7932SOL     OW24694   2.631   6.553   0.194
 7932SOL    HW124695   2.679   6.538   0.281
 7932SOL    HW224696   2.551   6.611   0.210
 7933SOL     OW24697   6.877   6.881   0.250
 7933SOL    HW124698   6.795   6.850   0.202
 7933SOL    HW224699   6.854   6.901   0.346
 7934SOL     OW24700   2.422   3.953   6.914
 7934SOL    HW124701   2.425   4.021   6.841
 7934SOL    HW224702   2.364   3.987   6.988
 7935SOL     OW24703   5.452   5.352   0.219
 7935SOL    HW124704   5.551   5.349   0.233
 7935SOL    HW224705   5.415   5.260   0.224
 7936SOL     OW24706   3.516   5.401   2.316
 7936SOL    HW124707   3.589   5.429   2.254
 7936SOL    HW224708   3.471   5.482   2.354
 7937SOL     OW24709   5.441   6.820   3.769
 7937SOL    HW124710   5.472   6.729   3.743
 7937SOL    HW224711   5.358   6.813   3.824
 7938SOL     OW24712   5.736   4.850   4.741
 7938SOL    HW124713   5.655   4.907   4.723
 7938SOL    HW224714   5.717   4.756   4.712
 7939SOL     OW24715   0.965   1.808   6.178
 7939SOL    HW124716   1.015   1.762   6.252
 7939SOL    HW224717   0.945   1.902   6.205
 7940SOL     OW24718   2.262   5.000   2.163
 7940SOL    HW124719   2.198   4.922   2.160
 7940SOL    HW224720   2.252   5.048   2.251
 7941SOL     OW24721   6.564   0.061   1.288
 7941SOL    HW124722   6.659   0.030   1.297
 7941SOL    HW224723   6.541   0.067   1.191
 7942SOL     OW24724   6.808   6.366   2.702
 7942SOL    HW124725   6.734   6.338   2.763
 7942SOL    HW224726   6.838   6.458   2.728
 7943SOL     OW24727   5.734   1.917   0.742
 7943SOL    HW124728   5.656   1.880   0.691
 7943SOL    HW224729   5.806   1.942   0.678
 7944SOL     OW24730   0.138   2.995   0.430
 7944SOL    HW124731   0.110   3.062   0.498
 7944SOL    HW224732   0.087   2.910   0.444
 7945SOL     OW24733   5.536   0.208   2.693
 7945SOL    HW124734   5.449   0.211   2.643
 7945SOL    HW224735   5.585   0.294   2.679
 7946SOL     OW24736   1.911   2.774   5.595
 7946SOL    HW124737   1.819   2.766   5.634
 7946SOL    HW224738   1.927   2.697   5.533
 7947SOL     OW24739   4.195   2.650   0.076
 7947SOL    HW124740   4.097   2.642   0.055
 7947SOL    HW224741   4.247   2.647   7.017
 7948SOL     OW24742   6.868   6.638   1.565
 7948SOL    HW124743   6.782   6.626   1.615
 7948SOL    HW224744   6.945   6.619   1.626
 7949SOL     OW24745   4.758   4.665   4.066
 7949SOL    HW124746   4.722   4.700   3.979
 7949SOL    HW224747   4.692   4.602   4.106
 7950SOL     OW24748   4.938   5.413   3.615
 7950SOL    HW124749   4.857   5.453   3.657
 7950SOL    HW224750   5.013   5.478   3.619
 7951SOL     OW24751   2.917   3.496   0.828
 7951SOL    HW124752   2.885   3.501   0.733
 7951SOL    HW224753   2.839   3.494   0.889
 7952SOL     OW24754   0.133   2.865   6.708
 7952SOL    HW124755   0.229   2.878   6.683
 7952SOL    HW224756   0.127   2.800   6.784
 7953SOL     OW24757   2.066   2.721   2.969
 7953SOL    HW124758   1.987   2.698   2.912
 7953SOL    HW224759   2.038   2.786   3.040
 7954SOL     OW24760   4.780   5.150   5.350
 7954SOL    HW124761   4.770   5.158   5.449
 7954SOL    HW224762   4.709   5.204   5.305
 7955SOL     OW24763   0.646   6.585   6.183
 7955SOL    HW124764   0.704   6.654   6.141
 7955SOL    HW224765   0.639   6.602   6.281
 7956SOL     OW24766   0.805   5.491   3.385
 7956SOL    HW124767   0.731   5.501   3.452
 7956SOL    HW224768   0.890   5.528   3.424
 7957SOL     OW24769   2.222   1.594   0.664
 7957SOL    HW124770   2.299   1.541   0.698
 7957SOL    HW224771   2.236   1.691   0.686
 7958SOL     OW24772   3.602   5.659   4.277
 7958SOL    HW124773   3.527   5.600   4.305
 7958SOL    HW224774   3.566   5.747   4.246
 7959SOL     OW24775   4.157   5.447   0.684
 7959SOL    HW124776   4.231   5.510   0.706
 7959SOL    HW224777   4.117   5.412   0.769
 7960SOL     OW24778   3.492   1.858   0.913
 7960SOL    HW124779   3.465   1.952   0.934
 7960SOL    HW224780   3.569   1.858   0.850
 7961SOL     OW24781   1.927   5.624   6.486
 7961SOL    HW124782   1.992   5.611   6.411
 7961SOL    HW224783   1.972   5.604   6.573
 7962SOL     OW24784   2.248   0.466   0.097
 7962SOL    HW124785   2.175   0.503   0.155
 7962SOL    HW224786   2.315   0.418   0.154
 7963SOL     OW24787   6.516   1.355   4.231
 7963SOL    HW124788   6.441   1.414   4.201
 7963SOL    HW224789   6.487   1.304   4.312
 7964SOL     OW24790   6.164   4.715   3.658
 7964SOL    HW124791   6.249   4.768   3.657
 7964SOL    HW224792   6.175   4.632   3.604
 7965SOL     OW24793   3.973   2.616   7.001
 7965SOL    HW124794   3.950   2.655   6.911
 7965SOL    HW224795   3.903   2.642   0.041
 7966SOL     OW24796   0.888   3.675   5.003
 7966SOL    HW124797   0.843   3.628   5.079
 7966SOL    HW224798   0.971   3.719   5.034
 7967SOL     OW24799   3.213   6.398   4.147
 7967SOL    HW124800   3.283   6.327   4.139
 7967SOL    HW224801   3.122   6.356   4.145
 7968SOL     OW24802   2.174   3.036   2.994
 7968SOL    HW124803   2.106   3.020   2.923
 7968SOL    HW224804   2.176   3.133   3.017
 7969SOL     OW24805   4.670   0.513   1.969
 7969SOL    HW124806   4.617   0.591   2.001
 7969SOL    HW224807   4.768   0.533   1.975
 7970SOL     OW24808   0.222   3.970   2.956
 7970SOL    HW124809   0.274   3.885   2.949
 7970SOL    HW224810   0.126   3.951   2.932
 7971SOL     OW24811   2.932   1.881   1.504
 7971SOL    HW124812   3.014   1.935   1.486
 7971SOL    HW224813   2.851   1.939   1.494
 7972SOL     OW24814   6.917   4.295   1.126
 7972SOL    HW124815   6.913   4.338   1.216
 7972SOL    HW224816   6.891   4.363   1.056
 7973SOL     OW24817   5.057   3.139   2.898
 7973SOL    HW124818   5.130   3.100   2.841
 7973SOL    HW224819   5.049   3.237   2.879
 7974SOL     OW24820   6.132   0.469   5.002
 7974SOL    HW124821   6.195   0.491   4.928
 7974SOL    HW224822   6.181   0.416   5.072
 7975SOL     OW24823   5.458   0.344   3.885
 7975SOL    HW124824   5.428   0.425   3.835
 7975SOL    HW224825   5.526   0.294   3.831
 7976SOL     OW24826   0.773   0.182   6.021
 7976SOL    HW124827   0.720   0.265   6.038
 7976SOL    HW224828   0.786   0.133   6.107
 7977SOL     OW24829   4.469   6.065   2.416
 7977SOL    HW124830   4.410   6.098   2.342
 7977SOL    HW224831   4.418   6.066   2.502
 7978SOL     OW24832   5.735   4.108   6.166
 7978SOL    HW124833   5.677   4.097   6.247
 7978SOL    HW224834   5.830   4.094   6.192
 7979SOL     OW24835   2.670   0.330   5.209
 7979SOL    HW124836   2.606   0.399   5.175
 7979SOL    HW224837   2.755   0.335   5.157
 7980SOL     OW24838   3.866   5.715   0.034
 7980SOL    HW124839   3.925   5.655   0.088
 7980SOL    HW224840   3.901   5.808   0.039
 7981SOL     OW24841   0.992   5.925   1.913
 7981SOL    HW124842   1.082   5.903   1.949
 7981SOL    HW224843   0.972   5.866   1.834
 7982SOL     OW24844   6.708   1.691   0.742
 7982SOL    HW124845   6.655   1.774   0.725
 7982SOL    HW224846   6.802   1.705   0.712
 7983SOL     OW24847   5.236   2.024   2.970
 7983SOL    HW124848   5.309   1.967   2.934
 7983SOL    HW224849   5.216   2.098   2.906
 7984SOL     OW24850   1.362   1.473   1.486
 7984SOL    HW124851   1.380   1.435   1.396
 7984SOL    HW224852   1.366   1.400   1.555
 7985SOL     OW24853   2.016   6.644   3.179
 7985SOL    HW124854   2.078   6.713   3.144
 7985SOL    HW224855   1.974   6.595   3.102
 7986SOL     OW24856   3.282   1.120   0.177
 7986SOL    HW124857   3.219   1.177   0.230
 7986SOL    HW224858   3.357   1.175   0.143
 7987SOL     OW24859   0.292   3.790   6.636
 7987SOL    HW124860   0.266   3.885   6.654
 7987SOL    HW224861   0.271   3.767   6.541
 7988SOL     OW24862   2.297   2.471   4.204
 7988SOL    HW124863   2.202   2.493   4.227
 7988SOL    HW224864   2.356   2.547   4.231
 7989SOL     OW24865   3.266   2.531   5.495
 7989SOL    HW124866   3.304   2.522   5.587
 7989SOL    HW224867   3.274   2.444   5.446
 7990SOL     OW24868   0.450   3.815   3.566
 7990SOL    HW124869   0.357   3.826   3.531
 7990SOL    HW224870   0.452   3.743   3.636
 7991SOL     OW24871   6.567   1.752   5.322
 7991SOL    HW124872   6.580   1.842   5.279
 7991SOL    HW224873   6.623   1.746   5.404
 7992SOL     OW24874   1.544   6.507   1.012
 7992SOL    HW124875   1.531   6.467   1.102
 7992SOL    HW224876   1.631   6.557   1.010
 7993SOL     OW24877   1.758   5.780   6.325
 7993SOL    HW124878   1.803   5.787   6.236
 7993SOL    HW224879   1.806   5.714   6.382
 7994SOL     OW24880   4.633   0.481   3.720
 7994SOL    HW124881   4.571   0.413   3.679
 7994SOL    HW224882   4.630   0.472   3.819
 7995SOL     OW24883   4.173   5.413   3.346
 7995SOL    HW124884   4.141   5.332   3.395
 7995SOL    HW224885   4.199   5.387   3.253
 7996SOL     OW24886   2.986   6.506   4.502
 7996SOL    HW124887   2.992   6.408   4.481
 7996SOL    HW224888   2.929   6.518   4.583
 7997SOL     OW24889   0.176   1.629   1.045
 7997SOL    HW124890   0.139   1.651   0.954
 7997SOL    HW224891   0.110   1.574   1.095
 7998SOL     OW24892   4.316   5.657   0.729
 7998SOL    HW124893   4.291   5.696   0.818
 7998SOL    HW224894   4.327   5.731   0.663
 7999SOL     OW24895   1.006   0.272   5.911
 7999SOL    HW124896   0.922   0.233   5.947
 7999SOL    HW224897   1.003   0.372   5.919
 8000SOL     OW24898   5.756   0.263   6.646
 8000SOL    HW124899   5.735   0.293   6.553
 8000SOL    HW224900   5.767   0.163   6.647
 8001SOL     OW24901   3.274   5.881   1.839
 8001SOL    HW124902   3.274   5.969   1.791
 8001SOL    HW224903   3.182   5.863   1.874
 8002SOL     OW24904   0.365   3.346   6.273
 8002SOL    HW124905   0.328   3.369   6.363
 8002SOL    HW224906   0.460   3.315   6.282
 8003SOL     OW24907   2.309   4.565   2.589
 8003SOL    HW124908   2.388   4.605   2.542
 8003SOL    HW224909   2.232   4.558   2.526
 8004SOL     OW24910   1.653   4.597   2.738
 8004SOL    HW124911   1.732   4.567   2.791
 8004SOL    HW224912   1.572   4.545   2.767
 8005SOL     OW24913   3.141   1.786   2.491
 8005SOL    HW124914   3.212   1.748   2.550
 8005SOL    HW224915   3.065   1.820   2.546
 8006SOL     OW24916   2.412   6.008   0.929
 8006SOL    HW124917   2.322   6.039   0.901
 8006SOL    HW224918   2.418   6.009   1.029
 8007SOL     OW24919   0.902   0.319   3.781
 8007SOL    HW124920   0.886   0.337   3.684
 8007SOL    HW224921   0.842   0.245   3.812
 8008SOL     OW24922   4.799   6.698   6.057
 8008SOL    HW124923   4.836   6.729   6.145
 8008SOL    HW224924   4.788   6.599   6.058
 8009SOL     OW24925   6.333   0.133   3.100
 8009SOL    HW124926   6.429   0.157   3.082
 8009SOL    HW224927   6.301   0.069   3.030
 8010SOL     OW24928   1.955   1.451   6.689
 8010SOL    HW124929   1.966   1.355   6.662
 8010SOL    HW224930   1.886   1.457   6.762
 8011SOL     OW24931   2.042   2.911   1.405
 8011SOL    HW124932   2.140   2.930   1.411
 8011SOL    HW224933   2.027   2.813   1.403
 8012SOL     OW24934   1.824   5.834   1.369
 8012SOL    HW124935   1.903   5.832   1.308
 8012SOL    HW224936   1.746   5.791   1.323
 8013SOL     OW24937   0.721   5.190   4.642
 8013SOL    HW124938   0.740   5.161   4.736
 8013SOL    HW224939   0.706   5.109   4.585
 8014SOL     OW24940   1.162   6.337   5.640
 8014SOL    HW124941   1.068   6.366   5.627
 8014SOL    HW224942   1.222   6.417   5.639
 8015SOL     OW24943   2.928   1.275   0.433
 8015SOL    HW124944   2.997   1.332   0.389
 8015SOL    HW224945   2.951   1.263   0.530
 8016SOL     OW24946   4.300   6.848   6.674
 8016SOL    HW124947   4.249   6.850   6.588
 8016SOL    HW224948   4.398   6.856   6.654
 8017SOL     OW24949   6.668   4.615   5.994
 8017SOL    HW124950   6.581   4.664   5.995
 8017SOL    HW224951   6.696   4.599   5.899
 8018SOL     OW24952   4.670   2.549   6.210
 8018SOL    HW124953   4.577   2.548   6.245
 8018SOL    HW224954   4.671   2.589   6.118
 8019SOL     OW24955   1.671   3.608   0.035
 8019SOL    HW124956   1.730   3.661   0.095
 8019SOL    HW224957   1.721   3.529   7.026
 8020SOL     OW24958   6.302   6.248   0.410
 8020SOL    HW124959   6.244   6.325   0.437
 8020SOL    HW224960   6.262   6.203   0.329
 8021SOL     OW24961   1.450   1.606   2.366
 8021SOL    HW124962   1.362   1.601   2.413
 8021SOL    HW224963   1.480   1.514   2.340
 8022SOL     OW24964   4.304   0.565   3.130
 8022SOL    HW124965   4.303   0.664   3.137
 8022SOL    HW224966   4.237   0.534   3.063
 8023SOL     OW24967   5.901   6.030   3.614
 8023SOL    HW124968   5.833   6.100   3.596
 8023SOL    HW224969   5.946   6.003   3.529
 8024SOL     OW24970   3.115   4.645   7.015
 8024SOL    HW124971   3.189   4.608   6.959
 8024SOL    HW224972   3.123   4.745   7.019
 8025SOL     OW24973   3.477   6.179   6.222
 8025SOL    HW124974   3.549   6.214   6.281
 8025SOL    HW224975   3.390   6.222   6.246
 8026SOL     OW24976   0.561   3.791   6.621
 8026SOL    HW124977   0.605   3.708   6.587
 8026SOL    HW224978   0.463   3.774   6.635
 8027SOL     OW24979   4.554   2.012   5.680
 8027SOL    HW124980   4.524   2.024   5.775
 8027SOL    HW224981   4.612   2.089   5.654
 8028SOL     OW24982   4.101   4.820   6.056
 8028SOL    HW124983   4.171   4.783   6.117
 8028SOL    HW224984   4.083   4.755   5.982
 8029SOL     OW24985   5.698   3.347   6.631
 8029SOL    HW124986   5.778   3.306   6.675
 8029SOL    HW224987   5.717   3.363   6.534
 8030SOL     OW24988   5.347   3.969   5.912
 8030SOL    HW124989   5.400   3.999   5.992
 8030SOL    HW224990   5.301   3.882   5.933
 8031SOL     OW24991   4.786   5.930   2.737
 8031SOL    HW124992   4.724   5.877   2.679
 8031SOL    HW224993   4.879   5.895   2.727
 8032SOL     OW24994   6.354   4.480   5.699
 8032SOL    HW124995   6.269   4.437   5.668
 8032SOL    HW224996   6.332   4.564   5.749
 8033SOL     OW24997   5.015   2.950   0.326
 8033SOL    HW124998   5.046   3.034   0.282
 8033SOL    HW224999   4.947   2.973   0.397
 8034SOL     OW25000   6.080   1.209   5.400
 8034SOL    HW125001   6.173   1.243   5.414
 8034SOL    HW225002   6.069   1.178   5.306
 8035SOL     OW25003   4.951   0.023   5.307
 8035SOL    HW125004   4.888   0.071   5.368
 8035SOL    HW225005   4.941   0.058   5.214
 8036SOL     OW25006   1.180   3.780   2.108
 8036SOL    HW125007   1.248   3.718   2.069
 8036SOL    HW225008   1.101   3.728   2.140
 8037SOL     OW25009   1.391   3.593   1.494
 8037SOL    HW125010   1.366   3.549   1.408
 8037SOL    HW225011   1.486   3.572   1.516
 8038SOL     OW25012   4.884   1.554   2.366
 8038SOL    HW125013   4.832   1.612   2.429
 8038SOL    HW225014   4.825   1.523   2.292
 8039SOL     OW25015   1.245   7.025   3.227
 8039SOL    HW125016   1.338   0.036   3.222
 8039SOL    HW225017   1.247   6.927   3.206
 8040SOL     OW25018   1.129   5.670   1.028
 8040SOL    HW125019   1.152   5.624   0.942
 8040SOL    HW225020   1.180   5.628   1.103
 8041SOL     OW25021   3.222   2.128   2.021
 8041SOL    HW125022   3.310   2.124   2.068
 8041SOL    HW225023   3.149   2.150   2.086
 8042SOL     OW25024   3.493   2.876   2.450
 8042SOL    HW125025   3.585   2.900   2.480
 8042SOL    HW225026   3.490   2.876   2.350
 8043SOL     OW25027   3.847   6.436   0.649
 8043SOL    HW125028   3.933   6.411   0.694
 8043SOL    HW225029   3.793   6.354   0.633
 8044SOL     OW25030   3.080   3.514   1.128
 8044SOL    HW125031   3.067   3.417   1.148
 8044SOL    HW225032   2.992   3.561   1.135
 8045SOL     OW25033   5.662   1.509   2.379
 8045SOL    HW125034   5.638   1.474   2.470
 8045SOL    HW225035   5.731   1.448   2.338
 8046SOL     OW25036   5.945   4.456   6.338
 8046SOL    HW125037   5.887   4.425   6.263
 8046SOL    HW225038   6.019   4.512   6.302
 8047SOL     OW25039   3.362   5.024   5.228
 8047SOL    HW125040   3.456   5.051   5.251
 8047SOL    HW225041   3.354   5.014   5.129
 8048SOL     OW25042   5.477   1.491   5.749
 8048SOL    HW125043   5.434   1.411   5.707
 8048SOL    HW225044   5.510   1.467   5.840
 8049SOL     OW25045   1.062   6.967   1.893
 8049SOL    HW125046   1.043   6.962   1.992
 8049SOL    HW225047   1.042   0.033   1.860
 8050SOL     OW25048   0.616   4.000   1.314
 8050SOL    HW125049   0.587   3.974   1.222
 8050SOL    HW225050   0.662   4.089   1.310
 8051SOL     OW25051   4.775   0.051   3.178
 8051SOL    HW125052   4.792   0.121   3.247
 8051SOL    HW225053   4.862   0.010   3.149
 8052SOL     OW25054   3.243   1.858   1.889
 8052SOL    HW125055   3.333   1.815   1.884
 8052SOL    HW225056   3.252   1.948   1.931
 8053SOL     OW25057   3.643   3.586   2.821
 8053SOL    HW125058   3.634   3.552   2.914
 8053SOL    HW225059   3.563   3.641   2.797
 8054SOL     OW25060   5.137   6.601   3.956
 8054SOL    HW125061   5.055   6.605   4.014
 8054SOL    HW225062   5.145   6.687   3.906
 8055SOL     OW25063   0.898   0.558   6.242
 8055SOL    HW125064   0.928   0.482   6.299
 8055SOL    HW225065   0.853   0.524   6.160
 8056SOL     OW25066   4.488   1.145   3.590
 8056SOL    HW125067   4.552   1.079   3.549
 8056SOL    HW225068   4.436   1.190   3.517
 8057SOL     OW25069   2.265   1.085   2.181
 8057SOL    HW125070   2.303   1.023   2.249
 8057SOL    HW225071   2.304   1.064   2.091
 8058SOL     OW25072   3.306   0.078   3.021
 8058SOL    HW125073   3.396   0.096   3.061
 8058SOL    HW225074   3.242   0.055   3.094
 8059SOL     OW25075   4.216   2.221   5.093
 8059SOL    HW125076   4.119   2.195   5.097
 8059SOL    HW225077   4.224   2.321   5.100
 8060SOL     OW25078   0.300   1.395   4.318
 8060SOL    HW125079   0.310   1.305   4.360
 8060SOL    HW225080   0.371   1.408   4.248
 8061SOL     OW25081   6.456   6.176   2.062
 8061SOL    HW125082   6.466   6.240   1.986
 8061SOL    HW225083   6.546   6.139   2.085
 8062SOL     OW25084   2.210   4.204   3.712
 8062SOL    HW125085   2.127   4.259   3.707
 8062SOL    HW225086   2.189   4.116   3.755
 8063SOL     OW25087   1.740   4.029   0.793
 8063SOL    HW125088   1.742   4.127   0.809
 8063SOL    HW225089   1.666   4.008   0.729
 8064SOL     OW25090   0.158   4.796   0.915
 8064SOL    HW125091   0.090   4.754   0.854
 8064SOL    HW225092   0.119   4.878   0.957
 8065SOL     OW25093   4.306   6.409   3.616
 8065SOL    HW125094   4.235   6.340   3.629
 8065SOL    HW225095   4.270   6.483   3.559
 8066SOL     OW25096   1.054   1.609   6.369
 8066SOL    HW125097   0.983   1.582   6.303
 8066SOL    HW225098   1.111   1.530   6.389
 8067SOL     OW25099   4.503   3.206   1.422
 8067SOL    HW125100   4.512   3.305   1.430
 8067SOL    HW225101   4.589   3.167   1.390
 8068SOL     OW25102   6.608   5.313   5.927
 8068SOL    HW125103   6.569   5.399   5.897
 8068SOL    HW225104   6.651   5.325   6.016
 8069SOL     OW25105   2.176   5.698   1.702
 8069SOL    HW125106   2.105   5.742   1.758
 8069SOL    HW225107   2.265   5.735   1.727
 8070SOL     OW25108   2.927   4.273   0.761
 8070SOL    HW125109   2.895   4.194   0.709
 8070SOL    HW225110   2.859   4.298   0.830
 8071SOL     OW25111   3.489   6.484   5.047
 8071SOL    HW125112   3.415   6.458   4.985
 8071SOL    HW225113   3.577   6.457   5.008
 8072SOL     OW25114   3.286   0.841   0.508
 8072SOL    HW125115   3.285   0.756   0.456
 8072SOL    HW225116   3.348   0.906   0.465
 8073SOL     OW25117   5.150   6.751   6.983
 8073SOL    HW125118   5.104   6.773   6.897
 8073SOL    HW225119   5.090   6.771   0.033
 8074SOL     OW25120   3.587   2.684   6.951
 8074SOL    HW125121   3.491   2.684   6.979
 8074SOL    HW225122   3.593   2.691   6.851
 8075SOL     OW25123   6.720   1.164   1.682
 8075SOL    HW125124   6.660   1.177   1.761
 8075SOL    HW225125   6.814   1.188   1.707
 8076SOL     OW25126   4.798   3.170   5.586
 8076SOL    HW125127   4.832   3.082   5.553
 8076SOL    HW225128   4.735   3.208   5.518
 8077SOL     OW25129   0.876   6.834   1.729
 8077SOL    HW125130   0.951   6.881   1.775
 8077SOL    HW225131   0.900   6.737   1.717
 8078SOL     OW25132   5.797   1.615   0.767
 8078SOL    HW125133   5.781   1.681   0.840
 8078SOL    HW225134   5.720   1.616   0.703
 8079SOL     OW25135   5.523   2.058   3.293
 8079SOL    HW125136   5.578   1.991   3.243
 8079SOL    HW225137   5.550   2.151   3.265
 8080SOL     OW25138   1.477   3.821   0.870
 8080SOL    HW125139   1.531   3.774   0.940
 8080SOL    HW225140   1.538   3.872   0.810
 8081SOL     OW25141   6.043   0.659   5.359
 8081SOL    HW125142   6.094   0.744   5.353
 8081SOL    HW225143   5.980   0.652   5.282
 8082SOL     OW25144   5.933   1.735   2.147
 8082SOL    HW125145   5.881   1.817   2.122
 8082SOL    HW225146   5.885   1.686   2.220
 8083SOL     OW25147   5.183   3.156   2.253
 8083SOL    HW125148   5.091   3.129   2.224
 8083SOL    HW225149   5.200   3.250   2.224
 8084SOL     OW25150   5.847   6.700   1.466
 8084SOL    HW125151   5.782   6.696   1.542
 8084SOL    HW225152   5.939   6.719   1.502
 8085SOL     OW25153   5.880   0.668   2.467
 8085SOL    HW125154   5.953   0.601   2.477
 8085SOL    HW225155   5.856   0.678   2.371
 8086SOL     OW25156   4.281   0.134   4.420
 8086SOL    HW125157   4.269   0.121   4.321
 8086SOL    HW225158   4.215   0.201   4.453
 8087SOL     OW25159   2.060   1.367   1.178
 8087SOL    HW125160   2.048   1.270   1.153
 8087SOL    HW225161   2.112   1.414   1.106
 8088SOL     OW25162   6.324   1.443   1.998
 8088SOL    HW125163   6.390   1.448   1.924
 8088SOL    HW225164   6.295   1.348   2.011
 8089SOL     OW25165   5.551   1.977   0.198
 8089SOL    HW125166   5.466   1.950   0.244
 8089SOL    HW225167   5.606   1.895   0.180
 8090SOL     OW25168   4.603   1.852   6.209
 8090SOL    HW125169   4.547   1.933   6.228
 8090SOL    HW225170   4.647   1.822   6.294
 8091SOL     OW25171   3.138   3.826   6.727
 8091SOL    HW125172   3.111   3.840   6.632
 8091SOL    HW225173   3.064   3.857   6.788
 8092SOL     OW25174   1.244   1.563   5.072
 8092SOL    HW125175   1.235   1.525   4.980
 8092SOL    HW225176   1.284   1.655   5.067
 8093SOL     OW25177   6.031   5.583   1.479
 8093SOL    HW125178   6.055   5.668   1.431
 8093SOL    HW225179   5.998   5.516   1.412
 8094SOL     OW25180   2.179   4.396   5.266
 8094SOL    HW125181   2.120   4.358   5.195
 8094SOL    HW225182   2.256   4.335   5.282
 8095SOL     OW25183   6.273   3.575   3.867
 8095SOL    HW125184   6.227   3.658   3.836
 8095SOL    HW225185   6.251   3.558   3.963
 8096SOL     OW25186   2.722   5.720   3.575
 8096SOL    HW125187   2.763   5.629   3.565
 8096SOL    HW225188   2.784   5.780   3.625
 8097SOL     OW25189   5.503   0.843   3.964
 8097SOL    HW125190   5.586   0.890   3.993
 8097SOL    HW225191   5.444   0.827   4.043
 8098SOL     OW25192   2.471   6.986   4.423
 8098SOL    HW125193   2.372   6.984   4.412
 8098SOL    HW225194   2.516   6.971   4.335
 8099SOL     OW25195   6.289   0.807   4.211
 8099SOL    HW125196   6.323   0.726   4.258
 8099SOL    HW225197   6.190   0.814   4.224
 8100SOL     OW25198   0.350   0.243   0.448
 8100SOL    HW125199   0.284   0.255   0.374
 8100SOL    HW225200   0.322   0.295   0.528
 8101SOL     OW25201   2.122   0.469   4.529
 8101SOL    HW125202   2.170   0.382   4.518
 8101SOL    HW225203   2.168   0.540   4.477
 8102SOL     OW25204   1.572   5.482   6.401
 8102SOL    HW125205   1.605   5.536   6.478
 8102SOL    HW225206   1.513   5.539   6.343
 8103SOL     OW25207   3.727   1.427   1.218
 8103SOL    HW125208   3.769   1.495   1.278
 8103SOL    HW225209   3.794   1.395   1.152
 8104SOL     OW25210   3.394   6.764   6.318
 8104SOL    HW125211   3.399   6.666   6.337
 8104SOL    HW225212   3.407   6.780   6.220
 8105SOL     OW25213   2.297   2.406   3.313
 8105SOL    HW125214   2.312   2.459   3.230
 8105SOL    HW225215   2.371   2.340   3.324
 8106SOL     OW25216   1.771   5.695   3.040
 8106SOL    HW125217   1.710   5.661   3.111
 8106SOL    HW225218   1.804   5.786   3.064
 8107SOL     OW25219   1.963   6.108   5.810
 8107SOL    HW125220   1.891   6.039   5.799
 8107SOL    HW225221   2.052   6.065   5.798
 8108SOL     OW25222   6.311   2.951   4.959
 8108SOL    HW125223   6.325   3.012   5.038
 8108SOL    HW225224   6.365   2.985   4.882
 8109SOL     OW25225   1.916   3.893   4.660
 8109SOL    HW125226   1.945   3.983   4.693
 8109SOL    HW225227   1.816   3.888   4.659
 8110SOL     OW25228   3.936   6.344   0.210
 8110SOL    HW125229   3.928   6.431   0.258
 8110SOL    HW225230   4.009   6.290   0.251
 8111SOL     OW25231   3.270   0.350   5.966
 8111SOL    HW125232   3.210   0.290   6.019
 8111SOL    HW225233   3.236   0.443   5.968
 8112SOL     OW25234   2.581   1.217   5.896
 8112SOL    HW125235   2.483   1.215   5.912
 8112SOL    HW225236   2.628   1.164   5.966
 8113SOL     OW25237   2.821   2.907   0.145
 8113SOL    HW125238   2.903   2.852   0.128
 8113SOL    HW225239   2.763   2.906   0.064
 8114SOL     OW25240   2.165   2.622   2.327
 8114SOL    HW125241   2.151   2.715   2.293
 8114SOL    HW225242   2.261   2.596   2.314
 8115SOL     OW25243   3.326   1.229   1.502
 8115SOL    HW125244   3.243   1.280   1.479
 8115SOL    HW225245   3.309   1.131   1.493
 8116SOL     OW25246   5.027   0.206   4.796
 8116SOL    HW125247   5.121   0.203   4.832
 8116SOL    HW225248   5.009   0.124   4.743
 8117SOL     OW25249   1.868   1.906   3.711
 8117SOL    HW125250   1.823   1.994   3.725
 8117SOL    HW225251   1.821   1.854   3.640
 8118SOL     OW25252   0.429   3.768   5.664
 8118SOL    HW125253   0.480   3.831   5.606
 8118SOL    HW225254   0.407   3.813   5.751
 8119SOL     OW25255   6.932   5.969   4.843
 8119SOL    HW125256   6.983   6.013   4.769
 8119SOL    HW225257   6.975   5.989   4.931
 8120SOL     OW25258   3.774   3.640   7.007
 8120SOL    HW125259   3.685   3.664   0.019
 8120SOL    HW225260   3.833   3.721   7.005
 8121SOL     OW25261   0.103   6.276   2.996
 8121SOL    HW125262   0.175   6.208   3.008
 8121SOL    HW225263   0.112   6.318   2.906
 8122SOL     OW25264   0.065   4.967   2.509
 8122SOL    HW125265   0.088   5.053   2.554
 8122SOL    HW225266   0.095   4.969   2.414
 8123SOL     OW25267   0.788   0.300   6.827
 8123SOL    HW125268   0.871   0.285   6.881
 8123SOL    HW225269   0.721   0.229   6.848
 8124SOL     OW25270   1.006   6.926   1.448
 8124SOL    HW125271   0.921   6.878   1.470
 8124SOL    HW225272   1.084   6.867   1.468
 8125SOL     OW25273   6.142   4.994   2.866
 8125SOL    HW125274   6.202   4.914   2.864
 8125SOL    HW225275   6.197   5.077   2.866
 8126SOL     OW25276   6.277   4.703   1.974
 8126SOL    HW125277   6.356   4.646   1.998
 8126SOL    HW225278   6.254   4.690   1.878
 8127SOL     OW25279   2.413   5.658   0.505
 8127SOL    HW125280   2.359   5.686   0.585
 8127SOL    HW225281   2.453   5.568   0.522
 8128SOL     OW25282   3.663   2.369   6.828
 8128SOL    HW125283   3.623   2.461   6.829
 8128SOL    HW225284   3.625   2.315   6.902
 8129SOL     OW25285   4.660   0.878   6.538
 8129SOL    HW125286   4.620   0.968   6.556
 8129SOL    HW225287   4.714   0.850   6.617
 8130SOL     OW25288   0.986   5.369   5.964
 8130SOL    HW125289   1.057   5.305   5.936
 8130SOL    HW225290   1.024   5.434   6.030
 8131SOL     OW25291   2.703   1.108   0.699
 8131SOL    HW125292   2.798   1.138   0.708
 8131SOL    HW225293   2.651   1.138   0.780
 8132SOL     OW25294   5.344   6.139   5.858
 8132SOL    HW125295   5.395   6.219   5.829
 8132SOL    HW225296   5.406   6.074   5.903
 8133SOL     OW25297   3.232   4.859   2.402
 8133SOL    HW125298   3.306   4.833   2.340
 8133SOL    HW225299   3.149   4.876   2.349
 8134SOL     OW25300   2.120   1.480   4.253
 8134SOL    HW125301   2.167   1.392   4.244
 8134SOL    HW225302   2.106   1.520   4.162
 8135SOL     OW25303   2.497   4.805   2.266
 8135SOL    HW125304   2.532   4.735   2.204
 8135SOL    HW225305   2.502   4.894   2.221
 8136SOL     OW25306   4.519   5.238   2.863
 8136SOL    HW125307   4.435   5.292   2.862
 8136SOL    HW225308   4.500   5.148   2.902
 8137SOL     OW25309   2.217   2.845   4.126
 8137SOL    HW125310   2.295   2.789   4.099
 8137SOL    HW225311   2.162   2.795   4.193
 8138SOL     OW25312   5.695   1.926   2.129
 8138SOL    HW125313   5.628   1.852   2.122
 8138SOL    HW225314   5.676   1.995   2.059
 8139SOL     OW25315   1.156   2.722   3.610
 8139SOL    HW125316   1.125   2.627   3.619
 8139SOL    HW225317   1.256   2.724   3.607
 8140SOL     OW25318   3.817   0.335   0.516
 8140SOL    HW125319   3.755   0.260   0.491
 8140SOL    HW225320   3.899   0.331   0.459
 8141SOL     OW25321   5.310   0.368   5.100
 8141SOL    HW125322   5.308   0.320   5.013
 8141SOL    HW225323   5.402   0.363   5.138
 8142SOL     OW25324   2.069   5.341   0.748
 8142SOL    HW125325   2.114   5.330   0.836
 8142SOL    HW225326   1.970   5.342   0.760
 8143SOL     OW25327   5.289   5.296   1.459
 8143SOL    HW125328   5.256   5.238   1.533
 8143SOL    HW225329   5.264   5.256   1.371
 8144SOL     OW25330   0.528   6.087   5.465
 8144SOL    HW125331   0.601   6.019   5.453
 8144SOL    HW225332   0.458   6.074   5.395
 8145SOL     OW25333   4.488   4.967   0.524
 8145SOL    HW125334   4.403   4.986   0.475
 8145SOL    HW225335   4.492   4.870   0.547
 8146SOL     OW25336   6.442   0.420   5.356
 8146SOL    HW125337   6.530   0.457   5.385
 8146SOL    HW225338   6.370   0.457   5.414
 8147SOL     OW25339   0.377   0.593   0.406
 8147SOL    HW125340   0.406   0.598   0.311
 8147SOL    HW225341   0.277   0.598   0.410
 8148SOL     OW25342   4.029   4.024   6.562
 8148SOL    HW125343   4.068   4.116   6.561
 8148SOL    HW225344   4.093   3.961   6.518
 8149SOL     OW25345   1.854   6.435   4.600
 8149SOL    HW125346   1.785   6.376   4.557
 8149SOL    HW225347   1.880   6.396   4.688
 8150SOL     OW25348   0.087   3.728   1.152
 8150SOL    HW125349   0.031   3.759   1.075
 8150SOL    HW225350   0.043   3.650   1.196
 8151SOL     OW25351   6.444   5.428   3.624
 8151SOL    HW125352   6.521   5.425   3.688
 8151SOL    HW225353   6.468   5.486   3.546
 8152SOL     OW25354   4.536   2.190   2.856
 8152SOL    HW125355   4.555   2.169   2.952
 8152SOL    HW225356   4.565   2.284   2.837
 8153SOL     OW25357   0.546   0.897   3.590
 8153SOL    HW125358   0.522   0.972   3.528
 8153SOL    HW225359   0.473   0.887   3.658
 8154SOL     OW25360   3.248   1.507   3.274
 8154SOL    HW125361   3.290   1.559   3.200
 8154SOL    HW225362   3.303   1.425   3.292
 8155SOL     OW25363   0.933   4.509   2.548
 8155SOL    HW125364   0.894   4.573   2.614
 8155SOL    HW225365   0.976   4.560   2.473
 8156SOL     OW25366   5.431   6.027   1.508
 8156SOL    HW125367   5.336   6.048   1.482
 8156SOL    HW225368   5.488   6.108   1.495
 8157SOL     OW25369   5.594   3.528   5.860
 8157SOL    HW125370   5.523   3.598   5.870
 8157SOL    HW225371   5.558   3.439   5.891
 8158SOL     OW25372   5.684   5.274   6.401
 8158SOL    HW125373   5.712   5.178   6.403
 8158SOL    HW225374   5.677   5.309   6.494
 8159SOL     OW25375   3.805   6.506   5.742
 8159SOL    HW125376   3.812   6.454   5.657
 8159SOL    HW225377   3.794   6.442   5.819
 8160SOL     OW25378   4.832   0.951   3.799
 8160SOL    HW125379   4.782   0.865   3.794
 8160SOL    HW225380   4.777   1.019   3.849
 8161SOL     OW25381   5.707   3.623   6.709
 8161SOL    HW125382   5.653   3.679   6.646
 8161SOL    HW225383   5.709   3.528   6.677
 8162SOL     OW25384   0.437   5.653   6.924
 8162SOL    HW125385   0.346   5.613   6.929
 8162SOL    HW225386   0.431   5.748   6.893
 8163SOL     OW25387   3.745   5.220   5.536
 8163SOL    HW125388   3.788   5.140   5.575
 8163SOL    HW225389   3.785   5.239   5.446
 8164SOL     OW25390   4.662   0.561   0.061
 8164SOL    HW125391   4.610   0.525   0.138
 8164SOL    HW225392   4.737   0.618   0.094
 8165SOL     OW25393   6.635   4.140   6.745
 8165SOL    HW125394   6.561   4.112   6.806
 8165SOL    HW225395   6.689   4.212   6.789
 8166SOL     OW25396   2.327   1.903   3.805
 8166SOL    HW125397   2.341   1.944   3.896
 8166SOL    HW225398   2.411   1.914   3.751
 8167SOL     OW25399   6.717   0.798   3.546
 8167SOL    HW125400   6.701   0.895   3.565
 8167SOL    HW225401   6.809   0.786   3.508
 8168SOL     OW25402   2.681   0.470   1.514
 8168SOL    HW125403   2.604   0.448   1.574
 8168SOL    HW225404   2.702   0.392   1.456
 8169SOL     OW25405   3.955   1.748   0.436
 8169SOL    HW125406   4.049   1.766   0.463
 8169SOL    HW225407   3.954   1.696   0.351
 8170SOL     OW25408   6.485   4.789   1.457
 8170SOL    HW125409   6.463   4.883   1.483
 8170SOL    HW225410   6.443   4.726   1.523
 8171SOL     OW25411   1.547   1.104   6.495
 8171SOL    HW125412   1.485   1.096   6.572
 8171SOL    HW225413   1.528   1.032   6.429
 8172SOL     OW25414   0.374   2.551   1.863
 8172SOL    HW125415   0.382   2.502   1.950
 8172SOL    HW225416   0.281   2.587   1.854
 8173SOL     OW25417   5.887   2.394   2.963
 8173SOL    HW125418   5.829   2.470   2.994
 8173SOL    HW225419   5.828   2.317   2.937
 8174SOL     OW25420   1.072   6.265   2.664
 8174SOL    HW125421   1.097   6.276   2.761
 8174SOL    HW225422   0.982   6.220   2.658
 8175SOL     OW25423   1.047   2.795   4.217
 8175SOL    HW125424   1.094   2.880   4.237
 8175SOL    HW225425   0.951   2.814   4.196
 8176SOL     OW25426   1.992   4.463   1.248
 8176SOL    HW125427   2.034   4.515   1.322
 8176SOL    HW225428   1.982   4.368   1.275
 8177SOL     OW25429   3.569   0.677   2.643
 8177SOL    HW125430   3.646   0.709   2.588
 8177SOL    HW225431   3.487   0.728   2.618
 8178SOL     OW25432   3.066   6.487   1.033
 8178SOL    HW125433   3.043   6.584   1.037
 8178SOL    HW225434   3.011   6.441   0.963
 8179SOL     OW25435   5.751   1.111   4.246
 8179SOL    HW125436   5.834   1.138   4.196
 8179SOL    HW225437   5.685   1.186   4.243
 8180SOL     OW25438   6.465   0.487   6.880
 8180SOL    HW125439   6.501   0.580   6.867
 8180SOL    HW225440   6.426   0.454   6.794
 8181SOL     OW25441   0.727   0.515   1.100
 8181SOL    HW125442   0.787   0.588   1.067
 8181SOL    HW225443   0.723   0.441   1.033
 8182SOL     OW25444   3.741   3.428   4.739
 8182SOL    HW125445   3.824   3.397   4.693
 8182SOL    HW225446   3.763   3.453   4.834
 8183SOL     OW25447   6.626   1.697   4.703
 8183SOL    HW125448   6.578   1.665   4.785
 8183SOL    HW225449   6.598   1.642   4.625
 8184SOL     OW25450   1.055   0.012   0.081
 8184SOL    HW125451   1.104   6.974   0.139
 8184SOL    HW225452   0.965   7.001   0.057
 8185SOL     OW25453   2.248   0.276   0.564
 8185SOL    HW125454   2.223   0.190   0.608
 8185SOL    HW225455   2.168   0.314   0.516
 8186SOL     OW25456   2.381   4.211   5.346
 8186SOL    HW125457   2.336   4.167   5.424
 8186SOL    HW225458   2.398   4.142   5.275
 8187SOL     OW25459   2.394   2.106   5.119
 8187SOL    HW125460   2.481   2.133   5.078
 8187SOL    HW225461   2.324   2.100   5.047
 8188SOL     OW25462   4.155   1.577   3.838
 8188SOL    HW125463   4.174   1.603   3.743
 8188SOL    HW225464   4.238   1.544   3.881
 8189SOL     OW25465   5.439   5.488   2.610
 8189SOL    HW125466   5.359   5.470   2.552
 8189SOL    HW225467   5.507   5.417   2.594
 8190SOL     OW25468   5.184   4.228   3.768
 8190SOL    HW125469   5.146   4.195   3.854
 8190SOL    HW225470   5.152   4.170   3.693
 8191SOL     OW25471   4.524   5.115   2.568
 8191SOL    HW125472   4.512   5.128   2.666
 8191SOL    HW225473   4.476   5.187   2.518
 8192SOL     OW25474   1.241   5.205   2.147
 8192SOL    HW125475   1.269   5.116   2.112
 8192SOL    HW225476   1.241   5.272   2.072
 8193SOL     OW25477   6.398   5.515   4.617
 8193SOL    HW125478   6.397   5.569   4.533
 8193SOL    HW225479   6.392   5.576   4.696
 8194SOL     OW25480   3.999   0.806   1.016
 8194SOL    HW125481   3.964   0.786   1.107
 8194SOL    HW225482   4.046   0.894   1.017
 8195SOL     OW25483   5.916   0.025   4.091
 8195SOL    HW125484   5.978   0.094   4.128
 8195SOL    HW225485   5.968   6.972   4.061
 8196SOL     OW25486   5.546   0.060   6.952
 8196SOL    HW125487   5.525   0.132   6.885
 8196SOL    HW225488   5.481   7.011   6.941
 8197SOL     OW25489   3.961   1.752   1.252
 8197SOL    HW125490   3.938   1.707   1.339
 8197SOL    HW225491   4.006   1.686   1.192
 8198SOL     OW25492   2.902   6.997   2.440
 8198SOL    HW125493   2.900   0.002   2.345
 8198SOL    HW225494   2.960   6.916   2.448
 8199SOL     OW25495   4.823   3.348   6.002
 8199SOL    HW125496   4.898   3.308   6.055
 8199SOL    HW225497   4.840   3.335   5.904
 8200SOL     OW25498   5.853   4.519   1.988
 8200SOL    HW125499   5.863   4.420   1.980
 8200SOL    HW225500   5.940   4.563   1.964
 8201SOL     OW25501   0.001   0.800   4.891
 8201SOL    HW125502   0.013   0.730   4.821
 8201SOL    HW225503   0.087   0.850   4.903
 8202SOL     OW25504   6.733   5.901   3.062
 8202SOL    HW125505   6.718   5.865   2.970
 8202SOL    HW225506   6.780   5.989   3.056
 8203SOL     OW25507   1.620   2.433   6.966
 8203SOL    HW125508   1.675   2.489   0.001
 8203SOL    HW225509   1.662   2.342   6.957
 8204SOL     OW25510   3.652   4.052   0.692
 8204SOL    HW125511   3.584   4.085   0.626
 8204SOL    HW225512   3.651   3.952   0.693
 8205SOL     OW25513   6.757   3.490   0.176
 8205SOL    HW125514   6.796   3.574   0.214
 8205SOL    HW225515   6.658   3.500   0.168
 8206SOL     OW25516   4.842   1.588   0.167
 8206SOL    HW125517   4.789   1.641   0.233
 8206SOL    HW225518   4.912   1.535   0.215
 8207SOL     OW25519   3.584   3.898   4.337
 8207SOL    HW125520   3.492   3.871   4.308
 8207SOL    HW225521   3.599   3.994   4.312
 8208SOL     OW25522   1.684   0.579   0.944
 8208SOL    HW125523   1.755   0.519   0.907
 8208SOL    HW225524   1.595   0.554   0.905
 8209SOL     OW25525   0.078   0.604   4.702
 8209SOL    HW125526   0.140   0.606   4.623
 8209SOL    HW225527   0.100   0.526   4.760
 8210SOL     OW25528   1.886   2.333   0.235
 8210SOL    HW125529   1.826   2.262   0.200
 8210SOL    HW225530   1.982   2.306   0.220
 8211SOL     OW25531   3.690   3.850   1.322
 8211SOL    HW125532   3.744   3.785   1.268
 8211SOL    HW225533   3.636   3.800   1.390
 8212SOL     OW25534   1.217   2.608   3.148
 8212SOL    HW125535   1.311   2.639   3.157
 8212SOL    HW225536   1.215   2.508   3.150
 8213SOL     OW25537   6.776   5.258   1.560
 8213SOL    HW125538   6.689   5.306   1.574
 8213SOL    HW225539   6.758   5.168   1.518
 8214SOL     OW25540   5.962   4.313   3.776
 8214SOL    HW125541   6.031   4.385   3.772
 8214SOL    HW225542   6.004   4.226   3.800
 8215SOL     OW25543   3.424   5.965   5.377
 8215SOL    HW125544   3.380   5.876   5.388
 8215SOL    HW225545   3.369   6.035   5.423
 8216SOL     OW25546   5.459   5.909   4.295
 8216SOL    HW125547   5.375   5.962   4.307
 8216SOL    HW225548   5.438   5.811   4.297
 8217SOL     OW25549   2.331   4.750   0.197
 8217SOL    HW125550   2.403   4.740   0.265
 8217SOL    HW225551   2.244   4.770   0.243
 8218SOL     OW25552   7.003   0.937   7.006
 8218SOL    HW125553   7.003   1.024   0.030
 8218SOL    HW225554   0.002   0.954   6.910
 8219SOL     OW25555   4.724   1.888   0.214
 8219SOL    HW125556   4.789   1.893   0.137
 8219SOL    HW225557   4.668   1.971   0.215
 8220SOL     OW25558   3.698   3.195   3.249
 8220SOL    HW125559   3.727   3.101   3.267
 8220SOL    HW225560   3.705   3.248   3.334
 8221SOL     OW25561   4.650   6.132   4.654
 8221SOL    HW125562   4.659   6.230   4.639
 8221SOL    HW225563   4.569   6.114   4.710
 8222SOL     OW25564   5.091   1.567   2.040
 8222SOL    HW125565   5.057   1.658   2.018
 8222SOL    HW225566   5.083   1.551   2.138
 8223SOL     OW25567   1.953   3.858   5.990
 8223SOL    HW125568   1.956   3.772   6.040
 8223SOL    HW225569   2.030   3.916   6.019
 8224SOL     OW25570   0.185   2.411   2.755
 8224SOL    HW125571   0.131   2.434   2.836
 8224SOL    HW225572   0.215   2.316   2.761
 8225SOL     OW25573   3.558   0.729   6.966
 8225SOL    HW125574   3.509   0.711   6.880
 8225SOL    HW225575   3.501   0.786   7.025
 8226SOL     OW25576   4.149   6.733   2.270
 8226SOL    HW125577   4.149   6.657   2.206
 8226SOL    HW225578   4.240   6.774   2.274
 8227SOL     OW25579   0.008   2.808   3.303
 8227SOL    HW125580   0.049   2.889   3.262
 8227SOL    HW225581   0.042   2.796   3.396
 8228SOL     OW25582   0.385   2.727   5.581
 8228SOL    HW125583   0.371   2.631   5.556
 8228SOL    HW225584   0.296   2.774   5.581
 8229SOL     OW25585   3.935   4.645   0.667
 8229SOL    HW125586   4.004   4.574   0.683
 8229SOL    HW225587   3.940   4.676   0.573
 8230SOL     OW25588   4.145   6.843   5.280
 8230SOL    HW125589   4.081   6.886   5.344
 8230SOL    HW225590   4.097   6.775   5.225
 8231SOL     OW25591   4.428   5.097   0.744
 8231SOL    HW125592   4.459   5.040   0.668
 8231SOL    HW225593   4.481   5.182   0.747
 8232SOL     OW25594   5.145   1.694   1.006
 8232SOL    HW125595   5.085   1.714   1.083
 8232SOL    HW225596   5.231   1.655   1.040
 8233SOL     OW25597   0.805   6.104   6.378
 8233SOL    HW125598   0.816   6.175   6.308
 8233SOL    HW225599   0.714   6.065   6.372
 8234SOL     OW25600   2.897   3.820   6.881
 8234SOL    HW125601   2.968   3.809   6.950
 8234SOL    HW225602   2.809   3.837   6.925
 8235SOL     OW25603   1.680   3.536   0.483
 8235SOL    HW125604   1.580   3.540   0.488
 8235SOL    HW225605   1.713   3.610   0.424
 8236SOL     OW25606   7.012   4.261   6.595
 8236SOL    HW125607   6.952   4.243   6.517
 8236SOL    HW225608   6.970   4.330   6.653
 8237SOL     OW25609   4.773   6.440   4.509
 8237SOL    HW125610   4.848   6.374   4.514
 8237SOL    HW225611   4.740   6.446   4.415
 8238SOL     OW25612   1.082   4.767   6.851
 8238SOL    HW125613   1.032   4.844   6.891
 8238SOL    HW225614   1.143   4.801   6.779
 8239SOL     OW25615   6.665   1.535   5.131
 8239SOL    HW125616   6.638   1.613   5.187
 8239SOL    HW225617   6.742   1.487   5.174
 8240SOL     OW25618   3.705   4.102   2.928
 8240SOL    HW125619   3.687   4.137   3.020
 8240SOL    HW225620   3.689   4.003   2.926
 8241SOL     OW25621   3.947   6.581   0.330
 8241SOL    HW125622   3.985   6.672   0.317
 8241SOL    HW225623   3.938   6.562   0.428
 8242SOL     OW25624   1.166   4.693   5.896
 8242SOL    HW125625   1.086   4.754   5.900
 8242SOL    HW225626   1.135   4.599   5.877
 8243SOL     OW25627   0.949   2.588   0.245
 8243SOL    HW125628   0.942   2.656   0.317
 8243SOL    HW225629   0.913   2.501   0.277
 8244SOL     OW25630   1.271   0.038   3.843
 8244SOL    HW125631   1.324   0.051   3.759
 8244SOL    HW225632   1.243   6.968   3.850
 8245SOL     OW25633   4.004   1.593   2.773
 8245SOL    HW125634   3.957   1.607   2.860
 8245SOL    HW225635   4.103   1.605   2.786
 8246SOL     OW25636   0.070   3.058   5.722
 8246SOL    HW125637   0.095   3.064   5.819
 8246SOL    HW225638   0.082   2.963   5.691
 8247SOL     OW25639   0.715   6.940   2.290
 8247SOL    HW125640   0.678   6.851   2.317
 8247SOL    HW225641   0.708   7.003   2.367
 8248SOL     OW25642   5.999   5.023   3.879
 8248SOL    HW125643   6.013   4.945   3.819
 8248SOL    HW225644   6.081   5.080   3.880
 8249SOL     OW25645   1.993   2.732   5.156
 8249SOL    HW125646   1.964   2.658   5.216
 8249SOL    HW225647   2.091   2.721   5.136
 8250SOL     OW25648   3.367   4.136   2.360
 8250SOL    HW125649   3.356   4.205   2.431
 8250SOL    HW225650   3.454   4.151   2.312
 8251SOL     OW25651   6.054   3.040   4.106
 8251SOL    HW125652   6.124   3.046   4.178
 8251SOL    HW225653   5.978   2.984   4.138
 8252SOL     OW25654   3.379   2.660   5.881
 8252SOL    HW125655   3.320   2.739   5.894
 8252SOL    HW225656   3.462   2.687   5.834
 8253SOL     OW25657   4.299   4.115   5.322
 8253SOL    HW125658   4.219   4.126   5.379
 8253SOL    HW225659   4.332   4.021   5.327
 8254SOL     OW25660   4.237   4.799   4.846
 8254SOL    HW125661   4.227   4.701   4.826
 8254SOL    HW225662   4.291   4.843   4.774
 8255SOL     OW25663   3.001   6.318   4.871
 8255SOL    HW125664   2.963   6.287   4.784
 8255SOL    HW225665   3.013   6.240   4.932
 8256SOL     OW25666   6.221   0.796   2.366
 8256SOL    HW125667   6.236   0.749   2.279
 8256SOL    HW225668   6.255   0.739   2.441
 8257SOL     OW25669   6.944   3.859   3.511
 8257SOL    HW125670   6.982   3.933   3.456
 8257SOL    HW225671   6.866   3.892   3.563
 8258SOL     OW25672   5.081   1.184   0.877
 8258SOL    HW125673   5.164   1.226   0.841
 8258SOL    HW225674   5.065   1.098   0.830
 8259SOL     OW25675   4.315   2.015   3.235
 8259SOL    HW125676   4.406   2.057   3.242
 8259SOL    HW225677   4.248   2.074   3.280
 8260SOL     OW25678   2.817   6.709   2.089
 8260SOL    HW125679   2.851   6.667   2.173
 8260SOL    HW225680   2.727   6.749   2.107
 8261SOL     OW25681   6.276   1.499   2.408
 8261SOL    HW125682   6.221   1.474   2.488
 8261SOL    HW225683   6.215   1.519   2.331
 8262SOL     OW25684   0.482   3.002   0.701
 8262SOL    HW125685   0.487   3.101   0.699
 8262SOL    HW225686   0.450   2.969   0.612
 8263SOL     OW25687   1.036   2.122   0.711
 8263SOL    HW125688   1.050   2.023   0.708
 8263SOL    HW225689   0.983   2.146   0.792
 8264SOL     OW25690   2.515   5.919   2.769
 8264SOL    HW125691   2.565   5.837   2.797
 8264SOL    HW225692   2.535   5.994   2.831
 8265SOL     OW25693   0.671   6.785   1.087
 8265SOL    HW125694   0.714   6.874   1.101
 8265SOL    HW225695   0.727   6.732   1.023
 8266SOL     OW25696   2.357   1.397   3.880
 8266SOL    HW125697   2.419   1.326   3.847
 8266SOL    HW225698   2.405   1.455   3.945
 8267SOL     OW25699   1.418   2.689   0.757
 8267SOL    HW125700   1.471   2.622   0.808
 8267SOL    HW225701   1.363   2.642   0.688
 8268SOL     OW25702   2.209   6.479   5.672
 8268SOL    HW125703   2.139   6.414   5.642
 8268SOL    HW225704   2.258   6.514   5.593
 8269SOL     OW25705   4.865   1.534   1.860
 8269SOL    HW125706   4.901   1.524   1.768
 8269SOL    HW225707   4.940   1.530   1.926
 8270SOL     OW25708   2.843   0.036   5.128
 8270SOL    HW125709   2.937   0.009   5.111
 8270SOL    HW225710   2.828   0.129   5.095
 8271SOL     OW25711   6.954   0.560   2.566
 8271SOL    HW125712   6.899   0.585   2.486
 8271SOL    HW225713   7.003   0.641   2.599
 8272SOL     OW25714   4.400   2.073   1.386
 8272SOL    HW125715   4.449   1.987   1.367
 8272SOL    HW225716   4.369   2.074   1.481
 8273SOL     OW25717   2.699   6.597   0.855
 8273SOL    HW125718   2.709   6.532   0.780
 8273SOL    HW225719   2.623   6.658   0.837
 8274SOL     OW25720   5.237   5.248   2.999
 8274SOL    HW125721   5.305   5.322   2.999
 8274SOL    HW225722   5.147   5.287   2.983
 8275SOL     OW25723   4.978   1.383   5.687
 8275SOL    HW125724   4.919   1.413   5.612
 8275SOL    HW225725   5.031   1.304   5.658
 8276SOL     OW25726   1.263   2.336   3.463
 8276SOL    HW125727   1.221   2.287   3.386
 8276SOL    HW225728   1.341   2.390   3.430
 8277SOL     OW25729   6.588   0.313   0.851
 8277SOL    HW125730   6.677   0.294   0.811
 8277SOL    HW225731   6.516   0.295   0.783
 8278SOL     OW25732   2.838   2.017   5.309
 8278SOL    HW125733   2.747   2.045   5.279
 8278SOL    HW225734   2.832   1.931   5.360
 8279SOL     OW25735   1.573   0.652   3.790
 8279SOL    HW125736   1.488   0.700   3.768
 8279SOL    HW225737   1.599   0.671   3.885
 8280SOL     OW25738   2.496   2.868   0.436
 8280SOL    HW125739   2.564   2.938   0.414
 8280SOL    HW225740   2.438   2.900   0.511
 8281SOL     OW25741   2.466   4.909   1.609
 8281SOL    HW125742   2.540   4.933   1.673
 8281SOL    HW225743   2.406   4.841   1.651
 8282SOL     OW25744   5.198   3.595   0.054
 8282SOL    HW125745   5.125   3.605   7.013
 8282SOL    HW225746   5.227   3.499   0.058
 8283SOL     OW25747   2.146   5.346   6.974
 8283SOL    HW125748   2.233   5.350   7.023
 8283SOL    HW225749   2.164   5.344   6.875
 8284SOL     OW25750   0.872   3.460   0.793
 8284SOL    HW125751   0.842   3.445   0.699
 8284SOL    HW225752   0.861   3.376   0.846
 8285SOL     OW25753   2.954   3.204   4.921
 8285SOL    HW125754   2.856   3.193   4.905
 8285SOL    HW225755   3.004   3.188   4.836
 8286SOL     OW25756   5.579   3.104   6.438
 8286SOL    HW125757   5.498   3.161   6.440
 8286SOL    HW225758   5.555   3.012   6.406
 8287SOL     OW25759   2.023   5.443   4.374
 8287SOL    HW125760   2.039   5.349   4.404
 8287SOL    HW225761   1.925   5.458   4.362
 8288SOL     OW25762   3.058   1.624   1.429
 8288SOL    HW125763   3.152   1.660   1.436
 8288SOL    HW225764   2.994   1.694   1.460
 8289SOL     OW25765   0.869   5.513   1.133
 8289SOL    HW125766   0.901   5.602   1.167
 8289SOL    HW225767   0.849   5.520   1.035
 8290SOL     OW25768   5.776   1.113   1.103
 8290SOL    HW125769   5.786   1.161   1.016
 8290SOL    HW225770   5.760   1.180   1.176
 8291SOL     OW25771   5.493   6.351   5.798
 8291SOL    HW125772   5.575   6.320   5.748
 8291SOL    HW225773   5.440   6.411   5.739
 8292SOL     OW25774   2.591   6.261   6.949
 8292SOL    HW125775   2.617   6.249   0.018
 8292SOL    HW225776   2.584   6.359   6.928
 8293SOL     OW25777   3.962   6.384   6.954
 8293SOL    HW125778   3.871   6.404   6.918
 8293SOL    HW225779   3.957   6.378   0.027
 8294SOL     OW25780   5.628   4.489   5.057
 8294SOL    HW125781   5.721   4.460   5.036
 8294SOL    HW225782   5.563   4.428   5.011
 8295SOL     OW25783   4.989   5.910   1.475
 8295SOL    HW125784   4.912   5.964   1.508
 8295SOL    HW225785   4.960   5.814   1.465
 8296SOL     OW25786   2.181   5.975   6.126
 8296SOL    HW125787   2.123   6.049   6.160
 8296SOL    HW225788   2.258   6.013   6.076
 8297SOL     OW25789   6.291   2.786   2.219
 8297SOL    HW125790   6.359   2.850   2.254
 8297SOL    HW225791   6.318   2.757   2.127
 8298SOL     OW25792   5.941   1.860   1.190
 8298SOL    HW125793   6.037   1.835   1.199
 8298SOL    HW225794   5.921   1.884   1.095
 8299SOL     OW25795   6.617   2.861   1.907
 8299SOL    HW125796   6.648   2.857   2.002
 8299SOL    HW225797   6.680   2.809   1.849
 8300SOL     OW25798   0.503   6.087   5.170
 8300SOL    HW125799   0.585   6.128   5.211
 8300SOL    HW225800   0.524   6.057   5.077
 8301SOL     OW25801   4.159   1.801   2.011
 8301SOL    HW125802   4.081   1.750   1.975
 8301SOL    HW225803   4.130   1.893   2.037
 8302SOL     OW25804   6.206   6.073   6.534
 8302SOL    HW125805   6.115   6.087   6.572
 8302SOL    HW225806   6.273   6.125   6.587
 8303SOL     OW25807   6.353   0.575   4.338
 8303SOL    HW125808   6.451   0.561   4.352
 8303SOL    HW225809   6.302   0.520   4.404
 8304SOL     OW25810   0.368   3.739   1.097
 8304SOL    HW125811   0.279   3.713   1.134
 8304SOL    HW225812   0.376   3.709   1.002
 8305SOL     OW25813   4.099   5.112   4.193
 8305SOL    HW125814   4.049   5.026   4.200
 8305SOL    HW225815   4.041   5.181   4.150
 8306SOL     OW25816   0.090   2.792   5.639
 8306SOL    HW125817   0.095   2.742   5.553
 8306SOL    HW225818   0.020   2.752   5.697
 8307SOL     OW25819   4.004   5.319   1.506
 8307SOL    HW125820   3.995   5.228   1.465
 8307SOL    HW225821   4.014   5.310   1.605
 8308SOL     OW25822   4.107   5.474   0.975
 8308SOL    HW125823   4.196   5.452   1.015
 8308SOL    HW225824   4.038   5.480   1.047
 8309SOL     OW25825   6.099   5.727   3.825
 8309SOL    HW125826   6.152   5.679   3.895
 8309SOL    HW225827   6.094   5.824   3.849
 8310SOL     OW25828   0.626   4.387   0.642
 8310SOL    HW125829   0.687   4.316   0.680
 8310SOL    HW225830   0.669   4.476   0.654
 8311SOL     OW25831   0.625   0.938   4.786
 8311SOL    HW125832   0.601   0.900   4.697
 8311SOL    HW225833   0.596   1.034   4.790
 8312SOL     OW25834   4.432   6.686   0.649
 8312SOL    HW125835   4.444   6.776   0.607
 8312SOL    HW225836   4.365   6.692   0.724
 8313SOL     OW25837   4.906   1.025   2.256
 8313SOL    HW125838   4.998   1.001   2.289
 8313SOL    HW225839   4.865   0.947   2.211
 8314SOL     OW25840   4.582   0.308   1.181
 8314SOL    HW125841   4.534   0.264   1.105
 8314SOL    HW225842   4.526   0.383   1.217
 8315SOL     OW25843   3.768   3.333   0.960
 8315SOL    HW125844   3.863   3.300   0.958
 8315SOL    HW225845   3.758   3.400   1.033
 8316SOL     OW25846   0.567   2.409   1.677
 8316SOL    HW125847   0.496   2.450   1.733
 8316SOL    HW225848   0.588   2.317   1.710
 8317SOL     OW25849   2.221   2.290   2.891
 8317SOL    HW125850   2.177   2.321   2.807
 8317SOL    HW225851   2.268   2.203   2.874
 8318SOL     OW25852   4.277   1.119   4.825
 8318SOL    HW125853   4.308   1.199   4.773
 8318SOL    HW225854   4.354   1.080   4.876
 8319SOL     OW25855   2.750   1.164   6.678
 8319SOL    HW125856   2.680   1.184   6.610
 8319SOL    HW225857   2.832   1.128   6.633
 8320SOL     OW25858   3.226   3.537   1.801
 8320SOL    HW125859   3.294   3.469   1.830
 8320SOL    HW225860   3.256   3.628   1.828
 8321SOL     OW25861   6.814   0.818   0.258
 8321SOL    HW125862   6.912   0.824   0.243
 8321SOL    HW225863   6.777   0.910   0.272
 8322SOL     OW25864   7.022   0.474   0.420
 8322SOL    HW125865   0.056   0.462   0.341
 8322SOL    HW225866   6.995   0.385   0.456
 8323SOL     OW25867   5.522   5.735   2.402
 8323SOL    HW125868   5.575   5.802   2.349
 8323SOL    HW225869   5.585   5.672   2.448
 8324SOL     OW25870   5.473   0.732   1.659
 8324SOL    HW125871   5.391   0.688   1.621
 8324SOL    HW225872   5.547   0.725   1.592
 8325SOL     OW25873   2.961   3.307   5.272
 8325SOL    HW125874   2.993   3.402   5.263
 8325SOL    HW225875   2.861   3.307   5.283
 8326SOL     OW25876   5.089   3.176   5.408
 8326SOL    HW125877   5.022   3.199   5.337
 8326SOL    HW225878   5.160   3.117   5.369
 8327SOL     OW25879   6.122   2.099   5.864
 8327SOL    HW125880   6.066   2.095   5.947
 8327SOL    HW225881   6.215   2.127   5.888
 8328SOL     OW25882   2.643   4.462   5.546
 8328SOL    HW125883   2.702   4.520   5.491
 8328SOL    HW225884   2.651   4.367   5.516
 8329SOL     OW25885   0.130   3.519   6.373
 8329SOL    HW125886   0.191   3.599   6.362
 8329SOL    HW225887   0.092   3.519   6.465
 8330SOL     OW25888   3.260   6.536   0.475
 8330SOL    HW125889   3.177   6.532   0.531
 8330SOL    HW225890   3.256   6.466   0.404
 8331SOL     OW25891   2.564   1.740   1.311
 8331SOL    HW125892   2.601   1.786   1.230
 8331SOL    HW225893   2.609   1.651   1.323
 8332SOL     OW25894   5.081   5.063   2.710
 8332SOL    HW125895   5.086   4.968   2.680
 8332SOL    HW225896   5.073   5.066   2.810
 8333SOL     OW25897   0.599   6.510   6.503
 8333SOL    HW125898   0.538   6.439   6.468
 8333SOL    HW225899   0.674   6.467   6.554
 8334SOL     OW25900   4.192   1.182   3.616
 8334SOL    HW125901   4.130   1.261   3.616
 8334SOL    HW225902   4.211   1.155   3.711
 8335SOL     OW25903   6.469   5.459   6.358
 8335SOL    HW125904   6.417   5.465   6.444
 8335SOL    HW225905   6.416   5.501   6.284
 8336SOL     OW25906   6.189   7.003   2.774
 8336SOL    HW125907   6.267   6.989   2.836
 8336SOL    HW225908   6.179   6.924   2.714
 8337SOL     OW25909   0.660   5.858   3.223
 8337SOL    HW125910   0.704   5.930   3.169
 8337SOL    HW225911   0.664   5.771   3.173
 8338SOL     OW25912   1.982   5.014   1.746
 8338SOL    HW125913   1.996   4.917   1.728
 8338SOL    HW225914   1.886   5.037   1.728
 8339SOL     OW25915   5.832   0.600   2.191
 8339SOL    HW125916   5.921   0.599   2.146
 8339SOL    HW225917   5.765   0.555   2.132
 8340SOL     OW25918   5.074   3.473   1.646
 8340SOL    HW125919   5.039   3.385   1.615
 8340SOL    HW225920   5.011   3.546   1.619
 8341SOL     OW25921   2.220   6.445   6.418
 8341SOL    HW125922   2.155   6.475   6.348
 8341SOL    HW225923   2.203   6.349   6.440
 8342SOL     OW25924   4.053   0.083   1.664
 8342SOL    HW125925   4.023   0.109   1.573
 8342SOL    HW225926   4.091   0.162   1.711
 8343SOL     OW25927   0.886   5.073   5.837
 8343SOL    HW125928   0.848   5.050   5.748
 8343SOL    HW225929   0.830   5.144   5.880
 8344SOL     OW25930   4.184   0.324   5.150
 8344SOL    HW125931   4.250   0.326   5.224
 8344SOL    HW225932   4.122   0.402   5.158
 8345SOL     OW25933   5.067   1.700   3.866
 8345SOL    HW125934   5.132   1.716   3.792
 8345SOL    HW225935   4.994   1.769   3.862
 8346SOL     OW25936   2.192   4.402   0.647
 8346SOL    HW125937   2.260   4.389   0.718
 8346SOL    HW225938   2.123   4.329   0.653
 8347SOL     OW25939   4.022   5.445   4.823
 8347SOL    HW125940   4.029   5.488   4.913
 8347SOL    HW225941   3.974   5.506   4.760
 8348SOL     OW25942   1.375   6.939   2.249
 8348SOL    HW125943   1.298   6.997   2.222
 8348SOL    HW225944   1.343   6.845   2.265
 8349SOL     OW25945   6.205   6.358   1.653
 8349SOL    HW125946   6.229   6.448   1.691
 8349SOL    HW225947   6.170   6.299   1.725
 8350SOL     OW25948   4.751   0.859   4.854
 8350SOL    HW125949   4.667   0.805   4.858
 8350SOL    HW225950   4.831   0.799   4.861
 8351SOL     OW25951   4.708   4.985   3.974
 8351SOL    HW125952   4.799   4.979   4.017
 8351SOL    HW225953   4.690   4.901   3.923
 8352SOL     OW25954   6.889   6.127   2.979
 8352SOL    HW125955   6.918   6.115   2.884
 8352SOL    HW225956   6.963   6.167   3.032
 8353SOL     OW25957   6.803   3.978   1.313
 8353SOL    HW125958   6.833   4.050   1.376
 8353SOL    HW225959   6.835   3.889   1.347
 8354SOL     OW25960   3.953   6.978   6.945
 8354SOL    HW125961   3.921   6.950   6.855
 8354SOL    HW225962   3.899   0.029   6.978
 8355SOL     OW25963   3.116   0.330   0.150
 8355SOL    HW125964   3.142   0.366   0.240
 8355SOL    HW225965   3.097   0.232   0.158
 8356SOL     OW25966   2.034   6.295   1.024
 8356SOL    HW125967   1.992   6.301   1.115
 8356SOL    HW225968   2.130   6.321   1.029
 8357SOL     OW25969   3.750   0.288   5.904
 8357SOL    HW125970   3.801   0.279   5.989
 8357SOL    HW225971   3.813   0.282   5.826
 8358SOL     OW25972   1.257   3.390   5.829
 8358SOL    HW125973   1.316   3.317   5.863
 8358SOL    HW225974   1.268   3.398   5.730
 8359SOL     OW25975   2.791   6.486   4.681
 8359SOL    HW125976   2.742   6.504   4.596
 8359SOL    HW225977   2.770   6.394   4.714
 8360SOL     OW25978   3.654   5.956   1.047
 8360SOL    HW125979   3.717   5.910   1.110
 8360SOL    HW225980   3.685   5.942   0.953
 8361SOL     OW25981   2.361   0.013   2.844
 8361SOL    HW125982   2.417   6.993   2.775
 8361SOL    HW225983   2.419   0.069   2.903
 8362SOL     OW25984   2.927   1.645   0.983
 8362SOL    HW125985   2.909   1.715   0.913
 8362SOL    HW225986   2.983   1.684   1.056
 8363SOL     OW25987   0.695   2.389   0.042
 8363SOL    HW125988   0.722   2.484   0.060
 8363SOL    HW225989   0.676   2.343   0.129
 8364SOL     OW25990   6.456   2.875   2.681
 8364SOL    HW125991   6.364   2.898   2.714
 8364SOL    HW225992   6.468   2.776   2.684
 8365SOL     OW25993   1.803   4.332   1.620
 8365SOL    HW125994   1.872   4.273   1.579
 8365SOL    HW225995   1.771   4.292   1.706
 8366SOL     OW25996   2.524   5.809   2.330
 8366SOL    HW125997   2.517   5.709   2.333
 8366SOL    HW225998   2.433   5.849   2.338
 8367SOL     OW25999   4.297   5.938   3.917
 8367SOL    HW126000   4.322   5.864   3.980
 8367SOL    HW226001   4.297   6.025   3.966
 8368SOL     OW26002   2.046   6.556   5.895
 8368SOL    HW126003   2.122   6.517   5.843
 8368SOL    HW226004   2.011   6.636   5.846
 8369SOL     OW26005   1.928   6.741   6.963
 8369SOL    HW126006   1.939   6.834   6.998
 8369SOL    HW226007   1.969   6.734   6.873
 8370SOL     OW26008   2.353   2.029   5.667
 8370SOL    HW126009   2.390   2.010   5.576
 8370SOL    HW226010   2.426   2.024   5.735
 8371SOL     OW26011   2.086   4.195   1.362
 8371SOL    HW126012   2.119   4.144   1.441
 8371SOL    HW226013   2.035   4.134   1.302
 8372SOL     OW26014   0.084   5.732   2.329
 8372SOL    HW126015   0.171   5.752   2.374
 8372SOL    HW226016   0.086   5.770   2.236
 8373SOL     OW26017   1.242   0.551   3.921
 8373SOL    HW126018   1.269   0.608   3.843
 8373SOL    HW226019   1.204   0.465   3.888
 8374SOL     OW26020   6.446   0.715   6.067
 8374SOL    HW126021   6.407   0.789   6.011
 8374SOL    HW226022   6.544   0.708   6.050
 8375SOL     OW26023   3.817   0.209   6.370
 8375SOL    HW126024   3.766   0.177   6.450
 8375SOL    HW226025   3.846   0.132   6.315
 8376SOL     OW26026   1.895   0.620   4.139
 8376SOL    HW126027   1.907   0.675   4.222
 8376SOL    HW226028   1.965   0.646   4.072
 8377SOL     OW26029   5.810   5.730   1.335
 8377SOL    HW126030   5.871   5.805   1.360
 8377SOL    HW226031   5.760   5.700   1.416
 8378SOL     OW26032   4.442   4.987   3.000
 8378SOL    HW126033   4.527   4.963   3.047
 8378SOL    HW226034   4.377   5.024   3.066
 8379SOL     OW26035   6.301   2.099   1.230
 8379SOL    HW126036   6.244   2.146   1.298
 8379SOL    HW226037   6.364   2.164   1.188
 8380SOL     OW26038   6.746   1.744   2.597
 8380SOL    HW126039   6.648   1.745   2.574
 8380SOL    HW226040   6.774   1.836   2.625
 8381SOL     OW26041   0.241   4.047   5.459
 8381SOL    HW126042   0.202   3.972   5.407
 8381SOL    HW226043   0.186   4.064   5.540
 8382SOL     OW26044   1.822   0.497   1.885
 8382SOL    HW126045   1.770   0.421   1.923
 8382SOL    HW226046   1.918   0.488   1.909
 8383SOL     OW26047   2.610   0.441   5.984
 8383SOL    HW126048   2.525   0.441   5.931
 8383SOL    HW226049   2.613   0.359   6.042
 8384SOL     OW26050   0.080   0.284   0.239
 8384SOL    HW126051   0.023   0.222   0.186
 8384SOL    HW226052   0.150   0.323   0.179
 8385SOL     OW26053   6.079   2.321   1.398
 8385SOL    HW126054   6.062   2.363   1.309
 8385SOL    HW226055   6.069   2.222   1.390
 8386SOL     OW26056   0.691   4.145   2.121
 8386SOL    HW126057   0.725   4.120   2.030
 8386SOL    HW226058   0.687   4.064   2.179
 8387SOL     OW26059   1.230   1.214   2.125
 8387SOL    HW126060   1.278   1.149   2.066
 8387SOL    HW226061   1.214   1.299   2.074
 8388SOL     OW26062   1.660   6.290   0.374
 8388SOL    HW126063   1.760   6.297   0.381
 8388SOL    HW226064   1.621   6.282   0.465
 8389SOL     OW26065   6.223   3.934   2.979
 8389SOL    HW126066   6.214   3.849   3.031
 8389SOL    HW226067   6.278   4.000   3.031
 8390SOL     OW26068   4.010   1.063   6.047
 8390SOL    HW126069   4.081   1.026   6.107
 8390SOL    HW226070   4.052   1.121   5.977
 8391SOL     OW26071   6.361   5.235   6.960
 8391SOL    HW126072   6.295   5.161   6.972
 8391SOL    HW226073   6.445   5.212   7.010
 8392SOL     OW26074   0.159   3.824   4.056
 8392SOL    HW126075   0.207   3.822   4.144
 8392SOL    HW226076   0.223   3.850   3.984
 8393SOL     OW26077   6.519   0.865   2.167
 8393SOL    HW126078   6.471   0.783   2.198
 8393SOL    HW226079   6.612   0.865   2.203
 8394SOL     OW26080   5.980   3.034   1.490
 8394SOL    HW126081   6.060   3.052   1.547
 8394SOL    HW226082   5.912   3.106   1.503
 8395SOL     OW26083   2.826   6.900   5.679
 8395SOL    HW126084   2.832   6.823   5.616
 8395SOL    HW226085   2.860   6.872   5.769
 8396SOL     OW26086   4.896   4.726   3.546
 8396SOL    HW126087   4.815   4.778   3.574
 8396SOL    HW226088   4.972   4.789   3.530
 8397SOL     OW26089   1.459   1.334   3.154
 8397SOL    HW126090   1.528   1.387   3.106
 8397SOL    HW226091   1.493   1.241   3.168
 8398SOL     OW26092   4.351   2.776   5.920
 8398SOL    HW126093   4.318   2.865   5.888
 8398SOL    HW226094   4.437   2.789   5.969
 8399SOL     OW26095   6.203   6.511   6.554
 8399SOL    HW126096   6.216   6.609   6.568
 8399SOL    HW226097   6.141   6.476   6.623
 8400SOL     OW26098   2.116   2.238   3.858
 8400SOL    HW126099   2.114   2.250   3.759
 8400SOL    HW226100   2.211   2.234   3.889
 8401SOL     OW26101   1.945   1.604   5.327
 8401SOL    HW126102   2.015   1.634   5.392
 8401SOL    HW226103   1.955   1.506   5.309
 8402SOL     OW26104   5.457   1.561   6.225
 8402SOL    HW126105   5.364   1.524   6.228
 8402SOL    HW226106   5.455   1.654   6.187
 8403SOL     OW26107   0.589   3.090   4.066
 8403SOL    HW126108   0.545   3.133   4.144
 8403SOL    HW226109   0.521   3.071   3.995
 8404SOL     OW26110   3.564   0.092   5.843
 8404SOL    HW126111   3.524   0.142   5.766
 8404SOL    HW226112   3.616   0.154   5.901
 8405SOL     OW26113   2.738   1.473   5.354
 8405SOL    HW126114   2.809   1.403   5.354
 8405SOL    HW226115   2.649   1.430   5.368
 8406SOL     OW26116   4.066   0.333   0.407
 8406SOL    HW126117   4.068   0.237   0.378
 8406SOL    HW226118   4.150   0.379   0.378
 8407SOL     OW26119   4.074   6.246   3.700
 8407SOL    HW126120   3.992   6.273   3.649
 8407SOL    HW226121   4.076   6.147   3.710
 8408SOL     OW26122   5.250   4.534   1.023
 8408SOL    HW126123   5.196   4.512   0.942
 8408SOL    HW226124   5.344   4.556   0.995
 8409SOL     OW26125   4.854   2.216   2.580
 8409SOL    HW126126   4.879   2.292   2.521
 8409SOL    HW226127   4.755   2.217   2.595
 8410SOL     OW26128   5.813   1.465   1.875
 8410SOL    HW126129   5.884   1.483   1.807
 8410SOL    HW226130   5.801   1.546   1.933
 8411SOL     OW26131   0.613   5.999   1.024
 8411SOL    HW126132   0.698   6.016   0.975
 8411SOL    HW226133   0.536   6.035   0.971
 8412SOL     OW26134   3.391   2.567   1.167
 8412SOL    HW126135   3.445   2.642   1.206
 8412SOL    HW226136   3.443   2.482   1.174
 8413SOL     OW26137   4.598   5.706   6.203
 8413SOL    HW126138   4.696   5.686   6.202
 8413SOL    HW226139   4.561   5.694   6.111
 8414SOL     OW26140   2.489   0.582   3.379
 8414SOL    HW126141   2.465   0.678   3.362
 8414SOL    HW226142   2.562   0.578   3.447
 8415SOL     OW26143   1.112   6.374   4.420
 8415SOL    HW126144   1.117   6.365   4.321
 8415SOL    HW226145   1.147   6.463   4.448
 8416SOL     OW26146   6.318   1.701   4.466
 8416SOL    HW126147   6.398   1.642   4.464
 8416SOL    HW226148   6.297   1.727   4.560
 8417SOL     OW26149   0.914   3.147   5.539
 8417SOL    HW126150   1.011   3.166   5.552
 8417SOL    HW226151   0.904   3.063   5.485
 8418SOL     OW26152   0.247   5.691   1.662
 8418SOL    HW126153   0.154   5.718   1.636
 8418SOL    HW226154   0.243   5.607   1.716
 8419SOL     OW26155   5.673   0.436   2.678
 8419SOL    HW126156   5.712   0.509   2.734
 8419SOL    HW226157   5.676   0.462   2.582
 8420SOL     OW26158   3.563   6.696   1.575
 8420SOL    HW126159   3.495   6.682   1.502
 8420SOL    HW226160   3.611   6.782   1.560
 8421SOL     OW26161   3.695   4.443   0.219
 8421SOL    HW126162   3.744   4.427   0.304
 8421SOL    HW226163   3.742   4.395   0.144
 8422SOL     OW26164   4.453   1.289   2.297
 8422SOL    HW126165   4.364   1.266   2.260
 8422SOL    HW226166   4.497   1.206   2.332
 8423SOL     OW26167   4.181   4.184   5.779
 8423SOL    HW126168   4.118   4.131   5.722
 8423SOL    HW226169   4.254   4.222   5.722
 8424SOL     OW26170   1.893   2.412   2.521
 8424SOL    HW126171   1.921   2.505   2.497
 8424SOL    HW226172   1.804   2.415   2.568
 8425SOL     OW26173   4.262   3.722   5.128
 8425SOL    HW126174   4.171   3.756   5.105
 8425SOL    HW226175   4.297   3.770   5.208
 8426SOL     OW26176   3.353   3.206   2.849
 8426SOL    HW126177   3.401   3.185   2.934
 8426SOL    HW226178   3.324   3.120   2.805
 8427SOL     OW26179   3.000   3.907   3.757
 8427SOL    HW126180   2.950   3.943   3.678
 8427SOL    HW226181   3.061   3.833   3.727
 8428SOL     OW26182   0.383   6.203   1.720
 8428SOL    HW126183   0.374   6.302   1.710
 8428SOL    HW226184   0.367   6.160   1.631
 8429SOL     OW26185   1.703   5.302   5.614
 8429SOL    HW126186   1.665   5.241   5.544
 8429SOL    HW226187   1.758   5.248   5.679
 8430SOL     OW26188   3.818   4.936   3.751
 8430SOL    HW126189   3.902   4.884   3.735
 8430SOL    HW226190   3.790   4.926   3.847
 8431SOL     OW26191   4.110   3.581   0.243
 8431SOL    HW126192   4.144   3.646   0.175
 8431SOL    HW226193   4.108   3.489   0.203
 8432SOL     OW26194   6.406   5.370   5.540
 8432SOL    HW126195   6.468   5.303   5.579
 8432SOL    HW226196   6.313   5.333   5.539
 8433SOL     OW26197   4.254   2.747   0.834
 8433SOL    HW126198   4.337   2.770   0.885
 8433SOL    HW226199   4.208   2.832   0.805
 8434SOL     OW26200   2.572   6.936   4.193
 8434SOL    HW126201   2.641   6.864   4.188
 8434SOL    HW226202   2.526   6.944   4.105
 8435SOL     OW26203   5.563   0.020   2.468
 8435SOL    HW126204   5.530   0.083   2.539
 8435SOL    HW226205   5.486   7.016   2.412
 8436SOL     OW26206   3.338   6.466   3.859
 8436SOL    HW126207   3.273   6.505   3.794
 8436SOL    HW226208   3.303   6.477   3.952
 8437SOL     OW26209   2.487   2.540   2.531
 8437SOL    HW126210   2.568   2.539   2.589
 8437SOL    HW226211   2.416   2.598   2.573
 8438SOL     OW26212   2.724   4.837   2.930
 8438SOL    HW126213   2.730   4.822   3.028
 8438SOL    HW226214   2.734   4.935   2.911
 8439SOL     OW26215   6.032   5.017   2.490
 8439SOL    HW126216   6.126   5.028   2.520
 8439SOL    HW226217   6.020   4.927   2.448
 8440SOL     OW26218   2.858   2.305   3.055
 8440SOL    HW126219   2.884   2.285   2.960
 8440SOL    HW226220   2.900   2.239   3.116
 8441SOL     OW26221   5.534   6.411   6.447
 8441SOL    HW126222   5.611   6.463   6.484
 8441SOL    HW226223   5.569   6.334   6.393
 8442SOL     OW26224   3.713   1.636   5.018
 8442SOL    HW126225   3.688   1.550   4.973
 8442SOL    HW226226   3.635   1.699   5.017
 8443SOL     OW26227   2.433   5.031   3.595
 8443SOL    HW126228   2.460   4.938   3.619
 8443SOL    HW226229   2.398   5.031   3.501
 8444SOL     OW26230   3.482   6.989   3.717
 8444SOL    HW126231   3.423   6.942   3.784
 8444SOL    HW226232   3.458   6.958   3.625
 8445SOL     OW26233   3.002   0.097   0.865
 8445SOL    HW126234   3.004   0.037   0.786
 8445SOL    HW226235   3.078   0.162   0.860
 8446SOL     OW26236   6.411   4.776   5.298
 8446SOL    HW126237   6.410   4.676   5.303
 8446SOL    HW226238   6.506   4.808   5.299
 8447SOL     OW26239   4.006   1.153   1.344
 8447SOL    HW126240   4.062   1.071   1.356
 8447SOL    HW226241   4.066   1.232   1.330
 8448SOL     OW26242   4.807   6.461   3.360
 8448SOL    HW126243   4.793   6.397   3.285
 8448SOL    HW226244   4.722   6.509   3.380
 8449SOL     OW26245   0.019   3.093   3.428
 8449SOL    HW126246   0.051   3.037   3.504
 8449SOL    HW226247   6.956   3.133   3.451
 8450SOL     OW26248   0.940   0.707   1.272
 8450SOL    HW126249   0.901   0.737   1.359
 8450SOL    HW226250   0.943   0.607   1.269
 8451SOL     OW26251   3.136   1.000   6.975
 8451SOL    HW126252   3.041   1.025   6.998
 8451SOL    HW226253   3.198   1.049   0.010
 8452SOL     OW26254   5.765   3.116   4.441
 8452SOL    HW126255   5.710   3.152   4.366
 8452SOL    HW226256   5.732   3.154   4.527
 8453SOL     OW26257   0.121   5.684   0.601
 8453SOL    HW126258   0.044   5.729   0.646
 8453SOL    HW226259   0.106   5.682   0.502
 8454SOL     OW26260   0.288   4.945   0.641
 8454SOL    HW126261   0.223   4.895   0.584
 8454SOL    HW226262   0.269   4.927   0.737
 8455SOL     OW26263   0.095   1.845   3.120
 8455SOL    HW126264   0.062   1.760   3.160
 8455SOL    HW226265   0.036   1.920   3.148
 8456SOL     OW26266   4.359   6.992   3.477
 8456SOL    HW126267   4.426   6.965   3.408
 8456SOL    HW226268   4.396   6.974   3.568
 8457SOL     OW26269   6.200   5.880   4.762
 8457SOL    HW126270   6.226   5.971   4.730
 8457SOL    HW226271   6.211   5.814   4.687
 8458SOL     OW26272   2.399   0.350   0.320
 8458SOL    HW126273   2.336   0.280   0.354
 8458SOL    HW226274   2.409   0.422   0.389
 8459SOL     OW26275   2.163   5.769   3.099
 8459SOL    HW126276   2.101   5.732   3.030
 8459SOL    HW226277   2.257   5.757   3.069
 8460SOL     OW26278   4.733   4.213   5.249
 8460SOL    HW126279   4.727   4.174   5.341
 8460SOL    HW226280   4.787   4.151   5.191
 8461SOL     OW26281   0.986   2.979   4.755
 8461SOL    HW126282   0.961   2.899   4.701
 8461SOL    HW226283   1.080   2.970   4.786
 8462SOL     OW26284   2.916   1.752   6.674
 8462SOL    HW126285   2.912   1.653   6.688
 8462SOL    HW226286   2.964   1.794   6.751
 8463SOL     OW26287   6.748   6.998   1.893
 8463SOL    HW126288   6.803   0.019   1.825
 8463SOL    HW226289   6.720   6.908   1.857
 8464SOL     OW26290   5.346   4.776   4.164
 8464SOL    HW126291   5.350   4.794   4.262
 8464SOL    HW226292   5.423   4.819   4.118
 8465SOL     OW26293   1.011   2.532   0.637
 8465SOL    HW126294   1.035   2.459   0.701
 8465SOL    HW226295   0.912   2.545   0.635
 8466SOL     OW26296   0.746   6.631   3.853
 8466SOL    HW126297   0.801   6.549   3.871
 8466SOL    HW226298   0.805   6.711   3.853
 8467SOL     OW26299   2.704   6.046   0.583
 8467SOL    HW126300   2.714   5.948   0.599
 8467SOL    HW226301   2.624   6.062   0.524
 8468SOL     OW26302   3.230   1.014   0.741
 8468SOL    HW126303   3.241   0.948   0.667
 8468SOL    HW226304   3.278   1.098   0.718
 8469SOL     OW26305   3.206   2.814   6.816
 8469SOL    HW126306   3.250   2.748   6.877
 8469SOL    HW226307   3.108   2.793   6.810
 8470SOL     OW26308   2.841   3.603   1.176
 8470SOL    HW126309   2.779   3.525   1.161
 8470SOL    HW226310   2.809   3.655   1.255
 8471SOL     OW26311   3.026   1.254   3.036
 8471SOL    HW126312   2.928   1.275   3.030
 8471SOL    HW226313   3.047   1.174   2.979
 8472SOL     OW26314   0.199   0.090   3.817
 8472SOL    HW126315   0.123   0.038   3.779
 8472SOL    HW226316   0.204   0.180   3.773
 8473SOL     OW26317   6.987   5.467   6.647
 8473SOL    HW126318   0.050   5.512   6.650
 8473SOL    HW226319   6.972   5.418   6.733
 8474SOL     OW26320   2.857   3.195   1.766
 8474SOL    HW126321   2.801   3.278   1.756
 8474SOL    HW226322   2.943   3.219   1.812
 8475SOL     OW26323   0.039   1.251   3.261
 8475SOL    HW126324   0.092   1.336   3.263
 8475SOL    HW226325   6.978   1.268   3.215
 8476SOL     OW26326   6.214   0.967   1.795
 8476SOL    HW126327   6.308   0.949   1.825
 8476SOL    HW226328   6.156   0.889   1.819
 8477SOL     OW26329   3.291   6.464   1.192
 8477SOL    HW126330   3.349   6.490   1.115
 8477SOL    HW226331   3.198   6.445   1.160
 8478SOL     OW26332   1.242   0.351   6.159
 8478SOL    HW126333   1.180   0.274   6.147
 8478SOL    HW226334   1.333   0.327   6.126
 8479SOL     OW26335   6.211   1.408   0.638
 8479SOL    HW126336   6.137   1.395   0.704
 8479SOL    HW226337   6.233   1.321   0.595
 8480SOL     OW26338   2.979   0.904   1.352
 8480SOL    HW126339   3.000   0.939   1.444
 8480SOL    HW226340   3.065   0.893   1.302
 8481SOL     OW26341   4.390   1.468   3.943
 8481SOL    HW126342   4.401   1.446   4.040
 8481SOL    HW226343   4.457   1.417   3.890
 8482SOL     OW26344   2.534   0.309   2.309
 8482SOL    HW126345   2.593   0.341   2.383
 8482SOL    HW226346   2.583   0.311   2.223
 8483SOL     OW26347   3.729   6.214   1.734
 8483SOL    HW126348   3.754   6.118   1.744
 8483SOL    HW226349   3.807   6.265   1.696
 8484SOL     OW26350   6.670   5.022   3.149
 8484SOL    HW126351   6.704   4.930   3.136
 8484SOL    HW226352   6.747   5.086   3.156
 8485SOL     OW26353   1.930   3.345   6.509
 8485SOL    HW126354   1.832   3.344   6.489
 8485SOL    HW226355   1.982   3.335   6.424
 8486SOL     OW26356   4.866   1.087   3.140
 8486SOL    HW126357   4.915   1.120   3.221
 8486SOL    HW226358   4.913   1.118   3.058
 8487SOL     OW26359   5.830   0.102   0.670
 8487SOL    HW126360   5.911   0.141   0.627
 8487SOL    HW226361   5.755   0.101   0.604
 8488SOL     OW26362   5.852   5.081   4.752
 8488SOL    HW126363   5.820   4.989   4.773
 8488SOL    HW226364   5.785   5.148   4.784
 8489SOL     OW26365   5.998   0.059   1.557
 8489SOL    HW126366   6.058   0.028   1.482
 8489SOL    HW226367   5.953   7.006   1.598
 8490SOL     OW26368   4.562   6.169   3.686
 8490SOL    HW126369   4.539   6.110   3.608
 8490SOL    HW226370   4.499   6.246   3.689
 8491SOL     OW26371   2.165   0.428   1.626
 8491SOL    HW126372   2.201   0.380   1.707
 8491SOL    HW226373   2.096   0.371   1.582
 8492SOL     OW26374   4.747   3.974   6.136
 8492SOL    HW126375   4.751   4.045   6.065
 8492SOL    HW226376   4.722   4.017   6.223
 8493SOL     OW26377   3.321   1.597   6.932
 8493SOL    HW126378   3.275   1.641   6.856
 8493SOL    HW226379   3.275   1.620   7.018
 8494SOL     OW26380   1.769   4.657   6.582
 8494SOL    HW126381   1.854   4.651   6.635
 8494SOL    HW226382   1.693   4.624   6.637
 8495SOL     OW26383   0.113   3.353   0.496
 8495SOL    HW126384   0.017   3.374   0.476
 8495SOL    HW226385   0.170   3.383   0.420
 8496SOL     OW26386   0.620   1.819   2.566
 8496SOL    HW126387   0.608   1.905   2.616
 8496SOL    HW226388   0.600   1.742   2.626
 8497SOL     OW26389   5.610   6.888   4.108
 8497SOL    HW126390   5.595   6.971   4.056
 8497SOL    HW226391   5.708   6.868   4.110
 8498SOL     OW26392   0.380   6.309   2.295
 8498SOL    HW126393   0.344   6.361   2.373
 8498SOL    HW226394   0.477   6.331   2.282
 8499SOL     OW26395   2.598   5.390   6.642
 8499SOL    HW126396   2.641   5.474   6.674
 8499SOL    HW226397   2.639   5.312   6.688
 8500SOL     OW26398   1.929   0.556   5.797
 8500SOL    HW126399   1.976   0.640   5.770
 8500SOL    HW226400   1.973   0.478   5.754
 8501SOL     OW26401   1.630   2.700   0.349
 8501SOL    HW126402   1.585   2.768   0.406
 8501SOL    HW226403   1.595   2.609   0.370
 8502SOL     OW26404   1.794   5.002   0.675
 8502SOL    HW126405   1.709   5.051   0.695
 8502SOL    HW226406   1.828   4.958   0.758
 8503SOL     OW26407   1.228   5.373   2.928
 8503SOL    HW126408   1.223   5.274   2.942
 8503SOL    HW226409   1.201   5.396   2.835
 8504SOL     OW26410   1.600   6.574   3.669
 8504SOL    HW126411   1.534   6.646   3.646
 8504SOL    HW226412   1.577   6.535   3.758
 8505SOL     OW26413   5.131   4.125   3.451
 8505SOL    HW126414   5.158   4.029   3.453
 8505SOL    HW226415   5.034   4.133   3.431
 8506SOL     OW26416   0.651   6.965   0.766
 8506SOL    HW126417   0.607   6.875   0.773
 8506SOL    HW226418   0.636   7.003   0.675
 8507SOL     OW26419   2.556   0.659   5.363
 8507SOL    HW126420   2.624   0.668   5.437
 8507SOL    HW226421   2.478   0.607   5.397
 8508SOL     OW26422   0.005   2.983   4.646
 8508SOL    HW126423   0.075   3.039   4.603
 8508SOL    HW226424   6.956   2.968   4.581
 8509SOL     OW26425   5.732   1.544   4.094
 8509SOL    HW126426   5.701   1.614   4.159
 8509SOL    HW226427   5.657   1.481   4.075
 8510SOL     OW26428   5.851   4.603   3.042
 8510SOL    HW126429   5.849   4.576   3.139
 8510SOL    HW226430   5.847   4.703   3.036
 8511SOL     OW26431   5.428   4.207   1.806
 8511SOL    HW126432   5.465   4.116   1.824
 8511SOL    HW226433   5.380   4.207   1.718
 8512SOL     OW26434   3.513   2.176   0.010
 8512SOL    HW126435   3.609   2.149   7.025
 8512SOL    HW226436   3.499   2.214   0.101
 8513SOL     OW26437   4.507   3.958   1.449
 8513SOL    HW126438   4.467   3.980   1.538
 8513SOL    HW226439   4.578   4.025   1.427
 8514SOL     OW26440   2.333   2.672   3.431
 8514SOL    HW126441   2.265   2.741   3.407
 8514SOL    HW226442   2.288   2.589   3.463
 8515SOL     OW26443   0.015   1.206   6.792
 8515SOL    HW126444   0.029   1.277   6.861
 8515SOL    HW226445   6.965   1.231   6.733
 8516SOL     OW26446   6.377   2.692   1.709
 8516SOL    HW126447   6.292   2.733   1.676
 8516SOL    HW226448   6.435   2.668   1.630
 8517SOL     OW26449   2.078   2.350   5.836
 8517SOL    HW126450   2.080   2.368   5.737
 8517SOL    HW226451   2.156   2.293   5.861
 8518SOL     OW26452   5.053   3.942   6.109
 8518SOL    HW126453   5.014   4.020   6.059
 8518SOL    HW226454   4.980   3.876   6.129
 8519SOL     OW26455   0.939   5.387   0.656
 8519SOL    HW126456   0.849   5.344   0.661
 8519SOL    HW226457   0.951   5.449   0.733
 8520SOL     OW26458   2.815   2.714   6.558
 8520SOL    HW126459   2.825   2.631   6.504
 8520SOL    HW226460   2.719   2.742   6.558
 8521SOL     OW26461   2.662   5.112   5.529
 8521SOL    HW126462   2.747   5.080   5.487
 8521SOL    HW226463   2.584   5.083   5.474
 8522SOL     OW26464   0.709   6.850   1.387
 8522SOL    HW126465   0.731   6.762   1.345
 8522SOL    HW226466   0.655   6.835   1.470
 8523SOL     OW26467   2.328   6.243   6.792
 8523SOL    HW126468   2.263   6.298   6.845
 8523SOL    HW226469   2.405   6.217   6.850
 8524SOL     OW26470   0.900   3.380   4.731
 8524SOL    HW126471   0.851   3.467   4.734
 8524SOL    HW226472   0.843   3.312   4.684
 8525SOL     OW26473   5.593   5.110   1.904
 8525SOL    HW126474   5.627   5.098   1.811
 8525SOL    HW226475   5.557   5.202   1.915
 8526SOL     OW26476   3.641   6.241   0.650
 8526SOL    HW126477   3.675   6.147   0.645
 8526SOL    HW226478   3.597   6.256   0.738
 8527SOL     OW26479   3.338   0.164   0.022
 8527SOL    HW126480   3.383   0.173   6.960
 8527SOL    HW226481   3.250   0.213   0.020
 8528SOL     OW26482   3.375   1.220   0.658
 8528SOL    HW126483   3.363   1.315   0.686
 8528SOL    HW226484   3.431   1.217   0.575
 8529SOL     OW26485   1.384   0.101   0.661
 8529SOL    HW126486   1.426   0.029   0.716
 8529SOL    HW226487   1.454   0.168   0.636
 8530SOL     OW26488   3.909   3.418   5.222
 8530SOL    HW126489   3.815   3.384   5.225
 8530SOL    HW226490   3.949   3.411   5.313
 8531SOL     OW26491   6.968   5.191   2.785
 8531SOL    HW126492   0.009   5.129   2.825
 8531SOL    HW226493   6.883   5.141   2.768
 8532SOL     OW26494   3.809   5.739   4.859
 8532SOL    HW126495   3.825   5.732   4.958
 8532SOL    HW226496   3.729   5.797   4.843
 8533SOL     OW26497   1.936   6.397   0.388
 8533SOL    HW126498   1.975   6.469   0.330
 8533SOL    HW226499   1.975   6.309   0.362
 8534SOL     OW26500   4.830   2.658   3.996
 8534SOL    HW126501   4.739   2.623   3.973
 8534SOL    HW226502   4.883   2.586   4.041
 8535SOL     OW26503   6.187   1.598   3.461
 8535SOL    HW126504   6.235   1.603   3.549
 8535SOL    HW226505   6.088   1.605   3.477
 8536SOL     OW26506   0.356   1.571   4.750
 8536SOL    HW126507   0.431   1.544   4.810
 8536SOL    HW226508   0.269   1.551   4.794
 8537SOL     OW26509   5.544   1.443   3.064
 8537SOL    HW126510   5.474   1.442   2.992
 8537SOL    HW226511   5.531   1.523   3.122
 8538SOL     OW26512   1.764   1.389   6.909
 8538SOL    HW126513   1.681   1.443   6.895
 8538SOL    HW226514   1.748   1.295   6.879
 8539SOL     OW26515   6.363   1.768   2.277
 8539SOL    HW126516   6.330   1.707   2.350
 8539SOL    HW226517   6.334   1.861   2.296
 8540SOL     OW26518   5.896   0.131   6.321
 8540SOL    HW126519   5.831   0.203   6.345
 8540SOL    HW226520   5.898   0.120   6.222
 8541SOL     OW26521   3.728   2.170   3.779
 8541SOL    HW126522   3.811   2.218   3.809
 8541SOL    HW226523   3.752   2.106   3.706
 8542SOL     OW26524   3.720   4.679   6.461
 8542SOL    HW126525   3.779   4.704   6.537
 8542SOL    HW226526   3.758   4.714   6.375
 8543SOL     OW26527   1.887   1.841   1.435
 8543SOL    HW126528   1.958   1.827   1.504
 8543SOL    HW226529   1.918   1.909   1.369
 8544SOL     OW26530   5.427   3.917   4.113
 8544SOL    HW126531   5.401   3.965   4.196
 8544SOL    HW226532   5.438   3.983   4.038
 8545SOL     OW26533   4.214   0.325   5.823
 8545SOL    HW126534   4.191   0.375   5.906
 8545SOL    HW226535   4.250   0.235   5.847
 8546SOL     OW26536   5.947   1.791   4.348
 8546SOL    HW126537   6.026   1.739   4.317
 8546SOL    HW226538   5.863   1.743   4.320
 8547SOL     OW26539   0.680   6.702   5.832
 8547SOL    HW126540   0.694   6.792   5.791
 8547SOL    HW226541   0.640   6.641   5.763
 8548SOL     OW26542   6.054   2.746   5.314
 8548SOL    HW126543   6.137   2.706   5.274
 8548SOL    HW226544   6.067   2.759   5.412
 8549SOL     OW26545   0.446   3.667   3.848
 8549SOL    HW126546   0.443   3.592   3.782
 8549SOL    HW226547   0.486   3.634   3.934
 8550SOL     OW26548   1.978   4.469   6.468
 8550SOL    HW126549   1.965   4.472   6.567
 8550SOL    HW226550   2.031   4.388   6.444
 8551SOL     OW26551   3.961   3.493   5.984
 8551SOL    HW126552   3.881   3.451   5.940
 8551SOL    HW226553   3.975   3.584   5.947
 8552SOL     OW26554   2.295   6.553   4.242
 8552SOL    HW126555   2.264   6.566   4.336
 8552SOL    HW226556   2.256   6.624   4.184
 8553SOL     OW26557   4.991   5.295   6.224
 8553SOL    HW126558   4.955   5.388   6.214
 8553SOL    HW226559   5.013   5.279   6.321
 8554SOL     OW26560   0.593   4.688   0.058
 8554SOL    HW126561   0.650   4.678   0.140
 8554SOL    HW226562   0.538   4.770   0.066
 8555SOL     OW26563   0.663   0.268   3.048
 8555SOL    HW126564   0.681   0.344   2.986
 8555SOL    HW226565   0.743   0.208   3.052
 8556SOL     OW26566   0.893   6.864   3.784
 8556SOL    HW126567   0.840   6.944   3.811
 8556SOL    HW226568   0.981   6.894   3.747
 8557SOL     OW26569   6.581   1.211   1.959
 8557SOL    HW126570   6.629   1.274   2.020
 8557SOL    HW226571   6.513   1.160   2.011
 8558SOL     OW26572   2.734   5.906   3.138
 8558SOL    HW126573   2.662   5.970   3.113
 8558SOL    HW226574   2.698   5.837   3.201
 8559SOL     OW26575   5.955   0.871   1.876
 8559SOL    HW126576   5.893   0.897   1.801
 8559SOL    HW226577   5.925   0.915   1.960
 8560SOL     OW26578   6.861   0.143   1.059
 8560SOL    HW126579   6.924   0.136   1.137
 8560SOL    HW226580   6.860   0.237   1.026
 8561SOL     OW26581   3.184   6.244   1.872
 8561SOL    HW126582   3.169   6.160   1.925
 8561SOL    HW226583   3.215   6.219   1.780
 8562SOL     OW26584   4.965   6.560   5.095
 8562SOL    HW126585   5.029   6.576   5.170
 8562SOL    HW226586   4.879   6.607   5.113
 8563SOL     OW26587   2.427   3.590   0.107
 8563SOL    HW126588   2.453   3.573   0.012
 8563SOL    HW226589   2.484   3.664   0.144
 8564SOL     OW26590   2.494   1.192   3.740
 8564SOL    HW126591   2.548   1.264   3.697
 8564SOL    HW226592   2.484   1.115   3.677
 8565SOL     OW26593   4.833   6.763   1.839
 8565SOL    HW126594   4.844   6.701   1.762
 8565SOL    HW226595   4.735   6.781   1.855
 8566SOL     OW26596   1.087   0.866   2.251
 8566SOL    HW126597   1.014   0.933   2.242
 8566SOL    HW226598   1.143   0.866   2.168
 8567SOL     OW26599   7.013   2.164   1.975
 8567SOL    HW126600   0.078   2.184   2.011
 8567SOL    HW226601   6.967   2.099   2.035
 8568SOL     OW26602   4.414   0.446   6.080
 8568SOL    HW126603   4.481   0.374   6.062
 8568SOL    HW226604   4.322   0.407   6.079
 8569SOL     OW26605   5.130   1.499   5.882
 8569SOL    HW126606   5.100   1.593   5.892
 8569SOL    HW226607   5.083   1.457   5.804
 8570SOL     OW26608   1.070   2.374   5.807
 8570SOL    HW126609   1.066   2.315   5.726
 8570SOL    HW226610   0.990   2.358   5.865
 8571SOL     OW26611   0.154   5.631   5.996
 8571SOL    HW126612   0.075   5.574   5.975
 8571SOL    HW226613   0.238   5.577   5.982
 8572SOL     OW26614   3.192   5.267   6.498
 8572SOL    HW126615   3.139   5.336   6.448
 8572SOL    HW226616   3.159   5.176   6.472
 8573SOL     OW26617   3.502   6.128   6.586
 8573SOL    HW126618   3.562   6.055   6.553
 8573SOL    HW226619   3.438   6.091   6.654
 8574SOL     OW26620   6.808   5.188   5.545
 8574SOL    HW126621   6.829   5.225   5.454
 8574SOL    HW226622   6.804   5.088   5.539
 8575SOL     OW26623   3.697   2.192   6.609
 8575SOL    HW126624   3.733   2.217   6.519
 8575SOL    HW226625   3.696   2.272   6.669
 8576SOL     OW26626   1.004   6.534   1.297
 8576SOL    HW126627   1.054   6.449   1.315
 8576SOL    HW226628   0.939   6.551   1.371
 8577SOL     OW26629   6.373   5.251   4.284
 8577SOL    HW126630   6.451   5.193   4.266
 8577SOL    HW226631   6.394   5.345   4.256
 8578SOL     OW26632   5.105   0.735   4.709
 8578SOL    HW126633   5.092   0.701   4.616
 8578SOL    HW226634   5.120   0.834   4.705
 8579SOL     OW26635   1.470   6.253   3.837
 8579SOL    HW126636   1.520   6.280   3.754
 8579SOL    HW226637   1.524   6.278   3.917
 8580SOL     OW26638   2.257   6.797   2.240
 8580SOL    HW126639   2.251   6.829   2.334
 8580SOL    HW226640   2.310   6.862   2.185
 8581SOL     OW26641   3.384   2.733   1.863
 8581SOL    HW126642   3.481   2.743   1.843
 8581SOL    HW226643   3.363   2.777   1.951
 8582SOL     OW26644   4.256   4.661   1.883
 8582SOL    HW126645   4.192   4.727   1.923
 8582SOL    HW226646   4.217   4.625   1.798
 8583SOL     OW26647   5.848   0.831   6.062
 8583SOL    HW126648   5.794   0.841   6.146
 8583SOL    HW226649   5.938   0.872   6.075
 8584SOL     OW26650   0.415   3.898   6.208
 8584SOL    HW126651   0.430   3.968   6.138
 8584SOL    HW226652   0.477   3.821   6.192
 8585SOL     OW26653   6.886   6.583   6.859
 8585SOL    HW126654   6.879   6.540   6.769
 8585SOL    HW226655   6.861   6.517   6.929
 8586SOL     OW26656   2.664   6.459   3.649
 8586SOL    HW126657   2.578   6.455   3.599
 8586SOL    HW226658   2.697   6.553   3.653
 8587SOL     OW26659   1.338   0.176   2.889
 8587SOL    HW126660   1.381   0.265   2.870
 8587SOL    HW226661   1.342   0.120   2.806
 8588SOL     OW26662   2.745   0.388   6.861
 8588SOL    HW126663   2.787   0.322   6.799
 8588SOL    HW226664   2.745   0.479   6.817
 8589SOL     OW26665   4.479   2.527   4.328
 8589SOL    HW126666   4.386   2.490   4.328
 8589SOL    HW226667   4.504   2.553   4.421
 8590SOL     OW26668   6.609   6.007   4.251
 8590SOL    HW126669   6.666   6.076   4.296
 8590SOL    HW226670   6.528   5.989   4.307
 8591SOL     OW26671   0.894   5.233   6.198
 8591SOL    HW126672   0.800   5.263   6.211
 8591SOL    HW226673   0.922   5.251   6.104
 8592SOL     OW26674   6.474   4.228   0.366
 8592SOL    HW126675   6.574   4.240   0.363
 8592SOL    HW226676   6.435   4.294   0.430
 8593SOL     OW26677   1.240   6.767   2.627
 8593SOL    HW126678   1.201   6.843   2.574
 8593SOL    HW226679   1.177   6.690   2.626
 8594SOL     OW26680   3.540   3.561   5.299
 8594SOL    HW126681   3.549   3.475   5.249
 8594SOL    HW226682   3.488   3.626   5.244
 8595SOL     OW26683   2.311   1.502   2.681
 8595SOL    HW126684   2.409   1.513   2.694
 8595SOL    HW226685   2.284   1.408   2.704
 8596SOL     OW26686   5.849   5.375   2.205
 8596SOL    HW126687   5.850   5.278   2.229
 8596SOL    HW226688   5.927   5.395   2.146
 8597SOL     OW26689   4.032   2.561   1.251
 8597SOL    HW126690   3.984   2.549   1.338
 8597SOL    HW226691   4.084   2.478   1.230
 8598SOL     OW26692   0.447   5.484   1.348
 8598SOL    HW126693   0.348   5.470   1.343
 8598SOL    HW226694   0.466   5.580   1.370
 8599SOL     OW26695   1.150   3.070   3.890
 8599SOL    HW126696   1.159   2.977   3.927
 8599SOL    HW226697   1.167   3.136   3.962
 8600SOL     OW26698   5.436   4.846   6.682
 8600SOL    HW126699   5.529   4.866   6.653
 8600SOL    HW226700   5.418   4.748   6.672
 8601SOL     OW26701   0.860   0.575   4.647
 8601SOL    HW126702   0.807   0.573   4.733
 8601SOL    HW226703   0.893   0.668   4.631
 8602SOL     OW26704   2.370   6.433   2.862
 8602SOL    HW126705   2.275   6.427   2.833
 8602SOL    HW226706   2.413   6.513   2.820
 8603SOL     OW26707   3.833   4.271   0.029
 8603SOL    HW126708   3.767   4.212   7.008
 8603SOL    HW226709   3.920   4.222   0.039
 8604SOL     OW26710   6.412   2.766   2.984
 8604SOL    HW126711   6.450   2.858   2.976
 8604SOL    HW226712   6.331   2.757   2.926
 8605SOL     OW26713   3.435   4.979   4.471
 8605SOL    HW126714   3.370   4.904   4.482
 8605SOL    HW226715   3.408   5.035   4.393
 8606SOL     OW26716   2.108   4.760   5.645
 8606SOL    HW126717   2.079   4.675   5.600
 8606SOL    HW226718   2.142   4.738   5.737
 8607SOL     OW26719   2.872   4.952   0.808
 8607SOL    HW126720   2.906   4.984   0.720
 8607SOL    HW226721   2.949   4.929   0.868
 8608SOL     OW26722   4.704   5.338   3.201
 8608SOL    HW126723   4.630   5.400   3.226
 8608SOL    HW226724   4.723   5.277   3.278
 8609SOL     OW26725   4.557   0.592   4.260
 8609SOL    HW126726   4.513   0.592   4.171
 8609SOL    HW226727   4.509   0.655   4.321
 8610SOL     OW26728   1.151   0.587   2.698
 8610SOL    HW126729   1.126   0.683   2.711
 8610SOL    HW226730   1.184   0.573   2.604
 8611SOL     OW26731   1.648   2.897   3.680
 8611SOL    HW126732   1.740   2.859   3.683
 8611SOL    HW226733   1.631   2.937   3.590
 8612SOL     OW26734   2.900   3.172   0.129
 8612SOL    HW126735   2.951   3.178   0.215
 8612SOL    HW226736   2.877   3.076   0.111
 8613SOL     OW26737   2.262   1.927   1.546
 8613SOL    HW126738   2.219   1.919   1.636
 8613SOL    HW226739   2.195   1.963   1.481
 8614SOL     OW26740   0.968   3.238   3.014
 8614SOL    HW126741   0.935   3.164   3.072
 8614SOL    HW226742   1.035   3.203   2.948
 8615SOL     OW26743   5.323   2.105   4.800
 8615SOL    HW126744   5.240   2.050   4.811
 8615SOL    HW226745   5.379   2.097   4.882
 8616SOL     OW26746   1.594   5.539   1.051
 8616SOL    HW126747   1.590   5.587   1.139
 8616SOL    HW226748   1.659   5.464   1.057
 8617SOL     OW26749   5.830   1.392   0.534
 8617SOL    HW126750   5.890   1.345   0.469
 8617SOL    HW226751   5.870   1.389   0.625
 8618SOL     OW26752   5.279   6.839   1.283
 8618SOL    HW126753   5.267   6.906   1.356
 8618SOL    HW226754   5.367   6.853   1.238
 8619SOL     OW26755   3.332   5.297   1.336
 8619SOL    HW126756   3.414   5.247   1.364
 8619SOL    HW226757   3.252   5.258   1.380
 8620SOL     OW26758   6.215   6.989   3.324
 8620SOL    HW126759   6.255   0.054   3.321
 8620SOL    HW226760   6.185   6.969   3.418
 8621SOL     OW26761   5.888   1.898   3.512
 8621SOL    HW126762   5.891   1.974   3.447
 8621SOL    HW226763   5.793   1.865   3.520
 8622SOL     OW26764   4.664   4.722   0.580
 8622SOL    HW126765   4.741   4.759   0.631
 8622SOL    HW226766   4.697   4.656   0.512
 8623SOL     OW26767   0.279   4.316   2.652
 8623SOL    HW126768   0.355   4.265   2.691
 8623SOL    HW226769   0.198   4.258   2.645
 8624SOL     OW26770   1.143   4.584   3.879
 8624SOL    HW126771   1.072   4.653   3.860
 8624SOL    HW226772   1.149   4.521   3.802
 8625SOL     OW26773   4.801   0.519   4.658
 8625SOL    HW126774   4.720   0.471   4.692
 8625SOL    HW226775   4.840   0.574   4.732
 8626SOL     OW26776   3.412   2.965   4.661
 8626SOL    HW126777   3.326   2.984   4.613
 8626SOL    HW226778   3.403   2.993   4.756
 8627SOL     OW26779   1.067   0.348   2.826
 8627SOL    HW126780   1.114   0.316   2.908
 8627SOL    HW226781   1.117   0.426   2.788
 8628SOL     OW26782   6.408   6.773   1.774
 8628SOL    HW126783   6.426   6.862   1.815
 8628SOL    HW226784   6.355   6.785   1.690
 8629SOL     OW26785   1.642   5.468   4.502
 8629SOL    HW126786   1.650   5.381   4.550
 8629SOL    HW226787   1.656   5.453   4.404
 8630SOL     OW26788   5.998   3.934   4.557
 8630SOL    HW126789   5.938   3.909   4.480
 8630SOL    HW226790   6.036   4.025   4.541
 8631SOL     OW26791   3.665   5.707   6.497
 8631SOL    HW126792   3.736   5.639   6.514
 8631SOL    HW226793   3.592   5.665   6.443
 8632SOL     OW26794   3.851   6.346   3.535
 8632SOL    HW126795   3.838   6.429   3.590
 8632SOL    HW226796   3.775   6.283   3.552
 8633SOL     OW26797   5.576   1.004   4.715
 8633SOL    HW126798   5.629   1.046   4.640
 8633SOL    HW226799   5.482   1.038   4.712
 8634SOL     OW26800   6.220   3.018   0.958
 8634SOL    HW126801   6.176   2.995   1.045
 8634SOL    HW226802   6.251   3.113   0.960
 8635SOL     OW26803   5.593   3.783   6.029
 8635SOL    HW126804   5.587   3.816   5.934
 8635SOL    HW226805   5.503   3.792   6.072
 8636SOL     OW26806   5.543   5.019   6.855
 8636SOL    HW126807   5.470   5.083   6.877
 8636SOL    HW226808   5.512   4.956   6.784
 8637SOL     OW26809   2.091   0.630   0.300
 8637SOL    HW126810   2.113   0.705   0.362
 8637SOL    HW226811   2.013   0.655   0.244
 8638SOL     OW26812   1.858   3.231   0.188
 8638SOL    HW126813   1.769   3.228   0.232
 8638SOL    HW226814   1.858   3.303   0.118
 8639SOL     OW26815   6.049   2.706   1.764
 8639SOL    HW126816   6.095   2.673   1.680
 8639SOL    HW226817   5.977   2.770   1.739
 8640SOL     OW26818   4.540   3.955   0.473
 8640SOL    HW126819   4.496   3.886   0.416
 8640SOL    HW226820   4.614   3.913   0.525
 8641SOL     OW26821   6.898   4.068   4.822
 8641SOL    HW126822   6.853   4.095   4.907
 8641SOL    HW226823   6.838   4.007   4.770
 8642SOL     OW26824   4.529   0.546   2.725
 8642SOL    HW126825   4.559   0.496   2.643
 8642SOL    HW226826   4.601   0.543   2.794
 8643SOL     OW26827   4.563   0.056   6.927
 8643SOL    HW126828   4.464   0.050   6.918
 8643SOL    HW226829   4.586   0.131   6.989
 8644SOL     OW26830   4.502   2.437   5.800
 8644SOL    HW126831   4.521   2.440   5.702
 8644SOL    HW226832   4.566   2.375   5.845
 8645SOL     OW26833   5.419   4.879   1.614
 8645SOL    HW126834   5.411   4.780   1.606
 8645SOL    HW226835   5.343   4.923   1.566
 8646SOL     OW26836   6.298   1.324   1.325
 8646SOL    HW126837   6.208   1.360   1.349
 8646SOL    HW226838   6.308   1.231   1.359
 8647SOL     OW26839   3.461   4.717   6.390
 8647SOL    HW126840   3.553   4.692   6.418
 8647SOL    HW226841   3.431   4.797   6.442
 8648SOL     OW26842   5.831   1.326   4.644
 8648SOL    HW126843   5.761   1.365   4.704
 8648SOL    HW226844   5.874   1.400   4.591
 8649SOL     OW26845   5.549   5.119   5.761
 8649SOL    HW126846   5.610   5.160   5.829
 8649SOL    HW226847   5.519   5.029   5.794
 8650SOL     OW26848   1.844   4.464   4.566
 8650SOL    HW126849   1.875   4.402   4.493
 8650SOL    HW226850   1.786   4.413   4.630
 8651SOL     OW26851   3.753   0.595   0.416
 8651SOL    HW126852   3.785   0.505   0.447
 8651SOL    HW226853   3.681   0.583   0.348
 8652SOL     OW26854   1.403   3.909   2.945
 8652SOL    HW126855   1.413   3.986   3.008
 8652SOL    HW226856   1.332   3.929   2.878
 8653SOL     OW26857   5.865   1.931   5.983
 8653SOL    HW126858   5.863   2.013   5.927
 8653SOL    HW226859   5.778   1.882   5.973
 8654SOL     OW26860   1.223   6.284   2.127
 8654SOL    HW126861   1.225   6.310   2.223
 8654SOL    HW226862   1.291   6.338   2.076
 8655SOL     OW26863   6.023   0.895   3.905
 8655SOL    HW126864   5.992   0.805   3.875
 8655SOL    HW226865   6.089   0.931   3.839
 8656SOL     OW26866   6.690   1.228   0.761
 8656SOL    HW126867   6.601   1.264   0.787
 8656SOL    HW226868   6.745   1.301   0.719
 8657SOL     OW26869   4.351   4.569   0.200
 8657SOL    HW126870   4.323   4.496   0.137
 8657SOL    HW226871   4.444   4.597   0.179
 8658SOL     OW26872   5.252   5.789   0.300
 8658SOL    HW126873   5.169   5.838   0.326
 8658SOL    HW226874   5.279   5.816   0.208
 8659SOL     OW26875   4.353   1.135   3.361
 8659SOL    HW126876   4.255   1.117   3.359
 8659SOL    HW226877   4.403   1.049   3.365
 8660SOL     OW26878   5.103   3.404   0.740
 8660SOL    HW126879   5.034   3.356   0.686
 8660SOL    HW226880   5.171   3.338   0.772
 8661SOL     OW26881   5.289   4.040   0.912
 8661SOL    HW126882   5.352   3.979   0.962
 8661SOL    HW226883   5.240   4.098   0.977
 8662SOL     OW26884   4.954   6.218   1.679
 8662SOL    HW126885   4.913   6.134   1.643
 8662SOL    HW226886   4.883   6.287   1.693
 8663SOL     OW26887   2.422   5.709   1.178
 8663SOL    HW126888   2.485   5.694   1.101
 8663SOL    HW226889   2.474   5.723   1.262
 8664SOL     OW26890   3.822   5.608   0.899
 8664SOL    HW126891   3.877   5.653   0.828
 8664SOL    HW226892   3.830   5.659   0.985
 8665SOL     OW26893   5.639   5.611   5.354
 8665SOL    HW126894   5.716   5.629   5.293
 8665SOL    HW226895   5.580   5.541   5.313
 8666SOL     OW26896   5.784   2.093   5.237
 8666SOL    HW126897   5.795   2.188   5.265
 8666SOL    HW226898   5.714   2.049   5.292
 8667SOL     OW26899   4.291   2.394   2.516
 8667SOL    HW126900   4.377   2.444   2.519
 8667SOL    HW226901   4.220   2.453   2.476
 8668SOL     OW26902   5.273   3.342   3.079
 8668SOL    HW126903   5.227   3.265   3.123
 8668SOL    HW226904   5.218   3.374   3.002
 8669SOL     OW26905   2.514   6.585   6.670
 8669SOL    HW126906   2.555   6.499   6.640
 8669SOL    HW226907   2.554   6.611   6.759
 8670SOL     OW26908   3.627   4.336   5.855
 8670SOL    HW126909   3.612   4.350   5.953
 8670SOL    HW226910   3.540   4.342   5.807
 8671SOL     OW26911   5.930   1.571   3.516
 8671SOL    HW126912   5.897   1.519   3.438
 8671SOL    HW226913   5.863   1.640   3.541
 8672SOL     OW26914   2.362   5.406   3.614
 8672SOL    HW126915   2.417   5.489   3.605
 8672SOL    HW226916   2.422   5.328   3.633
 8673SOL     OW26917   0.080   1.705   6.587
 8673SOL    HW126918   7.012   1.733   6.607
 8673SOL    HW226919   0.089   1.686   6.489
 8674SOL     OW26920   6.555   5.832   1.575
 8674SOL    HW126921   6.458   5.842   1.555
 8674SOL    HW226922   6.574   5.739   1.605
 8675SOL     OW26923   3.743   1.972   4.815
 8675SOL    HW126924   3.699   2.027   4.745
 8675SOL    HW226925   3.697   1.985   4.903
 8676SOL     OW26926   4.077   6.639   3.187
 8676SOL    HW126927   3.983   6.605   3.185
 8676SOL    HW226928   4.122   6.620   3.100
 8677SOL     OW26929   2.525   6.261   5.151
 8677SOL    HW126930   2.599   6.296   5.093
 8677SOL    HW226931   2.526   6.309   5.239
 8678SOL     OW26932   6.949   0.346   0.804
 8678SOL    HW126933   6.905   0.342   0.714
 8678SOL    HW226934   0.022   0.344   0.791
 8679SOL     OW26935   6.406   3.393   4.600
 8679SOL    HW126936   6.391   3.489   4.625
 8679SOL    HW226937   6.438   3.342   4.680
 8680SOL     OW26938   0.708   3.793   1.469
 8680SOL    HW126939   0.687   3.703   1.432
 8680SOL    HW226940   0.695   3.862   1.398
 8681SOL     OW26941   4.714   4.997   0.342
 8681SOL    HW126942   4.742   5.093   0.338
 8681SOL    HW226943   4.637   4.988   0.405
 8682SOL     OW26944   4.177   6.529   2.089
 8682SOL    HW126945   4.155   6.555   1.995
 8682SOL    HW226946   4.119   6.452   2.117
 8683SOL     OW26947   1.338   2.755   1.904
 8683SOL    HW126948   1.405   2.741   1.977
 8683SOL    HW226949   1.325   2.853   1.890
 8684SOL     OW26950   0.775   2.801   4.870
 8684SOL    HW126951   0.793   2.891   4.830
 8684SOL    HW226952   0.753   2.736   4.797
 8685SOL     OW26953   1.433   2.497   5.776
 8685SOL    HW126954   1.404   2.405   5.805
 8685SOL    HW226955   1.429   2.504   5.677
 8686SOL     OW26956   6.845   1.124   1.351
 8686SOL    HW126957   6.923   1.167   1.306
 8686SOL    HW226958   6.782   1.195   1.382
 8687SOL     OW26959   3.807   5.848   2.443
 8687SOL    HW126960   3.709   5.869   2.447
 8687SOL    HW226961   3.820   5.749   2.446
 8688SOL     OW26962   3.205   6.325   0.319
 8688SOL    HW126963   3.261   6.294   0.242
 8688SOL    HW226964   3.109   6.313   0.297
 8689SOL     OW26965   3.824   4.843   0.266
 8689SOL    HW126966   3.816   4.900   0.347
 8689SOL    HW226967   3.845   4.900   0.187
 8690SOL     OW26968   1.714   2.833   3.277
 8690SOL    HW126969   1.757   2.748   3.307
 8690SOL    HW226970   1.765   2.871   3.201
 8691SOL     OW26971   4.390   2.632   6.191
 8691SOL    HW126972   4.393   2.604   6.095
 8691SOL    HW226973   4.317   2.700   6.204
 8692SOL     OW26974   3.940   2.035   2.401
 8692SOL    HW126975   3.909   1.941   2.388
 8692SOL    HW226976   3.933   2.060   2.497
 8693SOL     OW26977   5.719   1.681   1.284
 8693SOL    HW126978   5.811   1.691   1.322
 8693SOL    HW226979   5.699   1.584   1.272
 8694SOL     OW26980   4.295   1.526   5.497
 8694SOL    HW126981   4.211   1.516   5.445
 8694SOL    HW226982   4.279   1.499   5.592
 8695SOL     OW26983   4.759   2.952   5.857
 8695SOL    HW126984   4.763   3.052   5.854
 8695SOL    HW226985   4.831   2.915   5.798
 8696SOL     OW26986   2.753   5.766   0.717
 8696SOL    HW126987   2.678   5.787   0.781
 8696SOL    HW226988   2.769   5.667   0.717
 8697SOL     OW26989   6.304   3.549   0.558
 8697SOL    HW126990   6.244   3.505   0.491
 8697SOL    HW226991   6.274   3.643   0.572
 8698SOL     OW26992   6.318   5.659   4.017
 8698SOL    HW126993   6.276   5.631   4.103
 8698SOL    HW226994   6.369   5.582   3.978
 8699SOL     OW26995   1.637   2.761   5.646
 8699SOL    HW126996   1.591   2.774   5.734
 8699SOL    HW226997   1.572   2.720   5.581
 8700SOL     OW26998   1.750   1.293   4.811
 8700SOL    HW126999   1.737   1.374   4.868
 8700SOL    HW227000   1.735   1.317   4.715
 8701SOL     OW27001   1.611   0.527   6.665
 8701SOL    HW127002   1.612   0.603   6.600
 8701SOL    HW227003   1.674   0.456   6.633
 8702SOL     OW27004   5.595   5.030   0.113
 8702SOL    HW127005   5.604   5.014   0.014
 8702SOL    HW227006   5.502   5.062   0.133
 8703SOL     OW27007   2.648   5.306   1.227
 8703SOL    HW127008   2.635   5.380   1.293
 8703SOL    HW227009   2.743   5.275   1.229
 8704SOL     OW27010   6.199   3.692   2.596
 8704SOL    HW127011   6.270   3.751   2.635
 8704SOL    HW227012   6.109   3.732   2.612
 8705SOL     OW27013   5.020   0.936   0.732
 8705SOL    HW127014   4.941   0.948   0.671
 8705SOL    HW227015   5.027   0.840   0.758
 8706SOL     OW27016   4.698   1.699   6.409
 8706SOL    HW127017   4.751   1.752   6.475
 8706SOL    HW227018   4.617   1.662   6.453
 8707SOL     OW27019   5.621   1.996   6.901
 8707SOL    HW127020   5.600   2.012   6.805
 8707SOL    HW227021   5.544   1.949   6.945
 8708SOL     OW27022   4.060   2.049   2.039
 8708SOL    HW127023   3.968   2.011   2.046
 8708SOL    HW227024   4.078   2.110   2.116
 8709SOL     OW27025   6.822   6.015   6.189
 8709SOL    HW127026   6.885   6.048   6.120
 8709SOL    HW227027   6.867   6.014   6.279
 8710SOL     OW27028   2.143   3.777   3.219
 8710SOL    HW127029   2.193   3.793   3.134
 8710SOL    HW227030   2.103   3.686   3.217
 8711SOL     OW27031   0.053   5.447   2.789
 8711SOL    HW127032   0.002   5.482   2.711
 8711SOL    HW227033   0.028   5.351   2.805
 8712SOL     OW27034   4.010   2.152   4.069
 8712SOL    HW127035   4.104   2.156   4.102
 8712SOL    HW227036   4.007   2.180   3.973
 8713SOL     OW27037   0.502   4.297   3.931
 8713SOL    HW127038   0.538   4.388   3.952
 8713SOL    HW227039   0.477   4.293   3.835
 8714SOL     OW27040   0.380   1.255   6.057
 8714SOL    HW127041   0.459   1.307   6.027
 8714SOL    HW227042   0.403   1.205   6.141
 8715SOL     OW27043   5.036   0.260   0.788
 8715SOL    HW127044   5.135   0.255   0.772
 8715SOL    HW227045   5.011   0.192   0.857
 8716SOL     OW27046   0.795   0.352   1.458
 8716SOL    HW127047   0.818   0.268   1.506
 8716SOL    HW227048   0.698   0.373   1.473
 8717SOL     OW27049   3.797   3.335   3.014
 8717SOL    HW127050   3.741   3.418   3.010
 8717SOL    HW227051   3.750   3.266   3.070
 8718SOL     OW27052   0.604   3.544   5.421
 8718SOL    HW127053   0.510   3.557   5.389
 8718SOL    HW227054   0.608   3.462   5.478
 8719SOL     OW27055   1.918   6.750   6.412
 8719SOL    HW127056   1.885   6.828   6.359
 8719SOL    HW227057   1.873   6.667   6.379
 8720SOL     OW27058   6.796   4.925   5.619
 8720SOL    HW127059   6.744   4.864   5.679
 8720SOL    HW227060   6.891   4.894   5.616
 8721SOL     OW27061   5.942   2.102   3.989
 8721SOL    HW127062   5.874   2.047   4.037
 8721SOL    HW227063   5.943   2.076   3.892
 8722SOL     OW27064   3.926   0.788   0.517
 8722SOL    HW127065   4.000   0.775   0.450
 8722SOL    HW227066   3.852   0.724   0.497
 8723SOL     OW27067   5.343   5.709   1.200
 8723SOL    HW127068   5.313   5.805   1.203
 8723SOL    HW227069   5.352   5.675   1.294
 8724SOL     OW27070   6.050   0.171   5.255
 8724SOL    HW127071   5.982   0.231   5.297
 8724SOL    HW227072   6.134   0.224   5.236
 8725SOL     OW27073   2.499   6.967   6.348
 8725SOL    HW127074   2.453   0.026   6.325
 8725SOL    HW227075   2.546   6.931   6.267
 8726SOL     OW27076   6.696   0.900   1.753
 8726SOL    HW127077   6.702   0.992   1.714
 8726SOL    HW227078   6.744   0.835   1.694
 8727SOL     OW27079   0.196   6.282   2.001
 8727SOL    HW127080   0.176   6.339   1.921
 8727SOL    HW227081   0.285   6.237   1.988
 8728SOL     OW27082   3.899   0.145   4.474
 8728SOL    HW127083   3.923   0.059   4.428
 8728SOL    HW227084   3.951   0.153   4.559
 8729SOL     OW27085   4.480   6.079   3.427
 8729SOL    HW127086   4.380   6.086   3.422
 8729SOL    HW227087   4.520   6.127   3.349
 8730SOL     OW27088   6.574   4.396   2.245
 8730SOL    HW127089   6.626   4.311   2.254
 8730SOL    HW227090   6.636   4.470   2.217
 8731SOL     OW27091   2.245   1.766   2.721
 8731SOL    HW127092   2.176   1.787   2.652
 8731SOL    HW227093   2.278   1.672   2.708
 8732SOL     OW27094   5.087   4.040   1.327
 8732SOL    HW127095   5.117   4.057   1.420
 8732SOL    HW227096   5.040   3.952   1.322
 8733SOL     OW27097   1.275   5.730   3.177
 8733SOL    HW127098   1.289   5.808   3.239
 8733SOL    HW227099   1.180   5.728   3.147
 8734SOL     OW27100   0.943   4.818   1.498
 8734SOL    HW127101   0.913   4.871   1.579
 8734SOL    HW227102   0.871   4.753   1.473
 8735SOL     OW27103   0.718   1.743   6.855
 8735SOL    HW127104   0.690   1.705   6.767
 8735SOL    HW227105   0.818   1.751   6.857
 8736SOL     OW27106   0.432   6.622   6.721
 8736SOL    HW127107   0.524   6.604   6.757
 8736SOL    HW227108   0.439   6.647   6.624
 8737SOL     OW27109   2.649   6.952   5.933
 8737SOL    HW127110   2.732   6.911   5.893
 8737SOL    HW227111   2.627   0.010   5.885
 8738SOL     OW27112   2.211   4.602   3.572
 8738SOL    HW127113   2.146   4.530   3.595
 8738SOL    HW227114   2.200   4.678   3.635
 8739SOL     OW27115   6.521   4.932   5.857
 8739SOL    HW127116   6.509   4.979   5.770
 8739SOL    HW227117   6.591   4.979   5.911
 8740SOL     OW27118   5.108   0.921   5.289
 8740SOL    HW127119   5.078   0.869   5.369
 8740SOL    HW227120   5.036   0.985   5.262
 8741SOL     OW27121   2.445   0.832   2.092
 8741SOL    HW127122   2.382   0.858   2.165
 8741SOL    HW227123   2.423   0.883   2.009
 8742SOL     OW27124   5.767   6.218   1.499
 8742SOL    HW127125   5.811   6.196   1.411
 8742SOL    HW227126   5.816   6.293   1.543
 8743SOL     OW27127   2.006   6.720   2.715
 8743SOL    HW127128   2.098   6.713   2.678
 8743SOL    HW227129   1.941   6.678   2.652
 8744SOL     OW27130   3.947   2.599   5.773
 8744SOL    HW127131   3.857   2.560   5.793
 8744SOL    HW227132   3.936   2.692   5.737
 8745SOL     OW27133   5.998   2.393   5.715
 8745SOL    HW127134   6.060   2.407   5.791
 8745SOL    HW227135   6.017   2.305   5.671
 8746SOL     OW27136   4.485   4.337   5.272
 8746SOL    HW127137   4.574   4.292   5.263
 8746SOL    HW227138   4.412   4.270   5.265
 8747SOL     OW27139   0.212   3.152   2.944
 8747SOL    HW127140   0.191   3.109   3.032
 8747SOL    HW227141   0.235   3.081   2.878
 8748SOL     OW27142   0.091   1.513   5.658
 8748SOL    HW127143   0.056   1.421   5.677
 8748SOL    HW227144   0.087   1.568   5.742
 8749SOL     OW27145   3.150   0.082   5.794
 8749SOL    HW127146   3.123   0.148   5.724
 8749SOL    HW227147   3.094   0.096   5.876
 8750SOL     OW27148   3.014   3.074   5.149
 8750SOL    HW127149   2.989   3.115   5.061
 8750SOL    HW227150   3.015   3.144   5.220
 8751SOL     OW27151   6.413   0.244   2.459
 8751SOL    HW127152   6.359   0.233   2.541
 8751SOL    HW227153   6.448   0.338   2.454
 8752SOL     OW27154   2.854   4.350   6.758
 8752SOL    HW127155   2.932   4.302   6.716
 8752SOL    HW227156   2.884   4.441   6.787
 8753SOL     OW27157   4.608   1.685   4.876
 8753SOL    HW127158   4.667   1.712   4.953
 8753SOL    HW227159   4.520   1.654   4.911
 8754SOL     OW27160   1.596   1.850   5.677
 8754SOL    HW127161   1.650   1.766   5.689
 8754SOL    HW227162   1.601   1.905   5.761
 8755SOL     OW27163   2.470   0.955   6.486
 8755SOL    HW127164   2.428   0.940   6.396
 8755SOL    HW227165   2.519   1.042   6.486
 8756SOL     OW27166   2.199   3.804   2.955
 8756SOL    HW127167   2.212   3.900   2.927
 8756SOL    HW227168   2.156   3.753   2.881
 8757SOL     OW27169   5.507   6.907   5.539
 8757SOL    HW127170   5.453   6.905   5.454
 8757SOL    HW227171   5.466   6.844   5.605
 8758SOL     OW27172   4.695   6.311   1.786
 8758SOL    HW127173   4.654   6.287   1.874
 8758SOL    HW227174   4.640   6.272   1.712
 8759SOL     OW27175   4.241   2.572   6.511
 8759SOL    HW127176   4.178   2.650   6.515
 8759SOL    HW227177   4.206   2.505   6.446
 8760SOL     OW27178   2.099   1.740   5.085
 8760SOL    HW127179   2.001   1.723   5.086
 8760SOL    HW227180   2.126   1.787   5.169
 8761SOL     OW27181   3.994   0.576   1.524
 8761SOL    HW127182   3.920   0.540   1.581
 8761SOL    HW227183   4.082   0.562   1.570
 8762SOL     OW27184   0.586   3.816   2.857
 8762SOL    HW127185   0.580   3.819   2.757
 8762SOL    HW227186   0.652   3.746   2.884
 8763SOL     OW27187   6.035   5.490   4.897
 8763SOL    HW127188   5.995   5.487   4.806
 8763SOL    HW227189   6.060   5.584   4.920
 8764SOL     OW27190   5.056   0.703   4.433
 8764SOL    HW127191   4.975   0.652   4.402
 8764SOL    HW227192   5.065   0.786   4.378
 8765SOL     OW27193   6.407   0.103   5.000
 8765SOL    HW127194   6.451   0.174   4.944
 8765SOL    HW227195   6.468   0.078   5.075
 8766SOL     OW27196   3.935   4.965   2.708
 8766SOL    HW127197   3.841   4.932   2.715
 8766SOL    HW227198   3.935   5.064   2.700
 8767SOL     OW27199   4.234   0.242   3.174
 8767SOL    HW127200   4.175   0.164   3.195
 8767SOL    HW227201   4.271   0.233   3.081
 8768SOL     OW27202   0.950   2.772   0.459
 8768SOL    HW127203   0.989   2.773   0.550
 8768SOL    HW227204   0.980   2.853   0.408
 8769SOL     OW27205   1.322   0.184   4.329
 8769SOL    HW127206   1.247   0.126   4.298
 8769SOL    HW227207   1.317   0.273   4.284
 8770SOL     OW27208   4.975   4.324   2.098
 8770SOL    HW127209   5.049   4.328   2.031
 8770SOL    HW227210   5.005   4.271   2.178
 8771SOL     OW27211   0.907   0.367   5.597
 8771SOL    HW127212   0.954   0.306   5.662
 8771SOL    HW227213   0.923   0.336   5.504
 8772SOL     OW27214   5.895   6.761   0.269
 8772SOL    HW127215   5.906   6.662   0.262
 8772SOL    HW227216   5.949   6.806   0.197
 8773SOL     OW27217   4.736   1.905   3.465
 8773SOL    HW127218   4.714   1.926   3.560
 8773SOL    HW227219   4.760   1.808   3.457
 8774SOL     OW27220   2.437   1.448   0.507
 8774SOL    HW127221   2.401   1.528   0.460
 8774SOL    HW227222   2.501   1.399   0.447
 8775SOL     OW27223   6.266   0.568   4.792
 8775SOL    HW127224   6.238   0.541   4.700
 8775SOL    HW227225   6.232   0.660   4.811
 8776SOL     OW27226   2.925   3.462   4.723
 8776SOL    HW127227   2.914   3.482   4.820
 8776SOL    HW227228   2.956   3.544   4.675
 8777SOL     OW27229   0.121   4.129   1.158
 8777SOL    HW127230   0.215   4.154   1.135
 8777SOL    HW227231   0.060   4.204   1.133
 8778SOL     OW27232   6.415   2.601   4.424
 8778SOL    HW127233   6.486   2.537   4.453
 8778SOL    HW227234   6.367   2.635   4.505
 8779SOL     OW27235   2.326   5.203   1.965
 8779SOL    HW127236   2.420   5.235   1.973
 8779SOL    HW227237   2.305   5.142   2.042
 8780SOL     OW27238   1.262   5.676   3.776
 8780SOL    HW127239   1.253   5.759   3.720
 8780SOL    HW227240   1.296   5.601   3.719
 8781SOL     OW27241   6.557   2.510   4.175
 8781SOL    HW127242   6.549   2.522   4.274
 8781SOL    HW227243   6.653   2.497   4.151
 8782SOL     OW27244   5.478   0.635   1.918
 8782SOL    HW127245   5.564   0.584   1.925
 8782SOL    HW227246   5.463   0.662   1.822
 8783SOL     OW27247   6.143   3.465   3.627
 8783SOL    HW127248   6.123   3.391   3.692
 8783SOL    HW227249   6.177   3.544   3.676
 8784SOL     OW27250   5.082   4.054   4.777
 8784SOL    HW127251   5.071   4.117   4.854
 8784SOL    HW227252   5.027   3.971   4.793
 8785SOL     OW27253   6.198   3.568   0.070
 8785SOL    HW127254   6.206   3.483   0.018
 8785SOL    HW227255   6.107   3.607   0.057
 8786SOL     OW27256   2.722   6.178   0.169
 8786SOL    HW127257   2.810   6.224   0.185
 8786SOL    HW227258   2.729   6.082   0.196
 8787SOL     OW27259   1.566   2.728   2.064
 8787SOL    HW127260   1.648   2.675   2.087
 8787SOL    HW227261   1.567   2.814   2.115
 8788SOL     OW27262   6.622   2.151   5.598
 8788SOL    HW127263   6.599   2.054   5.604
 8788SOL    HW227264   6.574   2.193   5.521
 8789SOL     OW27265   6.144   6.896   5.641
 8789SOL    HW127266   6.084   6.818   5.656
 8789SOL    HW227267   6.223   6.890   5.701
 8790SOL     OW27268   0.079   1.324   0.353
 8790SOL    HW127269   7.016   1.346   0.313
 8790SOL    HW227270   0.074   1.334   0.452
 8791SOL     OW27271   5.418   6.837   5.065
 8791SOL    HW127272   5.438   6.832   4.967
 8791SOL    HW227273   5.406   6.932   5.092
 8792SOL     OW27274   3.924   6.266   2.913
 8792SOL    HW127275   4.010   6.274   2.964
 8792SOL    HW227276   3.851   6.239   2.976
 8793SOL     OW27277   1.693   5.534   3.773
 8793SOL    HW127278   1.784   5.564   3.743
 8793SOL    HW227279   1.623   5.588   3.726
 8794SOL     OW27280   3.847   6.493   2.067
 8794SOL    HW127281   3.783   6.421   2.039
 8794SOL    HW227282   3.920   6.453   2.123
 8795SOL     OW27283   1.477   6.472   4.914
 8795SOL    HW127284   1.482   6.374   4.936
 8795SOL    HW227285   1.520   6.524   4.988
 8796SOL     OW27286   3.995   0.515   5.233
 8796SOL    HW127287   4.049   0.591   5.198
 8796SOL    HW227288   3.960   0.539   5.324
 8797SOL     OW27289   1.086   0.011   5.210
 8797SOL    HW127290   1.120   0.055   5.127
 8797SOL    HW227291   1.062   6.943   5.190
 8798SOL     OW27292   5.352   4.679   5.375
 8798SOL    HW127293   5.377   4.663   5.280
 8798SOL    HW227294   5.415   4.629   5.435
 8799SOL     OW27295   1.899   4.582   3.250
 8799SOL    HW127296   1.998   4.572   3.252
 8799SOL    HW227297   1.868   4.629   3.332
 8800SOL     OW27298   5.951   3.954   4.943
 8800SOL    HW127299   5.990   4.034   4.896
 8800SOL    HW227300   5.888   3.906   4.881
 8801SOL     OW27301   1.706   1.435   4.573
 8801SOL    HW127302   1.617   1.435   4.527
 8801SOL    HW227303   1.779   1.436   4.505
 8802SOL     OW27304   1.208   0.624   0.699
 8802SOL    HW127305   1.135   0.649   0.763
 8802SOL    HW227306   1.169   0.576   0.621
 8803SOL     OW27307   1.570   5.158   5.950
 8803SOL    HW127308   1.660   5.182   5.915
 8803SOL    HW227309   1.558   5.197   6.042
 8804SOL     OW27310   3.204   0.589   2.105
 8804SOL    HW127311   3.235   0.613   2.197
 8804SOL    HW227312   3.178   0.492   2.103
 8805SOL     OW27313   2.606   0.440   4.021
 8805SOL    HW127314   2.576   0.365   4.079
 8805SOL    HW227315   2.603   0.526   4.072
 8806SOL     OW27316   1.529   5.159   1.815
 8806SOL    HW127317   1.553   5.215   1.894
 8806SOL    HW227318   1.513   5.065   1.844
 8807SOL     OW27319   6.618   5.906   5.992
 8807SOL    HW127320   6.591   5.993   6.032
 8807SOL    HW227321   6.685   5.861   6.052
 8808SOL     OW27322   5.399   1.878   1.024
 8808SOL    HW127323   5.443   1.950   0.970
 8808SOL    HW227324   5.306   1.864   0.992
 8809SOL     OW27325   5.336   4.210   2.609
 8809SOL    HW127326   5.384   4.157   2.679
 8809SOL    HW227327   5.283   4.283   2.652
 8810SOL     OW27328   5.635   1.783   5.940
 8810SOL    HW127329   5.633   1.684   5.955
 8810SOL    HW227330   5.593   1.829   6.018
 8811SOL     OW27331   3.003   1.773   3.708
 8811SOL    HW127332   2.980   1.830   3.629
 8811SOL    HW227333   3.091   1.729   3.692
 8812SOL     OW27334   1.413   0.861   0.644
 8812SOL    HW127335   1.353   0.787   0.675
 8812SOL    HW227336   1.463   0.831   0.562
 8813SOL     OW27337   1.054   4.864   1.238
 8813SOL    HW127338   1.009   4.841   1.324
 8813SOL    HW227339   0.985   4.889   1.170
 8814SOL     OW27340   6.459   0.699   0.729
 8814SOL    HW127341   6.443   0.778   0.789
 8814SOL    HW227342   6.556   0.692   0.709
 8815SOL     OW27343   6.808   6.462   0.682
 8815SOL    HW127344   6.746   6.483   0.757
 8815SOL    HW227345   6.755   6.447   0.598
 8816SOL     OW27346   2.026   0.394   0.464
 8816SOL    HW127347   1.927   0.403   0.475
 8816SOL    HW227348   2.063   0.477   0.421
 8817SOL     OW27349   0.458   6.003   5.987
 8817SOL    HW127350   0.408   5.921   6.015
 8817SOL    HW227351   0.503   5.987   5.900
 8818SOL     OW27352   0.640   3.342   3.532
 8818SOL    HW127353   0.546   3.373   3.549
 8818SOL    HW227354   0.672   3.289   3.611
 8819SOL     OW27355   4.320   5.643   4.020
 8819SOL    HW127356   4.230   5.680   4.044
 8819SOL    HW227357   4.380   5.646   4.100
 8820SOL     OW27358   2.575   1.793   4.162
 8820SOL    HW127359   2.663   1.784   4.209
 8820SOL    HW227360   2.530   1.877   4.191
 8821SOL     OW27361   2.141   6.112   0.498
 8821SOL    HW127362   2.156   6.119   0.597
 8821SOL    HW227363   2.130   6.016   0.473
 8822SOL     OW27364   1.202   0.486   3.204
 8822SOL    HW127365   1.152   0.407   3.167
 8822SOL    HW227366   1.272   0.514   3.139
 8823SOL     OW27367   1.972   0.756   0.797
 8823SOL    HW127368   2.020   0.670   0.813
 8823SOL    HW227369   1.937   0.791   0.883
 8824SOL     OW27370   1.624   3.623   1.028
 8824SOL    HW127371   1.540   3.587   0.986
 8824SOL    HW227372   1.623   3.604   1.126
 8825SOL     OW27373   1.699   0.877   3.535
 8825SOL    HW127374   1.739   0.839   3.619
 8825SOL    HW227375   1.745   0.963   3.514
 8826SOL     OW27376   6.328   2.433   0.475
 8826SOL    HW127377   6.237   2.409   0.510
 8826SOL    HW227378   6.364   2.357   0.422
 8827SOL     OW27379   3.306   1.683   3.010
 8827SOL    HW127380   3.211   1.661   2.990
 8827SOL    HW227381   3.317   1.783   3.014
 8828SOL     OW27382   4.638   5.512   4.421
 8828SOL    HW127383   4.654   5.461   4.336
 8828SOL    HW227384   4.717   5.503   4.481
 8829SOL     OW27385   0.168   2.493   0.064
 8829SOL    HW127386   0.148   2.545   0.147
 8829SOL    HW227387   0.232   2.420   0.085
 8830SOL     OW27388   0.433   1.229   1.170
 8830SOL    HW127389   0.504   1.163   1.193
 8830SOL    HW227390   0.471   1.301   1.111
 8831SOL     OW27391   5.298   1.270   3.596
 8831SOL    HW127392   5.307   1.357   3.644
 8831SOL    HW227393   5.321   1.283   3.499
 8832SOL     OW27394   6.122   6.031   2.876
 8832SOL    HW127395   6.193   6.098   2.856
 8832SOL    HW227396   6.140   5.990   2.966
 8833SOL     OW27397   1.943   6.613   5.587
 8833SOL    HW127398   1.958   6.523   5.627
 8833SOL    HW227399   1.995   6.620   5.501
 8834SOL     OW27400   5.441   3.983   4.402
 8834SOL    HW127401   5.514   3.975   4.470
 8834SOL    HW227402   5.353   3.993   4.449
 8835SOL     OW27403   6.295   0.899   5.908
 8835SOL    HW127404   6.275   0.836   5.834
 8835SOL    HW227405   6.294   0.993   5.874
 8836SOL     OW27406   4.375   1.212   6.826
 8836SOL    HW127407   4.383   1.181   6.921
 8836SOL    HW227408   4.451   1.273   6.805
 8837SOL     OW27409   0.433   6.447   2.603
 8837SOL    HW127410   0.520   6.437   2.555
 8837SOL    HW227411   0.447   6.503   2.685
 8838SOL     OW27412   3.033   4.882   2.968
 8838SOL    HW127413   2.961   4.946   2.942
 8838SOL    HW227414   3.117   4.933   2.989
 8839SOL     OW27415   5.191   5.530   2.175
 8839SOL    HW127416   5.193   5.595   2.099
 8839SOL    HW227417   5.122   5.460   2.156
 8840SOL     OW27418   6.608   2.243   2.112
 8840SOL    HW127419   6.675   2.298   2.161
 8840SOL    HW227420   6.590   2.159   2.163
 8841SOL     OW27421   1.497   0.911   4.862
 8841SOL    HW127422   1.557   0.975   4.910
 8841SOL    HW227423   1.530   0.818   4.876
 8842SOL     OW27424   3.556   2.891   0.651
 8842SOL    HW127425   3.468   2.864   0.611
 8842SOL    HW227426   3.543   2.972   0.708
 8843SOL     OW27427   1.802   3.299   5.062
 8843SOL    HW127428   1.732   3.336   5.123
 8843SOL    HW227429   1.825   3.367   4.992
 8844SOL     OW27430   5.361   1.299   0.789
 8844SOL    HW127431   5.424   1.323   0.863
 8844SOL    HW227432   5.410   1.245   0.720
 8845SOL     OW27433   4.403   4.525   6.820
 8845SOL    HW127434   4.424   4.617   6.854
 8845SOL    HW227435   4.487   4.473   6.808
 8846SOL     OW27436   2.191   5.570   3.728
 8846SOL    HW127437   2.244   5.500   3.680
 8846SOL    HW227438   2.198   5.556   3.827
 8847SOL     OW27439   2.888   0.897   2.847
 8847SOL    HW127440   2.924   0.916   2.755
 8847SOL    HW227441   2.789   0.886   2.842
 8848SOL     OW27442   2.604   0.931   1.695
 8848SOL    HW127443   2.516   0.893   1.669
 8848SOL    HW227444   2.620   1.017   1.645
 8849SOL     OW27445   3.012   6.464   2.980
 8849SOL    HW127446   2.920   6.429   2.997
 8849SOL    HW227447   3.006   6.551   2.930
 8850SOL     OW27448   1.322   1.809   0.305
 8850SOL    HW127449   1.223   1.810   0.319
 8850SOL    HW227450   1.341   1.793   0.208
 8851SOL     OW27451   1.838   4.078   2.063
 8851SOL    HW127452   1.847   4.143   2.138
 8851SOL    HW227453   1.804   3.991   2.098
 8852SOL     OW27454   0.783   1.541   5.181
 8852SOL    HW127455   0.806   1.444   5.170
 8852SOL    HW227456   0.867   1.595   5.186
 8853SOL     OW27457   2.675   0.957   1.987
 8853SOL    HW127458   2.645   0.940   1.893
 8853SOL    HW227459   2.609   0.916   2.051
 8854SOL     OW27460   1.790   3.030   4.348
 8854SOL    HW127461   1.865   2.967   4.367
 8854SOL    HW227462   1.791   3.104   4.416
 8855SOL     OW27463   6.166   5.081   1.310
 8855SOL    HW127464   6.234   5.102   1.239
 8855SOL    HW227465   6.206   5.099   1.400
 8856SOL     OW27466   6.887   6.251   6.483
 8856SOL    HW127467   6.964   6.279   6.541
 8856SOL    HW227468   6.900   6.157   6.453
 8857SOL     OW27469   6.856   1.998   4.978
 8857SOL    HW127470   6.767   1.978   4.937
 8857SOL    HW227471   6.903   1.912   4.999
 8858SOL     OW27472   0.356   4.977   4.661
 8858SOL    HW127473   0.268   4.940   4.631
 8858SOL    HW227474   0.357   5.076   4.647
 8859SOL     OW27475   1.075   1.023   3.955
 8859SOL    HW127476   1.042   1.067   3.871
 8859SOL    HW227477   1.023   0.939   3.971
 8860SOL     OW27478   6.708   2.496   1.638
 8860SOL    HW127479   6.718   2.406   1.681
 8860SOL    HW227480   6.627   2.496   1.579
 8861SOL     OW27481   3.960   1.003   0.041
 8861SOL    HW127482   3.894   0.932   0.069
 8861SOL    HW227483   4.013   1.032   0.121
 8862SOL     OW27484   5.469   6.565   3.702
 8862SOL    HW127485   5.509   6.486   3.747
 8862SOL    HW227486   5.381   6.540   3.660
 8863SOL     OW27487   1.969   5.228   3.206
 8863SOL    HW127488   2.050   5.284   3.191
 8863SOL    HW227489   1.996   5.135   3.231
 8864SOL     OW27490   4.365   3.955   6.713
 8864SOL    HW127491   4.400   3.888   6.778
 8864SOL    HW227492   4.371   3.918   6.620
 8865SOL     OW27493   3.403   0.862   5.400
 8865SOL    HW127494   3.456   0.942   5.429
 8865SOL    HW227495   3.461   0.781   5.401
 8866SOL     OW27496   5.016   6.951   3.052
 8866SOL    HW127497   5.056   6.863   3.078
 8866SOL    HW227498   5.090   7.016   3.031
 8867SOL     OW27499   6.511   4.049   3.952
 8867SOL    HW127500   6.463   3.970   3.989
 8867SOL    HW227501   6.452   4.097   3.887
 8868SOL     OW27502   6.595   3.656   2.518
 8868SOL    HW127503   6.627   3.742   2.556
 8868SOL    HW227504   6.662   3.584   2.538
 8869SOL     OW27505   3.709   5.971   5.138
 8869SOL    HW127506   3.623   5.933   5.105
 8869SOL    HW227507   3.727   6.058   5.091
 8870SOL     OW27508   2.024   6.467   1.536
 8870SOL    HW127509   2.028   6.368   1.555
 8870SOL    HW227510   1.982   6.514   1.614
 8871SOL     OW27511   2.118   1.099   3.324
 8871SOL    HW127512   2.030   1.065   3.290
 8871SOL    HW227513   2.102   1.171   3.391
 8872SOL     OW27514   1.082   5.032   6.257
 8872SOL    HW127515   1.044   4.968   6.323
 8872SOL    HW227516   1.013   5.101   6.235
 8873SOL     OW27517   1.577   0.004   1.514
 8873SOL    HW127518   1.672   7.015   1.540
 8873SOL    HW227519   1.520   0.006   1.596
 8874SOL     OW27520   1.220   6.003   2.168
 8874SOL    HW127521   1.232   6.099   2.142
 8874SOL    HW227522   1.214   5.996   2.267
 8875SOL     OW27523   0.125   3.361   4.071
 8875SOL    HW127524   0.084   3.427   4.008
 8875SOL    HW227525   0.055   3.328   4.135
 8876SOL     OW27526   2.768   0.647   6.720
 8876SOL    HW127527   2.702   0.722   6.730
 8876SOL    HW227528   2.843   0.660   6.784
 8877SOL     OW27529   1.674   3.661   2.901
 8877SOL    HW127530   1.720   3.605   2.832
 8877SOL    HW227531   1.575   3.651   2.891
 8878SOL     OW27532   3.691   4.962   0.705
 8878SOL    HW127533   3.637   4.988   0.785
 8878SOL    HW227534   3.659   4.874   0.671
 8879SOL     OW27535   6.177   4.912   2.146
 8879SOL    HW127536   6.172   4.870   2.237
 8879SOL    HW227537   6.225   4.850   2.084
 8880SOL     OW27538   4.127   6.170   4.550
 8880SOL    HW127539   4.209   6.222   4.525
 8880SOL    HW227540   4.113   6.173   4.649
 8881SOL     OW27541   4.928   5.259   4.646
 8881SOL    HW127542   4.885   5.172   4.625
 8881SOL    HW227543   4.949   5.307   4.560
 8882SOL     OW27544   3.587   0.724   0.771
 8882SOL    HW127545   3.571   0.639   0.720
 8882SOL    HW227546   3.626   0.792   0.709
 8883SOL     OW27547   1.014   6.020   6.091
 8883SOL    HW127548   0.919   5.998   6.112
 8883SOL    HW227549   1.017   6.082   6.012
 8884SOL     OW27550   6.193   3.935   5.097
 8884SOL    HW127551   6.116   3.909   5.040
 8884SOL    HW227552   6.181   4.028   5.131
 8885SOL     OW27553   5.306   4.826   0.426
 8885SOL    HW127554   5.211   4.819   0.457
 8885SOL    HW227555   5.353   4.896   0.480
 8886SOL     OW27556   3.959   5.647   6.074
 8886SOL    HW127557   4.034   5.661   6.010
 8886SOL    HW227558   3.994   5.606   6.158
 8887SOL     OW27559   3.747   1.728   1.005
 8887SOL    HW127560   3.735   1.822   1.037
 8887SOL    HW227561   3.784   1.729   0.912
 8888SOL     OW27562   2.365   2.272   4.021
 8888SOL    HW127563   2.460   2.256   4.047
 8888SOL    HW227564   2.323   2.337   4.084
 8889SOL     OW27565   6.587   6.232   6.037
 8889SOL    HW127566   6.657   6.214   5.967
 8889SOL    HW227567   6.602   6.323   6.076
 8890SOL     OW27568   0.614   6.299   6.754
 8890SOL    HW127569   0.668   6.235   6.700
 8890SOL    HW227570   0.524   6.260   6.773
 8891SOL     OW27571   4.315   4.085   0.292
 8891SOL    HW127572   4.397   4.141   0.286
 8891SOL    HW227573   4.329   4.000   0.240
 8892SOL     OW27574   3.896   4.971   3.464
 8892SOL    HW127575   3.835   4.937   3.392
 8892SOL    HW227576   3.846   4.979   3.549
 8893SOL     OW27577   1.640   5.899   5.327
 8893SOL    HW127578   1.691   5.815   5.308
 8893SOL    HW227579   1.553   5.897   5.277
 8894SOL     OW27580   3.962   1.652   0.145
 8894SOL    HW127581   4.027   1.727   0.150
 8894SOL    HW227582   3.939   1.633   0.050
 8895SOL     OW27583   0.450   2.543   1.046
 8895SOL    HW127584   0.529   2.594   1.010
 8895SOL    HW227585   0.376   2.607   1.066
 8896SOL     OW27586   1.826   2.746   4.913
 8896SOL    HW127587   1.869   2.726   5.001
 8896SOL    HW227588   1.738   2.698   4.907
 8897SOL     OW27589   2.220   3.900   3.490
 8897SOL    HW127590   2.229   3.841   3.410
 8897SOL    HW227591   2.139   3.958   3.480
 8898SOL     OW27592   5.731   3.890   2.080
 8898SOL    HW127593   5.790   3.937   2.145
 8898SOL    HW227594   5.757   3.793   2.076
 8899SOL     OW27595   0.289   4.569   6.797
 8899SOL    HW127596   0.285   4.503   6.723
 8899SOL    HW227597   0.282   4.522   6.885
 8900SOL     OW27598   5.851   2.617   3.198
 8900SOL    HW127599   5.897   2.681   3.136
 8900SOL    HW227600   5.894   2.620   3.287
 8901SOL     OW27601   1.199   1.503   3.518
 8901SOL    HW127602   1.224   1.426   3.459
 8901SOL    HW227603   1.221   1.589   3.471
 8902SOL     OW27604   1.703   5.570   6.616
 8902SOL    HW127605   1.649   5.651   6.639
 8902SOL    HW227606   1.779   5.596   6.557
 8903SOL     OW27607   1.015   2.138   4.556
 8903SOL    HW127608   0.937   2.079   4.578
 8903SOL    HW227609   1.093   2.112   4.613
 8904SOL     OW27610   1.078   2.132   3.356
 8904SOL    HW127611   1.051   2.158   3.263
 8904SOL    HW227612   1.016   2.061   3.390
 8905SOL     OW27613   1.544   3.379   2.681
 8905SOL    HW127614   1.453   3.387   2.721
 8905SOL    HW227615   1.607   3.340   2.748
 8906SOL     OW27616   1.419   6.037   1.252
 8906SOL    HW127617   1.413   5.939   1.270
 8906SOL    HW227618   1.331   6.080   1.275
 8907SOL     OW27619   2.755   2.651   5.394
 8907SOL    HW127620   2.803   2.718   5.336
 8907SOL    HW227621   2.815   2.573   5.412
 8908SOL     OW27622   1.741   4.858   0.025
 8908SOL    HW127623   1.721   4.928   0.092
 8908SOL    HW227624   1.782   4.900   6.970
 8909SOL     OW27625   2.926   1.075   6.456
 8909SOL    HW127626   2.913   0.979   6.479
 8909SOL    HW227627   2.923   1.086   6.357
 8910SOL     OW27628   0.156   3.142   5.113
 8910SOL    HW127629   0.224   3.115   5.182
 8910SOL    HW227630   0.095   3.064   5.096
 8911SOL     OW27631   5.453   3.042   4.725
 8911SOL    HW127632   5.418   3.132   4.750
 8911SOL    HW227633   5.548   3.051   4.696
 8912SOL     OW27634   3.097   3.031   6.266
 8912SOL    HW127635   3.126   3.081   6.347
 8912SOL    HW227636   3.058   2.943   6.293
 8913SOL     OW27637   4.705   5.102   6.764
 8913SOL    HW127638   4.705   5.008   6.729
 8913SOL    HW227639   4.623   5.117   6.818
 8914SOL     OW27640   4.910   7.015   4.655
 8914SOL    HW127641   4.837   0.017   4.717
 8914SOL    HW227642   4.972   6.952   4.702
 8915SOL     OW27643   1.242   2.013   4.645
 8915SOL    HW127644   1.316   2.044   4.705
 8915SOL    HW227645   1.282   1.968   4.565
 8916SOL     OW27646   6.101   2.331   6.730
 8916SOL    HW127647   6.094   2.300   6.635
 8916SOL    HW227648   6.184   2.385   6.742
 8917SOL     OW27649   5.460   2.377   0.656
 8917SOL    HW127650   5.534   2.372   0.589
 8917SOL    HW227651   5.415   2.288   0.662
 8918SOL     OW27652   1.376   5.436   0.597
 8918SOL    HW127653   1.336   5.425   0.688
 8918SOL    HW227654   1.464   5.389   0.594
 8919SOL     OW27655   5.181   4.550   6.399
 8919SOL    HW127656   5.202   4.565   6.303
 8919SOL    HW227657   5.082   4.534   6.409
 8920SOL     OW27658   0.615   2.070   6.479
 8920SOL    HW127659   0.714   2.081   6.492
 8920SOL    HW227660   0.582   2.138   6.413
 8921SOL     OW27661   1.496   2.629   1.488
 8921SOL    HW127662   1.482   2.530   1.499
 8921SOL    HW227663   1.542   2.665   1.568
 8922SOL     OW27664   4.019   6.312   2.178
 8922SOL    HW127665   3.957   6.298   2.255
 8922SOL    HW227666   4.013   6.234   2.116
 8923SOL     OW27667   1.380   1.380   5.507
 8923SOL    HW127668   1.456   1.442   5.486
 8923SOL    HW227669   1.405   1.287   5.479
 8924SOL     OW27670   5.136   5.367   5.297
 8924SOL    HW127671   5.049   5.372   5.344
 8924SOL    HW227672   5.150   5.450   5.243
 8925SOL     OW27673   6.790   0.080   2.415
 8925SOL    HW127674   6.700   0.049   2.443
 8925SOL    HW227675   6.814   0.039   2.327
 8926SOL     OW27676   6.478   3.397   5.139
 8926SOL    HW127677   6.394   3.451   5.131
 8926SOL    HW227678   6.538   3.439   5.207
 8927SOL     OW27679   6.591   1.904   4.975
 8927SOL    HW127680   6.526   1.877   5.046
 8927SOL    HW227681   6.573   1.850   4.892
 8928SOL     OW27682   1.303   7.016   6.284
 8928SOL    HW127683   1.364   0.042   6.225
 8928SOL    HW227684   1.357   6.961   6.348
 8929SOL     OW27685   6.500   2.206   5.073
 8929SOL    HW127686   6.573   2.175   5.012
 8929SOL    HW227687   6.468   2.130   5.129
 8930SOL     OW27688   0.568   3.185   3.213
 8930SOL    HW127689   0.530   3.199   3.121
 8930SOL    HW227690   0.499   3.210   3.281
 8931SOL     OW27691   2.955   3.172   1.489
 8931SOL    HW127692   2.871   3.147   1.536
 8931SOL    HW227693   3.031   3.119   1.527
 8932SOL     OW27694   6.763   2.210   2.370
 8932SOL    HW127695   6.684   2.159   2.404
 8932SOL    HW227696   6.846   2.157   2.387
 8933SOL     OW27697   3.171   2.720   6.490
 8933SOL    HW127698   3.236   2.774   6.543
 8933SOL    HW227699   3.113   2.781   6.436
 8934SOL     OW27700   3.592   4.947   5.412
 8934SOL    HW127701   3.676   4.900   5.384
 8934SOL    HW227702   3.605   4.988   5.502
 8935SOL     OW27703   0.334   4.516   0.059
 8935SOL    HW127704   0.392   4.596   0.042
 8935SOL    HW227705   0.389   4.433   0.057
 8936SOL     OW27706   1.554   3.988   0.599
 8936SOL    HW127707   1.515   3.913   0.546
 8936SOL    HW227708   1.563   4.069   0.542
 8937SOL     OW27709   0.402   0.185   4.689
 8937SOL    HW127710   0.331   0.163   4.622
 8937SOL    HW227711   0.492   0.183   4.645
 8938SOL     OW27712   0.568   5.491   0.729
 8938SOL    HW127713   0.609   5.410   0.686
 8938SOL    HW227714   0.472   5.498   0.702
 8939SOL     OW27715   4.922   2.721   4.281
 8939SOL    HW127716   4.964   2.809   4.259
 8939SOL    HW227717   4.838   2.710   4.228
 8940SOL     OW27718   0.197   1.394   3.985
 8940SOL    HW127719   0.135   1.399   3.907
 8940SOL    HW227720   0.151   1.430   4.066
 8941SOL     OW27721   5.712   2.595   5.232
 8941SOL    HW127722   5.704   2.658   5.154
 8941SOL    HW227723   5.746   2.645   5.312
 8942SOL     OW27724   1.029   4.235   5.401
 8942SOL    HW127725   1.023   4.224   5.500
 8942SOL    HW227726   0.948   4.195   5.358
 8943SOL     OW27727   3.608   4.024   0.337
 8943SOL    HW127728   3.576   4.083   0.411
 8943SOL    HW227729   3.708   4.023   0.335
 8944SOL     OW27730   4.969   4.961   4.892
 8944SOL    HW127731   5.045   5.023   4.874
 8944SOL    HW227732   4.925   4.986   4.979
 8945SOL     OW27733   1.814   0.957   3.900
 8945SOL    HW127734   1.878   1.006   3.842
 8945SOL    HW227735   1.827   0.858   3.887
 8946SOL     OW27736   3.052   1.550   4.883
 8946SOL    HW127737   2.972   1.510   4.839
 8946SOL    HW227738   3.134   1.529   4.830
 8947SOL     OW27739   1.450   3.883   5.184
 8947SOL    HW127740   1.527   3.943   5.208
 8947SOL    HW227741   1.477   3.787   5.195
 8948SOL     OW27742   6.286   5.956   4.075
 8948SOL    HW127743   6.316   5.869   4.115
 8948SOL    HW227744   6.197   5.981   4.113
 8949SOL     OW27745   2.469   0.093   0.513
 8949SOL    HW127746   2.493   0.061   0.605
 8949SOL    HW227747   2.432   0.186   0.518
 8950SOL     OW27748   4.898   3.607   5.651
 8950SOL    HW127749   4.949   3.665   5.716
 8950SOL    HW227750   4.891   3.515   5.689
 8951SOL     OW27751   0.700   2.440   5.041
 8951SOL    HW127752   0.629   2.490   4.991
 8951SOL    HW227753   0.713   2.350   5.000
 8952SOL     OW27754   1.104   6.908   2.224
 8952SOL    HW127755   1.019   6.956   2.203
 8952SOL    HW227756   1.100   6.815   2.186
 8953SOL     OW27757   0.902   4.194   6.517
 8953SOL    HW127758   0.984   4.249   6.502
 8953SOL    HW227759   0.929   4.099   6.533
 8954SOL     OW27760   0.471   6.392   6.311
 8954SOL    HW127761   0.540   6.432   6.251
 8954SOL    HW227762   0.479   6.292   6.310
 8955SOL     OW27763   0.587   4.646   2.379
 8955SOL    HW127764   0.557   4.613   2.469
 8955SOL    HW227765   0.578   4.573   2.312
 8956SOL     OW27766   0.111   1.909   0.141
 8956SOL    HW127767   0.094   1.957   0.055
 8956SOL    HW227768   0.034   1.922   0.203
 8957SOL     OW27769   3.184   4.384   1.684
 8957SOL    HW127770   3.113   4.407   1.751
 8957SOL    HW227771   3.147   4.319   1.618
 8958SOL     OW27772   1.085   0.424   4.288
 8958SOL    HW127773   1.166   0.450   4.236
 8958SOL    HW227774   1.099   0.447   4.385
 8959SOL     OW27775   1.443   4.606   1.334
 8959SOL    HW127776   1.509   4.633   1.403
 8959SOL    HW227777   1.454   4.662   1.252
 8960SOL     OW27778   4.735   5.997   2.116
 8960SOL    HW127779   4.692   6.042   2.195
 8960SOL    HW227780   4.736   5.898   2.131
 8961SOL     OW27781   2.197   2.619   4.450
 8961SOL    HW127782   2.214   2.563   4.531
 8961SOL    HW227783   2.283   2.654   4.415
 8962SOL     OW27784   6.496   6.492   2.595
 8962SOL    HW127785   6.537   6.527   2.511
 8962SOL    HW227786   6.448   6.407   2.577
 8963SOL     OW27787   4.852   6.722   4.245
 8963SOL    HW127788   4.837   6.819   4.230
 8963SOL    HW227789   4.921   6.709   4.316
 8964SOL     OW27790   6.136   3.774   3.712
 8964SOL    HW127791   6.139   3.858   3.659
 8964SOL    HW227792   6.041   3.744   3.721
 8965SOL     OW27793   2.140   5.138   0.548
 8965SOL    HW127794   2.139   5.209   0.619
 8965SOL    HW227795   2.147   5.048   0.590
 8966SOL     OW27796   1.629   4.073   5.628
 8966SOL    HW127797   1.646   3.982   5.591
 8966SOL    HW227798   1.708   4.131   5.611
 8967SOL     OW27799   3.328   6.339   1.478
 8967SOL    HW127800   3.311   6.349   1.380
 8967SOL    HW227801   3.419   6.299   1.492
 8968SOL     OW27802   5.109   4.802   2.587
 8968SOL    HW127803   5.108   4.737   2.511
 8968SOL    HW227804   5.204   4.815   2.618
 8969SOL     OW27805   6.192   0.135   3.997
 8969SOL    HW127806   6.155   0.183   3.917
 8969SOL    HW227807   6.176   0.190   4.079
 8970SOL     OW27808   3.271   2.671   0.238
 8970SOL    HW127809   3.351   2.704   0.288
 8970SOL    HW227810   3.229   2.595   0.288
 8971SOL     OW27811   4.115   5.305   2.173
 8971SOL    HW127812   4.144   5.399   2.151
 8971SOL    HW227813   4.107   5.296   2.273
 8972SOL     OW27814   4.997   5.250   6.502
 8972SOL    HW127815   4.920   5.267   6.565
 8972SOL    HW227816   5.082   5.250   6.554
 8973SOL     OW27817   1.036   3.337   2.166
 8973SOL    HW127818   0.982   3.378   2.240
 8973SOL    HW227819   1.063   3.408   2.101
 8974SOL     OW27820   1.559   4.307   5.895
 8974SOL    HW127821   1.636   4.247   5.876
 8974SOL    HW227822   1.479   4.275   5.843
 8975SOL     OW27823   2.675   6.879   6.571
 8975SOL    HW127824   2.664   6.780   6.577
 8975SOL    HW227825   2.615   6.916   6.501
 8976SOL     OW27826   0.935   5.413   5.225
 8976SOL    HW127827   0.859   5.409   5.160
 8976SOL    HW227828   0.917   5.350   5.301
 8977SOL     OW27829   5.852   1.524   6.684
 8977SOL    HW127830   5.931   1.581   6.661
 8977SOL    HW227831   5.874   1.428   6.671
 8978SOL     OW27832   5.978   6.719   6.196
 8978SOL    HW127833   6.043   6.644   6.204
 8978SOL    HW227834   6.005   6.780   6.121
 8979SOL     OW27835   1.400   3.240   4.277
 8979SOL    HW127836   1.390   3.301   4.356
 8979SOL    HW227837   1.437   3.152   4.308
 8980SOL     OW27838   2.398   3.266   5.348
 8980SOL    HW127839   2.307   3.232   5.374
 8980SOL    HW227840   2.451   3.191   5.308
 8981SOL     OW27841   3.724   1.485   5.467
 8981SOL    HW127842   3.696   1.571   5.424
 8981SOL    HW227843   3.645   1.443   5.511
 8982SOL     OW27844   1.274   2.566   0.558
 8982SOL    HW127845   1.275   2.466   0.560
 8982SOL    HW227846   1.179   2.598   0.561
 8983SOL     OW27847   2.633   6.759   6.168
 8983SOL    HW127848   2.696   6.730   6.096
 8983SOL    HW227849   2.544   6.715   6.154
 8984SOL     OW27850   0.776   0.062   3.883
 8984SOL    HW127851   0.780   0.115   3.968
 8984SOL    HW227852   0.682   0.031   3.868
 8985SOL     OW27853   3.376   2.555   0.542
 8985SOL    HW127854   3.436   2.628   0.510
 8985SOL    HW227855   3.310   2.593   0.607
 8986SOL     OW27856   4.236   5.735   2.647
 8986SOL    HW127857   4.183   5.797   2.706
 8986SOL    HW227858   4.242   5.774   2.555
 8987SOL     OW27859   4.421   6.666   2.129
 8987SOL    HW127860   4.476   6.645   2.210
 8987SOL    HW227861   4.340   6.607   2.127
 8988SOL     OW27862   1.276   4.811   4.929
 8988SOL    HW127863   1.224   4.740   4.882
 8988SOL    HW227864   1.348   4.769   4.985
 8989SOL     OW27865   5.147   3.658   0.475
 8989SOL    HW127866   5.079   3.663   0.548
 8989SOL    HW227867   5.204   3.740   0.476
 8990SOL     OW27868   1.826   5.701   4.450
 8990SOL    HW127869   1.811   5.710   4.549
 8990SOL    HW227870   1.772   5.624   4.415
 8991SOL     OW27871   1.708   2.485   4.698
 8991SOL    HW127872   1.805   2.467   4.685
 8991SOL    HW227873   1.654   2.412   4.655
 8992SOL     OW27874   4.424   1.140   0.636
 8992SOL    HW127875   4.369   1.220   0.662
 8992SOL    HW227876   4.452   1.091   0.718
 8993SOL     OW27877   4.665   2.393   1.132
 8993SOL    HW127878   4.737   2.460   1.150
 8993SOL    HW227879   4.632   2.354   1.218
 8994SOL     OW27880   1.432   4.168   5.448
 8994SOL    HW127881   1.460   4.129   5.535
 8994SOL    HW227882   1.496   4.140   5.376
 8995SOL     OW27883   1.287   2.395   0.121
 8995SOL    HW127884   1.219   2.327   0.148
 8995SOL    HW227885   1.240   2.479   0.092
 8996SOL     OW27886   5.083   4.302   6.734
 8996SOL    HW127887   5.075   4.217   6.785
 8996SOL    HW227888   5.162   4.354   6.768
 8997SOL     OW27889   5.179   1.966   6.189
 8997SOL    HW127890   5.228   2.038   6.238
 8997SOL    HW227891   5.140   1.901   6.254
 8998SOL     OW27892   6.369   3.683   4.376
 8998SOL    HW127893   6.279   3.682   4.421
 8998SOL    HW227894   6.406   3.776   4.378
 8999SOL     OW27895   5.131   6.524   5.988
 8999SOL    HW127896   5.033   6.537   6.001
 8999SOL    HW227897   5.156   6.431   6.016
 9000SOL     OW27898   1.232   3.088   1.487
 9000SOL    HW127899   1.204   3.102   1.582
 9000SOL    HW227900   1.325   3.051   1.486
 9001SOL     OW27901   1.096   4.554   2.166
 9001SOL    HW127902   1.018   4.492   2.155
 9001SOL    HW227903   1.181   4.504   2.149
 9002SOL     OW27904   1.911   5.028   5.380
 9002SOL    HW127905   1.886   4.937   5.411
 9002SOL    HW227906   1.829   5.085   5.374
 9003SOL     OW27907   5.852   4.098   1.741
 9003SOL    HW127908   5.844   4.156   1.822
 9003SOL    HW227909   5.948   4.075   1.725
 9004SOL     OW27910   4.243   6.204   0.799
 9004SOL    HW127911   4.338   6.188   0.775
 9004SOL    HW227912   4.183   6.168   0.728
 9005SOL     OW27913   6.757   2.322   5.309
 9005SOL    HW127914   6.659   2.328   5.329
 9005SOL    HW227915   6.770   2.311   5.210
 9006SOL     OW27916   2.223   5.555   1.092
 9006SOL    HW127917   2.269   5.609   1.162
 9006SOL    HW227918   2.124   5.564   1.103
 9007SOL     OW27919   3.431   1.011   3.280
 9007SOL    HW127920   3.415   0.977   3.372
 9007SOL    HW227921   3.483   0.944   3.227
 9008SOL     OW27922   1.008   5.265   3.246
 9008SOL    HW127923   1.058   5.306   3.322
 9008SOL    HW227924   0.973   5.176   3.275
 9009SOL     OW27925   2.519   5.758   0.874
 9009SOL    HW127926   2.455   5.723   0.806
 9009SOL    HW227927   2.490   5.849   0.905
 9010SOL     OW27928   1.479   6.388   4.295
 9010SOL    HW127929   1.382   6.375   4.275
 9010SOL    HW227930   1.533   6.324   4.240
 9011SOL     OW27931   4.928   1.392   1.245
 9011SOL    HW127932   4.842   1.433   1.274
 9011SOL    HW227933   4.911   1.324   1.173
 9012SOL     OW27934   2.127   4.566   6.914
 9012SOL    HW127935   2.180   4.603   6.838
 9012SOL    HW227936   2.170   4.481   6.946
 9013SOL     OW27937   6.974   0.099   6.165
 9013SOL    HW127938   6.894   0.159   6.163
 9013SOL    HW227939   0.029   0.152   6.190
 9014SOL     OW27940   6.785   2.082   0.696
 9014SOL    HW127941   6.852   2.059   0.626
 9014SOL    HW227942   6.826   2.072   0.787
 9015SOL     OW27943   4.657   2.252   1.831
 9015SOL    HW127944   4.572   2.204   1.849
 9015SOL    HW227945   4.646   2.349   1.853
 9016SOL     OW27946   0.212   6.341   6.403
 9016SOL    HW127947   0.303   6.376   6.378
 9016SOL    HW227948   0.142   6.405   6.371
 9017SOL     OW27949   4.904   1.521   4.245
 9017SOL    HW127950   4.913   1.495   4.149
 9017SOL    HW227951   4.813   1.560   4.260
 9018SOL     OW27952   2.943   2.957   6.515
 9018SOL    HW127953   2.910   3.008   6.435
 9018SOL    HW227954   2.890   2.873   6.525
 9019SOL     OW27955   1.595   4.859   2.238
 9019SOL    HW127956   1.598   4.821   2.330
 9019SOL    HW227957   1.504   4.897   2.221
 9020SOL     OW27958   6.959   3.953   0.727
 9020SOL    HW127959   6.875   3.978   0.776
 9020SOL    HW227960   6.943   3.870   0.674
 9021SOL     OW27961   6.944   0.570   3.487
 9021SOL    HW127962   6.890   0.489   3.464
 9021SOL    HW227963   6.983   0.610   3.403
 9022SOL     OW27964   2.861   1.011   0.032
 9022SOL    HW127965   2.865   1.000   0.131
 9022SOL    HW227966   2.773   1.051   0.007
 9023SOL     OW27967   3.306   3.125   2.091
 9023SOL    HW127968   3.397   3.134   2.051
 9023SOL    HW227969   3.267   3.037   2.064
 9024SOL     OW27970   1.313   3.672   5.921
 9024SOL    HW127971   1.224   3.716   5.933
 9024SOL    HW227972   1.301   3.588   5.870
 9025SOL     OW27973   0.670   5.278   0.595
 9025SOL    HW127974   0.635   5.206   0.655
 9025SOL    HW227975   0.638   5.262   0.502
 9026SOL     OW27976   3.392   2.966   0.947
 9026SOL    HW127977   3.336   2.981   0.865
 9026SOL    HW227978   3.350   2.896   1.004
 9027SOL     OW27979   0.775   3.008   2.766
 9027SOL    HW127980   0.699   3.044   2.712
 9027SOL    HW227981   0.848   2.978   2.705
 9028SOL     OW27982   2.911   2.879   5.305
 9028SOL    HW127983   2.956   2.929   5.231
 9028SOL    HW227984   2.979   2.831   5.359
 9029SOL     OW27985   3.604   0.039   5.182
 9029SOL    HW127986   3.563   0.119   5.225
 9029SOL    HW227987   3.633   0.061   5.089
 9030SOL     OW27988   1.797   2.198   3.408
 9030SOL    HW127989   1.839   2.286   3.387
 9030SOL    HW227990   1.760   2.200   3.501
 9031SOL     OW27991   4.209   5.959   4.395
 9031SOL    HW127992   4.201   5.861   4.414
 9031SOL    HW227993   4.156   6.011   4.462
 9032SOL     OW27994   4.543   3.821   1.015
 9032SOL    HW127995   4.492   3.890   0.963
 9032SOL    HW227996   4.551   3.738   0.961
 9033SOL     OW27997   0.334   4.335   2.380
 9033SOL    HW127998   0.270   4.258   2.374
 9033SOL    HW227999   0.344   4.362   2.476
 9034SOL     OW28000   3.036   6.250   4.434
 9034SOL    HW128001   2.982   6.203   4.504
 9034SOL    HW228002   3.120   6.199   4.418
 9035SOL     OW28003   2.671   4.365   0.114
 9035SOL    HW128004   2.577   4.399   0.116
 9035SOL    HW228005   2.683   4.304   0.035
 9036SOL     OW28006   1.895   3.272   5.710
 9036SOL    HW128007   1.968   3.215   5.749
 9036SOL    HW228008   1.933   3.329   5.637
 9037SOL     OW28009   1.326   4.428   4.701
 9037SOL    HW128010   1.338   4.350   4.640
 9037SOL    HW228011   1.400   4.493   4.686
 9038SOL     OW28012   4.339   1.192   6.405
 9038SOL    HW128013   4.293   1.242   6.478
 9038SOL    HW228014   4.279   1.119   6.372
 9039SOL     OW28015   2.280   4.964   6.219
 9039SOL    HW128016   2.238   5.022   6.289
 9039SOL    HW228017   2.241   4.985   6.130
 9040SOL     OW28018   2.714   2.300   2.736
 9040SOL    HW128019   2.645   2.369   2.757
 9040SOL    HW228020   2.740   2.307   2.639
 9041SOL     OW28021   0.976   2.078   1.411
 9041SOL    HW128022   1.039   2.149   1.442
 9041SOL    HW228023   1.010   1.989   1.442
 9042SOL     OW28024   4.206   6.881   4.640
 9042SOL    HW128025   4.189   6.851   4.547
 9042SOL    HW228026   4.146   6.831   4.703
 9043SOL     OW28027   1.887   0.857   6.378
 9043SOL    HW128028   1.810   0.827   6.322
 9043SOL    HW228029   1.923   0.943   6.340
 9044SOL     OW28030   6.443   0.329   0.610
 9044SOL    HW128031   6.353   0.285   0.614
 9044SOL    HW228032   6.445   0.394   0.534
 9045SOL     OW28033   3.468   1.315   2.658
 9045SOL    HW128034   3.401   1.382   2.691
 9045SOL    HW228035   3.517   1.276   2.735
 9046SOL     OW28036   3.633   4.132   3.193
 9046SOL    HW128037   3.612   4.187   3.274
 9046SOL    HW228038   3.598   4.039   3.205
 9047SOL     OW28039   1.763   3.509   4.871
 9047SOL    HW128040   1.804   3.600   4.866
 9047SOL    HW228041   1.738   3.479   4.779
 9048SOL     OW28042   6.486   3.106   6.364
 9048SOL    HW128043   6.488   3.070   6.271
 9048SOL    HW228044   6.499   3.205   6.362
 9049SOL     OW28045   4.211   6.500   5.374
 9049SOL    HW128046   4.293   6.529   5.325
 9049SOL    HW228047   4.228   6.506   5.473
 9050SOL     OW28048   0.632   3.998   0.808
 9050SOL    HW128049   0.604   3.925   0.746
 9050SOL    HW228050   0.691   4.063   0.760
 9051SOL     OW28051   3.270   0.103   1.325
 9051SOL    HW128052   3.340   0.105   1.395
 9051SOL    HW228053   3.286   0.177   1.259
 9052SOL     OW28054   2.363   2.394   3.649
 9052SOL    HW128055   2.273   2.370   3.613
 9052SOL    HW228056   2.432   2.332   3.609
 9053SOL     OW28057   1.791   1.343   2.566
 9053SOL    HW128058   1.844   1.427   2.557
 9053SOL    HW228059   1.792   1.293   2.480
 9054SOL     OW28060   3.020   5.714   4.059
 9054SOL    HW128061   3.066   5.696   4.146
 9054SOL    HW228062   2.944   5.650   4.047
 9055SOL     OW28063   5.514   2.587   4.461
 9055SOL    HW128064   5.528   2.540   4.373
 9055SOL    HW228065   5.547   2.681   4.453
 9056SOL     OW28066   0.660   2.300   1.364
 9056SOL    HW128067   0.695   2.394   1.367
 9056SOL    HW228068   0.680   2.254   1.450
 9057SOL     OW28069   4.847   2.936   5.474
 9057SOL    HW128070   4.938   2.949   5.436
 9057SOL    HW228071   4.787   2.895   5.405
 9058SOL     OW28072   1.864   0.546   1.614
 9058SOL    HW128073   1.825   0.468   1.564
 9058SOL    HW228074   1.867   0.525   1.712
 9059SOL     OW28075   1.031   2.465   2.838
 9059SOL    HW128076   1.050   2.561   2.820
 9059SOL    HW228077   0.935   2.454   2.864
 9060SOL     OW28078   5.917   2.930   4.313
 9060SOL    HW128079   5.983   2.894   4.379
 9060SOL    HW228080   5.852   2.990   4.360
 9061SOL     OW28081   2.476   5.535   2.353
 9061SOL    HW128082   2.394   5.479   2.364
 9061SOL    HW228083   2.557   5.476   2.349
 9062SOL     OW28084   1.138   6.444   2.470
 9062SOL    HW128085   1.181   6.360   2.504
 9062SOL    HW228086   1.083   6.485   2.543
 9063SOL     OW28087   2.990   0.366   4.033
 9063SOL    HW128088   2.990   0.318   4.121
 9063SOL    HW228089   3.022   0.459   4.045
 9064SOL     OW28090   6.177   3.024   6.075
 9064SOL    HW128091   6.168   2.927   6.052
 9064SOL    HW228092   6.182   3.034   6.174
 9065SOL     OW28093   4.044   0.345   6.905
 9065SOL    HW128094   4.007   0.423   6.955
 9065SOL    HW228095   4.112   0.298   6.962
 9066SOL     OW28096   5.194   6.659   0.791
 9066SOL    HW128097   5.255   6.734   0.764
 9066SOL    HW228098   5.246   6.589   0.840
 9067SOL     OW28099   1.041   0.996   3.542
 9067SOL    HW128100   1.129   1.041   3.537
 9067SOL    HW228101   0.984   1.039   3.612
 9068SOL     OW28102   1.780   6.096   4.538
 9068SOL    HW128103   1.699   6.143   4.503
 9068SOL    HW228104   1.830   6.055   4.462
 9069SOL     OW28105   1.202   2.914   1.112
 9069SOL    HW128106   1.204   2.854   1.192
 9069SOL    HW228107   1.232   3.005   1.138
 9070SOL     OW28108   1.410   3.453   5.258
 9070SOL    HW128109   1.357   3.478   5.339
 9070SOL    HW228110   1.350   3.446   5.179
 9071SOL     OW28111   6.644   6.330   1.489
 9071SOL    HW128112   6.696   6.328   1.574
 9071SOL    HW228113   6.707   6.343   1.412
 9072SOL     OW28114   0.157   2.564   0.954
 9072SOL    HW128115   0.095   2.510   0.897
 9072SOL    HW228116   0.221   2.504   1.000
 9073SOL     OW28117   2.529   6.999   2.588
 9073SOL    HW128118   2.570   0.064   2.583
 9073SOL    HW228119   2.571   6.940   2.519
 9074SOL     OW28120   1.107   0.370   2.277
 9074SOL    HW128121   1.092   0.302   2.349
 9074SOL    HW228122   1.045   0.352   2.201
 9075SOL     OW28123   0.038   1.829   2.762
 9075SOL    HW128124   6.991   1.776   2.806
 9075SOL    HW228125   0.120   1.826   2.819
 9076SOL     OW28126   6.709   1.073   6.377
 9076SOL    HW128127   6.792   1.128   6.366
 9076SOL    HW228128   6.637   1.110   6.318
 9077SOL     OW28129   4.344   0.184   1.356
 9077SOL    HW128130   4.354   0.193   1.455
 9077SOL    HW228131   4.404   0.110   1.324
 9078SOL     OW28132   3.459   3.513   4.710
 9078SOL    HW128133   3.553   3.481   4.697
 9078SOL    HW228134   3.457   3.579   4.785
 9079SOL     OW28135   2.656   0.647   4.843
 9079SOL    HW128136   2.599   0.722   4.878
 9079SOL    HW228137   2.751   0.661   4.872
 9080SOL     OW28138   5.057   2.855   6.613
 9080SOL    HW128139   4.963   2.889   6.608
 9080SOL    HW228140   5.063   2.765   6.570
 9081SOL     OW28141   4.854   6.648   2.520
 9081SOL    HW128142   4.868   6.607   2.429
 9081SOL    HW228143   4.836   6.746   2.510
 9082SOL     OW28144   1.842   0.197   4.882
 9082SOL    HW128145   1.834   0.272   4.948
 9082SOL    HW228146   1.890   0.229   4.801
 9083SOL     OW28147   4.283   4.902   5.848
 9083SOL    HW128148   4.233   4.848   5.916
 9083SOL    HW228149   4.331   4.976   5.894
 9084SOL     OW28150   3.322   3.812   2.997
 9084SOL    HW128151   3.260   3.735   2.981
 9084SOL    HW228152   3.270   3.897   2.996
 9085SOL     OW28153   2.376   0.431   0.772
 9085SOL    HW128154   2.454   0.487   0.745
 9085SOL    HW228155   2.331   0.394   0.691
 9086SOL     OW28156   0.641   4.286   0.282
 9086SOL    HW128157   0.585   4.243   0.352
 9086SOL    HW228158   0.606   4.261   0.191
 9087SOL     OW28159   4.660   2.781   1.836
 9087SOL    HW128160   4.756   2.755   1.826
 9087SOL    HW228161   4.654   2.880   1.850
 9088SOL     OW28162   6.467   0.115   1.021
 9088SOL    HW128163   6.531   0.186   0.993
 9088SOL    HW228164   6.389   0.157   1.069
 9089SOL     OW28165   5.317   6.777   5.351
 9089SOL    HW128166   5.232   6.754   5.399
 9089SOL    HW228167   5.295   6.820   5.263
 9090SOL     OW28168   5.980   1.484   5.617
 9090SOL    HW128169   6.013   1.399   5.659
 9090SOL    HW228170   5.885   1.472   5.587
 9091SOL     OW28171   2.756   3.619   6.754
 9091SOL    HW128172   2.771   3.598   6.657
 9091SOL    HW228173   2.815   3.695   6.781
 9092SOL     OW28174   6.499   0.827   0.122
 9092SOL    HW128175   6.581   0.831   0.065
 9092SOL    HW228176   6.522   0.857   0.215
 9093SOL     OW28177   1.902   5.924   5.112
 9093SOL    HW128178   1.820   5.980   5.099
 9093SOL    HW228179   1.952   5.917   5.026
 9094SOL     OW28180   6.563   4.484   2.538
 9094SOL    HW128181   6.552   4.445   2.447
 9094SOL    HW228182   6.522   4.423   2.605
 9095SOL     OW28183   4.791   4.698   5.984
 9095SOL    HW128184   4.880   4.673   5.946
 9095SOL    HW228185   4.726   4.713   5.909
 9096SOL     OW28186   6.258   5.239   3.202
 9096SOL    HW128187   6.219   5.300   3.271
 9096SOL    HW228188   6.219   5.261   3.113
 9097SOL     OW28189   2.277   1.697   6.980
 9097SOL    HW128190   2.192   1.727   6.936
 9097SOL    HW228191   2.278   1.598   6.986
 9098SOL     OW28192   2.667   2.135   5.112
 9098SOL    HW128193   2.743   2.125   5.047
 9098SOL    HW228194   2.663   2.230   5.144
 9099SOL     OW28195   2.419   3.297   6.819
 9099SOL    HW128196   2.359   3.354   6.764
 9099SOL    HW228197   2.423   3.205   6.781
 9100SOL     OW28198   0.884   3.627   2.216
 9100SOL    HW128199   0.919   3.650   2.307
 9100SOL    HW228200   0.825   3.547   2.222
 9101SOL     OW28201   2.388   0.925   2.352
 9101SOL    HW128202   2.410   0.828   2.359
 9101SOL    HW228203   2.461   0.978   2.394
 9102SOL     OW28204   3.867   6.892   1.699
 9102SOL    HW128205   3.892   6.935   1.612
 9102SOL    HW228206   3.880   6.794   1.693
 9103SOL     OW28207   5.435   1.788   6.873
 9103SOL    HW128208   5.475   1.711   6.824
 9103SOL    HW228209   5.337   1.791   6.856
 9104SOL     OW28210   6.970   6.772   2.027
 9104SOL    HW128211   6.897   6.762   2.094
 9104SOL    HW228212   7.011   6.863   2.035
 9105SOL     OW28213   1.375   6.842   5.180
 9105SOL    HW128214   1.390   6.846   5.082
 9105SOL    HW228215   1.280   6.817   5.198
 9106SOL     OW28216   0.685   3.473   6.851
 9106SOL    HW128217   0.645   3.507   6.936
 9106SOL    HW228218   0.755   3.537   6.819
 9107SOL     OW28219   1.983   1.082   6.725
 9107SOL    HW128220   2.008   0.989   6.697
 9107SOL    HW228221   1.965   1.138   6.644
 9108SOL     OW28222   4.961   4.548   5.233
 9108SOL    HW128223   5.013   4.629   5.259
 9108SOL    HW228224   4.949   4.489   5.312
 9109SOL     OW28225   4.996   2.553   3.032
 9109SOL    HW128226   5.088   2.557   3.072
 9109SOL    HW228227   4.961   2.646   3.019
 9110SOL     OW28228   1.169   5.678   4.642
 9110SOL    HW128229   1.129   5.704   4.554
 9110SOL    HW228230   1.266   5.702   4.642
 9111SOL     OW28231   4.732   2.799   6.342
 9111SOL    HW128232   4.757   2.720   6.285
 9111SOL    HW228233   4.709   2.876   6.283
 9112SOL     OW28234   1.440   4.810   2.847
 9112SOL    HW128235   1.536   4.814   2.876
 9112SOL    HW228236   1.433   4.831   2.750
 9113SOL     OW28237   5.449   2.077   3.981
 9113SOL    HW128238   5.416   2.142   3.913
 9113SOL    HW228239   5.419   2.105   4.072
 9114SOL     OW28240   0.945   5.937   4.205
 9114SOL    HW128241   0.893   5.860   4.169
 9114SOL    HW228242   0.984   5.989   4.128
 9115SOL     OW28243   6.285   5.185   3.550
 9115SOL    HW128244   6.355   5.257   3.549
 9115SOL    HW228245   6.202   5.220   3.593
 9116SOL     OW28246   0.382   0.245   3.049
 9116SOL    HW128247   0.353   0.309   2.978
 9116SOL    HW228248   0.471   0.273   3.084
 9117SOL     OW28249   4.213   1.893   6.278
 9117SOL    HW128250   4.164   1.856   6.357
 9117SOL    HW228251   4.249   1.818   6.222
 9118SOL     OW28252   6.199   3.790   0.591
 9118SOL    HW128253   6.132   3.818   0.522
 9118SOL    HW228254   6.276   3.853   0.592
 9119SOL     OW28255   3.946   6.932   1.412
 9119SOL    HW128256   3.976   6.865   1.344
 9119SOL    HW228257   3.998   7.016   1.402
 9120SOL     OW28258   6.484   3.023   6.103
 9120SOL    HW128259   6.573   2.981   6.083
 9120SOL    HW228260   6.449   3.066   6.019
 9121SOL     OW28261   3.964   0.240   5.697
 9121SOL    HW128262   4.030   0.311   5.720
 9121SOL    HW228263   4.005   0.150   5.715
 9122SOL     OW28264   2.147   3.886   1.976
 9122SOL    HW128265   2.122   3.823   2.048
 9122SOL    HW228266   2.123   3.979   2.003
 9123SOL     OW28267   1.517   0.751   3.372
 9123SOL    HW128268   1.419   0.758   3.386
 9123SOL    HW228269   1.565   0.801   3.444
 9124SOL     OW28270   3.616   5.289   1.963
 9124SOL    HW128271   3.578   5.207   1.919
 9124SOL    HW228272   3.698   5.264   2.014
 9125SOL     OW28273   3.806   5.426   0.406
 9125SOL    HW128274   3.879   5.357   0.399
 9125SOL    HW228275   3.727   5.396   0.354
 9126SOL     OW28276   4.567   4.346   0.731
 9126SOL    HW128277   4.535   4.304   0.816
 9126SOL    HW228278   4.640   4.291   0.692
 9127SOL     OW28279   6.616   2.957   5.075
 9127SOL    HW128280   6.677   2.991   5.003
 9127SOL    HW228281   6.570   3.034   5.119
 9128SOL     OW28282   6.080   2.841   4.816
 9128SOL    HW128283   6.002   2.903   4.830
 9128SOL    HW228284   6.156   2.870   4.874
 9129SOL     OW28285   1.549   2.141   0.854
 9129SOL    HW128286   1.555   2.098   0.764
 9129SOL    HW228287   1.462   2.190   0.861
 9130SOL     OW28288   1.769   4.142   5.906
 9130SOL    HW128289   1.825   4.153   5.824
 9130SOL    HW228290   1.723   4.053   5.902
 9131SOL     OW28291   5.395   2.868   0.224
 9131SOL    HW128292   5.458   2.837   0.153
 9131SOL    HW228293   5.311   2.814   0.221
 9132SOL     OW28294   1.239   4.914   4.296
 9132SOL    HW128295   1.242   5.005   4.253
 9132SOL    HW228296   1.162   4.910   4.359
 9133SOL     OW28297   3.100   0.535   1.125
 9133SOL    HW128298   3.051   0.541   1.038
 9133SOL    HW228299   3.037   0.558   1.199
 9134SOL     OW28300   4.478   5.431   0.572
 9134SOL    HW128301   4.573   5.462   0.577
 9134SOL    HW228302   4.426   5.472   0.647
 9135SOL     OW28303   1.007   6.461   2.095
 9135SOL    HW128304   0.918   6.417   2.104
 9135SOL    HW228305   1.079   6.391   2.092
 9136SOL     OW28306   4.791   4.922   6.151
 9136SOL    HW128307   4.797   4.841   6.093
 9136SOL    HW228308   4.776   5.003   6.095
 9137SOL     OW28309   4.650   6.059   5.873
 9137SOL    HW128310   4.635   6.100   5.783
 9137SOL    HW228311   4.617   6.121   5.944
 9138SOL     OW28312   1.895   3.093   0.829
 9138SOL    HW128313   1.821   3.145   0.871
 9138SOL    HW228314   1.877   3.082   0.732
 9139SOL     OW28315   0.263   0.848   1.278
 9139SOL    HW128316   0.166   0.827   1.268
 9139SOL    HW228317   0.312   0.824   1.195
 9140SOL     OW28318   0.250   4.643   1.680
 9140SOL    HW128319   0.322   4.677   1.740
 9140SOL    HW228320   0.264   4.678   1.587
 9141SOL     OW28321   0.130   5.812   6.204
 9141SOL    HW128322   0.119   5.911   6.198
 9141SOL    HW228323   0.160   5.776   6.116
 9142SOL     OW28324   0.716   3.321   2.894
 9142SOL    HW128325   0.789   3.282   2.950
 9142SOL    HW228326   0.627   3.301   2.937
 9143SOL     OW28327   6.820   3.942   1.658
 9143SOL    HW128328   6.736   3.970   1.705
 9143SOL    HW228329   6.850   4.016   1.596
 9144SOL     OW28330   3.202   5.177   4.631
 9144SOL    HW128331   3.188   5.086   4.592
 9144SOL    HW228332   3.294   5.209   4.611
 9145SOL     OW28333   1.593   6.633   6.529
 9145SOL    HW128334   1.625   6.648   6.622
 9145SOL    HW228335   1.519   6.566   6.528
 9146SOL     OW28336   5.978   3.151   3.530
 9146SOL    HW128337   5.971   3.055   3.503
 9146SOL    HW228338   6.052   3.162   3.596
 9147SOL     OW28339   5.811   6.801   4.337
 9147SOL    HW128340   5.718   6.775   4.361
 9147SOL    HW228341   5.872   6.781   4.414
 9148SOL     OW28342   6.411   0.363   1.918
 9148SOL    HW128343   6.384   0.460   1.916
 9148SOL    HW228344   6.464   0.342   1.836
 9149SOL     OW28345   6.057   3.019   1.165
 9149SOL    HW128346   6.020   2.954   1.231
 9149SOL    HW228347   5.994   3.096   1.155
 9150SOL     OW28348   2.614   4.062   0.335
 9150SOL    HW128349   2.695   4.074   0.278
 9150SOL    HW228350   2.556   4.143   0.327
 9151SOL     OW28351   2.080   3.982   3.790
 9151SOL    HW128352   1.982   4.002   3.787
 9151SOL    HW228353   2.094   3.884   3.772
 9152SOL     OW28354   2.173   3.668   3.994
 9152SOL    HW128355   2.192   3.678   3.897
 9152SOL    HW228356   2.186   3.573   4.022
 9153SOL     OW28357   0.595   2.304   6.288
 9153SOL    HW128358   0.681   2.306   6.339
 9153SOL    HW228359   0.614   2.306   6.190
 9154SOL     OW28360   5.776   5.247   3.080
 9154SOL    HW128361   5.789   5.272   2.985
 9154SOL    HW228362   5.750   5.327   3.134
 9155SOL     OW28363   1.748   5.107   2.354
 9155SOL    HW128364   1.836   5.068   2.381
 9155SOL    HW228365   1.695   5.039   2.304
 9156SOL     OW28366   6.627   3.084   1.079
 9156SOL    HW128367   6.589   3.166   1.121
 9156SOL    HW228368   6.568   3.006   1.100
 9157SOL     OW28369   3.720   4.196   6.336
 9157SOL    HW128370   3.680   4.257   6.403
 9157SOL    HW228371   3.669   4.110   6.333
 9158SOL     OW28372   6.927   3.806   4.134
 9158SOL    HW128373   7.020   3.794   4.097
 9158SOL    HW228374   6.880   3.878   4.083
 9159SOL     OW28375   2.773   0.303   3.473
 9159SOL    HW128376   2.703   0.247   3.428
 9159SOL    HW228377   2.845   0.245   3.510
 9160SOL     OW28378   0.541   4.885   6.557
 9160SOL    HW128379   0.570   4.820   6.487
 9160SOL    HW228380   0.442   4.881   6.566
 9161SOL     OW28381   5.830   4.204   1.979
 9161SOL    HW128382   5.885   4.163   2.052
 9161SOL    HW228383   5.747   4.244   2.017
 9162SOL     OW28384   4.259   1.746   2.479
 9162SOL    HW128385   4.205   1.721   2.399
 9162SOL    HW228386   4.273   1.666   2.537
 9163SOL     OW28387   0.738   2.446   2.143
 9163SOL    HW128388   0.791   2.496   2.075
 9163SOL    HW228389   0.773   2.468   2.234
 9164SOL     OW28390   2.426   0.146   6.854
 9164SOL    HW128391   2.339   0.134   6.808
 9164SOL    HW228392   2.434   0.241   6.885
 9165SOL     OW28393   4.734   2.578   5.297
 9165SOL    HW128394   4.771   2.501   5.245
 9165SOL    HW228395   4.676   2.633   5.238
 9166SOL     OW28396   4.465   5.758   1.822
 9166SOL    HW128397   4.370   5.735   1.842
 9166SOL    HW228398   4.520   5.674   1.822
 9167SOL     OW28399   0.684   1.502   6.279
 9167SOL    HW128400   0.682   1.580   6.217
 9167SOL    HW228401   0.591   1.467   6.294
 9168SOL     OW28402   6.457   5.302   4.904
 9168SOL    HW128403   6.491   5.228   4.960
 9168SOL    HW228404   6.367   5.331   4.936
 9169SOL     OW28405   6.322   5.864   6.753
 9169SOL    HW128406   6.248   5.901   6.697
 9169SOL    HW228407   6.283   5.814   6.830
 9170SOL     OW28408   1.553   1.882   6.339
 9170SOL    HW128409   1.488   1.814   6.306
 9170SOL    HW228410   1.642   1.838   6.355
 9171SOL     OW28411   2.864   4.729   0.613
 9171SOL    HW128412   2.925   4.666   0.660
 9171SOL    HW228413   2.835   4.801   0.677
 9172SOL     OW28414   5.405   1.342   4.846
 9172SOL    HW128415   5.381   1.325   4.941
 9172SOL    HW228416   5.505   1.350   4.837
 9173SOL     OW28417   6.622   2.736   3.820
 9173SOL    HW128418   6.580   2.744   3.910
 9173SOL    HW228419   6.630   2.639   3.796
 9174SOL     OW28420   0.904   5.972   0.036
 9174SOL    HW128421   0.939   5.984   0.129
 9174SOL    HW228422   0.860   6.056   0.006
 9175SOL     OW28423   2.031   0.029   0.213
 9175SOL    HW128424   1.982   6.984   0.263
 9175SOL    HW228425   2.117   0.049   0.261
 9176SOL     OW28426   2.142   0.988   3.018
 9176SOL    HW128427   2.236   1.018   3.039
 9176SOL    HW228428   2.093   0.971   3.103
 9177SOL     OW28429   0.893   4.252   4.189
 9177SOL    HW128430   0.805   4.237   4.144
 9177SOL    HW228431   0.926   4.167   4.229
 9178SOL     OW28432   2.575   6.525   6.952
 9178SOL    HW128433   2.588   6.519   0.025
 9178SOL    HW228434   2.484   6.562   6.933
 9179SOL     OW28435   3.801   6.374   5.355
 9179SOL    HW128436   3.727   6.310   5.334
 9179SOL    HW228437   3.765   6.467   5.360
 9180SOL     OW28438   6.901   1.457   4.354
 9180SOL    HW128439   6.937   1.506   4.433
 9180SOL    HW228440   6.867   1.367   4.383
 9181SOL     OW28441   4.198   1.698   3.582
 9181SOL    HW128442   4.271   1.655   3.529
 9181SOL    HW228443   4.223   1.792   3.603
 9182SOL     OW28444   1.687   1.275   2.998
 9182SOL    HW128445   1.729   1.185   2.996
 9182SOL    HW228446   1.663   1.304   2.906
 9183SOL     OW28447   5.167   2.669   6.950
 9183SOL    HW128448   5.219   2.602   7.003
 9183SOL    HW228449   5.096   2.709   7.007
 9184SOL     OW28450   3.368   3.215   0.614
 9184SOL    HW128451   3.352   3.137   0.554
 9184SOL    HW228452   3.402   3.183   0.703
 9185SOL     OW28453   0.537   0.707   6.733
 9185SOL    HW128454   0.544   0.804   6.713
 9185SOL    HW228455   0.448   0.687   6.773
 9186SOL     OW28456   4.942   0.052   6.678
 9186SOL    HW128457   4.921   0.149   6.666
 9186SOL    HW228458   4.963   0.034   6.774
 9187SOL     OW28459   4.930   1.720   6.735
 9187SOL    HW128460   4.961   1.680   6.649
 9187SOL    HW228461   4.900   1.814   6.718
 9188SOL     OW28462   1.302   0.160   1.423
 9188SOL    HW128463   1.274   0.160   1.327
 9188SOL    HW228464   1.297   0.067   1.460
 9189SOL     OW28465   2.909   1.401   3.493
 9189SOL    HW128466   2.980   1.387   3.562
 9189SOL    HW228467   2.823   1.364   3.526
 9190SOL     OW28468   6.082   3.641   5.294
 9190SOL    HW128469   5.983   3.640   5.288
 9190SOL    HW228470   6.110   3.627   5.389
 9191SOL     OW28471   5.403   6.393   6.671
 9191SOL    HW128472   5.475   6.388   6.741
 9191SOL    HW228473   5.445   6.394   6.580
 9192SOL     OW28474   0.090   4.294   6.180
 9192SOL    HW128475   0.127   4.205   6.154
 9192SOL    HW228476   0.009   4.313   6.124
 9193SOL     OW28477   3.780   3.377   3.945
 9193SOL    HW128478   3.776   3.470   3.907
 9193SOL    HW228479   3.787   3.311   3.870
 9194SOL     OW28480   3.232   5.531   2.570
 9194SOL    HW128481   3.210   5.598   2.641
 9194SOL    HW228482   3.195   5.562   2.483
 9195SOL     OW28483   0.211   3.370   3.269
 9195SOL    HW128484   0.149   3.446   3.290
 9195SOL    HW228485   0.182   3.327   3.183
 9196SOL     OW28486   3.584   0.672   3.619
 9196SOL    HW128487   3.657   0.652   3.685
 9196SOL    HW228488   3.496   0.642   3.656
 9197SOL     OW28489   2.713   3.298   6.874
 9197SOL    HW128490   2.697   3.338   6.783
 9197SOL    HW228491   2.632   3.247   6.903
 9198SOL     OW28492   5.629   3.859   5.767
 9198SOL    HW128493   5.705   3.813   5.722
 9198SOL    HW228494   5.569   3.900   5.698
 9199SOL     OW28495   1.628   3.738   6.536
 9199SOL    HW128496   1.703   3.783   6.489
 9199SOL    HW228497   1.566   3.697   6.469
 9200SOL     OW28498   6.914   6.828   0.723
 9200SOL    HW128499   6.938   6.785   0.809
 9200SOL    HW228500   6.966   6.913   0.712
 9201SOL     OW28501   6.953   4.468   1.710
 9201SOL    HW128502   7.023   4.398   1.702
 9201SOL    HW228503   6.919   4.471   1.804
 9202SOL     OW28504   2.593   4.897   4.066
 9202SOL    HW128505   2.658   4.871   4.138
 9202SOL    HW228506   2.591   4.826   3.996
 9203SOL     OW28507   5.835   1.310   6.044
 9203SOL    HW128508   5.837   1.243   5.969
 9203SOL    HW228509   5.927   1.346   6.060
 9204SOL     OW28510   5.655   3.792   3.545
 9204SOL    HW128511   5.613   3.873   3.504
 9204SOL    HW228512   5.587   3.742   3.599
 9205SOL     OW28513   5.771   2.846   3.009
 9205SOL    HW128514   5.782   2.862   3.107
 9205SOL    HW228515   5.761   2.934   2.962
 9206SOL     OW28516   2.074   6.155   3.579
 9206SOL    HW128517   2.000   6.112   3.631
 9206SOL    HW228518   2.077   6.116   3.487
 9207SOL     OW28519   4.253   6.245   6.014
 9207SOL    HW128520   4.211   6.333   6.033
 9207SOL    HW228521   4.350   6.258   5.993
 9208SOL     OW28522   4.942   3.302   2.593
 9208SOL    HW128523   4.869   3.236   2.605
 9208SOL    HW228524   4.922   3.384   2.647
 9209SOL     OW28525   4.248   1.195   2.928
 9209SOL    HW128526   4.287   1.124   2.869
 9209SOL    HW228527   4.148   1.190   2.925
 9210SOL     OW28528   2.221   6.848   1.478
 9210SOL    HW128529   2.180   6.775   1.424
 9210SOL    HW228530   2.235   6.928   1.421
 9211SOL     OW28531   5.111   1.784   6.394
 9211SOL    HW128532   5.056   1.704   6.422
 9211SOL    HW228533   5.066   1.867   6.427
 9212SOL     OW28534   4.541   4.927   4.393
 9212SOL    HW128535   4.508   4.915   4.300
 9212SOL    HW228536   4.638   4.903   4.398
 9213SOL     OW28537   5.972   0.466   4.186
 9213SOL    HW128538   6.013   0.505   4.103
 9213SOL    HW228539   5.885   0.512   4.205
 9214SOL     OW28540   1.815   2.806   4.584
 9214SOL    HW128541   1.898   2.808   4.528
 9214SOL    HW228542   1.838   2.829   4.678
 9215SOL     OW28543   0.379   3.530   2.883
 9215SOL    HW128544   0.414   3.547   2.792
 9215SOL    HW228545   0.385   3.613   2.938
 9216SOL     OW28546   2.311   5.752   5.075
 9216SOL    HW128547   2.334   5.701   5.159
 9216SOL    HW228548   2.330   5.849   5.088
 9217SOL     OW28549   5.185   1.491   6.307
 9217SOL    HW128550   5.136   1.573   6.339
 9217SOL    HW228551   5.140   1.409   6.342
 9218SOL     OW28552   5.757   6.603   6.510
 9218SOL    HW128553   5.823   6.584   6.583
 9218SOL    HW228554   5.771   6.696   6.476
 9219SOL     OW28555   3.646   2.637   5.368
 9219SOL    HW128556   3.739   2.602   5.376
 9219SOL    HW228557   3.643   2.709   5.299
 9220SOL     OW28558   1.665   6.175   2.833
 9220SOL    HW128559   1.674   6.198   2.930
 9220SOL    HW228560   1.734   6.224   2.780
 9221SOL     OW28561   2.678   0.495   6.521
 9221SOL    HW128562   2.713   0.552   6.594
 9221SOL    HW228563   2.688   0.398   6.546
 9222SOL     OW28564   1.975   4.741   3.724
 9222SOL    HW128565   1.887   4.737   3.772
 9222SOL    HW228566   2.028   4.818   3.758
 9223SOL     OW28567   1.677   4.294   4.728
 9223SOL    HW128568   1.637   4.226   4.667
 9223SOL    HW228569   1.709   4.250   4.811
 9224SOL     OW28570   1.722   4.786   3.867
 9224SOL    HW128571   1.669   4.836   3.936
 9224SOL    HW228572   1.659   4.733   3.810
 9225SOL     OW28573   3.927   6.706   6.726
 9225SOL    HW128574   3.991   6.756   6.668
 9225SOL    HW228575   3.857   6.662   6.669
 9226SOL     OW28576   1.090   6.561   0.918
 9226SOL    HW128577   1.068   6.609   1.003
 9226SOL    HW228578   1.056   6.614   0.841
 9227SOL     OW28579   2.043   5.664   0.618
 9227SOL    HW128580   1.977   5.673   0.693
 9227SOL    HW228581   2.084   5.573   0.620
 9228SOL     OW28582   1.924   2.528   5.353
 9228SOL    HW128583   1.839   2.478   5.368
 9228SOL    HW228584   1.963   2.501   5.265
 9229SOL     OW28585   0.464   4.138   6.764
 9229SOL    HW128586   0.410   4.184   6.695
 9229SOL    HW228587   0.561   4.160   6.751
 9230SOL     OW28588   4.910   2.452   4.147
 9230SOL    HW128589   4.953   2.391   4.081
 9230SOL    HW228590   4.964   2.453   4.231
 9231SOL     OW28591   0.968   5.595   5.446
 9231SOL    HW128592   0.910   5.566   5.370
 9231SOL    HW228593   0.975   5.520   5.512
 9232SOL     OW28594   1.818   5.484   1.898
 9232SOL    HW128595   1.888   5.434   1.949
 9232SOL    HW228596   1.826   5.462   1.801
 9233SOL     OW28597   0.392   6.721   1.088
 9233SOL    HW128598   0.487   6.755   1.089
 9233SOL    HW228599   0.348   6.749   1.003
 9234SOL     OW28600   2.282   4.838   0.830
 9234SOL    HW128601   2.356   4.771   0.823
 9234SOL    HW228602   2.257   4.870   0.738
 9235SOL     OW28603   2.404   2.601   3.134
 9235SOL    HW128604   2.401   2.639   3.227
 9235SOL    HW228605   2.497   2.571   3.115
 9236SOL     OW28606   1.747   3.103   6.849
 9236SOL    HW128607   1.768   3.150   6.935
 9236SOL    HW228608   1.769   3.006   6.858
 9237SOL     OW28609   6.105   5.372   3.652
 9237SOL    HW128610   6.167   5.423   3.593
 9237SOL    HW228611   6.011   5.386   3.622
 9238SOL     OW28612   1.629   3.325   5.282
 9238SOL    HW128613   1.698   3.394   5.305
 9238SOL    HW228614   1.538   3.366   5.289
 9239SOL     OW28615   0.042   4.800   0.171
 9239SOL    HW128616   0.088   4.714   0.192
 9239SOL    HW228617   0.088   4.845   0.094
 9240SOL     OW28618   5.065   2.818   3.173
 9240SOL    HW128619   5.043   2.897   3.229
 9240SOL    HW228620   5.051   2.734   3.226
 9241SOL     OW28621   7.004   6.241   0.476
 9241SOL    HW128622   6.965   6.223   0.567
 9241SOL    HW228623   6.934   6.225   0.407
 9242SOL     OW28624   1.201   2.343   2.028
 9242SOL    HW128625   1.183   2.378   1.936
 9242SOL    HW228626   1.191   2.417   2.095
 9243SOL     OW28627   0.273   0.257   1.394
 9243SOL    HW128628   0.345   0.260   1.464
 9243SOL    HW228629   0.315   0.244   1.304
 9244SOL     OW28630   3.454   6.387   5.454
 9244SOL    HW128631   3.424   6.467   5.403
 9244SOL    HW228632   3.493   6.320   5.391
 9245SOL     OW28633   0.843   4.150   3.066
 9245SOL    HW128634   0.761   4.094   3.062
 9245SOL    HW228635   0.923   4.091   3.081
 9246SOL     OW28636   6.241   0.051   4.320
 9246SOL    HW128637   6.168   0.114   4.293
 9246SOL    HW228638   6.256   7.010   4.248
 9247SOL     OW28639   3.708   5.658   3.021
 9247SOL    HW128640   3.674   5.751   3.008
 9247SOL    HW228641   3.716   5.638   3.118
 9248SOL     OW28642   2.502   1.688   5.016
 9248SOL    HW128643   2.495   1.618   4.945
 9248SOL    HW228644   2.588   1.738   5.004
 9249SOL     OW28645   3.819   4.733   1.769
 9249SOL    HW128646   3.725   4.708   1.790
 9249SOL    HW228647   3.869   4.652   1.739
 9250SOL     OW28648   6.745   4.245   4.555
 9250SOL    HW128649   6.721   4.274   4.647
 9250SOL    HW228650   6.732   4.322   4.492
 9251SOL     OW28651   4.145   2.980   1.281
 9251SOL    HW128652   4.064   3.012   1.231
 9251SOL    HW228653   4.183   2.900   1.235
 9252SOL     OW28654   4.221   0.773   4.766
 9252SOL    HW128655   4.125   0.758   4.790
 9252SOL    HW228656   4.235   0.870   4.745
 9253SOL     OW28657   0.338   4.495   5.347
 9253SOL    HW128658   0.296   4.584   5.362
 9253SOL    HW228659   0.430   4.507   5.311
 9254SOL     OW28660   5.850   4.447   2.386
 9254SOL    HW128661   5.811   4.360   2.356
 9254SOL    HW228662   5.787   4.492   2.449
 9255SOL     OW28663   6.380   3.777   7.021
 9255SOL    HW128664   6.319   3.848   6.987
 9255SOL    HW228665   6.326   3.698   0.026
 9256SOL     OW28666   1.829   6.907   1.920
 9256SOL    HW128667   1.830   6.995   1.871
 9256SOL    HW228668   1.896   6.909   1.994
 9257SOL     OW28669   6.947   5.667   3.493
 9257SOL    HW128670   6.987   5.596   3.435
 9257SOL    HW228671   6.862   5.700   3.451
 9258SOL     OW28672   3.269   3.318   0.239
 9258SOL    HW128673   3.249   3.343   0.144
 9258SOL    HW228674   3.354   3.266   0.242
 9259SOL     OW28675   1.573   1.402   6.460
 9259SOL    HW128676   1.523   1.324   6.497
 9259SOL    HW228677   1.613   1.377   6.372
 9260SOL     OW28678   5.812   3.144   5.809
 9260SOL    HW128679   5.864   3.185   5.884
 9260SOL    HW228680   5.799   3.046   5.828
 9261SOL     OW28681   3.828   1.656   0.753
 9261SOL    HW128682   3.896   1.729   0.740
 9261SOL    HW228683   3.859   1.573   0.706
 9262SOL     OW28684   6.794   6.770   4.520
 9262SOL    HW128685   6.793   6.723   4.608
 9262SOL    HW228686   6.750   6.859   4.529
 9263SOL     OW28687   2.870   5.085   2.829
 9263SOL    HW128688   2.838   5.095   2.735
 9263SOL    HW228689   2.914   5.171   2.858
 9264SOL     OW28690   5.473   3.356   6.783
 9264SOL    HW128691   5.431   3.447   6.786
 9264SOL    HW228692   5.531   3.348   6.702
 9265SOL     OW28693   4.017   1.866   6.873
 9265SOL    HW128694   4.110   1.885   6.904
 9265SOL    HW228695   3.982   1.945   6.823
 9266SOL     OW28696   0.676   4.491   1.613
 9266SOL    HW128697   0.686   4.479   1.712
 9266SOL    HW228698   0.583   4.467   1.586
 9267SOL     OW28699   0.928   1.135   3.749
 9267SOL    HW128700   0.946   1.229   3.779
 9267SOL    HW228701   0.829   1.121   3.741
 9268SOL     OW28702   0.620   6.907   1.646
 9268SOL    HW128703   0.708   6.883   1.686
 9268SOL    HW228704   0.554   6.925   1.719
 9269SOL     OW28705   4.884   0.023   0.285
 9269SOL    HW128706   4.893   0.122   0.274
 9269SOL    HW228707   4.820   0.003   0.359
 9270SOL     OW28708   3.572   1.125   6.218
 9270SOL    HW128709   3.519   1.044   6.244
 9270SOL    HW228710   3.515   1.184   6.161
 9271SOL     OW28711   1.096   0.572   6.845
 9271SOL    HW128712   1.037   0.514   6.788
 9271SOL    HW228713   1.150   0.633   6.786
 9272SOL     OW28714   6.424   6.618   6.183
 9272SOL    HW128715   6.374   6.691   6.135
 9272SOL    HW228716   6.504   6.592   6.129
 9273SOL     OW28717   5.530   5.820   4.048
 9273SOL    HW128718   5.495   5.867   4.129
 9273SOL    HW228719   5.488   5.730   4.041
 9274SOL     OW28720   0.764   3.135   0.761
 9274SOL    HW128721   0.771   3.036   0.771
 9274SOL    HW228722   0.668   3.163   0.771
 9275SOL     OW28723   1.069   6.275   1.450
 9275SOL    HW128724   0.978   6.245   1.477
 9275SOL    HW228725   1.108   6.331   1.523
 9276SOL     OW28726   3.290   4.850   0.538
 9276SOL    HW128727   3.211   4.900   0.503
 9276SOL    HW228728   3.304   4.768   0.482
 9277SOL     OW28729   4.586   4.676   2.720
 9277SOL    HW128730   4.554   4.590   2.679
 9277SOL    HW228731   4.673   4.702   2.680
 9278SOL     OW28732   0.254   0.342   4.169
 9278SOL    HW128733   0.178   0.360   4.106
 9278SOL    HW228734   0.341   0.354   4.120
 9279SOL     OW28735   3.493   5.858   1.516
 9279SOL    HW128736   3.465   5.771   1.475
 9279SOL    HW228737   3.421   5.927   1.501
 9280SOL     OW28738   1.326   1.457   2.734
 9280SOL    HW128739   1.365   1.378   2.688
 9280SOL    HW228740   1.285   1.429   2.821
 9281SOL     OW28741   3.786   3.501   6.257
 9281SOL    HW128742   3.696   3.459   6.242
 9281SOL    HW228743   3.825   3.528   6.169
 9282SOL     OW28744   3.377   0.544   4.455
 9282SOL    HW128745   3.387   0.593   4.369
 9282SOL    HW228746   3.394   0.606   4.531
 9283SOL     OW28747   5.589   7.012   6.281
 9283SOL    HW128748   5.656   6.942   6.307
 9283SOL    HW228749   5.559   6.997   6.187
 9284SOL     OW28750   3.425   3.819   5.167
 9284SOL    HW128751   3.347   3.798   5.226
 9284SOL    HW228752   3.406   3.903   5.116
 9285SOL     OW28753   5.977   3.008   2.501
 9285SOL    HW128754   6.001   3.028   2.406
 9285SOL    HW228755   5.954   2.911   2.510
 9286SOL     OW28756   4.845   6.630   0.751
 9286SOL    HW128757   4.892   6.587   0.828
 9286SOL    HW228758   4.907   6.635   0.672
 9287SOL     OW28759   2.687   4.595   5.803
 9287SOL    HW128760   2.708   4.510   5.755
 9287SOL    HW228761   2.650   4.661   5.738
 9288SOL     OW28762   4.279   2.136   4.199
 9288SOL    HW128763   4.258   2.038   4.192
 9288SOL    HW228764   4.370   2.153   4.164
 9289SOL     OW28765   4.557   6.760   5.937
 9289SOL    HW128766   4.563   6.756   5.837
 9289SOL    HW228767   4.649   6.762   5.976
 9290SOL     OW28768   5.495   0.562   4.869
 9290SOL    HW128769   5.520   0.617   4.789
 9290SOL    HW228770   5.399   0.580   4.892
 9291SOL     OW28771   1.290   6.137   5.081
 9291SOL    HW128772   1.377   6.183   5.064
 9291SOL    HW228773   1.251   6.170   5.166
 9292SOL     OW28774   1.423   1.309   5.860
 9292SOL    HW128775   1.430   1.243   5.785
 9292SOL    HW228776   1.477   1.276   5.937
 9293SOL     OW28777   4.967   2.857   5.700
 9293SOL    HW128778   5.054   2.906   5.701
 9293SOL    HW228779   4.918   2.878   5.615
 9294SOL     OW28780   4.965   0.746   0.426
 9294SOL    HW128781   4.955   0.662   0.480
 9294SOL    HW228782   5.062   0.761   0.404
 9295SOL     OW28783   0.429   0.644   5.235
 9295SOL    HW128784   0.420   0.719   5.301
 9295SOL    HW228785   0.507   0.661   5.175
 9296SOL     OW28786   2.966   3.996   0.920
 9296SOL    HW128787   3.027   4.040   0.985
 9296SOL    HW228788   2.888   3.955   0.968
 9297SOL     OW28789   6.733   6.157   3.335
 9297SOL    HW128790   6.680   6.150   3.420
 9297SOL    HW228791   6.710   6.242   3.289
 9298SOL     OW28792   1.229   6.375   5.962
 9298SOL    HW128793   1.309   6.398   5.906
 9298SOL    HW228794   1.244   6.286   6.006
 9299SOL     OW28795   1.755   2.277   4.168
 9299SOL    HW128796   1.749   2.347   4.097
 9299SOL    HW228797   1.843   2.230   4.161
 9300SOL     OW28798   1.696   6.234   5.213
 9300SOL    HW128799   1.631   6.235   5.289
 9300SOL    HW228800   1.649   6.254   5.128
 9301SOL     OW28801   0.896   4.055   4.564
 9301SOL    HW128802   0.839   4.110   4.625
 9301SOL    HW228803   0.983   4.036   4.609
 9302SOL     OW28804   2.183   3.100   4.850
 9302SOL    HW128805   2.239   3.107   4.932
 9302SOL    HW228806   2.195   3.009   4.810
 9303SOL     OW28807   3.133   3.833   0.006
 9303SOL    HW128808   3.114   3.794   0.097
 9303SOL    HW228809   3.194   3.773   6.982
 9304SOL     OW28810   4.898   4.743   1.135
 9304SOL    HW128811   4.934   4.671   1.194
 9304SOL    HW228812   4.972   4.786   1.085
 9305SOL     OW28813   2.459   1.451   0.804
 9305SOL    HW128814   2.491   1.454   0.709
 9305SOL    HW228815   2.530   1.488   0.863
 9306SOL     OW28816   0.466   4.078   4.807
 9306SOL    HW128817   0.468   4.059   4.709
 9306SOL    HW228818   0.500   3.999   4.858
 9307SOL     OW28819   2.269   3.340   0.824
 9307SOL    HW128820   2.319   3.350   0.739
 9307SOL    HW228821   2.222   3.251   0.824
 9308SOL     OW28822   1.413   4.267   1.535
 9308SOL    HW128823   1.449   4.278   1.442
 9308SOL    HW228824   1.323   4.224   1.531
 9309SOL     OW28825   5.095   5.886   5.617
 9309SOL    HW128826   5.183   5.857   5.656
 9309SOL    HW228827   5.022   5.827   5.653
 9310SOL     OW28828   4.057   5.793   5.635
 9310SOL    HW128829   4.007   5.786   5.549
 9310SOL    HW228830   4.155   5.788   5.617
 9311SOL     OW28831   4.429   3.549   1.465
 9311SOL    HW128832   4.356   3.482   1.455
 9311SOL    HW228833   4.427   3.613   1.388
 9312SOL     OW28834   1.324   1.907   1.020
 9312SOL    HW128835   1.396   1.975   1.034
 9312SOL    HW228836   1.252   1.921   1.087
 9313SOL     OW28837   1.366   0.646   1.901
 9313SOL    HW128838   1.361   0.608   1.809
 9313SOL    HW228839   1.310   0.591   1.964
 9314SOL     OW28840   4.932   2.557   0.878
 9314SOL    HW128841   4.966   2.651   0.879
 9314SOL    HW228842   5.001   2.498   0.835
 9315SOL     OW28843   5.710   1.271   6.787
 9315SOL    HW128844   5.739   1.185   6.744
 9315SOL    HW228845   5.734   1.270   6.884
 9316SOL     OW28846   5.509   0.413   5.481
 9316SOL    HW128847   5.585   0.369   5.529
 9316SOL    HW228848   5.521   0.512   5.483
 9317SOL     OW28849   2.926   5.437   3.770
 9317SOL    HW128850   2.914   5.465   3.675
 9317SOL    HW228851   3.023   5.441   3.795
 9318SOL     OW28852   5.438   5.817   0.495
 9318SOL    HW128853   5.494   5.744   0.457
 9318SOL    HW228854   5.355   5.828   0.441
 9319SOL     OW28855   2.733   4.216   1.292
 9319SOL    HW128856   2.695   4.199   1.201
 9319SOL    HW228857   2.805   4.149   1.311
 9320SOL     OW28858   5.725   0.312   5.983
 9320SOL    HW128859   5.758   0.386   6.043
 9320SOL    HW228860   5.630   0.329   5.959
 9321SOL     OW28861   0.135   3.159   5.461
 9321SOL    HW128862   0.145   3.140   5.558
 9321SOL    HW228863   0.188   3.093   5.408
 9322SOL     OW28864   5.842   4.057   5.553
 9322SOL    HW128865   5.826   4.146   5.511
 9322SOL    HW228866   5.780   3.989   5.513
 9323SOL     OW28867   1.563   3.790   3.591
 9323SOL    HW128868   1.492   3.722   3.607
 9323SOL    HW228869   1.525   3.882   3.599
 9324SOL     OW28870   0.803   4.199   0.689
 9324SOL    HW128871   0.881   4.221   0.747
 9324SOL    HW228872   0.834   4.188   0.594
 9325SOL     OW28873   1.997   5.408   2.120
 9325SOL    HW128874   2.055   5.445   2.048
 9325SOL    HW228875   2.002   5.308   2.120
 9326SOL     OW28876   3.892   4.026   0.347
 9326SOL    HW128877   3.972   4.034   0.405
 9326SOL    HW228878   3.902   4.085   0.267
 9327SOL     OW28879   4.712   0.544   3.257
 9327SOL    HW128880   4.637   0.480   3.240
 9327SOL    HW228881   4.727   0.601   3.177
 9328SOL     OW28882   3.177   6.830   4.642
 9328SOL    HW128883   3.094   6.779   4.616
 9328SOL    HW228884   3.152   6.925   4.662
 9329SOL     OW28885   6.987   6.104   5.999
 9329SOL    HW128886   0.017   6.041   5.945
 9329SOL    HW228887   0.006   6.122   6.087
 9330SOL     OW28888   6.811   6.985   6.668
 9330SOL    HW128889   6.783   6.891   6.688
 9330SOL    HW228890   6.869   6.985   6.586
 9331SOL     OW28891   1.137   3.253   5.095
 9331SOL    HW128892   1.045   3.260   5.057
 9331SOL    HW228893   1.182   3.343   5.089
 9332SOL     OW28894   3.983   5.940   0.837
 9332SOL    HW128895   4.000   5.982   0.748
 9332SOL    HW228896   4.060   5.882   0.862
 9333SOL     OW28897   3.768   5.043   0.453
 9333SOL    HW128898   3.745   5.058   0.549
 9333SOL    HW228899   3.859   5.081   0.435
 9334SOL     OW28900   4.958   6.312   4.771
 9334SOL    HW128901   4.876   6.339   4.822
 9334SOL    HW228902   4.938   6.231   4.716
 9335SOL     OW28903   2.087   1.984   1.309
 9335SOL    HW128904   2.061   2.048   1.236
 9335SOL    HW228905   2.148   1.914   1.273
 9336SOL     OW28906   6.327   0.945   5.134
 9336SOL    HW128907   6.264   0.927   5.058
 9336SOL    HW228908   6.278   0.934   5.220
 9337SOL     OW28909   4.548   6.845   6.591
 9337SOL    HW128910   4.628   6.890   6.552
 9337SOL    HW228911   4.561   6.746   6.586
 9338SOL     OW28912   0.221   6.142   0.211
 9338SOL    HW128913   0.185   6.052   0.234
 9338SOL    HW228914   0.216   6.202   0.291
 9339SOL     OW28915   5.689   4.883   6.609
 9339SOL    HW128916   5.745   4.900   6.690
 9339SOL    HW228917   5.720   4.942   6.534
 9340SOL     OW28918   3.569   6.284   2.388
 9340SOL    HW128919   3.518   6.369   2.398
 9340SOL    HW228920   3.532   6.231   2.311
 9341SOL     OW28921   5.711   4.227   6.621
 9341SOL    HW128922   5.763   4.142   6.612
 9341SOL    HW228923   5.685   4.239   6.717
 9342SOL     OW28924   2.758   0.487   4.481
 9342SOL    HW128925   2.659   0.498   4.476
 9342SOL    HW228926   2.779   0.393   4.508
 9343SOL     OW28927   4.775   4.319   1.877
 9343SOL    HW128928   4.682   4.307   1.910
 9343SOL    HW228929   4.839   4.313   1.953
 9344SOL     OW28930   5.319   4.921   6.117
 9344SOL    HW128931   5.332   4.827   6.150
 9344SOL    HW228932   5.224   4.948   6.129
 9345SOL     OW28933   6.818   6.131   0.255
 9345SOL    HW128934   6.727   6.172   0.254
 9345SOL    HW228935   6.838   6.092   0.165
 9346SOL     OW28936   5.285   6.517   2.485
 9346SOL    HW128937   5.382   6.539   2.492
 9346SOL    HW228938   5.241   6.535   2.573
 9347SOL     OW28939   3.731   5.789   1.429
 9347SOL    HW128940   3.636   5.821   1.434
 9347SOL    HW228941   3.741   5.708   1.486
 9348SOL     OW28942   2.380   6.328   3.100
 9348SOL    HW128943   2.342   6.409   3.146
 9348SOL    HW228944   2.397   6.350   3.004
 9349SOL     OW28945   6.445   5.780   2.566
 9349SOL    HW128946   6.366   5.776   2.627
 9349SOL    HW228947   6.515   5.840   2.606
 9350SOL     OW28948   6.648   1.343   4.713
 9350SOL    HW128949   6.705   1.370   4.790
 9350SOL    HW228950   6.705   1.306   4.640
 9351SOL     OW28951   2.106   0.977   5.754
 9351SOL    HW128952   2.194   1.023   5.746
 9351SOL    HW228953   2.088   0.923   5.672
 9352SOL     OW28954   1.678   2.432   5.448
 9352SOL    HW128955   1.688   2.360   5.517
 9352SOL    HW228956   1.596   2.486   5.468
 9353SOL     OW28957   1.716   4.278   1.868
 9353SOL    HW128958   1.773   4.229   1.934
 9353SOL    HW228959   1.633   4.224   1.849
 9354SOL     OW28960   6.478   1.715   1.137
 9354SOL    HW128961   6.540   1.786   1.169
 9354SOL    HW228962   6.488   1.634   1.195
 9355SOL     OW28963   6.568   0.999   4.501
 9355SOL    HW128964   6.580   0.946   4.416
 9355SOL    HW228965   6.489   1.059   4.492
 9356SOL     OW28966   4.315   4.989   2.340
 9356SOL    HW128967   4.276   4.897   2.335
 9356SOL    HW228968   4.307   5.024   2.433
 9357SOL     OW28969   2.492   3.415   0.298
 9357SOL    HW128970   2.520   3.342   0.235
 9357SOL    HW228971   2.429   3.477   0.252
 9358SOL     OW28972   5.639   3.999   1.857
 9358SOL    HW128973   5.682   3.942   1.927
 9358SOL    HW228974   5.708   4.058   1.815
 9359SOL     OW28975   0.005   3.892   6.327
 9359SOL    HW128976   0.011   3.910   6.425
 9359SOL    HW228977   6.978   3.964   6.283
 9360SOL     OW28978   1.813   0.146   5.326
 9360SOL    HW128979   1.788   0.066   5.381
 9360SOL    HW228980   1.903   0.179   5.356
 9361SOL     OW28981   3.080   6.209   2.839
 9361SOL    HW128982   3.141   6.245   2.769
 9361SOL    HW228983   3.050   6.284   2.898
 9362SOL     OW28984   2.359   1.024   1.893
 9362SOL    HW128985   2.274   1.013   1.842
 9362SOL    HW228986   2.422   1.083   1.841
 9363SOL     OW28987   3.402   5.643   1.799
 9363SOL    HW128988   3.339   5.595   1.859
 9363SOL    HW228989   3.382   5.741   1.801
 9364SOL     OW28990   4.516   2.708   6.520
 9364SOL    HW128991   4.452   2.650   6.468
 9364SOL    HW228992   4.588   2.741   6.459
 9365SOL     OW28993   2.680   2.407   5.257
 9365SOL    HW128994   2.622   2.488   5.247
 9365SOL    HW228995   2.768   2.434   5.296
 9366SOL     OW28996   3.194   1.783   0.077
 9366SOL    HW128997   3.275   1.822   0.034
 9366SOL    HW228998   3.203   1.787   0.176
 9367SOL     OW28999   0.353   5.247   4.476
 9367SOL    HW129000   0.313   5.262   4.566
 9367SOL    HW229001   0.445   5.287   4.473
 9368SOL     OW29002   3.592   1.868   2.263
 9368SOL    HW129003   3.677   1.831   2.300
 9368SOL    HW229004   3.535   1.792   2.231
 9369SOL     OW29005   6.761   1.758   6.102
 9369SOL    HW129006   6.834   1.777   6.167
 9369SOL    HW229007   6.716   1.672   6.125
 9370SOL     OW29008   5.337   1.199   3.085
 9370SOL    HW129009   5.344   1.270   3.014
 9370SOL    HW229010   5.428   1.164   3.106
 9371SOL     OW29011   1.575   5.533   0.054
 9371SOL    HW129012   1.516   5.506   7.003
 9371SOL    HW229013   1.588   5.455   0.114
 9372SOL     OW29014   5.625   6.604   3.116
 9372SOL    HW129015   5.678   6.555   3.047
 9372SOL    HW229016   5.665   6.694   3.131
 9373SOL     OW29017   4.419   1.904   2.840
 9373SOL    HW129018   4.433   2.002   2.824
 9373SOL    HW229019   4.492   1.869   2.899
 9374SOL     OW29020   5.751   2.600   0.398
 9374SOL    HW129021   5.751   2.664   0.321
 9374SOL    HW229022   5.844   2.567   0.413
 9375SOL     OW29023   6.821   1.263   3.183
 9375SOL    HW129024   6.749   1.240   3.249
 9375SOL    HW229025   6.805   1.355   3.148
 9376SOL     OW29026   2.977   3.684   0.420
 9376SOL    HW129027   3.015   3.760   0.473
 9376SOL    HW229028   2.892   3.654   0.463
 9377SOL     OW29029   6.931   5.355   3.452
 9377SOL    HW129030   6.858   5.323   3.392
 9377SOL    HW229031   7.019   5.329   3.414
 9378SOL     OW29032   2.221   0.047   5.702
 9378SOL    HW129033   2.255   7.004   5.638
 9378SOL    HW229034   2.298   0.093   5.745
 9379SOL     OW29035   4.904   4.509   4.823
 9379SOL    HW129036   4.975   4.503   4.893
 9379SOL    HW229037   4.890   4.604   4.796
 9380SOL     OW29038   5.988   6.180   5.337
 9380SOL    HW129039   5.993   6.109   5.406
 9380SOL    HW229040   5.985   6.270   5.381
 9381SOL     OW29041   3.032   3.140   5.507
 9381SOL    HW129042   3.042   3.212   5.438
 9381SOL    HW229043   2.939   3.142   5.544
 9382SOL     OW29044   3.895   1.421   3.194
 9382SOL    HW129045   3.902   1.339   3.138
 9382SOL    HW229046   3.799   1.445   3.207
 9383SOL     OW29047   3.636   5.962   4.825
 9383SOL    HW129048   3.563   5.950   4.893
 9383SOL    HW229049   3.602   5.936   4.735
 9384SOL     OW29050   4.585   6.311   2.192
 9384SOL    HW129051   4.492   6.313   2.227
 9384SOL    HW229052   4.647   6.348   2.261
 9385SOL     OW29053   3.942   1.528   2.499
 9385SOL    HW129054   3.843   1.522   2.486
 9385SOL    HW229055   3.962   1.563   2.590
 9386SOL     OW29056   3.196   5.928   4.296
 9386SOL    HW129057   3.247   5.995   4.351
 9386SOL    HW229058   3.239   5.919   4.206
 9387SOL     OW29059   4.378   0.224   1.005
 9387SOL    HW129060   4.411   0.179   0.921
 9387SOL    HW229061   4.283   0.196   1.022
 9388SOL     OW29062   1.443   5.798   2.975
 9388SOL    HW129063   1.375   5.863   2.942
 9388SOL    HW229064   1.415   5.763   3.065
 9389SOL     OW29065   2.716   0.370   4.823
 9389SOL    HW129066   2.690   0.352   4.918
 9389SOL    HW229067   2.697   0.465   4.802
 9390SOL     OW29068   3.691   5.885   3.277
 9390SOL    HW129069   3.656   5.890   3.184
 9390SOL    HW229070   3.647   5.810   3.326
 9391SOL     OW29071   2.090   0.886   5.496
 9391SOL    HW129072   2.187   0.892   5.473
 9391SOL    HW229073   2.038   0.948   5.438
 9392SOL     OW29074   0.421   6.965   4.482
 9392SOL    HW129075   0.498   6.901   4.485
 9392SOL    HW229076   0.447   0.020   4.430
 9393SOL     OW29077   4.058   1.710   4.379
 9393SOL    HW129078   3.984   1.754   4.430
 9393SOL    HW229079   4.132   1.684   4.442
 9394SOL     OW29080   6.084   2.439   3.385
 9394SOL    HW129081   6.080   2.403   3.478
 9394SOL    HW229082   6.098   2.538   3.388
 9395SOL     OW29083   2.510   2.439   0.480
 9395SOL    HW129084   2.586   2.430   0.544
 9395SOL    HW229085   2.482   2.535   0.474
 9396SOL     OW29086   0.637   6.566   4.931
 9396SOL    HW129087   0.642   6.650   4.876
 9396SOL    HW229088   0.571   6.579   5.004
 9397SOL     OW29089   2.737   0.087   0.079
 9397SOL    HW129090   2.715   0.146   0.157
 9397SOL    HW229091   2.776   0.143   0.005
 9398SOL     OW29092   1.885   0.413   6.446
 9398SOL    HW129093   1.936   0.334   6.412
 9398SOL    HW229094   1.934   0.453   6.524
 9399SOL     OW29095   0.378   2.320   0.091
 9399SOL    HW129096   0.461   2.344   0.142
 9399SOL    HW229097   0.400   2.252   0.021
 9400SOL     OW29098   5.308   3.522   1.778
 9400SOL    HW129099   5.335   3.617   1.795
 9400SOL    HW229100   5.212   3.520   1.747
 9401SOL     OW29101   2.806   6.124   3.541
 9401SOL    HW129102   2.850   6.159   3.623
 9401SOL    HW229103   2.807   6.024   3.542
 9402SOL     OW29104   1.660   4.576   5.815
 9402SOL    HW129105   1.642   4.485   5.851
 9402SOL    HW229106   1.610   4.644   5.871
 9403SOL     OW29107   4.642   1.847   3.039
 9403SOL    HW129108   4.683   1.924   3.089
 9403SOL    HW229109   4.645   1.765   3.096
 9404SOL     OW29110   1.152   4.180   6.337
 9404SOL    HW129111   1.101   4.234   6.270
 9404SOL    HW229112   1.179   4.238   6.414
 9405SOL     OW29113   6.494   6.556   2.247
 9405SOL    HW129114   6.489   6.549   2.148
 9405SOL    HW229115   6.405   6.533   2.287
 9406SOL     OW29116   6.914   1.675   5.894
 9406SOL    HW129117   6.863   1.699   5.977
 9406SOL    HW229118   6.882   1.587   5.859
 9407SOL     OW29119   2.759   6.397   2.637
 9407SOL    HW129120   2.795   6.455   2.710
 9407SOL    HW229121   2.834   6.360   2.583
 9408SOL     OW29122   3.688   1.746   5.716
 9408SOL    HW129123   3.683   1.830   5.770
 9408SOL    HW229124   3.738   1.763   5.631
 9409SOL     OW29125   5.100   4.456   4.992
 9409SOL    HW129126   5.137   4.364   5.007
 9409SOL    HW229127   5.050   4.485   5.073
 9410SOL     OW29128   3.634   5.490   1.789
 9410SOL    HW129129   3.621   5.424   1.864
 9410SOL    HW229130   3.553   5.546   1.780
 9411SOL     OW29131   3.390   4.578   1.133
 9411SOL    HW129132   3.479   4.531   1.140
 9411SOL    HW229133   3.357   4.599   1.225
 9412SOL     OW29134   0.093   3.193   1.671
 9412SOL    HW129135   0.088   3.284   1.630
 9412SOL    HW229136   0.166   3.141   1.626
 9413SOL     OW29137   4.299   5.498   4.813
 9413SOL    HW129138   4.199   5.492   4.805
 9413SOL    HW229139   4.340   5.413   4.780
 9414SOL     OW29140   3.485   1.873   3.554
 9414SOL    HW129141   3.492   1.941   3.628
 9414SOL    HW229142   3.573   1.867   3.507
 9415SOL     OW29143   2.471   6.534   2.586
 9415SOL    HW129144   2.488   6.438   2.566
 9415SOL    HW229145   2.555   6.587   2.570
 9416SOL     OW29146   0.690   1.624   1.996
 9416SOL    HW129147   0.762   1.671   2.047
 9416SOL    HW229148   0.608   1.681   1.994
 9417SOL     OW29149   3.118   0.611   5.709
 9417SOL    HW129150   3.107   0.588   5.806
 9417SOL    HW229151   3.067   0.545   5.653
 9418SOL     OW29152   3.203   6.948   0.537
 9418SOL    HW129153   3.297   6.915   0.537
 9418SOL    HW229154   3.154   6.911   0.458
 9419SOL     OW29155   3.273   6.159   5.534
 9419SOL    HW129156   3.191   6.206   5.565
 9419SOL    HW229157   3.351   6.186   5.591
 9420SOL     OW29158   0.556   1.984   4.666
 9420SOL    HW129159   0.651   1.963   4.687
 9420SOL    HW229160   0.543   1.987   4.567
 9421SOL     OW29161   2.227   6.159   5.143
 9421SOL    HW129162   2.179   6.116   5.220
 9421SOL    HW229163   2.321   6.179   5.170
 9422SOL     OW29164   5.271   0.037   2.708
 9422SOL    HW129165   5.269   0.024   2.807
 9422SOL    HW229166   5.269   6.974   2.663
 9423SOL     OW29167   4.026   0.506   2.977
 9423SOL    HW129168   4.051   0.466   2.889
 9423SOL    HW229169   3.986   0.596   2.963
 9424SOL     OW29170   4.679   0.624   5.079
 9424SOL    HW129171   4.767   0.655   5.042
 9424SOL    HW229172   4.608   0.637   5.010
 9425SOL     OW29173   0.002   3.470   6.624
 9425SOL    HW129174   6.933   3.476   6.596
 9425SOL    HW229175   0.017   3.527   6.705
 9426SOL     OW29176   2.983   1.696   0.234
 9426SOL    HW129177   3.037   1.624   0.276
 9426SOL    HW229178   3.036   1.741   0.162
 9427SOL     OW29179   2.623   4.790   5.213
 9427SOL    HW129180   2.670   4.727   5.151
 9427SOL    HW229181   2.609   4.878   5.167
 9428SOL     OW29182   5.030   0.453   1.662
 9428SOL    HW129183   5.117   0.470   1.708
 9428SOL    HW229184   4.993   0.540   1.629
 9429SOL     OW29185   1.280   4.711   1.559
 9429SOL    HW129186   1.365   4.681   1.601
 9429SOL    HW229187   1.259   4.652   1.481
 9430SOL     OW29188   0.085   6.284   2.246
 9430SOL    HW129189   0.117   6.293   2.151
 9430SOL    HW229190   0.111   6.365   2.298
 9431SOL     OW29191   5.955   4.887   0.759
 9431SOL    HW129192   6.011   4.963   0.794
 9431SOL    HW229193   5.953   4.814   0.827
 9432SOL     OW29194   0.281   0.393   3.386
 9432SOL    HW129195   0.344   0.325   3.348
 9432SOL    HW229196   0.280   0.473   3.326
 9433SOL     OW29197   3.383   5.039   3.773
 9433SOL    HW129198   3.362   4.982   3.853
 9433SOL    HW229199   3.300   5.086   3.743
 9434SOL     OW29200   5.792   4.490   3.551
 9434SOL    HW129201   5.776   4.477   3.648
 9434SOL    HW229202   5.716   4.540   3.510
 9435SOL     OW29203   1.036   1.622   3.716
 9435SOL    HW129204   1.091   1.562   3.658
 9435SOL    HW229205   0.983   1.685   3.659
 9436SOL     OW29206   0.917   4.593   1.779
 9436SOL    HW129207   0.927   4.655   1.701
 9436SOL    HW229208   0.886   4.644   1.859
 9437SOL     OW29209   1.157   6.480   3.710
 9437SOL    HW129210   1.109   6.400   3.674
 9437SOL    HW229211   1.149   6.556   3.645
 9438SOL     OW29212   1.388   6.357   1.571
 9438SOL    HW129213   1.315   6.424   1.560
 9438SOL    HW229214   1.353   6.266   1.551
 9439SOL     OW29215   0.491   3.225   1.831
 9439SOL    HW129216   0.561   3.288   1.864
 9439SOL    HW229217   0.515   3.191   1.740
 9440SOL     OW29218   4.769   6.076   4.070
 9440SOL    HW129219   4.681   6.032   4.049
 9440SOL    HW229220   4.815   6.101   3.984
 9441SOL     OW29221   1.556   5.231   5.139
 9441SOL    HW129222   1.613   5.198   5.064
 9441SOL    HW229223   1.467   5.261   5.103
 9442SOL     OW29224   6.283   2.654   0.269
 9442SOL    HW129225   6.309   2.561   0.244
 9442SOL    HW229226   6.340   2.686   0.345
 9443SOL     OW29227   2.154   4.994   1.012
 9443SOL    HW129228   2.201   4.933   0.948
 9443SOL    HW229229   2.208   5.001   1.096
 9444SOL     OW29230   0.779   4.247   6.249
 9444SOL    HW129231   0.800   4.215   6.341
 9444SOL    HW229232   0.852   4.219   6.186
 9445SOL     OW29233   5.284   3.426   2.205
 9445SOL    HW129234   5.348   3.386   2.139
 9445SOL    HW229235   5.224   3.491   2.159
 9446SOL     OW29236   6.511   6.585   3.496
 9446SOL    HW129237   6.446   6.649   3.455
 9446SOL    HW229238   6.604   6.609   3.466
 9447SOL     OW29239   5.846   3.474   3.541
 9447SOL    HW129240   5.837   3.500   3.445
 9447SOL    HW229241   5.943   3.460   3.562
 9448SOL     OW29242   5.707   6.349   6.025
 9448SOL    HW129243   5.611   6.341   5.999
 9448SOL    HW229244   5.727   6.445   6.045
 9449SOL     OW29245   6.944   5.994   6.446
 9449SOL    HW129246   6.939   5.897   6.420
 9449SOL    HW229247   6.998   6.003   6.530
 9450SOL     OW29248   3.381   5.011   4.926
 9450SOL    HW129249   3.455   4.996   4.861
 9450SOL    HW229250   3.313   4.938   4.917
 9451SOL     OW29251   4.311   5.773   6.252
 9451SOL    HW129252   4.403   5.760   6.290
 9451SOL    HW229253   4.304   5.863   6.210
 9452SOL     OW29254   1.329   2.920   0.864
 9452SOL    HW129255   1.359   2.832   0.827
 9452SOL    HW229256   1.296   2.907   0.958
 9453SOL     OW29257   2.159   4.565   3.283
 9453SOL    HW129258   2.214   4.610   3.354
 9453SOL    HW229259   2.201   4.477   3.260
 9454SOL     OW29260   1.665   3.521   6.072
 9454SOL    HW129261   1.651   3.572   5.987
 9454SOL    HW229262   1.683   3.425   6.050
 9455SOL     OW29263   3.659   1.531   2.529
 9455SOL    HW129264   3.636   1.595   2.603
 9455SOL    HW229265   3.595   1.454   2.530
 9456SOL     OW29266   6.983   4.462   6.885
 9456SOL    HW129267   6.979   4.544   6.828
 9456SOL    HW229268   6.891   4.428   6.903
 9457SOL     OW29269   1.931   3.588   6.110
 9457SOL    HW129270   1.970   3.515   6.053
 9457SOL    HW229271   1.832   3.593   6.094
 9458SOL     OW29272   0.993   3.673   6.395
 9458SOL    HW129273   1.041   3.758   6.370
 9458SOL    HW229274   0.917   3.658   6.332
 9459SOL     OW29275   6.179   4.608   2.481
 9459SOL    HW129276   6.156   4.551   2.402
 9459SOL    HW229277   6.171   4.553   2.564
 9460SOL     OW29278   0.252   1.603   4.494
 9460SOL    HW129279   0.279   1.529   4.432
 9460SOL    HW229280   0.278   1.579   4.587
 9461SOL     OW29281   6.716   1.710   3.623
 9461SOL    HW129282   6.790   1.677   3.564
 9461SOL    HW229283   6.642   1.746   3.566
 9462SOL     OW29284   2.254   4.084   2.844
 9462SOL    HW129285   2.306   4.170   2.846
 9462SOL    HW229286   2.214   4.072   2.753
 9463SOL     OW29287   0.341   1.068   1.435
 9463SOL    HW129288   0.309   0.992   1.378
 9463SOL    HW229289   0.440   1.060   1.449
 9464SOL     OW29290   5.462   6.577   0.420
 9464SOL    HW129291   5.364   6.594   0.406
 9464SOL    HW229292   5.515   6.652   0.380
 9465SOL     OW29293   0.002   6.927   3.136
 9465SOL    HW129294   0.084   6.930   3.079
 9465SOL    HW229295   0.007   6.999   3.205
 9466SOL     OW29296   3.830   3.674   5.177
 9466SOL    HW129297   3.851   3.577   5.193
 9466SOL    HW229298   3.908   3.718   5.134
 9467SOL     OW29299   0.791   2.867   1.669
 9467SOL    HW129300   0.710   2.812   1.687
 9467SOL    HW229301   0.833   2.838   1.583
 9468SOL     OW29302   5.511   2.360   6.221
 9468SOL    HW129303   5.557   2.434   6.271
 9468SOL    HW229304   5.508   2.383   6.124
 9469SOL     OW29305   5.884   5.687   1.709
 9469SOL    HW129306   5.889   5.613   1.777
 9469SOL    HW229307   5.953   5.671   1.638
 9470SOL     OW29308   5.763   2.826   6.079
 9470SOL    HW129309   5.800   2.822   5.986
 9470SOL    HW229310   5.837   2.842   6.143
 9471SOL     OW29311   6.162   2.294   4.945
 9471SOL    HW129312   6.129   2.348   5.022
 9471SOL    HW229313   6.154   2.347   4.861
 9472SOL     OW29314   0.009   3.889   4.374
 9472SOL    HW129315   0.095   3.929   4.345
 9472SOL    HW229316   6.982   3.862   4.294
 9473SOL     OW29317   3.516   6.039   5.968
 9473SOL    HW129318   3.578   5.960   5.969
 9473SOL    HW229319   3.501   6.071   6.061
 9474SOL     OW29320   6.498   3.642   0.947
 9474SOL    HW129321   6.520   3.549   0.917
 9474SOL    HW229322   6.445   3.639   1.032
 9475SOL     OW29323   2.966   2.994   0.528
 9475SOL    HW129324   2.990   3.021   0.435
 9475SOL    HW229325   2.970   2.895   0.536
 9476SOL     OW29326   3.740   3.711   4.920
 9476SOL    HW129327   3.642   3.697   4.910
 9476SOL    HW229328   3.762   3.728   5.016
 9477SOL     OW29329   0.065   3.374   2.167
 9477SOL    HW129330   0.137   3.410   2.108
 9477SOL    HW229331   0.101   3.299   2.222
 9478SOL     OW29332   6.125   3.510   6.193
 9478SOL    HW129333   6.137   3.516   6.094
 9478SOL    HW229334   6.109   3.415   6.219
 9479SOL     OW29335   5.925   6.369   6.364
 9479SOL    HW129336   5.944   6.465   6.386
 9479SOL    HW229337   6.000   6.332   6.310
 9480SOL     OW29338   4.433   4.788   6.882
 9480SOL    HW129339   4.514   4.830   6.840
 9480SOL    HW229340   4.356   4.794   6.818
 9481SOL     OW29341   5.931   3.839   1.444
 9481SOL    HW129342   5.994   3.852   1.520
 9481SOL    HW229343   5.840   3.872   1.470
 9482SOL     OW29344   6.308   1.562   3.217
 9482SOL    HW129345   6.366   1.481   3.220
 9482SOL    HW229346   6.268   1.578   3.308
 9483SOL     OW29347   1.582   1.723   0.770
 9483SOL    HW129348   1.648   1.740   0.697
 9483SOL    HW229349   1.600   1.785   0.846
 9484SOL     OW29350   4.556   1.358   3.734
 9484SOL    HW129351   4.513   1.286   3.679
 9484SOL    HW229352   4.570   1.438   3.677
 9485SOL     OW29353   0.886   0.002   2.099
 9485SOL    HW129354   0.830   6.974   2.161
 9485SOL    HW229355   0.828   0.042   2.028
 9486SOL     OW29356   2.016   4.986   1.401
 9486SOL    HW129357   2.080   4.914   1.374
 9486SOL    HW229358   2.017   4.995   1.501
 9487SOL     OW29359   2.979   3.307   3.279
 9487SOL    HW129360   2.916   3.333   3.206
 9487SOL    HW229361   2.984   3.380   3.347
 9488SOL     OW29362   2.718   6.276   1.180
 9488SOL    HW129363   2.785   6.224   1.234
 9488SOL    HW229364   2.745   6.372   1.177
 9489SOL     OW29365   3.439   3.977   1.563
 9489SOL    HW129366   3.387   3.901   1.601
 9489SOL    HW229367   3.413   4.062   1.609
 9490SOL     OW29368   6.246   6.153   0.151
 9490SOL    HW129369   6.186   6.099   0.091
 9490SOL    HW229370   6.302   6.214   0.095
 9491SOL     OW29371   0.133   4.721   3.825
 9491SOL    HW129372   0.039   4.718   3.789
 9491SOL    HW229373   0.195   4.679   3.758
 9492SOL     OW29374   3.393   3.735   2.723
 9492SOL    HW129375   3.367   3.810   2.662
 9492SOL    HW229376   3.362   3.755   2.816
 9493SOL     OW29377   3.828   5.199   3.929
 9493SOL    HW129378   3.924   5.195   3.904
 9493SOL    HW229379   3.784   5.111   3.908
 9494SOL     OW29380   3.786   4.277   1.019
 9494SOL    HW129381   3.874   4.300   0.977
 9494SOL    HW229382   3.800   4.206   1.088
 9495SOL     OW29383   6.174   2.542   4.265
 9495SOL    HW129384   6.251   2.568   4.323
 9495SOL    HW229385   6.090   2.539   4.320
 9496SOL     OW29386   5.121   4.836   0.988
 9496SOL    HW129387   5.096   4.933   0.984
 9496SOL    HW229388   5.162   4.809   0.901
 9497SOL     OW29389   5.397   4.592   0.347
 9497SOL    HW129390   5.362   4.683   0.366
 9497SOL    HW229391   5.492   4.598   0.316
 9498SOL     OW29392   5.833   0.543   6.286
 9498SOL    HW129393   5.797   0.579   6.200
 9498SOL    HW229394   5.844   0.618   6.352
 9499SOL     OW29395   2.332   3.247   5.836
 9499SOL    HW129396   2.308   3.306   5.914
 9499SOL    HW229397   2.403   3.291   5.782
 9500SOL     OW29398   3.595   6.982   1.740
 9500SOL    HW129399   3.691   6.955   1.744
 9500SOL    HW229400   3.548   6.947   1.821
 9501SOL     OW29401   2.769   1.415   4.428
 9501SOL    HW129402   2.742   1.356   4.352
 9501SOL    HW229403   2.769   1.510   4.399
 9502SOL     OW29404   0.415   1.903   4.885
 9502SOL    HW129405   0.460   1.924   4.799
 9502SOL    HW229406   0.414   1.985   4.943
 9503SOL     OW29407   0.712   1.395   1.376
 9503SOL    HW129408   0.804   1.356   1.383
 9503SOL    HW229409   0.702   1.440   1.287
 9504SOL     OW29410   0.525   2.279   1.074
 9504SOL    HW129411   0.491   2.373   1.068
 9504SOL    HW229412   0.583   2.270   1.155
 9505SOL     OW29413   5.516   3.998   3.395
 9505SOL    HW129414   5.525   4.098   3.390
 9505SOL    HW229415   5.538   3.958   3.306
 9506SOL     OW29416   0.360   3.158   6.570
 9506SOL    HW129417   0.418   3.236   6.552
 9506SOL    HW229418   0.266   3.179   6.544
 9507SOL     OW29419   1.969   1.288   3.923
 9507SOL    HW129420   2.051   1.235   3.902
 9507SOL    HW229421   1.995   1.380   3.951
 9508SOL     OW29422   6.369   2.675   0.571
 9508SOL    HW129423   6.367   2.677   0.671
 9508SOL    HW229424   6.378   2.580   0.541
 9509SOL     OW29425   1.206   6.730   5.399
 9509SOL    HW129426   1.300   6.702   5.378
 9509SOL    HW229427   1.148   6.649   5.403
 9510SOL     OW29428   0.661   4.027   1.676
 9510SOL    HW129429   0.583   4.085   1.655
 9510SOL    HW229430   0.680   3.966   1.599
 9511SOL     OW29431   1.154   1.521   6.768
 9511SOL    HW129432   1.253   1.508   6.775
 9511SOL    HW229433   1.110   1.434   6.745
 9512SOL     OW29434   5.850   2.094   3.049
 9512SOL    HW129435   5.907   2.136   3.120
 9512SOL    HW229436   5.772   2.154   3.031
 9513SOL     OW29437   1.266   3.141   5.304
 9513SOL    HW129438   1.203   3.176   5.234
 9513SOL    HW229439   1.350   3.108   5.259
 9514SOL     OW29440   1.273   3.547   6.721
 9514SOL    HW129441   1.219   3.520   6.801
 9514SOL    HW229442   1.348   3.606   6.750
 9515SOL     OW29443   1.557   6.005   0.458
 9515SOL    HW129444   1.540   6.026   0.554
 9515SOL    HW229445   1.655   5.998   0.443
 9516SOL     OW29446   4.932   3.583   4.643
 9516SOL    HW129447   5.004   3.650   4.663
 9516SOL    HW229448   4.914   3.528   4.725
 9517SOL     OW29449   1.298   5.124   0.111
 9517SOL    HW129450   1.265   5.057   0.177
 9517SOL    HW229451   1.380   5.089   0.066
 9518SOL     OW29452   0.835   1.986   7.013
 9518SOL    HW129453   0.793   1.963   6.924
 9518SOL    HW229454   0.851   1.902   0.038
 9519SOL     OW29455   3.708   3.355   3.457
 9519SOL    HW129456   3.805   3.380   3.447
 9519SOL    HW229457   3.654   3.438   3.470
 9520SOL     OW29458   6.733   1.627   3.272
 9520SOL    HW129459   6.700   1.721   3.273
 9520SOL    HW229460   6.693   1.578   3.194
 9521SOL     OW29461   3.576   3.679   1.526
 9521SOL    HW129462   3.623   3.730   1.598
 9521SOL    HW229463   3.561   3.585   1.556
 9522SOL     OW29464   3.960   5.726   2.956
 9522SOL    HW129465   4.021   5.706   3.033
 9522SOL    HW229466   3.865   5.717   2.985
 9523SOL     OW29467   2.472   5.116   4.856
 9523SOL    HW129468   2.411   5.099   4.933
 9523SOL    HW229469   2.558   5.154   4.889
 9524SOL     OW29470   1.563   2.534   0.943
 9524SOL    HW129471   1.539   2.558   1.037
 9524SOL    HW229472   1.505   2.459   0.912
 9525SOL     OW29473   1.198   2.100   5.004
 9525SOL    HW129474   1.165   2.117   4.911
 9525SOL    HW229475   1.273   2.163   5.025
 9526SOL     OW29476   6.065   4.627   1.803
 9526SOL    HW129477   6.043   4.612   1.707
 9526SOL    HW229478   6.046   4.723   1.827
 9527SOL     OW29479   2.488   0.480   5.071
 9527SOL    HW129480   2.420   0.528   5.127
 9527SOL    HW229481   2.548   0.548   5.028
 9528SOL     OW29482   5.952   1.487   1.280
 9528SOL    HW129483   6.019   1.553   1.314
 9528SOL    HW229484   5.985   1.447   1.194
 9529SOL     OW29485   5.570   3.917   0.310
 9529SOL    HW129486   5.590   4.000   0.362
 9529SOL    HW229487   5.471   3.905   0.303
 9530SOL     OW29488   0.825   4.827   4.168
 9530SOL    HW129489   0.876   4.742   4.175
 9530SOL    HW229490   0.785   4.836   4.077
 9531SOL     OW29491   4.647   4.280   2.846
 9531SOL    HW129492   4.677   4.196   2.800
 9531SOL    HW229493   4.700   4.357   2.812
 9532SOL     OW29494   0.332   5.330   1.073
 9532SOL    HW129495   0.407   5.386   1.039
 9532SOL    HW229496   0.276   5.384   1.136
 9533SOL     OW29497   0.880   5.169   3.648
 9533SOL    HW129498   0.826   5.152   3.731
 9533SOL    HW229499   0.832   5.236   3.591
 9534SOL     OW29500   5.891   4.380   5.010
 9534SOL    HW129501   5.855   4.317   4.941
 9534SOL    HW229502   5.949   4.448   4.966
 9535SOL     OW29503   1.930   1.122   6.254
 9535SOL    HW129504   1.943   1.082   6.163
 9535SOL    HW229505   1.930   1.221   6.247
 9536SOL     OW29506   3.191   3.704   5.718
 9536SOL    HW129507   3.148   3.790   5.691
 9536SOL    HW229508   3.209   3.648   5.637
 9537SOL     OW29509   2.997   1.102   4.886
 9537SOL    HW129510   2.964   1.138   4.974
 9537SOL    HW229511   3.052   1.172   4.840
 9538SOL     OW29512   4.785   0.625   4.400
 9538SOL    HW129513   4.785   0.605   4.498
 9538SOL    HW229514   4.696   0.602   4.361
 9539SOL     OW29515   3.059   3.662   4.582
 9539SOL    HW129516   3.004   3.658   4.499
 9539SOL    HW229517   3.099   3.754   4.591
 9540SOL     OW29518   5.670   5.060   4.317
 9540SOL    HW129519   5.684   5.018   4.227
 9540SOL    HW229520   5.647   4.990   4.384
 9541SOL     OW29521   2.377   0.920   6.243
 9541SOL    HW129522   2.292   0.871   6.227
 9541SOL    HW229523   2.369   1.014   6.210
 9542SOL     OW29524   5.474   4.961   4.729
 9542SOL    HW129525   5.430   4.986   4.643
 9542SOL    HW229526   5.406   4.921   4.791
 9543SOL     OW29527   3.754   0.663   6.453
 9543SOL    HW129528   3.852   0.653   6.467
 9543SOL    HW229529   3.707   0.655   6.541
 9544SOL     OW29530   5.563   3.198   4.243
 9544SOL    HW129531   5.504   3.272   4.211
 9544SOL    HW229532   5.511   3.137   4.302
 9545SOL     OW29533   5.573   5.190   2.618
 9545SOL    HW129534   5.500   5.155   2.677
 9545SOL    HW229535   5.576   5.138   2.533
 9546SOL     OW29536   4.337   1.040   5.890
 9546SOL    HW129537   4.288   1.123   5.917
 9546SOL    HW229538   4.423   1.035   5.942
 9547SOL     OW29539   2.559   5.241   3.717
 9547SOL    HW129540   2.537   5.172   3.648
 9547SOL    HW229541   2.546   5.201   3.808
 9548SOL     OW29542   6.900   5.341   4.593
 9548SOL    HW129543   6.880   5.434   4.562
 9548SOL    HW229544   6.947   5.345   4.681
 9549SOL     OW29545   2.861   1.173   1.902
 9549SOL    HW129546   2.786   1.112   1.927
 9549SOL    HW229547   2.826   1.264   1.882
 9550SOL     OW29548   6.855   1.212   0.046
 9550SOL    HW129549   6.812   1.183   6.987
 9550SOL    HW229550   6.919   1.286   0.027
 9551SOL     OW29551   5.491   2.696   6.077
 9551SOL    HW129552   5.466   2.784   6.037
 9551SOL    HW229553   5.576   2.706   6.129
 9552SOL     OW29554   2.353   5.878   5.745
 9552SOL    HW129555   2.258   5.845   5.747
 9552SOL    HW229556   2.386   5.876   5.651
 9553SOL     OW29557   5.681   2.337   0.493
 9553SOL    HW129558   5.760   2.274   0.488
 9553SOL    HW229559   5.705   2.424   0.450
 9554SOL     OW29560   1.607   6.471   3.288
 9554SOL    HW129561   1.629   6.568   3.294
 9554SOL    HW229562   1.533   6.450   3.351
 9555SOL     OW29563   0.226   1.003   3.376
 9555SOL    HW129564   0.156   1.044   3.318
 9555SOL    HW229565   0.207   0.905   3.386
 9556SOL     OW29566   1.182   3.721   0.991
 9556SOL    HW129567   1.155   3.793   0.928
 9556SOL    HW229568   1.168   3.751   1.085
 9557SOL     OW29569   5.721   7.025   1.247
 9557SOL    HW129570   5.650   6.956   1.257
 9557SOL    HW229571   5.718   0.061   1.326
 9558SOL     OW29572   5.929   5.919   5.477
 9558SOL    HW129573   5.908   5.830   5.438
 9558SOL    HW229574   5.845   5.963   5.508
 9559SOL     OW29575   0.660   4.922   0.452
 9559SOL    HW129576   0.641   4.983   0.528
 9559SOL    HW229577   0.595   4.846   0.453
 9560SOL     OW29578   2.277   1.030   2.647
 9560SOL    HW129579   2.234   0.952   2.693
 9560SOL    HW229580   2.367   1.002   2.611
 9561SOL     OW29581   0.844   1.028   1.309
 9561SOL    HW129582   0.846   0.960   1.383
 9561SOL    HW229583   0.881   1.114   1.342
 9562SOL     OW29584   2.924   0.163   4.848
 9562SOL    HW129585   2.875   0.078   4.827
 9562SOL    HW229586   2.867   0.241   4.823
 9563SOL     OW29587   7.012   6.970   0.039
 9563SOL    HW129588   6.965   6.950   0.125
 9563SOL    HW229589   0.016   6.884   7.023
 9564SOL     OW29590   2.593   0.826   0.410
 9564SOL    HW129591   2.659   0.816   0.485
 9564SOL    HW229592   2.521   0.890   0.436
 9565SOL     OW29593   3.873   1.072   5.325
 9565SOL    HW129594   3.923   0.993   5.289
 9565SOL    HW229595   3.844   1.053   5.419
 9566SOL     OW29596   3.258   5.997   6.927
 9566SOL    HW129597   3.168   6.010   6.968
 9566SOL    HW229598   3.260   5.907   6.882
 9567SOL     OW29599   4.893   4.818   0.725
 9567SOL    HW129600   4.928   4.836   0.633
 9567SOL    HW229601   4.968   4.820   0.790
 9568SOL     OW29602   4.526   1.980   6.766
 9568SOL    HW129603   4.534   2.049   6.694
 9568SOL    HW229604   4.603   1.990   6.830
 9569SOL     OW29605   6.836   1.871   2.352
 9569SOL    HW129606   6.774   1.810   2.302
 9569SOL    HW229607   6.856   1.832   2.442
 9570SOL     OW29608   0.745   3.339   1.725
 9570SOL    HW129609   0.730   3.433   1.693
 9570SOL    HW229610   0.757   3.279   1.647
 9571SOL     OW29611   3.461   2.887   5.669
 9571SOL    HW129612   3.400   2.951   5.624
 9571SOL    HW229613   3.548   2.932   5.689
 9572SOL     OW29614   1.803   4.866   2.063
 9572SOL    HW129615   1.734   4.830   2.126
 9572SOL    HW229616   1.767   4.862   1.969
 9573SOL     OW29617   0.833   2.299   6.418
 9573SOL    HW129618   0.832   2.281   6.516
 9573SOL    HW229619   0.927   2.294   6.384
 9574SOL     OW29620   3.714   2.934   2.864
 9574SOL    HW129621   3.716   2.985   2.778
 9574SOL    HW229622   3.620   2.915   2.889
 9575SOL     OW29623   0.776   1.224   1.946
 9575SOL    HW129624   0.725   1.170   2.013
 9575SOL    HW229625   0.777   1.176   1.859
 9576SOL     OW29626   2.211   1.899   0.349
 9576SOL    HW129627   2.136   1.834   0.334
 9576SOL    HW229628   2.177   1.977   0.402
 9577SOL     OW29629   0.738   0.484   6.012
 9577SOL    HW129630   0.816   0.517   5.959
 9577SOL    HW229631   0.662   0.465   5.950
 9578SOL     OW29632   1.292   3.759   2.620
 9578SOL    HW129633   1.390   3.755   2.601
 9578SOL    HW229634   1.270   3.846   2.665
 9579SOL     OW29635   0.367   4.964   3.614
 9579SOL    HW129636   0.342   4.884   3.668
 9579SOL    HW229637   0.337   5.047   3.662
 9580SOL     OW29638   4.534   3.613   0.822
 9580SOL    HW129639   4.451   3.592   0.771
 9580SOL    HW229640   4.608   3.553   0.791
 9581SOL     OW29641   0.714   0.088   6.511
 9581SOL    HW129642   0.664   0.025   6.451
 9581SOL    HW229643   0.697   0.182   6.482
 9582SOL     OW29644   4.517   5.095   5.094
 9582SOL    HW129645   4.561   5.183   5.114
 9582SOL    HW229646   4.528   5.074   4.997
 9583SOL     OW29647   3.193   3.834   1.604
 9583SOL    HW129648   3.158   3.860   1.694
 9583SOL    HW229649   3.130   3.768   1.562
 9584SOL     OW29650   6.932   5.177   5.796
 9584SOL    HW129651   6.938   5.275   5.813
 9584SOL    HW229652   6.886   5.161   5.708
 9585SOL     OW29653   6.175   6.647   3.548
 9585SOL    HW129654   6.079   6.625   3.529
 9585SOL    HW229655   6.221   6.672   3.464
 9586SOL     OW29656   5.172   5.038   2.201
 9586SOL    HW129657   5.092   4.979   2.201
 9586SOL    HW229658   5.241   5.000   2.139
 9587SOL     OW29659   1.017   0.158   1.254
 9587SOL    HW129660   0.973   0.079   1.211
 9587SOL    HW229661   1.027   0.142   1.352
 9588SOL     OW29662   6.328   6.817   1.497
 9588SOL    HW129663   6.421   6.842   1.468
 9588SOL    HW229664   6.262   6.855   1.433
 9589SOL     OW29665   1.766   5.080   0.188
 9589SOL    HW129666   1.687   5.138   0.207
 9589SOL    HW229667   1.844   5.136   0.162
 9590SOL     OW29668   5.935   3.329   1.862
 9590SOL    HW129669   5.996   3.251   1.855
 9590SOL    HW229670   5.878   3.320   1.943
 9591SOL     OW29671   3.016   5.254   5.638
 9591SOL    HW129672   2.981   5.180   5.694
 9591SOL    HW229673   2.990   5.239   5.542
 9592SOL     OW29674   2.869   4.369   0.299
 9592SOL    HW129675   2.893   4.272   0.304
 9592SOL    HW229676   2.795   4.382   0.233
 9593SOL     OW29677   0.421   1.173   6.355
 9593SOL    HW129678   0.353   1.101   6.369
 9593SOL    HW229679   0.510   1.141   6.389
 9594SOL     OW29680   1.771   5.014   3.580
 9594SOL    HW129681   1.711   5.094   3.586
 9594SOL    HW229682   1.753   4.953   3.657
 9595SOL     OW29683   0.546   2.853   4.587
 9595SOL    HW129684   0.478   2.781   4.602
 9595SOL    HW229685   0.617   2.820   4.525
 9596SOL     OW29686   0.843   5.210   6.561
 9596SOL    HW129687   0.913   5.139   6.556
 9596SOL    HW229688   0.766   5.186   6.503
 9597SOL     OW29689   6.918   4.405   1.397
 9597SOL    HW129690   7.011   4.440   1.402
 9597SOL    HW229691   6.855   4.471   1.437
 9598SOL     OW29692   1.377   4.952   3.272
 9598SOL    HW129693   1.327   4.877   3.314
 9598SOL    HW229694   1.473   4.947   3.299
 9599SOL     OW29695   2.806   0.724   4.389
 9599SOL    HW129696   2.777   0.631   4.415
 9599SOL    HW229697   2.757   0.791   4.446
 9600SOL     OW29698   3.446   6.675   0.137
 9600SOL    HW129699   3.360   6.632   0.164
 9600SOL    HW229700   3.428   6.766   0.101
 9601SOL     OW29701   4.965   3.976   1.020
 9601SOL    HW129702   4.901   3.961   1.095
 9601SOL    HW229703   5.057   3.947   1.047
 9602SOL     OW29704   5.965   4.074   6.284
 9602SOL    HW129705   5.991   3.977   6.278
 9602SOL    HW229706   6.016   4.118   6.357
 9603SOL     OW29707   4.732   1.461   4.967
 9603SOL    HW129708   4.676   1.449   5.049
 9603SOL    HW229709   4.684   1.518   4.901
 9604SOL     OW29710   4.753   0.443   0.394
 9604SOL    HW129711   4.698   0.368   0.429
 9604SOL    HW229712   4.698   0.527   0.391
 9605SOL     OW29713   0.843   5.805   3.457
 9605SOL    HW129714   0.829   5.772   3.551
 9605SOL    HW229715   0.754   5.814   3.412
 9606SOL     OW29716   1.912   6.149   6.989
 9606SOL    HW129717   1.982   6.078   6.979
 9606SOL    HW229718   1.822   6.108   6.975
 9607SOL     OW29719   1.810   1.595   6.453
 9607SOL    HW129720   1.731   1.534   6.448
 9607SOL    HW229721   1.874   1.560   6.521
 9608SOL     OW29722   6.795   5.347   2.209
 9608SOL    HW129723   6.860   5.420   2.190
 9608SOL    HW229724   6.843   5.259   2.205
 9609SOL     OW29725   1.909   3.779   0.014
 9609SOL    HW129726   1.872   3.756   6.950
 9609SOL    HW229727   1.994   3.727   0.028
 9610SOL     OW29728   1.617   4.770   3.555
 9610SOL    HW129729   1.528   4.747   3.594
 9610SOL    HW229730   1.668   4.685   3.536
 9611SOL     OW29731   1.150   6.311   6.950
 9611SOL    HW129732   1.200   6.333   0.008
 9611SOL    HW229733   1.053   6.302   6.970
 9612SOL     OW29734   0.160   4.145   1.444
 9612SOL    HW129735   0.154   4.113   1.350
 9612SOL    HW229736   0.255   4.141   1.474
 9613SOL     OW29737   5.078   0.294   3.850
 9613SOL    HW129738   5.028   0.381   3.853
 9613SOL    HW229739   5.141   0.289   3.927
 9614SOL     OW29740   3.594   2.548   1.461
 9614SOL    HW129741   3.597   2.581   1.555
 9614SOL    HW229742   3.510   2.495   1.447
 9615SOL     OW29743   2.798   6.852   0.138
 9615SOL    HW129744   2.744   6.832   0.219
 9615SOL    HW229745   2.785   6.948   0.112
 9616SOL     OW29746   3.482   3.638   1.139
 9616SOL    HW129747   3.425   3.666   1.216
 9616SOL    HW229748   3.424   3.624   1.058
 9617SOL     OW29749   1.291   3.726   3.134
 9617SOL    HW129750   1.320   3.782   3.212
 9617SOL    HW229751   1.336   3.758   3.051
 9618SOL     OW29752   4.329   6.664   6.863
 9618SOL    HW129753   4.289   6.726   6.796
 9618SOL    HW229754   4.428   6.665   6.856
 9619SOL     OW29755   1.669   6.681   6.791
 9619SOL    HW129756   1.613   6.748   6.840
 9619SOL    HW229757   1.764   6.685   6.825
 9620SOL     OW29758   4.445   1.282   6.157
 9620SOL    HW129759   4.410   1.262   6.248
 9620SOL    HW229760   4.492   1.201   6.121
 9621SOL     OW29761   0.957   1.480   2.159
 9621SOL    HW129762   0.970   1.463   2.061
 9621SOL    HW229763   0.918   1.399   2.203
 9622SOL     OW29764   6.993   1.058   0.646
 9622SOL    HW129765   6.959   1.128   0.583
 9622SOL    HW229766   7.009   1.099   0.736
 9623SOL     OW29767   2.902   4.076   5.426
 9623SOL    HW129768   2.910   4.152   5.361
 9623SOL    HW229769   2.807   4.048   5.434
 9624SOL     OW29770   6.858   3.948   2.318
 9624SOL    HW129771   6.848   3.851   2.338
 9624SOL    HW229772   6.880   3.997   2.402
 9625SOL     OW29773   5.100   5.408   6.883
 9625SOL    HW129774   5.048   5.456   6.954
 9625SOL    HW229775   5.052   5.325   6.856
 9626SOL     OW29776   3.943   4.401   6.652
 9626SOL    HW129777   3.933   4.447   6.741
 9626SOL    HW229778   3.853   4.392   6.609
 9627SOL     OW29779   0.040   6.135   4.641
 9627SOL    HW129780   0.041   6.155   4.543
 9627SOL    HW229781   0.118   6.180   4.685
 9628SOL     OW29782   4.858   4.836   6.993
 9628SOL    HW129783   4.770   4.852   0.012
 9628SOL    HW229784   4.845   4.782   6.910
 9629SOL     OW29785   0.430   6.925   1.830
 9629SOL    HW129786   0.386   7.004   1.787
 9629SOL    HW229787   0.474   6.954   1.915
 9630SOL     OW29788   6.785   6.888   5.296
 9630SOL    HW129789   6.746   6.914   5.207
 9630SOL    HW229790   6.716   6.840   5.349
 9631SOL     OW29791   7.017   6.642   6.510
 9631SOL    HW129792   0.049   6.699   6.453
 9631SOL    HW229793   0.035   6.626   6.598
 9632SOL     OW29794   0.892   0.116   3.051
 9632SOL    HW129795   0.904   0.017   3.052
 9632SOL    HW229796   0.982   0.160   3.042
 9633SOL     OW29797   5.092   4.637   5.982
 9633SOL    HW129798   5.174   4.629   6.038
 9633SOL    HW229799   5.073   4.733   5.962
 9634SOL     OW29800   1.169   5.525   4.100
 9634SOL    HW129801   1.116   5.598   4.058
 9634SOL    HW229802   1.108   5.452   4.129
 9635SOL     OW29803   1.823   4.495   5.414
 9635SOL    HW129804   1.832   4.449   5.326
 9635SOL    HW229805   1.737   4.466   5.458
 9636SOL     OW29806   4.359   1.715   5.797
 9636SOL    HW129807   4.282   1.758   5.750
 9636SOL    HW229808   4.445   1.751   5.758
 9637SOL     OW29809   2.461   1.624   6.275
 9637SOL    HW129810   2.402   1.613   6.195
 9637SOL    HW229811   2.518   1.542   6.286
 9638SOL     OW29812   6.618   3.642   6.881
 9638SOL    HW129813   6.562   3.675   6.958
 9638SOL    HW229814   6.708   3.684   6.885
 9639SOL     OW29815   3.205   1.650   2.239
 9639SOL    HW129816   3.208   1.725   2.306
 9639SOL    HW229817   3.186   1.564   2.287
 9640SOL     OW29818   2.289   2.914   3.197
 9640SOL    HW129819   2.281   2.823   3.156
 9640SOL    HW229820   2.276   2.984   3.127
 9641SOL     OW29821   4.023   6.350   0.819
 9641SOL    HW129822   4.107   6.298   0.836
 9641SOL    HW229823   3.996   6.398   0.903
 9642SOL     OW29824   3.687   6.738   5.073
 9642SOL    HW129825   3.707   6.780   5.162
 9642SOL    HW229826   3.588   6.733   5.060
 9643SOL     OW29827   5.350   5.078   4.072
 9643SOL    HW129828   5.331   4.981   4.054
 9643SOL    HW229829   5.395   5.118   3.993
 9644SOL     OW29830   1.307   4.269   5.772
 9644SOL    HW129831   1.322   4.254   5.675
 9644SOL    HW229832   1.253   4.352   5.785
 9645SOL     OW29833   3.439   5.280   3.395
 9645SOL    HW129834   3.519   5.240   3.439
 9645SOL    HW229835   3.392   5.340   3.459
 9646SOL     OW29836   2.753   4.731   2.116
 9646SOL    HW129837   2.765   4.672   2.036
 9646SOL    HW229838   2.777   4.681   2.199
 9647SOL     OW29839   5.714   5.405   1.660
 9647SOL    HW129840   5.780   5.343   1.617
 9647SOL    HW229841   5.624   5.361   1.661
 9648SOL     OW29842   3.922   1.449   0.338
 9648SOL    HW129843   3.928   1.495   0.249
 9648SOL    HW229844   3.951   1.353   0.328
 9649SOL     OW29845   2.932   6.626   0.218
 9649SOL    HW129846   2.891   6.708   0.179
 9649SOL    HW229847   2.898   6.612   0.311
 9650SOL     OW29848   5.550   4.985   2.401
 9650SOL    HW129849   5.576   4.983   2.305
 9650SOL    HW229850   5.611   4.926   2.454
 9651SOL     OW29851   6.799   0.745   6.262
 9651SOL    HW129852   6.731   0.735   6.335
 9651SOL    HW229853   6.773   0.820   6.202
 9652SOL     OW29854   2.149   4.867   0.572
 9652SOL    HW129855   2.070   4.814   0.602
 9652SOL    HW229856   2.176   4.840   0.480
 9653SOL     OW29857   4.246   5.702   4.461
 9653SOL    HW129858   4.245   5.667   4.367
 9653SOL    HW229859   4.164   5.670   4.509
 9654SOL     OW29860   3.235   3.031   1.321
 9654SOL    HW129861   3.294   3.107   1.294
 9654SOL    HW229862   3.226   2.968   1.244
 9655SOL     OW29863   0.204   1.590   6.825
 9655SOL    HW129864   0.254   1.661   6.874
 9655SOL    HW229865   0.160   1.631   6.744
 9656SOL     OW29866   2.763   2.079   0.905
 9656SOL    HW129867   2.663   2.087   0.911
 9656SOL    HW229868   2.801   2.073   0.997
 9657SOL     OW29869   6.138   0.530   3.936
 9657SOL    HW129870   6.225   0.580   3.939
 9657SOL    HW229871   6.068   0.587   3.893
 9658SOL     OW29872   6.047   2.243   3.167
 9658SOL    HW129873   6.118   2.234   3.236
 9658SOL    HW229874   6.021   2.339   3.158
 9659SOL     OW29875   6.369   4.446   0.511
 9659SOL    HW129876   6.272   4.428   0.497
 9659SOL    HW229877   6.399   4.517   0.447
 9660SOL     OW29878   0.813   5.831   0.429
 9660SOL    HW129879   0.761   5.747   0.445
 9660SOL    HW229880   0.867   5.822   0.345
 9661SOL     OW29881   3.951   6.391   1.782
 9661SOL    HW129882   4.050   6.384   1.789
 9661SOL    HW229883   3.910   6.389   1.874
 9662SOL     OW29884   6.036   2.428   5.158
 9662SOL    HW129885   6.021   2.503   5.094
 9662SOL    HW229886   5.950   2.403   5.202
 9663SOL     OW29887   0.777   5.710   4.186
 9663SOL    HW129888   0.801   5.622   4.226
 9663SOL    HW229889   0.687   5.739   4.220
 9664SOL     OW29890   6.339   6.729   3.321
 9664SOL    HW129891   6.324   6.825   3.343
 9664SOL    HW229892   6.356   6.719   3.223
 9665SOL     OW29893   5.411   5.457   5.325
 9665SOL    HW129894   5.320   5.418   5.310
 9665SOL    HW229895   5.475   5.384   5.347
 9666SOL     OW29896   5.591   4.323   2.106
 9666SOL    HW129897   5.513   4.265   2.082
 9666SOL    HW229898   5.600   4.327   2.205
 9667SOL     OW29899   3.453   2.879   4.105
 9667SOL    HW129900   3.432   2.883   4.203
 9667SOL    HW229901   3.370   2.895   4.052
 9668SOL     OW29902   6.360   1.009   6.948
 9668SOL    HW129903   6.362   1.005   0.021
 9668SOL    HW229904   6.402   0.926   6.911
 9669SOL     OW29905   0.533   0.486   1.301
 9669SOL    HW129906   0.443   0.491   1.258
 9669SOL    HW229907   0.604   0.498   1.232
 9670SOL     OW29908   5.066   4.999   6.197
 9670SOL    HW129909   5.041   5.095   6.187
 9670SOL    HW229910   4.985   4.945   6.220
 9671SOL     OW29911   0.608   5.210   6.276
 9671SOL    HW129912   0.608   5.121   6.230
 9671SOL    HW229913   0.620   5.283   6.209
 9672SOL     OW29914   1.501   6.556   4.656
 9672SOL    HW129915   1.467   6.534   4.747
 9672SOL    HW229916   1.574   6.624   4.663
 9673SOL     OW29917   5.101   4.235   0.011
 9673SOL    HW129918   5.106   4.333   0.029
 9673SOL    HW229919   5.191   4.202   7.008
 9674SOL     OW29920   2.543   6.226   3.318
 9674SOL    HW129921   2.499   6.227   3.228
 9674SOL    HW229922   2.482   6.270   3.384
 9675SOL     OW29923   5.655   1.766   0.993
 9675SOL    HW129924   5.683   1.786   1.087
 9675SOL    HW229925   5.556   1.774   0.985
 9676SOL     OW29926   1.375   3.171   5.943
 9676SOL    HW129927   1.384   3.202   6.038
 9676SOL    HW229928   1.461   3.129   5.913
 9677SOL     OW29929   2.633   5.114   6.130
 9677SOL    HW129930   2.614   5.196   6.076
 9677SOL    HW229931   2.562   5.102   6.199
 9678SOL     OW29932   3.310   3.983   2.584
 9678SOL    HW129933   3.373   4.033   2.644
 9678SOL    HW229934   3.329   4.008   2.489
 9679SOL     OW29935   1.815   1.520   2.160
 9679SOL    HW129936   1.818   1.540   2.258
 9679SOL    HW229937   1.720   1.517   2.129
 9680SOL     OW29938   6.362   0.396   4.101
 9680SOL    HW129939   6.338   0.487   4.134
 9680SOL    HW229940   6.313   0.377   4.016
 9681SOL     OW29941   2.913   1.030   0.974
 9681SOL    HW129942   2.865   1.022   1.061
 9681SOL    HW229943   2.940   0.939   0.942
 9682SOL     OW29944   4.901   4.944   3.739
 9682SOL    HW129945   4.875   5.030   3.783
 9682SOL    HW229946   4.941   4.962   3.649
 9683SOL     OW29947   3.231   5.122   0.649
 9683SOL    HW129948   3.268   5.037   0.688
 9683SOL    HW229949   3.258   5.128   0.552
 9684SOL     OW29950   0.047   2.599   5.052
 9684SOL    HW129951   0.024   2.515   5.102
 9684SOL    HW229952   0.116   2.578   4.982
 9685SOL     OW29953   2.154   3.077   0.831
 9685SOL    HW129954   2.055   3.094   0.837
 9685SOL    HW229955   2.185   3.032   0.915
 9686SOL     OW29956   5.900   2.003   0.963
 9686SOL    HW129957   5.892   2.102   0.956
 9686SOL    HW229958   5.828   1.960   0.908
 9687SOL     OW29959   2.369   0.799   4.177
 9687SOL    HW129960   2.407   0.883   4.137
 9687SOL    HW229961   2.317   0.750   4.107
 9688SOL     OW29962   6.952   2.405   3.645
 9688SOL    HW129963   6.921   2.358   3.562
 9688SOL    HW229964   6.950   2.504   3.630
 9689SOL     OW29965   1.897   6.255   1.285
 9689SOL    HW129966   1.866   6.175   1.234
 9689SOL    HW229967   1.831   6.276   1.357
 9690SOL     OW29968   5.540   5.599   6.630
 9690SOL    HW129969   5.635   5.600   6.598
 9690SOL    HW229970   5.502   5.691   6.625
 9691SOL     OW29971   2.530   4.393   1.402
 9691SOL    HW129972   2.629   4.383   1.387
 9691SOL    HW229973   2.489   4.303   1.415
 9692SOL     OW29974   2.745   5.117   2.518
 9692SOL    HW129975   2.745   5.217   2.514
 9692SOL    HW229976   2.835   5.083   2.488
 9693SOL     OW29977   6.116   5.210   1.878
 9693SOL    HW129978   6.035   5.151   1.887
 9693SOL    HW229979   6.112   5.258   1.790
 9694SOL     OW29980   2.568   1.282   6.234
 9694SOL    HW129981   2.640   1.228   6.190
 9694SOL    HW229982   2.487   1.224   6.248
 9695SOL     OW29983   6.520   3.994   1.291
 9695SOL    HW129984   6.614   3.976   1.319
 9695SOL    HW229985   6.459   3.988   1.371
 9696SOL     OW29986   5.117   2.215   1.114
 9696SOL    HW129987   5.084   2.310   1.113
 9696SOL    HW229988   5.170   2.200   1.197
 9697SOL     OW29989   6.888   5.322   6.868
 9697SOL    HW129990   6.860   5.372   6.949
 9697SOL    HW229991   6.822   5.249   6.849
 9698SOL     OW29992   5.465   0.849   5.975
 9698SOL    HW129993   5.372   0.814   5.969
 9698SOL    HW229994   5.466   0.946   5.949
 9699SOL     OW29995   0.263   4.653   6.492
 9699SOL    HW129996   0.195   4.585   6.466
 9699SOL    HW229997   0.354   4.623   6.464
 9700SOL     OW29998   4.020   5.498   5.324
 9700SOL    HW129999   4.059   5.525   5.236
 9700SOL    HW230000   4.000   5.580   5.378
 9701SOL     OW30001   3.744   5.228   4.584
 9701SOL    HW130002   3.736   5.210   4.682
 9701SOL    HW230003   3.832   5.195   4.551
 9702SOL     OW30004   5.722   0.263   0.029
 9702SOL    HW130005   5.677   0.197   6.995
 9702SOL    HW230006   5.768   0.215   0.104
 9703SOL     OW30007   3.885   5.811   3.671
 9703SOL    HW130008   3.884   5.880   3.599
 9703SOL    HW230009   3.847   5.726   3.636
 9704SOL     OW30010   2.995   1.339   2.223
 9704SOL    HW130011   2.896   1.345   2.210
 9704SOL    HW230012   3.038   1.312   2.137
 9705SOL     OW30013   5.471   5.581   0.740
 9705SOL    HW130014   5.566   5.553   0.752
 9705SOL    HW230015   5.436   5.620   0.826
 9706SOL     OW30016   0.728   2.533   0.712
 9706SOL    HW130017   0.715   2.540   0.811
 9706SOL    HW230018   0.703   2.619   0.669
 9707SOL     OW30019   6.517   4.362   1.382
 9707SOL    HW130020   6.594   4.334   1.325
 9707SOL    HW230021   6.551   4.404   1.466
 9708SOL     OW30022   1.488   2.380   3.275
 9708SOL    HW130023   1.533   2.294   3.298
 9708SOL    HW230024   1.452   2.375   3.182
 9709SOL     OW30025   6.138   5.326   2.977
 9709SOL    HW130026   6.049   5.312   2.934
 9709SOL    HW230027   6.166   5.421   2.966
 9710SOL     OW30028   0.478   1.693   2.361
 9710SOL    HW130029   0.525   1.726   2.443
 9710SOL    HW230030   0.450   1.770   2.305
 9711SOL     OW30031   1.733   3.225   6.037
 9711SOL    HW130032   1.822   3.190   6.066
 9711SOL    HW230033   1.691   3.162   5.972
 9712SOL     OW30034   5.372   3.983   4.750
 9712SOL    HW130035   5.287   4.036   4.751
 9712SOL    HW230036   5.412   3.983   4.842
 9713SOL     OW30037   0.820   4.805   3.591
 9713SOL    HW130038   0.792   4.714   3.561
 9713SOL    HW230039   0.760   4.873   3.548
 9714SOL     OW30040   1.825   1.293   1.651
 9714SOL    HW130041   1.895   1.263   1.586
 9714SOL    HW230042   1.823   1.392   1.655
 9715SOL     OW30043   6.388   4.998   5.179
 9715SOL    HW130044   6.461   4.998   5.111
 9715SOL    HW230045   6.404   4.925   5.246
 9716SOL     OW30046   4.334   2.632   6.850
 9716SOL    HW130047   4.283   2.548   6.831
 9716SOL    HW230048   4.295   2.708   6.799
 9717SOL     OW30049   6.142   5.284   5.926
 9717SOL    HW130050   6.132   5.341   5.845
 9717SOL    HW230051   6.234   5.247   5.930
 9718SOL     OW30052   4.843   3.037   1.706
 9718SOL    HW130053   4.775   3.051   1.778
 9718SOL    HW230054   4.925   2.995   1.744
 9719SOL     OW30055   0.642   2.247   0.273
 9719SOL    HW130056   0.676   2.156   0.250
 9719SOL    HW230057   0.679   2.275   0.362
 9720SOL     OW30058   0.671   5.766   1.773
 9720SOL    HW130059   0.767   5.792   1.765
 9720SOL    HW230060   0.663   5.689   1.836
 9721SOL     OW30061   0.717   2.634   0.970
 9721SOL    HW130062   0.746   2.716   0.920
 9721SOL    HW230063   0.775   2.623   1.051
 9722SOL     OW30064   0.365   6.923   3.588
 9722SOL    HW130065   0.426   6.853   3.625
 9722SOL    HW230066   0.351   6.994   3.657
 9723SOL     OW30067   1.857   5.953   3.371
 9723SOL    HW130068   1.852   5.963   3.271
 9723SOL    HW230069   1.952   5.931   3.396
 9724SOL     OW30070   2.766   3.136   0.780
 9724SOL    HW130071   2.771   3.147   0.879
 9724SOL    HW230072   2.858   3.132   0.742
 9725SOL     OW30073   3.997   3.707   6.673
 9725SOL    HW130074   4.073   3.669   6.621
 9725SOL    HW230075   3.911   3.673   6.635
 9726SOL     OW30076   4.303   6.639   4.499
 9726SOL    HW130077   4.311   6.684   4.410
 9726SOL    HW230078   4.373   6.568   4.507
 9727SOL     OW30079   1.132   3.521   5.357
 9727SOL    HW130080   1.041   3.524   5.316
 9727SOL    HW230081   1.150   3.608   5.404
 9728SOL     OW30082   0.932   6.684   6.551
 9728SOL    HW130083   0.853   6.743   6.535
 9728SOL    HW230084   0.903   6.588   6.553
 9729SOL     OW30085   0.843   4.370   2.179
 9729SOL    HW130086   0.790   4.439   2.228
 9729SOL    HW230087   0.783   4.294   2.154
 9730SOL     OW30088   0.346   3.639   2.421
 9730SOL    HW130089   0.403   3.617   2.342
 9730SOL    HW230090   0.374   3.583   2.499
 9731SOL     OW30091   4.283   4.449   0.672
 9731SOL    HW130092   4.188   4.435   0.699
 9731SOL    HW230093   4.339   4.374   0.706
 9732SOL     OW30094   5.103   5.836   2.945
 9732SOL    HW130095   5.071   5.810   2.854
 9732SOL    HW230096   5.040   5.802   3.014
 9733SOL     OW30097   5.146   4.865   5.667
 9733SOL    HW130098   5.151   4.926   5.588
 9733SOL    HW230099   5.220   4.887   5.730
 9734SOL     OW30100   5.144   2.052   3.722
 9734SOL    HW130101   5.108   2.037   3.630
 9734SOL    HW230102   5.080   2.013   3.789
 9735SOL     OW30103   1.653   4.450   2.456
 9735SOL    HW130104   1.728   4.494   2.407
 9735SOL    HW230105   1.687   4.411   2.541
 9736SOL     OW30106   6.318   1.820   6.086
 9736SOL    HW130107   6.314   1.764   6.169
 9736SOL    HW230108   6.248   1.790   6.021
 9737SOL     OW30109   6.020   3.296   4.982
 9737SOL    HW130110   6.054   3.367   4.920
 9737SOL    HW230111   6.051   3.315   5.075
 9738SOL     OW30112   1.477   0.153   3.114
 9738SOL    HW130113   1.561   0.206   3.104
 9738SOL    HW230114   1.428   0.153   3.026
 9739SOL     OW30115   6.999   5.529   2.119
 9739SOL    HW130116   0.028   5.551   2.200
 9739SOL    HW230117   6.955   5.613   2.086
 9740SOL     OW30118   6.757   3.199   3.485
 9740SOL    HW130119   6.704   3.238   3.561
 9740SOL    HW230120   6.776   3.272   3.419
 9741SOL     OW30121   4.485   1.561   2.310
 9741SOL    HW130122   4.472   1.462   2.312
 9741SOL    HW230123   4.500   1.591   2.216
 9742SOL     OW30124   4.338   6.976   2.990
 9742SOL    HW130125   4.356   0.044   2.961
 9742SOL    HW230126   4.324   6.919   2.909
 9743SOL     OW30127   1.778   2.209   4.800
 9743SOL    HW130128   1.807   2.245   4.711
 9743SOL    HW230129   1.695   2.256   4.830
 9744SOL     OW30130   0.153   0.071   2.678
 9744SOL    HW130131   0.056   0.047   2.689
 9744SOL    HW230132   0.208   0.016   2.740
 9745SOL     OW30133   0.170   2.688   6.101
 9745SOL    HW130134   0.221   2.673   6.186
 9745SOL    HW230135   0.233   2.710   6.027
 9746SOL     OW30136   6.030   1.543   6.103
 9746SOL    HW130137   5.982   1.580   6.183
 9746SOL    HW230138   6.033   1.613   6.031
 9747SOL     OW30139   1.731   0.773   1.525
 9747SOL    HW130140   1.732   0.844   1.596
 9747SOL    HW230141   1.790   0.698   1.553
 9748SOL     OW30142   1.195   1.063   4.523
 9748SOL    HW130143   1.225   1.058   4.428
 9748SOL    HW230144   1.097   1.047   4.528
 9749SOL     OW30145   2.050   2.262   4.859
 9749SOL    HW130146   2.131   2.204   4.849
 9749SOL    HW230147   1.968   2.210   4.836
 9750SOL     OW30148   4.616   5.223   3.652
 9750SOL    HW130149   4.684   5.205   3.723
 9750SOL    HW230150   4.549   5.288   3.686
 9751SOL     OW30151   2.108   2.088   0.553
 9751SOL    HW130152   2.015   2.125   0.555
 9751SOL    HW230153   2.173   2.164   0.547
 9752SOL     OW30154   4.598   0.794   6.937
 9752SOL    HW130155   4.536   0.869   6.957
 9752SOL    HW230156   4.595   0.726   7.011
 9753SOL     OW30157   5.789   5.796   4.812
 9753SOL    HW130158   5.714   5.750   4.860
 9753SOL    HW230159   5.782   5.777   4.714
 9754SOL     OW30160   1.049   1.556   0.356
 9754SOL    HW130161   1.071   1.503   0.274
 9754SOL    HW230162   0.959   1.528   0.391
 9755SOL     OW30163   4.405   3.131   5.306
 9755SOL    HW130164   4.369   3.201   5.367
 9755SOL    HW230165   4.497   3.157   5.276
 9756SOL     OW30166   6.202   3.109   0.439
 9756SOL    HW130167   6.155   3.153   0.363
 9756SOL    HW230168   6.172   3.014   0.446
 9757SOL     OW30169   5.385   3.121   3.282
 9757SOL    HW130170   5.287   3.129   3.264
 9757SOL    HW230171   5.402   3.033   3.326
 9758SOL     OW30172   1.975   6.676   6.673
 9758SOL    HW130173   1.942   6.705   6.583
 9758SOL    HW230174   2.070   6.647   6.667
 9759SOL     OW30175   2.313   6.768   0.628
 9759SOL    HW130176   2.238   6.782   0.693
 9759SOL    HW230177   2.277   6.728   0.544
 9760SOL     OW30178   4.975   3.646   5.216
 9760SOL    HW130179   4.892   3.638   5.160
 9760SOL    HW230180   4.951   3.689   5.304
 9761SOL     OW30181   5.912   6.238   2.478
 9761SOL    HW130182   5.885   6.160   2.535
 9761SOL    HW230183   5.999   6.218   2.434
 9762SOL     OW30184   2.792   2.200   4.670
 9762SOL    HW130185   2.888   2.220   4.690
 9762SOL    HW230186   2.774   2.103   4.690
 9763SOL     OW30187   4.280   2.448   1.844
 9763SOL    HW130188   4.261   2.386   1.768
 9763SOL    HW230189   4.301   2.394   1.926
 9764SOL     OW30190   0.889   2.418   3.309
 9764SOL    HW130191   0.880   2.514   3.338
 9764SOL    HW230192   0.874   2.358   3.387
 9765SOL     OW30193   6.557   2.406   4.537
 9765SOL    HW130194   6.510   2.330   4.582
 9765SOL    HW230195   6.655   2.399   4.556
 9766SOL     OW30196   2.713   0.589   2.986
 9766SOL    HW130197   2.753   0.540   3.064
 9766SOL    HW230198   2.780   0.594   2.912
 9767SOL     OW30199   5.405   2.050   5.284
 9767SOL    HW130200   5.306   2.062   5.282
 9767SOL    HW230201   5.444   2.076   5.195
 9768SOL     OW30202   4.777   1.808   1.891
 9768SOL    HW130203   4.864   1.840   1.930
 9768SOL    HW230204   4.784   1.711   1.870
 9769SOL     OW30205   2.056   1.231   2.147
 9769SOL    HW130206   2.142   1.184   2.164
 9769SOL    HW230207   2.056   1.320   2.193
 9770SOL     OW30208   5.894   6.558   6.752
 9770SOL    HW130209   5.869   6.622   6.824
 9770SOL    HW230210   5.971   6.501   6.783
 9771SOL     OW30211   3.904   4.636   1.485
 9771SOL    HW130212   3.809   4.606   1.482
 9771SOL    HW230213   3.957   4.588   1.415
 9772SOL     OW30214   0.700   6.451   1.775
 9772SOL    HW130215   0.701   6.423   1.871
 9772SOL    HW230216   0.609   6.436   1.737
 9773SOL     OW30217   5.306   6.534   4.152
 9773SOL    HW130218   5.398   6.503   4.127
 9773SOL    HW230219   5.269   6.591   4.079
 9774SOL     OW30220   6.152   5.285   2.327
 9774SOL    HW130221   6.147   5.311   2.424
 9774SOL    HW230222   6.103   5.199   2.313
 9775SOL     OW30223   2.727   1.716   3.935
 9775SOL    HW130224   2.648   1.725   3.996
 9775SOL    HW230225   2.763   1.806   3.912
 9776SOL     OW30226   6.889   5.917   4.427
 9776SOL    HW130227   6.835   6.000   4.413
 9776SOL    HW230228   6.934   5.922   4.517
 9777SOL     OW30229   5.470   5.189   6.230
 9777SOL    HW130230   5.516   5.242   6.302
 9777SOL    HW230231   5.448   5.098   6.265
 9778SOL     OW30232   6.078   0.296   3.794
 9778SOL    HW130233   6.092   0.384   3.839
 9778SOL    HW230234   6.009   0.306   3.722
 9779SOL     OW30235   2.712   1.948   4.750
 9779SOL    HW130236   2.723   1.905   4.840
 9779SOL    HW230237   2.655   1.890   4.692
 9780SOL     OW30238   1.963   1.908   0.736
 9780SOL    HW130239   1.987   1.889   0.831
 9780SOL    HW230240   2.030   1.971   0.697
 9781SOL     OW30241   1.979   4.378   3.714
 9781SOL    HW130242   1.926   4.295   3.732
 9781SOL    HW230243   1.922   4.443   3.664
 9782SOL     OW30244   6.818   0.755   1.596
 9782SOL    HW130245   6.778   0.727   1.509
 9782SOL    HW230246   6.890   0.690   1.622
 9783SOL     OW30247   4.959   1.486   1.616
 9783SOL    HW130248   4.981   1.576   1.579
 9783SOL    HW230249   4.993   1.415   1.554
 9784SOL     OW30250   5.036   1.156   4.135
 9784SOL    HW130251   5.112   1.149   4.070
 9784SOL    HW230252   4.950   1.168   4.085
 9785SOL     OW30253   0.449   4.101   4.530
 9785SOL    HW130254   0.501   4.155   4.464
 9785SOL    HW230255   0.353   4.098   4.502
 9786SOL     OW30256   1.935   5.088   6.064
 9786SOL    HW130257   1.887   5.042   6.139
 9786SOL    HW230258   1.930   5.187   6.078
 9787SOL     OW30259   4.962   3.747   1.227
 9787SOL    HW130260   5.017   3.725   1.146
 9787SOL    HW230261   4.878   3.792   1.199
 9788SOL     OW30262   0.477   0.652   3.951
 9788SOL    HW130263   0.534   0.707   3.890
 9788SOL    HW230264   0.481   0.690   4.044
 9789SOL     OW30265   2.413   5.946   6.658
 9789SOL    HW130266   2.353   5.870   6.684
 9789SOL    HW230267   2.393   5.972   6.563
 9790SOL     OW30268   5.641   3.562   5.054
 9790SOL    HW130269   5.703   3.602   4.987
 9790SOL    HW230270   5.549   3.558   5.017
 9791SOL     OW30271   0.854   0.959   2.545
 9791SOL    HW130272   0.890   1.044   2.506
 9791SOL    HW230273   0.754   0.959   2.538
 9792SOL     OW30274   4.857   5.305   1.730
 9792SOL    HW130275   4.865   5.397   1.690
 9792SOL    HW230276   4.949   5.270   1.750
 9793SOL     OW30277   5.934   5.879   3.139
 9793SOL    HW130278   5.966   5.796   3.093
 9793SOL    HW230279   5.846   5.907   3.101
 9794SOL     OW30280   5.967   3.609   6.768
 9794SOL    HW130281   5.993   3.514   6.752
 9794SOL    HW230282   5.870   3.622   6.746
 9795SOL     OW30283   1.149   2.612   4.043
 9795SOL    HW130284   1.238   2.648   4.016
 9795SOL    HW230285   1.101   2.678   4.100
 9796SOL     OW30286   3.024   4.354   1.033
 9796SOL    HW130287   2.930   4.349   1.066
 9796SOL    HW230288   3.031   4.303   0.947
 9797SOL     OW30289   4.010   3.773   0.447
 9797SOL    HW130290   3.954   3.834   0.392
 9797SOL    HW230291   4.062   3.712   0.388
 9798SOL     OW30292   2.289   0.800   0.511
 9798SOL    HW130293   2.197   0.828   0.540
 9798SOL    HW230294   2.356   0.839   0.575
 9799SOL     OW30295   3.228   3.444   2.732
 9799SOL    HW130296   3.283   3.496   2.667
 9799SOL    HW230297   3.282   3.369   2.771
 9800SOL     OW30298   3.942   5.968   5.816
 9800SOL    HW130299   3.885   6.033   5.766
 9800SOL    HW230300   3.988   5.907   5.751
 9801SOL     OW30301   4.003   4.987   0.035
 9801SOL    HW130302   4.010   5.006   6.964
 9801SOL    HW230303   4.077   4.925   0.062
 9802SOL     OW30304   6.981   2.757   2.022
 9802SOL    HW130305   0.033   2.804   2.062
 9802SOL    HW230306   6.896   2.800   2.054
 9803SOL     OW30307   6.073   0.430   6.492
 9803SOL    HW130308   5.994   0.486   6.468
 9803SOL    HW230309   6.122   0.403   6.409
 9804SOL     OW30310   0.162   5.433   3.624
 9804SOL    HW130311   0.162   5.465   3.719
 9804SOL    HW230312   0.070   5.439   3.587
 9805SOL     OW30313   1.487   5.854   6.854
 9805SOL    HW130314   1.405   5.869   6.910
 9805SOL    HW230315   1.565   5.899   6.897
 9806SOL     OW30316   0.650   1.931   1.476
 9806SOL    HW130317   0.690   1.889   1.557
 9806SOL    HW230318   0.583   2.000   1.504
 9807SOL     OW30319   2.995   2.463   6.639
 9807SOL    HW130320   3.046   2.548   6.650
 9807SOL    HW230321   2.978   2.446   6.542
 9808SOL     OW30322   5.633   0.773   5.747
 9808SOL    HW130323   5.536   0.761   5.728
 9808SOL    HW230324   5.652   0.749   5.843
 9809SOL     OW30325   0.697   1.773   6.154
 9809SOL    HW130326   0.797   1.779   6.161
 9809SOL    HW230327   0.662   1.852   6.103
 9810SOL     OW30328   2.638   2.475   3.084
 9810SOL    HW130329   2.648   2.487   3.183
 9810SOL    HW230330   2.722   2.435   3.047
 9811SOL     OW30331   6.350   5.871   3.674
 9811SOL    HW130332   6.310   5.963   3.676
 9811SOL    HW230333   6.279   5.803   3.691
 9812SOL     OW30334   4.128   2.202   6.528
 9812SOL    HW130335   4.098   2.174   6.620
 9812SOL    HW230336   4.075   2.154   6.459
 9813SOL     OW30337   6.315   5.753   7.014
 9813SOL    HW130338   6.304   5.662   0.028
 9813SOL    HW230339   6.348   5.817   0.058
 9814SOL     OW30340   6.866   0.553   6.089
 9814SOL    HW130341   6.853   0.604   6.174
 9814SOL    HW230342   6.954   0.577   6.048
 9815SOL     OW30343   6.621   1.952   1.233
 9815SOL    HW130344   6.612   1.957   1.333
 9815SOL    HW230345   6.703   1.899   1.210
 9816SOL     OW30346   6.535   1.179   6.613
 9816SOL    HW130347   6.568   1.237   6.538
 9816SOL    HW230348   6.469   1.113   6.576
 9817SOL     OW30349   2.976   5.763   1.808
 9817SOL    HW130350   2.991   5.713   1.722
 9817SOL    HW230351   2.983   5.861   1.791
 9818SOL     OW30352   1.918   1.490   3.295
 9818SOL    HW130353   1.937   1.588   3.286
 9818SOL    HW230354   1.973   1.439   3.230
 9819SOL     OW30355   5.841   4.329   4.607
 9819SOL    HW130356   5.787   4.326   4.523
 9819SOL    HW230357   5.926   4.380   4.589
 9820SOL     OW30358   2.827   2.497   6.339
 9820SOL    HW130359   2.886   2.417   6.353
 9820SOL    HW230360   2.808   2.507   6.242
 9821SOL     OW30361   4.191   1.816   1.383
 9821SOL    HW130362   4.110   1.783   1.335
 9821SOL    HW230363   4.273   1.771   1.346
 9822SOL     OW30364   3.877   5.935   4.560
 9822SOL    HW130365   3.801   5.874   4.582
 9822SOL    HW230366   3.942   5.935   4.636
 9823SOL     OW30367   1.375   0.682   2.218
 9823SOL    HW130368   1.465   0.662   2.258
 9823SOL    HW230369   1.387   0.708   2.122
 9824SOL     OW30370   2.575   5.890   5.272
 9824SOL    HW130371   2.476   5.905   5.280
 9824SOL    HW230372   2.603   5.822   5.341
 9825SOL     OW30373   5.419   6.039   4.881
 9825SOL    HW130374   5.460   5.969   4.940
 9825SOL    HW230375   5.336   6.074   4.923
 9826SOL     OW30376   3.493   6.959   5.573
 9826SOL    HW130377   3.548   6.952   5.657
 9826SOL    HW230378   3.476   6.867   5.537
 9827SOL     OW30379   2.035   5.428   2.747
 9827SOL    HW130380   1.949   5.409   2.698
 9827SOL    HW230381   2.112   5.396   2.693
 9828SOL     OW30382   3.522   2.095   4.967
 9828SOL    HW130383   3.431   2.056   4.953
 9828SOL    HW230384   3.533   2.178   4.913
 9829SOL     OW30385   5.147   6.247   6.026
 9829SOL    HW130386   5.198   6.193   5.960
 9829SOL    HW230387   5.051   6.219   6.024
 9830SOL     OW30388   5.876   1.215   2.506
 9830SOL    HW130389   5.819   1.133   2.503
 9830SOL    HW230390   5.866   1.266   2.420
 9831SOL     OW30391   0.145   4.405   2.099
 9831SOL    HW130392   0.241   4.377   2.094
 9831SOL    HW230393   0.101   4.362   2.178
 9832SOL     OW30394   4.835   4.794   4.455
 9832SOL    HW130395   4.781   4.725   4.408
 9832SOL    HW230396   4.859   4.761   4.547
 9833SOL     OW30397   3.302   4.061   3.433
 9833SOL    HW130398   3.391   4.106   3.427
 9833SOL    HW230399   3.257   4.064   3.344
 9834SOL     OW30400   2.713   5.498   5.672
 9834SOL    HW130401   2.738   5.472   5.579
 9834SOL    HW230402   2.780   5.463   5.736
 9835SOL     OW30403   3.851   4.069   3.959
 9835SOL    HW130404   3.885   3.980   3.988
 9835SOL    HW230405   3.846   4.130   4.039
 9836SOL     OW30406   0.841   4.671   5.665
 9836SOL    HW130407   0.814   4.576   5.678
 9836SOL    HW230408   0.937   4.676   5.640
 9837SOL     OW30409   5.430   2.062   1.942
 9837SOL    HW130410   5.498   2.133   1.922
 9837SOL    HW230411   5.359   2.100   2.002
 9838SOL     OW30412   1.663   6.331   1.454
 9838SOL    HW130413   1.668   6.234   1.430
 9838SOL    HW230414   1.586   6.347   1.514
 9839SOL     OW30415   4.787   0.981   4.401
 9839SOL    HW130416   4.850   0.938   4.336
 9839SOL    HW230417   4.694   0.948   4.383
 9840SOL     OW30418   5.276   1.130   6.852
 9840SOL    HW130419   5.284   1.214   6.906
 9840SOL    HW230420   5.189   1.085   6.872
 9841SOL     OW30421   0.105   5.251   3.261
 9841SOL    HW130422   0.018   5.202   3.260
 9841SOL    HW230423   0.180   5.186   3.273
 9842SOL     OW30424   3.545   3.403   0.537
 9842SOL    HW130425   3.474   3.347   0.581
 9842SOL    HW230426   3.592   3.456   0.608
 9843SOL     OW30427   6.325   0.352   1.499
 9843SOL    HW130428   6.353   0.259   1.522
 9843SOL    HW230429   6.302   0.401   1.583
 9844SOL     OW30430   5.781   0.510   4.520
 9844SOL    HW130431   5.753   0.445   4.450
 9844SOL    HW230432   5.862   0.559   4.489
 9845SOL     OW30433   1.123   2.259   2.476
 9845SOL    HW130434   1.040   2.305   2.506
 9845SOL    HW230435   1.103   2.164   2.455
 9846SOL     OW30436   5.148   1.548   0.720
 9846SOL    HW130437   5.058   1.557   0.763
 9846SOL    HW230438   5.210   1.504   0.785
 9847SOL     OW30439   3.981   3.033   2.225
 9847SOL    HW130440   4.059   2.985   2.185
 9847SOL    HW230441   3.979   3.127   2.193
 9848SOL     OW30442   3.359   4.012   5.412
 9848SOL    HW130443   3.311   4.096   5.390
 9848SOL    HW230444   3.457   4.024   5.392
 9849SOL     OW30445   1.082   0.824   6.640
 9849SOL    HW130446   1.013   0.833   6.712
 9849SOL    HW230447   1.036   0.812   6.552
 9850SOL     OW30448   0.475   0.373   4.037
 9850SOL    HW130449   0.462   0.325   3.950
 9850SOL    HW230450   0.460   0.471   4.023
 9851SOL     OW30451   2.963   5.307   4.663
 9851SOL    HW130452   2.999   5.400   4.651
 9851SOL    HW230453   3.039   5.244   4.680
 9852SOL     OW30454   1.413   2.110   6.360
 9852SOL    HW130455   1.456   2.143   6.444
 9852SOL    HW230456   1.456   2.024   6.332
 9853SOL     OW30457   0.186   3.936   4.765
 9853SOL    HW130458   0.245   4.004   4.809
 9853SOL    HW230459   0.096   3.975   4.750
 9854SOL     OW30460   1.173   5.711   5.728
 9854SOL    HW130461   1.215   5.713   5.637
 9854SOL    HW230462   1.213   5.637   5.782
 9855SOL     OW30463   0.786   3.391   0.554
 9855SOL    HW130464   0.830   3.307   0.520
 9855SOL    HW230465   0.771   3.454   0.478
 9856SOL     OW30466   5.809   5.258   3.767
 9856SOL    HW130467   5.828   5.352   3.793
 9856SOL    HW230468   5.895   5.206   3.767
 9857SOL     OW30469   5.609   3.009   3.471
 9857SOL    HW130470   5.548   2.929   3.472
 9857SOL    HW230471   5.703   2.979   3.481
 9858SOL     OW30472   1.189   6.657   2.173
 9858SOL    HW130473   1.265   6.622   2.228
 9858SOL    HW230474   1.119   6.587   2.164
 9859SOL     OW30475   6.969   4.879   4.918
 9859SOL    HW130476   0.005   4.804   4.938
 9859SOL    HW230477   6.916   4.857   4.836
 9860SOL     OW30478   1.940   2.457   5.096
 9860SOL    HW130479   1.850   2.414   5.110
 9860SOL    HW230480   1.981   2.421   5.012
 9861SOL     OW30481   3.297   1.301   3.844
 9861SOL    HW130482   3.210   1.276   3.887
 9861SOL    HW230483   3.332   1.385   3.885
 9862SOL     OW30484   2.249   4.220   1.119
 9862SOL    HW130485   2.227   4.223   1.217
 9862SOL    HW230486   2.347   4.210   1.107
 9863SOL     OW30487   3.029   5.790   0.746
 9863SOL    HW130488   2.940   5.782   0.703
 9863SOL    HW230489   3.018   5.813   0.843
 9864SOL     OW30490   2.867   6.571   5.177
 9864SOL    HW130491   2.943   6.636   5.177
 9864SOL    HW230492   2.877   6.508   5.254
 9865SOL     OW30493   0.705   0.057   5.331
 9865SOL    HW130494   0.631   0.111   5.290
 9865SOL    HW230495   0.691   6.986   5.307
 9866SOL     OW30496   6.049   4.555   4.873
 9866SOL    HW130497   6.026   4.643   4.915
 9866SOL    HW230498   6.147   4.536   4.886
 9867SOL     OW30499   4.922   1.975   2.474
 9867SOL    HW130500   4.845   1.912   2.486
 9867SOL    HW230501   4.896   2.066   2.507
 9868SOL     OW30502   1.145   4.442   3.647
 9868SOL    HW130503   1.065   4.384   3.659
 9868SOL    HW230504   1.228   4.386   3.652
 9869SOL     OW30505   0.236   2.358   1.127
 9869SOL    HW130506   0.274   2.384   1.216
 9869SOL    HW230507   0.278   2.272   1.096
 9870SOL     OW30508   4.097   1.402   2.151
 9870SOL    HW130509   4.116   1.358   2.239
 9870SOL    HW230510   4.167   1.377   2.085
 9871SOL     OW30511   6.829   2.973   5.560
 9871SOL    HW130512   6.849   2.964   5.463
 9871SOL    HW230513   6.915   2.983   5.611
 9872SOL     OW30514   2.373   5.351   5.142
 9872SOL    HW130515   2.376   5.397   5.053
 9872SOL    HW230516   2.279   5.321   5.160
 9873SOL     OW30517   1.853   2.229   5.755
 9873SOL    HW130518   1.772   2.237   5.813
 9873SOL    HW230519   1.928   2.281   5.795
 9874SOL     OW30520   1.348   2.989   4.450
 9874SOL    HW130521   1.357   3.068   4.511
 9874SOL    HW230522   1.436   2.943   4.442
 9875SOL     OW30523   0.524   6.379   0.854
 9875SOL    HW130524   0.463   6.300   0.851
 9875SOL    HW230525   0.514   6.433   0.770
 9876SOL     OW30526   3.313   0.188   3.492
 9876SOL    HW130527   3.294   0.286   3.488
 9876SOL    HW230528   3.411   0.174   3.479
 9877SOL     OW30529   6.989   4.513   4.675
 9877SOL    HW130530   7.006   4.498   4.578
 9877SOL    HW230531   7.008   4.429   4.726
 9878SOL     OW30532   1.997   3.038   0.073
 9878SOL    HW130533   2.097   3.047   0.074
 9878SOL    HW230534   1.956   3.113   0.126
 9879SOL     OW30535   1.561   4.594   6.163
 9879SOL    HW130536   1.589   4.500   6.183
 9879SOL    HW230537   1.612   4.657   6.221
 9880SOL     OW30538   2.474   1.040   0.193
 9880SOL    HW130539   2.524   0.962   0.157
 9880SOL    HW230540   2.503   1.058   0.287
 9881SOL     OW30541   5.333   0.676   4.474
 9881SOL    HW130542   5.238   0.661   4.449
 9881SOL    HW230543   5.392   0.617   4.418
 9882SOL     OW30544   3.993   3.157   4.925
 9882SOL    HW130545   3.968   3.254   4.933
 9882SOL    HW230546   4.036   3.141   4.836
 9883SOL     OW30547   1.587   5.851   2.079
 9883SOL    HW130548   1.684   5.873   2.089
 9883SOL    HW230549   1.540   5.864   2.166
 9884SOL     OW30550   1.435   3.217   0.168
 9884SOL    HW130551   1.499   3.267   0.110
 9884SOL    HW230552   1.445   3.247   0.263
 9885SOL     OW30553   0.103   3.033   4.070
 9885SOL    HW130554   0.060   3.104   4.126
 9885SOL    HW230555   0.143   2.963   4.130
 9886SOL     OW30556   5.541   6.110   1.999
 9886SOL    HW130557   5.634   6.121   2.033
 9886SOL    HW230558   5.499   6.200   1.985
 9887SOL     OW30559   4.573   6.588   0.321
 9887SOL    HW130560   4.578   6.532   0.404
 9887SOL    HW230561   4.502   6.550   0.261
 9888SOL     OW30562   5.726   5.513   2.479
 9888SOL    HW130563   5.786   5.530   2.557
 9888SOL    HW230564   5.774   5.455   2.413
 9889SOL     OW30565   6.719   4.734   3.101
 9889SOL    HW130566   6.745   4.698   3.011
 9889SOL    HW230567   6.636   4.687   3.131
 9890SOL     OW30568   6.717   2.615   0.815
 9890SOL    HW130569   6.733   2.698   0.761
 9890SOL    HW230570   6.737   2.535   0.759
 9891SOL     OW30571   5.018   5.116   0.932
 9891SOL    HW130572   5.000   5.187   1.000
 9891SOL    HW230573   5.059   5.157   0.850
 9892SOL     OW30574   2.242   5.211   3.821
 9892SOL    HW130575   2.318   5.184   3.879
 9892SOL    HW230576   2.274   5.223   3.727
 9893SOL     OW30577   5.900   5.627   2.711
 9893SOL    HW130578   5.995   5.603   2.694
 9893SOL    HW230579   5.875   5.705   2.654
 9894SOL     OW30580   3.675   1.975   5.883
 9894SOL    HW130581   3.601   2.036   5.910
 9894SOL    HW230582   3.743   1.970   5.957
 9895SOL     OW30583   5.359   2.270   6.578
 9895SOL    HW130584   5.282   2.323   6.544
 9895SOL    HW230585   5.366   2.279   6.678
 9896SOL     OW30586   3.283   3.492   0.712
 9896SOL    HW130587   3.242   3.414   0.760
 9896SOL    HW230588   3.273   3.479   0.614
 9897SOL     OW30589   4.710   1.517   3.174
 9897SOL    HW130590   4.656   1.434   3.184
 9897SOL    HW230591   4.754   1.539   3.261
 9898SOL     OW30592   1.214   4.836   5.437
 9898SOL    HW130593   1.191   4.918   5.384
 9898SOL    HW230594   1.176   4.844   5.529
 9899SOL     OW30595   5.531   4.610   2.166
 9899SOL    HW130596   5.473   4.660   2.103
 9899SOL    HW230597   5.562   4.525   2.123
 9900SOL     OW30598   1.592   1.899   3.559
 9900SOL    HW130599   1.670   1.842   3.530
 9900SOL    HW230600   1.546   1.935   3.478
 9901SOL     OW30601   1.949   2.066   6.584
 9901SOL    HW130602   2.010   2.068   6.663
 9901SOL    HW230603   1.945   1.973   6.547
 9902SOL     OW30604   3.375   3.784   0.666
 9902SOL    HW130605   3.316   3.827   0.734
 9902SOL    HW230606   3.358   3.686   0.665
 9903SOL     OW30607   4.519   1.026   2.360
 9903SOL    HW130608   4.507   0.954   2.428
 9903SOL    HW230609   4.611   1.019   2.319
 9904SOL     OW30610   6.440   3.193   0.050
 9904SOL    HW130611   6.413   3.106   0.010
 9904SOL    HW230612   6.490   3.177   0.135
 9905SOL     OW30613   1.405   6.079   6.713
 9905SOL    HW130614   1.413   6.087   6.613
 9905SOL    HW230615   1.429   5.986   6.740
 9906SOL     OW30616   1.715   2.663   6.369
 9906SOL    HW130617   1.707   2.760   6.394
 9906SOL    HW230618   1.631   2.633   6.324
 9907SOL     OW30619   2.650   5.690   3.305
 9907SOL    HW130620   2.553   5.667   3.305
 9907SOL    HW230621   2.682   5.701   3.399
 9908SOL     OW30622   0.768   3.606   6.244
 9908SOL    HW130623   0.774   3.517   6.199
 9908SOL    HW230624   0.723   3.672   6.183
 9909SOL     OW30625   2.595   1.511   2.611
 9909SOL    HW130626   2.634   1.601   2.593
 9909SOL    HW230627   2.663   1.454   2.657
 9910SOL     OW30628   0.316   5.064   1.112
 9910SOL    HW130629   0.226   5.019   1.111
 9910SOL    HW230630   0.308   5.156   1.073
 9911SOL     OW30631   4.828   4.869   2.884
 9911SOL    HW130632   4.806   4.810   2.806
 9911SOL    HW230633   4.747   4.880   2.941
 9912SOL     OW30634   4.210   0.790   2.610
 9912SOL    HW130635   4.210   0.794   2.510
 9912SOL    HW230636   4.161   0.708   2.640
 9913SOL     OW30637   5.520   2.862   2.416
 9913SOL    HW130638   5.572   2.778   2.427
 9913SOL    HW230639   5.458   2.854   2.338
 9914SOL     OW30640   1.619   0.573   5.438
 9914SOL    HW130641   1.685   0.644   5.465
 9914SOL    HW230642   1.656   0.483   5.462
 9915SOL     OW30643   5.677   3.222   3.871
 9915SOL    HW130644   5.679   3.311   3.825
 9915SOL    HW230645   5.770   3.191   3.889
 9916SOL     OW30646   1.948   3.192   2.560
 9916SOL    HW130647   1.996   3.278   2.574
 9916SOL    HW230648   1.974   3.127   2.631
 9917SOL     OW30649   3.455   3.696   4.918
 9917SOL    HW130650   3.379   3.743   4.873
 9917SOL    HW230651   3.451   3.714   5.016
 9918SOL     OW30652   2.226   1.615   6.450
 9918SOL    HW130653   2.271   1.632   6.537
 9918SOL    HW230654   2.285   1.644   6.375
 9919SOL     OW30655   1.389   5.622   2.371
 9919SOL    HW130656   1.396   5.650   2.276
 9919SOL    HW230657   1.468   5.656   2.422
 9920SOL     OW30658   3.904   0.017   1.931
 9920SOL    HW130659   3.917   7.006   1.840
 9920SOL    HW230660   3.858   6.976   1.989
 9921SOL     OW30661   5.944   0.140   3.428
 9921SOL    HW130662   5.969   0.172   3.337
 9921SOL    HW230663   5.947   0.040   3.430
 9922SOL     OW30664   4.547   4.798   1.100
 9922SOL    HW130665   4.486   4.872   1.070
 9922SOL    HW230666   4.620   4.785   1.034
 9923SOL     OW30667   6.338   2.257   6.495
 9923SOL    HW130668   6.377   2.229   6.408
 9923SOL    HW230669   6.242   2.283   6.482
 9924SOL     OW30670   5.686   1.458   2.673
 9924SOL    HW130671   5.699   1.363   2.702
 9924SOL    HW230672   5.774   1.506   2.680
 9925SOL     OW30673   2.398   3.566   5.726
 9925SOL    HW130674   2.455   3.647   5.736
 9925SOL    HW230675   2.334   3.579   5.650
 9926SOL     OW30676   1.823   1.663   0.993
 9926SOL    HW130677   1.726   1.685   1.007
 9926SOL    HW230678   1.876   1.700   1.069
 9927SOL     OW30679   1.044   2.036   2.331
 9927SOL    HW130680   1.023   1.938   2.327
 9927SOL    HW230681   1.113   2.059   2.263
 9928SOL     OW30682   0.441   4.756   1.833
 9928SOL    HW130683   0.482   4.709   1.911
 9928SOL    HW230684   0.455   4.855   1.842
 9929SOL     OW30685   3.461   4.445   5.382
 9929SOL    HW130686   3.364   4.421   5.381
 9929SOL    HW230687   3.488   4.471   5.475
 9930SOL     OW30688   0.316   0.766   5.781
 9930SOL    HW130689   0.224   0.802   5.796
 9930SOL    HW230690   0.371   0.835   5.734
 9931SOL     OW30691   1.275   6.590   4.521
 9931SOL    HW130692   1.242   6.661   4.583
 9931SOL    HW230693   1.370   6.570   4.541
 9932SOL     OW30694   1.574   1.991   0.623
 9932SOL    HW130695   1.489   1.948   0.652
 9932SOL    HW230696   1.644   1.922   0.609
 9933SOL     OW30697   2.425   0.247   3.600
 9933SOL    HW130698   2.450   0.338   3.634
 9933SOL    HW230699   2.327   0.232   3.613
 9934SOL     OW30700   5.983   1.313   6.440
 9934SOL    HW130701   5.945   1.405   6.439
 9934SOL    HW230702   6.040   1.301   6.522
 9935SOL     OW30703   2.751   2.262   0.562
 9935SOL    HW130704   2.764   2.261   0.661
 9935SOL    HW230705   2.744   2.168   0.528
 9936SOL     OW30706   5.019   4.876   5.927
 9936SOL    HW130707   5.028   4.959   5.981
 9936SOL    HW230708   4.945   4.887   5.861
 9937SOL     OW30709   6.776   0.246   2.771
 9937SOL    HW130710   6.676   0.255   2.774
 9937SOL    HW230711   6.801   0.169   2.712
 9938SOL     OW30712   6.389   1.206   4.450
 9938SOL    HW130713   6.416   1.283   4.507
 9938SOL    HW230714   6.289   1.201   4.445
 9939SOL     OW30715   1.656   3.492   1.547
 9939SOL    HW130716   1.702   3.425   1.489
 9939SOL    HW230717   1.724   3.543   1.600
 9940SOL     OW30718   6.877   0.186   3.183
 9940SOL    HW130719   6.885   0.263   3.119
 9940SOL    HW230720   6.967   0.142   3.193
 9941SOL     OW30721   4.043   5.311   5.773
 9941SOL    HW130722   4.080   5.271   5.857
 9941SOL    HW230723   3.948   5.280   5.762
 9942SOL     OW30724   4.685   4.894   3.123
 9942SOL    HW130725   4.776   4.934   3.136
 9942SOL    HW230726   4.653   4.856   3.209
 9943SOL     OW30727   1.516   3.650   6.821
 9943SOL    HW130728   1.552   3.714   6.754
 9943SOL    HW230729   1.581   3.641   6.897
 9944SOL     OW30730   1.787   5.118   6.875
 9944SOL    HW130731   1.851   5.107   6.951
 9944SOL    HW230732   1.771   5.216   6.860
 9945SOL     OW30733   6.147   3.952   6.982
 9945SOL    HW130734   6.148   4.008   6.899
 9945SOL    HW230735   6.112   4.006   0.032
 9946SOL     OW30736   6.100   1.069   2.922
 9946SOL    HW130737   6.151   1.155   2.929
 9946SOL    HW230738   6.121   1.025   2.834
 9947SOL     OW30739   1.024   2.597   4.402
 9947SOL    HW130740   1.120   2.569   4.394
 9947SOL    HW230741   1.011   2.684   4.356
 9948SOL     OW30742   6.531   6.953   4.064
 9948SOL    HW130743   6.579   6.869   4.038
 9948SOL    HW230744   6.481   6.938   4.150
 9949SOL     OW30745   6.595   4.185   5.254
 9949SOL    HW130746   6.519   4.126   5.229
 9949SOL    HW230747   6.591   4.206   5.352
 9950SOL     OW30748   6.415   4.682   6.473
 9950SOL    HW130749   6.491   4.620   6.452
 9950SOL    HW230750   6.367   4.706   6.389
 9951SOL     OW30751   1.118   3.163   2.818
 9951SOL    HW130752   1.053   3.187   2.746
 9951SOL    HW230753   1.209   3.197   2.793
 9952SOL     OW30754   0.959   3.868   1.513
 9952SOL    HW130755   0.942   3.967   1.520
 9952SOL    HW230756   0.872   3.820   1.508
 9953SOL     OW30757   6.420   2.628   3.403
 9953SOL    HW130758   6.364   2.618   3.321
 9953SOL    HW230759   6.361   2.651   3.481
 9954SOL     OW30760   2.863   1.728   5.317
 9954SOL    HW130761   2.929   1.766   5.252
 9954SOL    HW230762   2.836   1.637   5.287
 9955SOL     OW30763   4.227   3.443   0.541
 9955SOL    HW130764   4.129   3.461   0.540
 9955SOL    HW230765   4.247   3.375   0.612
 9956SOL     OW30766   1.131   4.390   2.957
 9956SOL    HW130767   1.159   4.333   3.034
 9956SOL    HW230768   1.198   4.463   2.944
 9957SOL     OW30769   5.483   0.370   1.561
 9957SOL    HW130770   5.426   0.444   1.526
 9957SOL    HW230771   5.533   0.328   1.485
 9958SOL     OW30772   3.843   4.784   6.245
 9958SOL    HW130773   3.915   4.720   6.217
 9958SOL    HW230774   3.794   4.817   6.165
 9959SOL     OW30775   4.737   4.100   1.403
 9959SOL    HW130776   4.788   4.109   1.489
 9959SOL    HW230777   4.742   4.187   1.353
 9960SOL     OW30778   6.403   6.373   1.392
 9960SOL    HW130779   6.337   6.350   1.463
 9960SOL    HW230780   6.495   6.358   1.426
 9961SOL     OW30781   1.178   4.110   1.515
 9961SOL    HW130782   1.190   4.011   1.506
 9961SOL    HW230783   1.086   4.135   1.485
 9962SOL     OW30784   3.561   6.197   1.536
 9962SOL    HW130785   3.626   6.214   1.610
 9962SOL    HW230786   3.600   6.131   1.472
 9963SOL     OW30787   2.625   2.293   0.277
 9963SOL    HW130788   2.664   2.206   0.307
 9963SOL    HW230789   2.570   2.332   0.350
 9964SOL     OW30790   4.355   4.679   5.383
 9964SOL    HW130791   4.400   4.650   5.468
 9964SOL    HW230792   4.306   4.764   5.400
 9965SOL     OW30793   3.216   6.017   4.883
 9965SOL    HW130794   3.231   5.922   4.909
 9965SOL    HW230795   3.130   6.050   4.923
 9966SOL     OW30796   2.823   4.771   2.455
 9966SOL    HW130797   2.734   4.728   2.473
 9966SOL    HW230798   2.868   4.790   2.542
 9967SOL     OW30799   6.084   6.571   2.605
 9967SOL    HW130800   6.159   6.634   2.584
 9967SOL    HW230801   6.004   6.622   2.636
 9968SOL     OW30802   4.769   5.344   6.995
 9968SOL    HW130803   4.757   5.376   6.901
 9968SOL    HW230804   4.816   5.413   0.022
 9969SOL     OW30805   0.956   4.473   4.660
 9969SOL    HW130806   1.053   4.461   4.680
 9969SOL    HW230807   0.901   4.428   4.730
 9970SOL     OW30808   5.021   5.452   1.424
 9970SOL    HW130809   4.977   5.367   1.396
 9970SOL    HW230810   5.117   5.434   1.448
 9971SOL     OW30811   1.092   2.717   1.306
 9971SOL    HW130812   1.155   2.640   1.297
 9971SOL    HW230813   1.065   2.728   1.402
 9972SOL     OW30814   3.198   3.894   0.844
 9972SOL    HW130815   3.106   3.929   0.862
 9972SOL    HW230816   3.208   3.804   0.887
 9973SOL     OW30817   4.243   2.352   4.337
 9973SOL    HW130818   4.267   2.262   4.302
 9973SOL    HW230819   4.158   2.347   4.390
 9974SOL     OW30820   6.676   2.512   3.408
 9974SOL    HW130821   6.584   2.550   3.403
 9974SOL    HW230822   6.740   2.575   3.363
 9975SOL     OW30823   0.908   5.239   6.872
 9975SOL    HW130824   0.842   5.241   6.797
 9975SOL    HW230825   0.866   5.279   6.954
 9976SOL     OW30826   1.378   5.274   5.689
 9976SOL    HW130827   1.422   5.185   5.702
 9976SOL    HW230828   1.385   5.301   5.593
 9977SOL     OW30829   5.359   5.068   5.165
 9977SOL    HW130830   5.326   4.987   5.117
 9977SOL    HW230831   5.399   5.132   5.099
 9978SOL     OW30832   0.407   2.111   5.856
 9978SOL    HW130833   0.414   2.073   5.948
 9978SOL    HW230834   0.429   2.209   5.858
 9979SOL     OW30835   5.405   3.330   5.852
 9979SOL    HW130836   5.367   3.300   5.939
 9979SOL    HW230837   5.334   3.326   5.781
 9980SOL     OW30838   1.551   1.115   0.384
 9980SOL    HW130839   1.598   1.038   0.341
 9980SOL    HW230840   1.616   1.169   0.437
 9981SOL     OW30841   1.393   2.165   1.085
 9981SOL    HW130842   1.412   2.145   1.182
 9981SOL    HW230843   1.479   2.162   1.034
 9982SOL     OW30844   1.858   1.048   4.733
 9982SOL    HW130845   1.830   1.123   4.793
 9982SOL    HW230846   1.780   1.017   4.679
 9983SOL     OW30847   5.996   2.916   2.833
 9983SOL    HW130848   5.979   2.875   2.923
 9983SOL    HW230849   5.912   2.960   2.800
 9984SOL     OW30850   0.314   5.761   1.108
 9984SOL    HW130851   0.411   5.739   1.125
 9984SOL    HW230852   0.295   5.752   1.010
 9985SOL     OW30853   3.711   5.223   1.044
 9985SOL    HW130854   3.656   5.176   0.975
 9985SOL    HW230855   3.696   5.322   1.038
 9986SOL     OW30856   5.494   4.719   0.607
 9986SOL    HW130857   5.517   4.642   0.548
 9986SOL    HW230858   5.578   4.771   0.629
 9987SOL     OW30859   5.298   3.281   1.955
 9987SOL    HW130860   5.325   3.364   1.904
 9987SOL    HW230861   5.198   3.272   1.952
 9988SOL     OW30862   0.032   5.340   4.204
 9988SOL    HW130863   0.130   5.326   4.188
 9988SOL    HW230864   7.015   5.252   4.223
 9989SOL     OW30865   6.043   3.460   2.092
 9989SOL    HW130866   5.992   3.421   2.015
 9989SOL    HW230867   6.113   3.522   2.058
 9990SOL     OW30868   0.718   6.280   3.301
 9990SOL    HW130869   0.725   6.330   3.388
 9990SOL    HW230870   0.633   6.227   3.300
 9991SOL     OW30871   1.807   3.750   3.723
 9991SOL    HW130872   1.786   3.803   3.805
 9991SOL    HW230873   1.743   3.774   3.651
 9992SOL     OW30874   3.427   3.944   1.092
 9992SOL    HW130875   3.387   3.975   1.006
 9992SOL    HW230876   3.503   3.882   1.073
 9993SOL     OW30877   3.135   6.023   3.797
 9993SOL    HW130878   3.198   6.072   3.736
 9993SOL    HW230879   3.051   6.076   3.808
 9994SOL     OW30880   0.022   4.312   3.300
 9994SOL    HW130881   0.115   4.277   3.300
 9994SOL    HW230882   6.986   4.240   3.269
 9995SOL     OW30883   3.480   0.926   3.814
 9995SOL    HW130884   3.403   0.864   3.805
 9995SOL    HW230885   3.566   0.876   3.805
 9996SOL     OW30886   3.098   3.903   0.529
 9996SOL    HW130887   3.132   3.947   0.446
 9996SOL    HW230888   3.160   3.924   0.605
 9997SOL     OW30889   5.113   1.512   3.283
 9997SOL    HW130890   5.082   1.535   3.190
 9997SOL    HW230891   5.061   1.435   3.318
 9998SOL     OW30892   4.951   3.937   2.582
 9998SOL    HW130893   5.028   3.899   2.635
 9998SOL    HW230894   4.911   3.865   2.526
 9999SOL     OW30895   0.835   0.007   4.239
 9999SOL    HW130896   0.797   0.083   4.187
 9999SOL    HW230897   0.915   6.997   4.191
10000SOL     OW30898   5.611   1.340   1.438
10000SOL    HW130899   5.603   1.413   1.506
10000SOL    HW230900   5.582   1.373   1.349
10001SOL     OW30901   3.413   6.536   2.461
10001SOL    HW130902   3.407   6.635   2.450
10001SOL    HW230903   3.385   6.511   2.553
10002SOL     OW30904   2.399   1.322   1.234
10002SOL    HW130905   2.306   1.347   1.207
10002SOL    HW230906   2.427   1.239   1.186
10003SOL     OW30907   2.829   1.679   2.384
10003SOL    HW130908   2.837   1.748   2.456
10003SOL    HW230909   2.908   1.684   2.323
10004SOL     OW30910   5.321   4.865   4.925
10004SOL    HW130911   5.291   4.784   4.875
10004SOL    HW230912   5.377   4.837   5.003
10005SOL     OW30913   3.195   5.116   2.870
10005SOL    HW130914   3.256   5.105   2.949
10005SOL    HW230915   3.191   5.030   2.819
10006SOL     OW30916   5.609   0.644   5.355
10006SOL    HW130917   5.622   0.642   5.256
10006SOL    HW230918   5.689   0.686   5.398
10007SOL     OW30919   0.562   3.409   4.367
10007SOL    HW130920   0.471   3.379   4.338
10007SOL    HW230921   0.618   3.328   4.388
10008SOL     OW30922   4.732   1.962   4.001
10008SOL    HW130923   4.712   2.031   4.071
10008SOL    HW230924   4.690   1.875   4.028
10009SOL     OW30925   1.737   3.968   1.422
10009SOL    HW130926   1.801   4.014   1.360
10009SOL    HW230927   1.688   3.896   1.372
10010SOL     OW30928   2.777   5.559   6.758
10010SOL    HW130929   2.804   5.525   6.848
10010SOL    HW230930   2.758   5.657   6.764
10011SOL     OW30931   0.288   4.310   6.619
10011SOL    HW130932   0.374   4.319   6.569
10011SOL    HW230933   0.217   4.276   6.557
10012SOL     OW30934   4.572   0.361   2.440
10012SOL    HW130935   4.598   0.355   2.344
10012SOL    HW230936   4.480   0.325   2.453
10013SOL     OW30937   0.915   4.538   4.216
10013SOL    HW130938   0.891   4.445   4.246
10013SOL    HW230939   1.009   4.559   4.244
10014SOL     OW30940   1.800   6.909   2.403
10014SOL    HW130941   1.839   6.983   2.458
10014SOL    HW230942   1.858   6.893   2.323
10015SOL     OW30943   4.058   5.242   0.142
10015SOL    HW130944   4.037   5.149   0.113
10015SOL    HW230945   3.987   5.304   0.109
10016SOL     OW30946   2.304   1.526   5.114
10016SOL    HW130947   2.389   1.569   5.081
10016SOL    HW230948   2.232   1.595   5.122
10017SOL     OW30949   2.103   1.358   3.122
10017SOL    HW130950   2.177   1.295   3.146
10017SOL    HW230951   2.086   1.352   3.023
10018SOL     OW30952   6.227   3.864   5.759
10018SOL    HW130953   6.184   3.942   5.713
10018SOL    HW230954   6.326   3.878   5.765
10019SOL     OW30955   0.225   1.140   3.043
10019SOL    HW130956   0.201   1.047   3.069
10019SOL    HW230957   0.180   1.205   3.104
10020SOL     OW30958   0.382   1.350   2.194
10020SOL    HW130959   0.325   1.415   2.143
10020SOL    HW230960   0.471   1.391   2.213
10021SOL     OW30961   0.867   3.226   1.932
10021SOL    HW130962   0.854   3.129   1.953
10021SOL    HW230963   0.818   3.249   1.848
10022SOL     OW30964   2.465   5.589   0.127
10022SOL    HW130965   2.520   5.657   0.078
10022SOL    HW230966   2.401   5.636   0.188
10023SOL     OW30967   2.895   5.875   5.453
10023SOL    HW130968   2.921   5.781   5.432
10023SOL    HW230969   2.938   5.903   5.539
10024SOL     OW30970   0.720   5.276   3.040
10024SOL    HW130971   0.802   5.333   3.051
10024SOL    HW230972   0.652   5.301   3.109
10025SOL     OW30973   1.512   2.824   2.492
10025SOL    HW130974   1.513   2.891   2.565
10025SOL    HW230975   1.441   2.848   2.425
10026SOL     OW30976   4.901   0.538   3.812
10026SOL    HW130977   4.814   0.489   3.801
10026SOL    HW230978   4.887   0.617   3.871
10027SOL     OW30979   1.028   2.881   5.143
10027SOL    HW130980   1.001   2.796   5.100
10027SOL    HW230981   1.091   2.862   5.218
10028SOL     OW30982   2.656   1.190   1.129
10028SOL    HW130983   2.681   1.128   1.204
10028SOL    HW230984   2.729   1.257   1.115
10029SOL     OW30985   1.071   3.585   3.764
10029SOL    HW130986   1.013   3.628   3.695
10029SOL    HW230987   1.019   3.515   3.812
10030SOL     OW30988   3.376   0.304   5.073
10030SOL    HW130989   3.398   0.231   5.008
10030SOL    HW230990   3.306   0.364   5.033
10031SOL     OW30991   4.571   5.073   4.838
10031SOL    HW130992   4.510   5.062   4.760
10031SOL    HW230993   4.662   5.039   4.814
10032SOL     OW30994   4.162   0.322   6.095
10032SOL    HW130995   4.167   0.259   6.173
10032SOL    HW230996   4.073   0.368   6.096
10033SOL     OW30997   4.535   1.985   4.559
10033SOL    HW130998   4.585   1.906   4.595
10033SOL    HW230999   4.437   1.966   4.561
10034SOL     OW31000   2.198   1.149   3.847
10034SOL    HW131001   2.272   1.217   3.847
10034SOL    HW231002   2.220   1.076   3.782
10035SOL     OW31003   5.671   4.480   0.501
10035SOL    HW131004   5.764   4.466   0.535
10035SOL    HW231005   5.675   4.536   0.418
10036SOL     OW31006   6.487   0.937   0.903
10036SOL    HW131007   6.480   0.894   0.993
10036SOL    HW231008   6.560   1.005   0.904
10037SOL     OW31009   6.174   6.530   6.265
10037SOL    HW131010   6.268   6.553   6.239
10037SOL    HW231011   6.161   6.547   6.363
10038SOL     OW31012   4.347   6.943   6.020
10038SOL    HW131013   4.414   6.872   5.999
10038SOL    HW231014   4.367   7.025   5.966
10039SOL     OW31015   5.739   6.840   5.145
10039SOL    HW131016   5.780   6.792   5.222
10039SOL    HW231017   5.639   6.832   5.150
10040SOL     OW31018   4.286   6.508   5.656
10040SOL    HW131019   4.199   6.468   5.684
10040SOL    HW231020   4.361   6.459   5.701
10041SOL     OW31021   5.681   5.224   5.990
10041SOL    HW131022   5.635   5.141   6.021
10041SOL    HW231023   5.747   5.254   6.059
10042SOL     OW31024   0.389   0.869   5.335
10042SOL    HW131025   0.291   0.889   5.329
10042SOL    HW231026   0.439   0.954   5.352
10043SOL     OW31027   0.677   0.828   3.833
10043SOL    HW131028   0.640   0.844   3.742
10043SOL    HW231029   0.641   0.895   3.897
10044SOL     OW31030   2.532   2.248   3.439
10044SOL    HW131031   2.484   2.170   3.480
10044SOL    HW231032   2.628   2.223   3.423
10045SOL     OW31033   5.283   0.268   4.075
10045SOL    HW131034   5.332   0.191   4.117
10045SOL    HW231035   5.342   0.312   4.007
10046SOL     OW31036   1.262   2.157   1.497
10046SOL    HW131037   1.240   2.124   1.589
10046SOL    HW231038   1.301   2.083   1.443
10047SOL     OW31039   6.087   3.591   4.897
10047SOL    HW131040   5.997   3.631   4.880
10047SOL    HW231041   6.118   3.618   4.989
10048SOL     OW31042   3.484   2.002   2.494
10048SOL    HW131043   3.489   2.102   2.494
10048SOL    HW231044   3.513   1.967   2.405
10049SOL     OW31045   0.521   0.981   6.748
10049SOL    HW131046   0.603   1.038   6.744
10049SOL    HW231047   0.442   1.039   6.765
10050SOL     OW31048   5.864   2.831   5.144
10050SOL    HW131049   5.878   2.795   5.052
10050SOL    HW231050   5.934   2.794   5.205
10051SOL     OW31051   6.348   2.751   5.158
10051SOL    HW131052   6.345   2.807   5.075
10051SOL    HW231053   6.337   2.654   5.133
10052SOL     OW31054   1.619   2.314   2.096
10052SOL    HW131055   1.620   2.227   2.145
10052SOL    HW231056   1.548   2.373   2.134
10053SOL     OW31057   3.219   5.557   1.995
10053SOL    HW131058   3.198   5.473   2.045
10053SOL    HW231059   3.182   5.636   2.044
10054SOL     OW31060   4.073   6.334   5.717
10054SOL    HW131061   4.135   6.257   5.733
10054SOL    HW231062   4.014   6.346   5.797
10055SOL     OW31063   5.576   2.090   6.025
10055SOL    HW131064   5.578   2.169   6.086
10055SOL    HW231065   5.542   2.118   5.935
10056SOL     OW31066   6.600   5.130   0.469
10056SOL    HW131067   6.518   5.095   0.422
10056SOL    HW231068   6.663   5.055   0.486
10057SOL     OW31069   4.273   0.988   4.265
10057SOL    HW131070   4.213   0.922   4.219
10057SOL    HW231071   4.368   0.965   4.245
10058SOL     OW31072   0.718   3.611   4.464
10058SOL    HW131073   0.669   3.531   4.431
10058SOL    HW231074   0.749   3.596   4.558
10059SOL     OW31075   5.693   6.188   7.025
10059SOL    HW131076   5.630   6.110   0.004
10059SOL    HW231077   5.649   6.269   0.036
10060SOL     OW31078   2.271   1.365   1.930
10060SOL    HW131079   2.309   1.278   1.899
10060SOL    HW231080   2.290   1.436   1.861
10061SOL     OW31081   5.749   1.090   4.527
10061SOL    HW131082   5.757   1.104   4.428
10061SOL    HW231083   5.778   1.172   4.575
10062SOL     OW31084   6.235   6.695   4.703
10062SOL    HW131085   6.319   6.742   4.674
10062SOL    HW231086   6.205   6.733   4.791
10063SOL     OW31087   1.647   1.901   3.118
10063SOL    HW131088   1.581   1.829   3.137
10063SOL    HW231089   1.642   1.928   3.022
10064SOL     OW31090   5.839   5.993   6.382
10064SOL    HW131091   5.897   6.007   6.302
10064SOL    HW231092   5.826   6.080   6.429
10065SOL     OW31093   2.026   0.761   1.819
10065SOL    HW131094   1.999   0.686   1.758
10065SOL    HW231095   2.046   0.843   1.765
10066SOL     OW31096   1.779   1.162   4.352
10066SOL    HW131097   1.792   1.260   4.372
10066SOL    HW231098   1.826   1.140   4.266
10067SOL     OW31099   5.828   3.752   5.573
10067SOL    HW131100   5.775   3.670   5.592
10067SOL    HW231101   5.925   3.729   5.571
10068SOL     OW31102   5.823   3.304   4.190
10068SOL    HW131103   5.731   3.271   4.168
10068SOL    HW231104   5.887   3.227   4.189
10069SOL     OW31105   2.072   5.109   3.552
10069SOL    HW131106   1.984   5.112   3.599
10069SOL    HW231107   2.093   5.199   3.514
10070SOL     OW31108   0.484   0.169   5.163
10070SOL    HW131109   0.447   0.104   5.097
10070SOL    HW231110   0.424   0.174   5.242
10071SOL     OW31111   5.029   5.778   3.791
10071SOL    HW131112   4.940   5.783   3.836
10071SOL    HW231113   5.092   5.841   3.836
10072SOL     OW31114   0.868   6.103   4.416
10072SOL    HW131115   0.911   6.144   4.497
10072SOL    HW231116   0.934   6.045   4.369
10073SOL     OW31117   6.562   4.124   4.390
10073SOL    HW131118   6.513   4.059   4.448
10073SOL    HW231119   6.628   4.175   4.446
10074SOL     OW31120   1.386   0.975   5.588
10074SOL    HW131121   1.319   0.932   5.649
10074SOL    HW231122   1.449   1.031   5.641
10075SOL     OW31123   1.203   2.698   2.894
10075SOL    HW131124   1.293   2.686   2.853
10075SOL    HW231125   1.207   2.672   2.991
10076SOL     OW31126   5.725   0.237   4.012
10076SOL    HW131127   5.798   0.169   4.022
10076SOL    HW231128   5.649   0.197   3.960
10077SOL     OW31129   3.312   2.052   6.522
10077SOL    HW131130   3.269   1.978   6.471
10077SOL    HW231131   3.259   2.069   6.606
10078SOL     OW31132   0.138   6.220   4.141
10078SOL    HW131133   0.168   6.182   4.229
10078SOL    HW231134   0.097   6.309   4.156
10079SOL     OW31135   0.730   3.399   2.137
10079SOL    HW131136   0.791   3.359   2.069
10079SOL    HW231137   0.742   3.351   2.224
10080SOL     OW31138   3.331   1.260   5.836
10080SOL    HW131139   3.331   1.161   5.840
10080SOL    HW231140   3.342   1.298   5.928
10081SOL     OW31141   0.666   0.463   0.372
10081SOL    HW131142   0.710   0.551   0.359
10081SOL    HW231143   0.571   0.468   0.341
10082SOL     OW31144   6.872   4.471   2.436
10082SOL    HW131145   6.818   4.474   2.520
10082SOL    HW231146   6.874   4.562   2.394
10083SOL     OW31147   5.361   0.732   2.635
10083SOL    HW131148   5.291   0.662   2.648
10083SOL    HW231149   5.317   0.822   2.629
10084SOL     OW31150   3.310   1.032   6.344
10084SOL    HW131151   3.302   1.003   6.248
10084SOL    HW231152   3.224   1.013   6.391
10085SOL     OW31153   0.944   6.111   2.358
10085SOL    HW131154   0.885   6.031   2.350
10085SOL    HW231155   1.040   6.082   2.359
10086SOL     OW31156   5.482   5.287   1.669
10086SOL    HW131157   5.422   5.291   1.589
10086SOL    HW231158   5.427   5.292   1.753
10087SOL     OW31159   6.988   6.806   3.728
10087SOL    HW131160   6.964   6.902   3.712
10087SOL    HW231161   0.007   6.770   3.646
10088SOL     OW31162   7.018   0.194   7.005
10088SOL    HW131163   6.920   0.213   7.012
10088SOL    HW231164   0.005   0.095   6.998
10089SOL     OW31165   2.560   2.494   2.819
10089SOL    HW131166   2.579   2.483   2.917
10089SOL    HW231167   2.477   2.548   2.807
10090SOL     OW31168   1.003   4.791   0.589
10090SOL    HW131169   1.062   4.764   0.513
10090SOL    HW231170   1.054   4.789   0.674
10091SOL     OW31171   1.533   3.304   5.614
10091SOL    HW131172   1.573   3.212   5.623
10091SOL    HW231173   1.437   3.295   5.588
10092SOL     OW31174   2.209   3.423   5.153
10092SOL    HW131175   2.284   3.380   5.203
10092SOL    HW231176   2.141   3.354   5.129
10093SOL     OW31177   0.634   4.577   4.793
10093SOL    HW131178   0.595   4.669   4.795
10093SOL    HW231179   0.633   4.542   4.699
10094SOL     OW31180   1.937   6.152   2.040
10094SOL    HW131181   2.011   6.182   2.099
10094SOL    HW231182   1.889   6.232   2.003
10095SOL     OW31183   6.062   2.147   5.619
10095SOL    HW131184   6.087   2.068   5.563
10095SOL    HW231185   6.087   2.130   5.714
10096SOL     OW31186   5.563   5.438   2.236
10096SOL    HW131187   5.655   5.408   2.209
10096SOL    HW231188   5.570   5.509   2.305
10097SOL     OW31189   0.935   0.959   0.110
10097SOL    HW131190   0.963   0.951   0.205
10097SOL    HW231191   0.927   0.868   0.069
10098SOL     OW31192   2.366   0.873   5.416
10098SOL    HW131193   2.439   0.806   5.415
10098SOL    HW231194   2.373   0.931   5.335
10099SOL     OW31195   6.674   4.802   0.527
10099SOL    HW131196   6.710   4.723   0.576
10099SOL    HW231197   6.742   4.834   0.462
10100SOL     OW31198   5.344   0.018   4.528
10100SOL    HW131199   5.259   6.994   4.513
10100SOL    HW231200   5.324   0.116   4.535
10101SOL     OW31201   5.680   3.911   1.563
10101SOL    HW131202   5.706   3.990   1.618
10101SOL    HW231203   5.580   3.908   1.554
10102SOL     OW31204   1.536   1.052   2.478
10102SOL    HW131205   1.506   1.009   2.393
10102SOL    HW231206   1.616   1.003   2.514
10103SOL     OW31207   2.156   1.841   5.861
10103SOL    HW131208   2.092   1.908   5.822
10103SOL    HW231209   2.216   1.887   5.926
10104SOL     OW31210   1.214   2.377   4.415
10104SOL    HW131211   1.283   2.316   4.375
10104SOL    HW231212   1.256   2.430   4.489
10105SOL     OW31213   1.058   1.006   0.372
10105SOL    HW131214   1.028   0.910   0.381
10105SOL    HW231215   1.149   1.016   0.413
10106SOL     OW31216   4.352   6.219   1.093
10106SOL    HW131217   4.332   6.165   1.012
10106SOL    HW231218   4.451   6.238   1.097
10107SOL     OW31219   0.477   2.147   6.924
10107SOL    HW131220   0.529   2.066   6.950
10107SOL    HW231221   0.532   2.204   6.863
10108SOL     OW31222   6.620   6.144   6.929
10108SOL    HW131223   6.615   6.234   6.971
10108SOL    HW231224   6.624   6.154   6.829
10109SOL     OW31225   4.031   6.764   1.228
10109SOL    HW131226   4.124   6.783   1.195
10109SOL    HW231227   3.967   6.780   1.153
10110SOL     OW31228   4.723   6.365   4.892
10110SOL    HW131229   4.638   6.313   4.892
10110SOL    HW231230   4.772   6.348   4.978
10111SOL     OW31231   5.857   3.708   3.740
10111SOL    HW131232   5.795   3.706   3.662
10111SOL    HW231233   5.817   3.765   3.812
10112SOL     OW31234   5.858   3.893   4.304
10112SOL    HW131235   5.791   3.823   4.326
10112SOL    HW231236   5.815   3.964   4.248
10113SOL     OW31237   4.403   0.030   4.995
10113SOL    HW131238   4.370   0.059   5.085
10113SOL    HW231239   4.459   0.102   4.956
10114SOL     OW31240   5.418   0.573   0.895
10114SOL    HW131241   5.499   0.518   0.916
10114SOL    HW231242   5.339   0.534   0.943
10115SOL     OW31243   3.292   1.772   3.756
10115SOL    HW131244   3.348   1.824   3.820
10115SOL    HW231245   3.329   1.781   3.664
10116SOL     OW31246   0.244   6.293   0.437
10116SOL    HW131247   0.148   6.282   0.461
10116SOL    HW231248   0.268   6.390   0.442
10117SOL     OW31249   6.959   6.634   4.907
10117SOL    HW131250   6.934   6.713   4.963
10117SOL    HW231251   0.004   6.659   4.842
10118SOL     OW31252   1.359   5.453   3.174
10118SOL    HW131253   1.332   5.549   3.187
10118SOL    HW231254   1.316   5.418   3.091
10119SOL     OW31255   0.782   6.588   4.291
10119SOL    HW131256   0.778   6.490   4.273
10119SOL    HW231257   0.711   6.634   4.238
10120SOL     OW31258   1.620   3.765   4.599
10120SOL    HW131259   1.563   3.796   4.523
10120SOL    HW231260   1.562   3.731   4.673
10121SOL     OW31261   6.110   4.257   6.454
10121SOL    HW131262   6.097   4.257   6.553
10121SOL    HW231263   6.051   4.326   6.412
10122SOL     OW31264   5.689   3.113   0.762
10122SOL    HW131265   5.659   3.200   0.723
10122SOL    HW231266   5.779   3.124   0.804
10123SOL     OW31267   6.766   6.836   6.954
10123SOL    HW131268   6.806   6.909   6.898
10123SOL    HW231269   6.796   6.747   6.919
10124SOL     OW31270   1.851   3.400   7.011
10124SOL    HW131271   1.949   3.396   6.990
10124SOL    HW231272   1.798   3.393   6.927
10125SOL     OW31273   1.644   0.566   2.722
10125SOL    HW131274   1.593   0.627   2.661
10125SOL    HW231275   1.742   0.580   2.709
10126SOL     OW31276   0.157   6.809   6.347
10126SOL    HW131277   0.143   6.819   6.249
10126SOL    HW231278   0.220   6.879   6.379
10127SOL     OW31279   2.177   4.675   5.885
10127SOL    HW131280   2.266   4.678   5.930
10127SOL    HW231281   2.110   4.635   5.947
10128SOL     OW31282   1.541   0.995   1.193
10128SOL    HW131283   1.493   1.005   1.106
10128SOL    HW231284   1.556   0.898   1.212
10129SOL     OW31285   5.433   2.833   3.758
10129SOL    HW131286   5.424   2.933   3.760
10129SOL    HW231287   5.343   2.792   3.746
10130SOL     OW31288   2.081   4.143   1.995
10130SOL    HW131289   1.984   4.161   2.015
10130SOL    HW231290   2.128   4.229   1.978
10131SOL     OW31291   0.851   0.387   3.517
10131SOL    HW131292   0.920   0.355   3.451
10131SOL    HW231293   0.850   0.487   3.518
10132SOL     OW31294   3.084   0.150   4.420
10132SOL    HW131295   3.095   0.093   4.338
10132SOL    HW231296   3.112   0.243   4.399
10133SOL     OW31297   4.797   6.337   1.422
10133SOL    HW131298   4.835   6.293   1.341
10133SOL    HW231299   4.749   6.420   1.396
10134SOL     OW31300   6.990   6.007   4.027
10134SOL    HW131301   6.905   6.055   4.001
10134SOL    HW231302   0.030   6.074   4.060
10135SOL     OW31303   4.921   3.317   3.238
10135SOL    HW131304   4.954   3.391   3.296
10135SOL    HW231305   4.835   3.344   3.195
10136SOL     OW31306   5.558   0.975   3.254
10136SOL    HW131307   5.651   1.006   3.239
10136SOL    HW231308   5.531   0.993   3.348
10137SOL     OW31309   6.080   4.460   4.322
10137SOL    HW131310   6.161   4.401   4.318
10137SOL    HW231311   6.074   4.501   4.413
10138SOL     OW31312   5.125   2.400   0.774
10138SOL    HW131313   5.194   2.341   0.816
10138SOL    HW231314   5.083   2.352   0.697
10139SOL     OW31315   3.808   4.061   3.452
10139SOL    HW131316   3.853   4.041   3.365
10139SOL    HW231317   3.860   4.020   3.526
10140SOL     OW31318   6.341   6.237   5.942
10140SOL    HW131319   6.352   6.213   5.845
10140SOL    HW231320   6.430   6.254   5.983
10141SOL     OW31321   3.812   1.812   4.483
10141SOL    HW131322   3.789   1.823   4.387
10141SOL    HW231323   3.788   1.895   4.534
10142SOL     OW31324   6.156   6.540   4.488
10142SOL    HW131325   6.158   6.604   4.412
10142SOL    HW231326   6.220   6.569   4.559
10143SOL     OW31327   4.177   0.731   0.041
10143SOL    HW131328   4.163   0.632   0.040
10143SOL    HW231329   4.132   0.772   6.987
10144SOL     OW31330   3.738   6.814   6.414
10144SOL    HW131331   3.725   6.741   6.480
10144SOL    HW231332   3.666   6.810   6.345
10145SOL     OW31333   3.069   5.632   5.453
10145SOL    HW131334   3.065   5.628   5.552
10145SOL    HW231335   2.993   5.580   5.414
10146SOL     OW31336   4.042   5.435   4.296
10146SOL    HW131337   3.972   5.374   4.260
10146SOL    HW231338   4.132   5.404   4.266
10147SOL     OW31339   5.664   4.130   5.094
10147SOL    HW131340   5.693   4.039   5.127
10147SOL    HW231341   5.685   4.138   4.997
10148SOL     OW31342   4.999   5.482   0.111
10148SOL    HW131343   5.044   5.431   0.185
10148SOL    HW231344   4.953   5.562   0.150
10149SOL     OW31345   5.889   2.809   0.652
10149SOL    HW131346   5.909   2.837   0.745
10149SOL    HW231347   5.790   2.800   0.640
10150SOL     OW31348   3.982   3.685   0.713
10150SOL    HW131349   3.980   3.591   0.679
10150SOL    HW231350   4.007   3.747   0.638
10151SOL     OW31351   1.201   6.835   0.205
10151SOL    HW131352   1.168   6.751   0.163
10151SOL    HW231353   1.264   6.813   0.280
10152SOL     OW31354   0.545   6.303   4.831
10152SOL    HW131355   0.446   6.302   4.826
10152SOL    HW231356   0.577   6.394   4.857
10153SOL     OW31357   4.627   6.404   3.947
10153SOL    HW131358   4.681   6.322   3.924
10153SOL    HW231359   4.549   6.377   4.004
10154SOL     OW31360   5.708   0.295   4.995
10154SOL    HW131361   5.800   0.255   5.001
10154SOL    HW231362   5.679   0.325   5.086
10155SOL     OW31363   3.725   2.135   5.661
10155SOL    HW131364   3.672   2.216   5.686
10155SOL    HW231365   3.727   2.072   5.738
10156SOL     OW31366   6.257   1.465   2.735
10156SOL    HW131367   6.218   1.487   2.825
10156SOL    HW231368   6.183   1.443   2.671
10157SOL     OW31369   6.315   2.168   0.122
10157SOL    HW131370   6.295   2.167   0.024
10157SOL    HW231371   6.237   2.207   0.172
10158SOL     OW31372   6.015   3.724   1.081
10158SOL    HW131373   6.009   3.649   1.146
10158SOL    HW231374   6.101   3.717   1.030
10159SOL     OW31375   2.574   2.775   6.662
10159SOL    HW131376   2.534   2.864   6.640
10159SOL    HW231377   2.542   2.746   6.752
10160SOL     OW31378   1.897   3.071   2.040
10160SOL    HW131379   1.815   3.018   2.065
10160SOL    HW231380   1.959   3.013   1.987
10161SOL     OW31381   3.175   3.030   6.650
10161SOL    HW131382   3.213   2.953   6.701
10161SOL    HW231383   3.088   3.002   6.609
10162SOL     OW31384   3.609   4.631   0.692
10162SOL    HW131385   3.678   4.560   0.709
10162SOL    HW231386   3.518   4.594   0.708
10163SOL     OW31387   6.003   4.750   5.973
10163SOL    HW131388   6.075   4.796   5.921
10163SOL    HW231389   5.918   4.801   5.964
10164SOL     OW31390   5.843   3.655   4.823
10164SOL    HW131391   5.883   3.610   4.743
10164SOL    HW231392   5.771   3.718   4.794
10165SOL     OW31393   0.536   2.436   3.554
10165SOL    HW131394   0.485   2.428   3.468
10165SOL    HW231395   0.634   2.429   3.536
10166SOL     OW31396   3.144   2.063   1.505
10166SOL    HW131397   3.146   2.122   1.586
10166SOL    HW231398   3.146   2.120   1.422
10167SOL     OW31399   2.134   3.627   0.156
10167SOL    HW131400   2.233   3.623   0.147
10167SOL    HW231401   2.108   3.609   0.251
10168SOL     OW31402   5.871   3.580   5.838
10168SOL    HW131403   5.776   3.569   5.866
10168SOL    HW231404   5.898   3.676   5.850
10169SOL     OW31405   6.854   4.395   3.813
10169SOL    HW131406   6.839   4.494   3.819
10169SOL    HW231407   6.902   4.373   3.729
10170SOL     OW31408   1.080   5.368   5.584
10170SOL    HW131409   1.168   5.354   5.539
10170SOL    HW231410   1.095   5.383   5.682
10171SOL     OW31411   6.665   2.785   5.654
10171SOL    HW131412   6.612   2.756   5.574
10171SOL    HW231413   6.717   2.867   5.631
10172SOL     OW31414   6.747   6.630   4.740
10172SOL    HW131415   6.672   6.563   4.737
10172SOL    HW231416   6.812   6.604   4.811
10173SOL     OW31417   0.709   2.973   1.209
10173SOL    HW131418   0.800   2.957   1.172
10173SOL    HW231419   0.664   3.045   1.156
10174SOL     OW31420   5.366   5.171   2.358
10174SOL    HW131421   5.282   5.128   2.323
10174SOL    HW231422   5.439   5.102   2.364
10175SOL     OW31423   4.968   2.139   4.182
10175SOL    HW131424   4.967   2.208   4.110
10175SOL    HW231425   5.053   2.087   4.177
10176SOL     OW31426   0.807   3.617   5.853
10176SOL    HW131427   0.715   3.626   5.892
10176SOL    HW231428   0.861   3.553   5.908
10177SOL     OW31429   2.613   0.535   0.644
10177SOL    HW131430   2.675   0.613   0.646
10177SOL    HW231431   2.538   0.555   0.580
10178SOL     OW31432   6.816   0.640   5.709
10178SOL    HW131433   6.911   0.635   5.678
10178SOL    HW231434   6.782   0.549   5.730
10179SOL     OW31435   0.965   1.792   6.553
10179SOL    HW131436   1.015   1.716   6.510
10179SOL    HW231437   0.874   1.761   6.579
10180SOL     OW31438   4.286   0.231   6.400
10180SOL    HW131439   4.249   0.238   6.493
10180SOL    HW231440   4.365   0.170   6.399
10181SOL     OW31441   5.813   2.840   1.769
10181SOL    HW131442   5.745   2.879   1.708
10181SOL    HW231443   5.827   2.901   1.848
10182SOL     OW31444   4.195   0.930   1.250
10182SOL    HW131445   4.123   0.872   1.289
10182SOL    HW231446   4.257   0.874   1.196
10183SOL     OW31447   6.966   2.248   7.010
10183SOL    HW131448   6.996   2.165   6.963
10183SOL    HW231449   0.020   2.294   0.023
10184SOL     OW31450   3.987   0.939   6.445
10184SOL    HW131451   4.026   0.855   6.407
10184SOL    HW231452   3.935   0.986   6.374
10185SOL     OW31453   5.714   6.180   2.248
10185SOL    HW131454   5.650   6.236   2.196
10185SOL    HW231455   5.772   6.239   2.304
10186SOL     OW31456   5.875   3.979   3.851
10186SOL    HW131457   5.965   3.977   3.895
10186SOL    HW231458   5.887   3.989   3.752
10187SOL     OW31459   0.566   3.309   0.719
10187SOL    HW131460   0.648   3.339   0.669
10187SOL    HW231461   0.485   3.347   0.675
10188SOL     OW31462   3.508   5.666   0.779
10188SOL    HW131463   3.572   5.735   0.813
10188SOL    HW231464   3.542   5.628   0.693
10189SOL     OW31465   0.835   1.172   6.274
10189SOL    HW131466   0.883   1.186   6.188
10189SOL    HW231467   0.844   1.253   6.331
10190SOL     OW31468   4.951   3.141   2.138
10190SOL    HW131469   4.870   3.093   2.102
10190SOL    HW231470   4.975   3.216   2.076
10191SOL     OW31471   5.843   5.252   5.191
10191SOL    HW131472   5.872   5.204   5.274
10191SOL    HW231473   5.897   5.218   5.113
10192SOL     OW31474   4.524   1.138   5.591
10192SOL    HW131475   4.509   1.212   5.657
10192SOL    HW231476   4.609   1.155   5.540
10193SOL     OW31477   4.197   3.299   2.002
10193SOL    HW131478   4.235   3.214   1.968
10193SOL    HW231479   4.156   3.283   2.092
10194SOL     OW31480   5.590   5.694   5.623
10194SOL    HW131481   5.583   5.643   5.537
10194SOL    HW231482   5.499   5.708   5.661
10195SOL     OW31483   6.394   5.658   0.551
10195SOL    HW131484   6.357   5.656   0.643
10195SOL    HW231485   6.494   5.650   0.555
10196SOL     OW31486   4.939   1.484   3.972
10196SOL    HW131487   4.874   1.427   3.921
10196SOL    HW231488   4.966   1.562   3.916
10197SOL     OW31489   5.760   1.814   5.576
10197SOL    HW131490   5.741   1.911   5.588
10197SOL    HW231491   5.689   1.760   5.620
10198SOL     OW31492   2.618   6.784   2.408
10198SOL    HW131493   2.559   6.717   2.362
10198SOL    HW231494   2.711   6.777   2.371
10199SOL     OW31495   2.839   2.572   6.968
10199SOL    HW131496   2.899   2.493   6.955
10199SOL    HW231497   2.772   2.551   0.012
10200SOL     OW31498   4.859   1.774   7.005
10200SOL    HW131499   4.853   1.695   0.039
10200SOL    HW231500   4.908   1.749   6.922
10201SOL     OW31501   1.465   4.548   0.590
10201SOL    HW131502   1.560   4.581   0.594
10201SOL    HW231503   1.439   4.512   0.680
10202SOL     OW31504   3.408   3.718   0.368
10202SOL    HW131505   3.426   3.768   0.453
10202SOL    HW231506   3.399   3.782   0.292
10203SOL     OW31507   6.386   3.142   3.272
10203SOL    HW131508   6.378   3.221   3.334
10203SOL    HW231509   6.447   3.074   3.313
10204SOL     OW31510   5.411   5.807   0.078
10204SOL    HW131511   5.452   5.716   0.076
10204SOL    HW231512   5.472   5.872   0.031
10205SOL     OW31513   1.705   0.267   1.233
10205SOL    HW131514   1.669   0.269   1.140
10205SOL    HW231515   1.801   0.296   1.233
10206SOL     OW31516   0.183   0.837   0.303
10206SOL    HW131517   0.206   0.884   0.388
10206SOL    HW231518   0.184   0.902   0.227
10207SOL     OW31519   1.262   1.816   0.032
10207SOL    HW131520   1.232   1.866   6.977
10207SOL    HW231521   1.311   1.733   0.003
10208SOL     OW31522   5.866   4.452   4.128
10208SOL    HW131523   5.898   4.423   4.038
10208SOL    HW231524   5.944   4.472   4.186
10209SOL     OW31525   0.516   6.907   0.038
10209SOL    HW131526   0.607   6.941   0.014
10209SOL    HW231527   0.453   6.984   0.049
10210SOL     OW31528   4.811   6.671   2.170
10210SOL    HW131529   4.776   6.587   2.129
10210SOL    HW231530   4.911   6.670   2.167
10211SOL     OW31531   3.759   6.491   4.956
10211SOL    HW131532   3.855   6.477   4.929
10211SOL    HW231533   3.750   6.578   5.003
10212SOL     OW31534   1.125   0.562   5.470
10212SOL    HW131535   1.209   0.561   5.525
10212SOL    HW231536   1.052   0.513   5.519
10213SOL     OW31537   5.629   3.092   1.358
10213SOL    HW131538   5.686   3.124   1.435
10213SOL    HW231539   5.663   3.004   1.326
10214SOL     OW31540   1.545   1.332   2.290
10214SOL    HW131541   1.633   1.300   2.326
10214SOL    HW231542   1.471   1.290   2.343
10215SOL     OW31543   3.795   3.672   3.369
10215SOL    HW131544   3.703   3.664   3.407
10215SOL    HW231545   3.801   3.754   3.312
10216SOL     OW31546   0.162   1.265   1.502
10216SOL    HW131547   0.184   1.346   1.556
10216SOL    HW231548   0.246   1.218   1.475
10217SOL     OW31549   2.990   2.075   3.142
10217SOL    HW131550   3.046   2.084   3.060
10217SOL    HW231551   2.929   1.996   3.133
10218SOL     OW31552   1.658   1.224   1.328
10218SOL    HW131553   1.604   1.158   1.275
10218SOL    HW231554   1.713   1.279   1.265
10219SOL     OW31555   0.141   1.950   2.554
10219SOL    HW131556   0.090   1.905   2.627
10219SOL    HW231557   0.086   2.023   2.515
10220SOL     OW31558   4.666   1.723   0.936
10220SOL    HW131559   4.736   1.788   0.906
10220SOL    HW231560   4.579   1.771   0.946
10221SOL     OW31561   0.697   4.952   3.168
10221SOL    HW131562   0.669   4.858   3.187
10221SOL    HW231563   0.765   4.981   3.235
10222SOL     OW31564   2.670   3.575   6.091
10222SOL    HW131565   2.578   3.592   6.125
10222SOL    HW231566   2.735   3.634   6.139
10223SOL     OW31567   0.639   4.846   1.310
10223SOL    HW131568   0.649   4.838   1.211
10223SOL    HW231569   0.664   4.760   1.353
10224SOL     OW31570   6.996   3.211   4.218
10224SOL    HW131571   6.992   3.248   4.311
10224SOL    HW231572   6.914   3.156   4.200
10225SOL     OW31573   1.481   4.985   5.757
10225SOL    HW131574   1.507   4.890   5.778
10225SOL    HW231575   1.529   5.047   5.819
10226SOL     OW31576   2.874   0.733   6.247
10226SOL    HW131577   2.934   0.686   6.312
10226SOL    HW231578   2.782   0.695   6.254
10227SOL     OW31579   5.672   4.904   0.659
10227SOL    HW131580   5.770   4.916   0.678
10227SOL    HW231581   5.656   4.916   0.561
10228SOL     OW31582   0.342   6.669   1.915
10228SOL    HW131583   0.350   6.664   2.014
10228SOL    HW231584   0.394   6.747   1.881
10229SOL     OW31585   1.193   3.238   4.725
10229SOL    HW131586   1.206   3.195   4.815
10229SOL    HW231587   1.096   3.251   4.707
10230SOL     OW31588   5.694   5.982   3.037
10230SOL    HW131589   5.648   5.915   2.979
10230SOL    HW231590   5.658   6.073   3.018
10231SOL     OW31591   6.929   5.702   5.118
10231SOL    HW131592   6.920   5.690   5.217
10231SOL    HW231593   6.886   5.624   5.072
10232SOL     OW31594   3.209   1.172   3.523
10232SOL    HW131595   3.145   1.190   3.598
10232SOL    HW231596   3.182   1.225   3.443
10233SOL     OW31597   3.752   4.081   4.808
10233SOL    HW131598   3.740   4.144   4.885
10233SOL    HW231599   3.665   4.034   4.791
10234SOL     OW31600   5.963   1.551   1.670
10234SOL    HW131601   6.051   1.595   1.685
10234SOL    HW231602   5.912   1.602   1.600
10235SOL     OW31603   2.097   2.699   1.976
10235SOL    HW131604   2.066   2.777   1.922
10235SOL    HW231605   2.197   2.701   1.983
10236SOL     OW31606   3.043   6.916   0.020
10236SOL    HW131607   3.080   6.841   6.990
10236SOL    HW231608   2.953   6.890   0.054
10237SOL     OW31609   6.895   3.427   6.994
10237SOL    HW131610   6.844   3.442   0.052
10237SOL    HW231611   6.832   3.397   6.922
10238SOL     OW31612   3.879   4.293   1.672
10238SOL    HW131613   3.889   4.195   1.692
10238SOL    HW231614   3.969   4.332   1.654
10239SOL     OW31615   1.555   2.785   4.466
10239SOL    HW131616   1.580   2.785   4.369
10239SOL    HW231617   1.638   2.792   4.522
10240SOL     OW31618   1.896   5.110   2.024
10240SOL    HW131619   1.966   5.080   1.959
10240SOL    HW231620   1.854   5.030   2.067
10241SOL     OW31621   5.540   0.363   2.355
10241SOL    HW131622   5.626   0.320   2.382
10241SOL    HW231623   5.539   0.458   2.386
10242SOL     OW31624   7.007   1.343   0.603
10242SOL    HW131625   6.957   1.381   0.681
10242SOL    HW231626   0.076   1.372   0.608
10243SOL     OW31627   2.375   4.378   1.724
10243SOL    HW131628   2.472   4.399   1.734
10243SOL    HW231629   2.359   4.282   1.746
10244SOL     OW31630   1.482   4.461   0.307
10244SOL    HW131631   1.568   4.509   0.293
10244SOL    HW231632   1.454   4.469   0.403
10245SOL     OW31633   3.250   3.621   0.956
10245SOL    HW131634   3.244   3.585   0.863
10245SOL    HW231635   3.188   3.570   1.016
10246SOL     OW31636   3.329   4.138   4.259
10246SOL    HW131637   3.304   4.110   4.167
10246SOL    HW231638   3.421   4.179   4.258
10247SOL     OW31639   6.601   4.093   5.985
10247SOL    HW131640   6.662   4.092   6.064
10247SOL    HW231641   6.530   4.162   5.999
10248SOL     OW31642   1.384   6.499   2.917
10248SOL    HW131643   1.416   6.591   2.897
10248SOL    HW231644   1.295   6.504   2.963
10249SOL     OW31645   3.116   5.724   6.560
10249SOL    HW131646   3.187   5.780   6.519
10249SOL    HW231647   3.049   5.698   6.490
10250SOL     OW31648   6.407   3.366   1.206
10250SOL    HW131649   6.361   3.294   1.259
10250SOL    HW231650   6.380   3.359   1.110
10251SOL     OW31651   2.083   1.457   4.570
10251SOL    HW131652   2.097   1.465   4.471
10251SOL    HW231653   2.038   1.539   4.604
10252SOL     OW31654   4.271   3.871   6.415
10252SOL    HW131655   4.200   3.801   6.416
10252SOL    HW231656   4.359   3.830   6.394
10253SOL     OW31657   2.865   5.498   0.652
10253SOL    HW131658   2.958   5.525   0.629
10253SOL    HW231659   2.861   5.471   0.748
10254SOL     OW31660   4.941   1.567   5.151
10254SOL    HW131661   4.870   1.506   5.117
10254SOL    HW231662   4.919   1.597   5.244
10255SOL     OW31663   2.712   6.880   1.002
10255SOL    HW131664   2.677   6.848   0.914
10255SOL    HW231665   2.808   6.854   1.011
10256SOL     OW31666   4.113   1.659   2.256
10256SOL    HW131667   4.109   1.566   2.218
10256SOL    HW231668   4.155   1.720   2.189
10257SOL     OW31669   2.189   5.514   3.978
10257SOL    HW131670   2.142   5.569   4.048
10257SOL    HW231671   2.184   5.417   4.003
10258SOL     OW31672   3.781   2.117   2.726
10258SOL    HW131673   3.712   2.189   2.716
10258SOL    HW231674   3.856   2.149   2.784
10259SOL     OW31675   0.726   4.366   3.147
10259SOL    HW131676   0.779   4.445   3.177
10259SOL    HW231677   0.788   4.295   3.114
10260SOL     OW31678   0.799   1.639   3.089
10260SOL    HW131679   0.843   1.557   3.050
10260SOL    HW231680   0.752   1.614   3.173
10261SOL     OW31681   6.739   5.284   1.179
10261SOL    HW131682   6.651   5.316   1.214
10261SOL    HW231683   6.762   5.197   1.222
10262SOL     OW31684   3.102   6.683   6.000
10262SOL    HW131685   3.202   6.678   6.011
10262SOL    HW231686   3.059   6.628   6.072
10263SOL     OW31687   5.685   0.252   0.870
10263SOL    HW131688   5.631   0.305   0.804
10263SOL    HW231689   5.754   0.199   0.821
10264SOL     OW31690   0.114   6.259   6.632
10264SOL    HW131691   0.162   6.281   6.547
10264SOL    HW231692   0.141   6.168   6.664
10265SOL     OW31693   3.172   2.650   0.704
10265SOL    HW131694   3.225   2.643   0.788
10265SOL    HW231695   3.098   2.583   0.705
10266SOL     OW31696   3.984   3.066   3.499
10266SOL    HW131697   3.924   3.013   3.558
10266SOL    HW231698   3.998   3.018   3.413
10267SOL     OW31699   5.310   1.715   0.289
10267SOL    HW131700   5.244   1.660   0.340
10267SOL    HW231701   5.397   1.665   0.281
10268SOL     OW31702   6.251   6.357   2.153
10268SOL    HW131703   6.321   6.300   2.111
10268SOL    HW231704   6.257   6.350   2.252
10269SOL     OW31705   0.843   3.350   6.143
10269SOL    HW131706   0.908   3.325   6.215
10269SOL    HW231707   0.894   3.381   6.062
10270SOL     OW31708   3.103   5.174   2.490
10270SOL    HW131709   3.196   5.167   2.455
10270SOL    HW231710   3.043   5.113   2.437
10271SOL     OW31711   3.785   2.427   0.260
10271SOL    HW131712   3.786   2.503   0.194
10271SOL    HW231713   3.831   2.455   0.344
10272SOL     OW31714   0.858   1.011   5.572
10272SOL    HW131715   0.885   0.978   5.663
10272SOL    HW231716   0.917   0.970   5.503
10273SOL     OW31717   3.197   5.742   2.760
10273SOL    HW131718   3.208   5.839   2.741
10273SOL    HW231719   3.285   5.705   2.791
10274SOL     OW31720   0.964   4.860   5.978
10274SOL    HW131721   0.945   4.887   6.072
10274SOL    HW231722   0.923   4.926   5.914
10275SOL     OW31723   0.457   0.313   2.109
10275SOL    HW131724   0.476   0.411   2.112
10275SOL    HW231725   0.464   0.275   2.201
10276SOL     OW31726   5.021   6.096   5.069
10276SOL    HW131727   4.960   6.020   5.044
10276SOL    HW231728   5.005   6.122   5.164
10277SOL     OW31729   1.913   6.310   4.831
10277SOL    HW131730   1.883   6.217   4.855
10277SOL    HW231731   1.992   6.335   4.887
10278SOL     OW31732   1.597   1.619   3.379
10278SOL    HW131733   1.596   1.531   3.427
10278SOL    HW231734   1.577   1.604   3.282
10279SOL     OW31735   1.509   4.620   4.609
10279SOL    HW131736   1.595   4.592   4.651
10279SOL    HW231737   1.522   4.705   4.559
10280SOL     OW31738   6.413   2.502   6.254
10280SOL    HW131739   6.470   2.514   6.173
10280SOL    HW231740   6.465   2.529   6.336
10281SOL     OW31741   5.995   2.074   3.694
10281SOL    HW131742   6.080   2.040   3.734
10281SOL    HW231743   5.943   1.997   3.656
10282SOL     OW31744   5.386   3.505   3.882
10282SOL    HW131745   5.337   3.430   3.837
10282SOL    HW231746   5.482   3.501   3.857
10283SOL     OW31747   1.825   3.194   1.159
10283SOL    HW131748   1.735   3.182   1.202
10283SOL    HW231749   1.813   3.222   1.064
10284SOL     OW31750   5.433   1.770   5.406
10284SOL    HW131751   5.479   1.765   5.495
10284SOL    HW231752   5.417   1.865   5.383
10285SOL     OW31753   5.199   6.368   3.333
10285SOL    HW131754   5.113   6.413   3.359
10285SOL    HW231755   5.186   6.321   3.245
10286SOL     OW31756   4.112   0.677   3.624
10286SOL    HW131757   4.049   0.600   3.626
10286SOL    HW231758   4.140   0.695   3.530
10287SOL     OW31759   2.753   5.300   1.801
10287SOL    HW131760   2.732   5.304   1.898
10287SOL    HW231761   2.680   5.346   1.749
10288SOL     OW31762   4.644   6.152   3.197
10288SOL    HW131763   4.613   6.130   3.105
10288SOL    HW231764   4.740   6.126   3.208
10289SOL     OW31765   2.953   6.327   0.164
10289SOL    HW131766   2.960   6.313   0.066
10289SOL    HW231767   2.985   6.419   0.188
10290SOL     OW31768   2.967   3.383   2.772
10290SOL    HW131769   2.913   3.431   2.703
10290SOL    HW231770   3.064   3.404   2.760
10291SOL     OW31771   3.801   1.867   2.799
10291SOL    HW131772   3.886   1.876   2.852
10291SOL    HW231773   3.775   1.956   2.763
10292SOL     OW31774   1.317   1.819   4.949
10292SOL    HW131775   1.352   1.833   4.857
10292SOL    HW231776   1.279   1.904   4.985
10293SOL     OW31777   1.292   3.213   2.568
10293SOL    HW131778   1.330   3.304   2.557
10293SOL    HW231779   1.192   3.218   2.571
10294SOL     OW31780   4.313   1.515   3.422
10294SOL    HW131781   4.353   1.511   3.330
10294SOL    HW231782   4.216   1.491   3.417
10295SOL     OW31783   0.781   3.197   5.845
10295SOL    HW131784   0.853   3.137   5.811
10295SOL    HW231785   0.714   3.143   5.897
10296SOL     OW31786   5.483   1.016   6.700
10296SOL    HW131787   5.400   1.039   6.751
10296SOL    HW231788   5.500   1.084   6.629
10297SOL     OW31789   1.970   1.005   6.000
10297SOL    HW131790   1.875   1.024   5.976
10297SOL    HW231791   2.021   0.977   5.919
10298SOL     OW31792   2.741   4.325   0.941
10298SOL    HW131793   2.692   4.407   0.972
10298SOL    HW231794   2.683   4.245   0.956
10299SOL     OW31795   3.714   4.864   2.893
10299SOL    HW131796   3.764   4.777   2.900
10299SOL    HW231797   3.694   4.897   2.985
10300SOL     OW31798   1.096   4.146   2.161
10300SOL    HW131799   1.155   4.175   2.086
10300SOL    HW231800   1.015   4.204   2.164
10301SOL     OW31801   4.722   2.159   5.523
10301SOL    HW131802   4.680   2.134   5.436
10301SOL    HW231803   4.796   2.096   5.544
10302SOL     OW31804   2.668   6.806   4.520
10302SOL    HW131805   2.639   6.717   4.486
10302SOL    HW231806   2.610   6.877   4.481
10303SOL     OW31807   1.185   5.858   3.555
10303SOL    HW131808   1.241   5.906   3.487
10303SOL    HW231809   1.118   5.922   3.593
10304SOL     OW31810   5.659   0.114   1.695
10304SOL    HW131811   5.701   0.050   1.759
10304SOL    HW231812   5.650   0.203   1.739
10305SOL     OW31813   1.677   3.875   5.934
10305SOL    HW131814   1.777   3.877   5.940
10305SOL    HW231815   1.647   3.785   5.903
10306SOL     OW31816   5.230   5.701   6.905
10306SOL    HW131817   5.221   5.602   6.894
10306SOL    HW231818   5.302   5.720   6.973
10307SOL     OW31819   3.086   2.076   5.251
10307SOL    HW131820   2.992   2.044   5.244
10307SOL    HW231821   3.091   2.172   5.222
10308SOL     OW31822   2.116   3.825   2.530
10308SOL    HW131823   2.116   3.924   2.545
10308SOL    HW231824   2.027   3.796   2.495
10309SOL     OW31825   0.167   2.198   0.214
10309SOL    HW131826   0.245   2.250   0.178
10309SOL    HW231827   0.140   2.237   0.302
10310SOL     OW31828   3.469   4.194   0.505
10310SOL    HW131829   3.370   4.186   0.516
10310SOL    HW231830   3.489   4.240   0.419
10311SOL     OW31831   6.693   5.636   0.589
10311SOL    HW131832   6.774   5.625   0.646
10311SOL    HW231833   6.689   5.729   0.554
10312SOL     OW31834   3.728   6.636   2.308
10312SOL    HW131835   3.732   6.609   2.212
10312SOL    HW231836   3.789   6.579   2.362
10313SOL     OW31837   4.157   5.579   2.153
10313SOL    HW131838   4.225   5.652   2.162
10313SOL    HW231839   4.067   5.615   2.176
10314SOL     OW31840   6.475   0.481   1.327
10314SOL    HW131841   6.427   0.412   1.381
10314SOL    HW231842   6.451   0.470   1.231
10315SOL     OW31843   5.381   5.940   4.639
10315SOL    HW131844   5.443   5.989   4.577
10315SOL    HW231845   5.373   5.991   4.724
10316SOL     OW31846   6.303   2.376   5.746
10316SOL    HW131847   6.317   2.297   5.806
10316SOL    HW231848   6.390   2.423   5.733
10317SOL     OW31849   4.902   5.980   6.250
10317SOL    HW131850   5.002   5.990   6.251
10317SOL    HW231851   4.871   5.945   6.338
10318SOL     OW31852   4.861   0.288   0.151
10318SOL    HW131853   4.860   0.365   0.215
10318SOL    HW231854   4.770   0.249   0.144
10319SOL     OW31855   0.237   3.386   5.326
10319SOL    HW131856   0.207   3.315   5.390
10319SOL    HW231857   0.266   3.467   5.378
10320SOL     OW31858   0.857   6.811   2.588
10320SOL    HW131859   0.819   6.879   2.652
10320SOL    HW231860   0.942   6.847   2.549
10321SOL     OW31861   4.373   2.090   1.922
10321SOL    HW131862   4.446   2.060   1.983
10321SOL    HW231863   4.336   2.177   1.955
10322SOL     OW31864   5.531   5.872   5.064
10322SOL    HW131865   5.484   5.864   5.152
10322SOL    HW231866   5.619   5.917   5.076
10323SOL     OW31867   5.979   4.296   5.241
10323SOL    HW131868   5.910   4.337   5.300
10323SOL    HW231869   5.965   4.327   5.147
10324SOL     OW31870   3.223   2.873   2.049
10324SOL    HW131871   3.166   2.893   1.969
10324SOL    HW231872   3.176   2.810   2.110
10325SOL     OW31873   6.617   4.026   2.190
10325SOL    HW131874   6.703   4.021   2.241
10325SOL    HW231875   6.637   4.039   2.093
10326SOL     OW31876   4.355   4.367   0.009
10326SOL    HW131877   4.369   4.429   6.959
10326SOL    HW231878   4.368   4.273   7.005
10327SOL     OW31879   2.260   2.263   0.963
10327SOL    HW131880   2.203   2.286   0.884
10327SOL    HW231881   2.270   2.343   1.021
10328SOL     OW31882   6.373   2.335   0.930
10328SOL    HW131883   6.412   2.426   0.946
10328SOL    HW231884   6.439   2.265   0.955
10329SOL     OW31885   3.076   0.932   3.845
10329SOL    HW131886   3.001   0.977   3.893
10329SOL    HW231887   3.069   0.949   3.747
10330SOL     OW31888   4.169   1.210   2.599
10330SOL    HW131889   4.235   1.164   2.658
10330SOL    HW231890   4.117   1.142   2.547
10331SOL     OW31891   6.678   0.179   5.914
10331SOL    HW131892   6.631   0.125   5.984
10331SOL    HW231893   6.771   0.199   5.944
10332SOL     OW31894   6.853   0.445   1.041
10332SOL    HW131895   6.895   0.429   0.952
10332SOL    HW231896   6.774   0.505   1.030
10333SOL     OW31897   0.560   4.497   5.210
10333SOL    HW131898   0.646   4.537   5.244
10333SOL    HW231899   0.580   4.435   5.133
10334SOL     OW31900   3.471   0.695   4.255
10334SOL    HW131901   3.513   0.658   4.171
10334SOL    HW231902   3.538   0.751   4.303
10335SOL     OW31903   3.076   4.251   6.549
10335SOL    HW131904   3.142   4.315   6.511
10335SOL    HW231905   3.004   4.233   6.481
10336SOL     OW31906   6.861   0.179   1.688
10336SOL    HW131907   6.941   0.191   1.630
10336SOL    HW231908   6.831   0.267   1.723
10337SOL     OW31909   0.154   6.127   6.217
10337SOL    HW131910   0.193   6.178   6.294
10337SOL    HW231911   0.214   6.136   6.137
10338SOL     OW31912   2.194   6.333   2.463
10338SOL    HW131913   2.150   6.317   2.552
10338SOL    HW231914   2.159   6.417   2.423
10339SOL     OW31915   4.512   3.694   6.674
10339SOL    HW131916   4.573   3.772   6.663
10339SOL    HW231917   4.541   3.640   6.753
10340SOL     OW31918   1.016   3.841   1.220
10340SOL    HW131919   1.066   3.918   1.181
10340SOL    HW231920   0.988   3.863   1.314
10341SOL     OW31921   2.004   3.110   2.311
10341SOL    HW131922   1.952   3.140   2.231
10341SOL    HW231923   1.963   3.149   2.393
10342SOL     OW31924   1.548   0.176   4.893
10342SOL    HW131925   1.490   0.164   4.812
10342SOL    HW231926   1.641   0.198   4.864
10343SOL     OW31927   3.488   5.455   6.684
10343SOL    HW131928   3.402   5.463   6.734
10343SOL    HW231929   3.486   5.515   6.604
10344SOL     OW31930   4.034   3.279   0.964
10344SOL    HW131931   4.114   3.219   0.952
10344SOL    HW231932   4.063   3.363   1.009
10345SOL     OW31933   1.416   1.650   6.319
10345SOL    HW131934   1.343   1.604   6.269
10345SOL    HW231935   1.469   1.583   6.371
10346SOL     OW31936   0.566   5.301   1.687
10346SOL    HW131937   0.567   5.280   1.589
10346SOL    HW231938   0.486   5.260   1.729
10347SOL     OW31939   3.790   1.951   3.597
10347SOL    HW131940   3.796   1.943   3.497
10347SOL    HW231941   3.796   1.860   3.638
10348SOL     OW31942   6.606   2.042   6.946
10348SOL    HW131943   6.659   2.054   6.862
10348SOL    HW231944   6.572   2.131   6.978
10349SOL     OW31945   1.386   0.737   6.964
10349SOL    HW131946   1.300   0.705   7.004
10349SOL    HW231947   1.380   0.733   6.865
10350SOL     OW31948   2.534   6.579   4.818
10350SOL    HW131949   2.530   6.517   4.740
10350SOL    HW231950   2.616   6.636   4.811
10351SOL     OW31951   4.386   4.509   5.868
10351SOL    HW131952   4.429   4.425   5.903
10351SOL    HW231953   4.365   4.497   5.771
10352SOL     OW31954   3.401   1.328   6.084
10352SOL    HW131955   3.326   1.345   6.148
10352SOL    HW231956   3.477   1.391   6.103
10353SOL     OW31957   6.546   3.095   5.583
10353SOL    HW131958   6.645   3.085   5.585
10353SOL    HW231959   6.510   3.054   5.499
10354SOL     OW31960   5.707   2.615   2.404
10354SOL    HW131961   5.695   2.534   2.462
10354SOL    HW231962   5.700   2.589   2.308
10355SOL     OW31963   2.199   6.761   1.736
10355SOL    HW131964   2.202   6.795   1.642
10355SOL    HW231965   2.123   6.697   1.746
10356SOL     OW31966   1.140   5.040   5.276
10356SOL    HW131967   1.045   5.010   5.282
10356SOL    HW231968   1.164   5.057   5.181
10357SOL     OW31969   1.643   2.939   6.456
10357SOL    HW131970   1.737   2.957   6.426
10357SOL    HW231971   1.642   2.925   6.555
10358SOL     OW31972   6.823   3.237   3.165
10358SOL    HW131973   6.737   3.188   3.178
10358SOL    HW231974   6.877   3.192   3.095
10359SOL     OW31975   1.164   1.839   1.463
10359SOL    HW131976   1.251   1.835   1.512
10359SOL    HW231977   1.130   1.746   1.448
10360SOL     OW31978   5.165   4.705   3.048
10360SOL    HW131979   5.212   4.654   2.976
10360SOL    HW231980   5.081   4.744   3.011
10361SOL     OW31981   2.989   6.547   3.418
10361SOL    HW131982   2.930   6.628   3.420
10361SOL    HW231983   2.933   6.466   3.402
10362SOL     OW31984   0.927   5.091   4.924
10362SOL    HW131985   0.864   5.030   4.875
10362SOL    HW231986   0.907   5.088   5.022
10363SOL     OW31987   4.895   0.995   1.520
10363SOL    HW131988   4.914   0.948   1.434
10363SOL    HW231989   4.946   0.950   1.594
10364SOL     OW31990   3.045   3.224   1.177
10364SOL    HW131991   3.056   3.185   1.269
10364SOL    HW231992   3.126   3.202   1.122
10365SOL     OW31993   4.461   4.528   6.309
10365SOL    HW131994   4.462   4.452   6.375
10365SOL    HW231995   4.403   4.601   6.344
10366SOL     OW31996   3.000   0.613   4.197
10366SOL    HW131997   2.914   0.655   4.224
10366SOL    HW231998   3.065   0.684   4.169
10367SOL     OW31999   6.439   2.168   2.829
10367SOL    HW132000   6.526   2.208   2.859
10367SOL    HW232001   6.427   2.184   2.731
10368SOL     OW32002   1.504   1.249   1.586
10368SOL    HW132003   1.578   1.244   1.519
10368SOL    HW232004   1.480   1.157   1.616
10369SOL     OW32005   3.997   0.595   5.490
10369SOL    HW132006   3.923   0.580   5.556
10369SOL    HW232007   4.082   0.613   5.538
10370SOL     OW32008   5.345   1.506   5.421
10370SOL    HW132009   5.412   1.457   5.365
10370SOL    HW232010   5.355   1.604   5.406
10371SOL     OW32011   3.013   5.900   4.615
10371SOL    HW132012   3.112   5.910   4.623
10371SOL    HW232013   2.985   5.814   4.656
10372SOL     OW32014   1.220   1.535   6.122
10372SOL    HW132015   1.226   1.612   6.059
10372SOL    HW232016   1.132   1.489   6.110
10373SOL     OW32017   2.180   6.273   4.677
10373SOL    HW132018   2.106   6.206   4.668
10373SOL    HW232019   2.190   6.300   4.773
10374SOL     OW32020   4.003   1.292   2.800
10374SOL    HW132021   4.070   1.256   2.735
10374SOL    HW232022   3.989   1.390   2.782
10375SOL     OW32023   3.994   2.034   6.327
10375SOL    HW132024   3.937   1.959   6.361
10375SOL    HW232025   4.076   1.996   6.283
10376SOL     OW32026   0.898   6.341   3.918
10376SOL    HW132027   0.987   6.334   3.872
10376SOL    HW232028   0.825   6.325   3.852
10377SOL     OW32029   6.804   0.428   3.801
10377SOL    HW132030   6.760   0.474   3.878
10377SOL    HW232031   6.800   0.329   3.815
10378SOL     OW32032   6.762   0.880   5.606
10378SOL    HW132033   6.773   0.793   5.654
10378SOL    HW232034   6.724   0.864   5.515
10379SOL     OW32035   3.769   0.389   5.140
10379SOL    HW132036   3.773   0.343   5.051
10379SOL    HW232037   3.860   0.423   5.164
10380SOL     OW32038   6.659   1.443   3.003
10380SOL    HW132039   6.577   1.388   2.995
10380SOL    HW232040   6.634   1.540   3.006
10381SOL     OW32041   4.531   5.531   5.927
10381SOL    HW132042   4.533   5.630   5.915
10381SOL    HW232043   4.488   5.488   5.848
10382SOL     OW32044   2.087   4.729   6.456
10382SOL    HW132045   2.127   4.767   6.373
10382SOL    HW232046   2.044   4.641   6.436
10383SOL     OW32047   0.483   3.380   1.003
10383SOL    HW132048   0.513   3.473   1.027
10383SOL    HW232049   0.531   3.350   0.921
10384SOL     OW32050   0.582   0.064   0.509
10384SOL    HW132051   0.523   0.137   0.475
10384SOL    HW232052   0.564   7.006   0.458
10385SOL     OW32053   4.808   6.953   6.488
10385SOL    HW132054   4.835   7.003   6.571
10385SOL    HW232055   4.854   6.994   6.409
10386SOL     OW32056   0.570   3.813   4.884
10386SOL    HW132057   0.663   3.838   4.857
10386SOL    HW232058   0.563   3.714   4.892
10387SOL     OW32059   3.845   1.758   2.319
10387SOL    HW132060   3.933   1.720   2.290
10387SOL    HW232061   3.800   1.695   2.382
10388SOL     OW32062   0.760   5.710   3.717
10388SOL    HW132063   0.701   5.790   3.728
10388SOL    HW232064   0.706   5.634   3.680
10389SOL     OW32065   0.599   5.983   2.134
10389SOL    HW132066   0.609   6.043   2.055
10389SOL    HW232067   0.512   6.000   2.179
10390SOL     OW32068   1.460   3.648   2.041
10390SOL    HW132069   1.514   3.655   1.957
10390SOL    HW232070   1.481   3.562   2.088
10391SOL     OW32071   1.485   5.754   5.578
10391SOL    HW132072   1.409   5.728   5.518
10391SOL    HW232073   1.553   5.681   5.579
10392SOL     OW32074   6.391   3.973   0.557
10392SOL    HW132075   6.484   3.957   0.591
10392SOL    HW232076   6.393   3.990   0.459
10393SOL     OW32077   1.536   1.645   2.900
10393SOL    HW132078   1.486   1.639   2.986
10393SOL    HW232079   1.484   1.702   2.836
10394SOL     OW32080   2.787   6.992   6.191
10394SOL    HW132081   2.729   6.964   6.115
10394SOL    HW232082   2.845   6.915   6.219
10395SOL     OW32083   6.327   1.189   4.921
10395SOL    HW132084   6.260   1.198   4.848
10395SOL    HW232085   6.407   1.140   4.887
10396SOL     OW32086   1.229   0.775   3.483
10396SOL    HW132087   1.151   0.837   3.495
10396SOL    HW232088   1.195   0.682   3.467
10397SOL     OW32089   3.718   1.400   3.829
10397SOL    HW132090   3.724   1.311   3.785
10397SOL    HW232091   3.651   1.457   3.780
10398SOL     OW32092   6.461   2.192   0.386
10398SOL    HW132093   6.407   2.118   0.426
10398SOL    HW232094   6.435   2.205   0.290
10399SOL     OW32095   4.709   1.388   5.564
10399SOL    HW132096   4.753   1.303   5.537
10399SOL    HW232097   4.727   1.405   5.661
10400SOL     OW32098   3.649   5.802   1.953
10400SOL    HW132099   3.673   5.783   2.049
10400SOL    HW232100   3.568   5.748   1.929
10401SOL     OW32101   6.815   6.958   2.164
10401SOL    HW132102   6.762   6.877   2.189
10401SOL    HW232103   6.790   6.986   2.071
10402SOL     OW32104   0.506   2.996   5.854
10402SOL    HW132105   0.565   2.963   5.780
10402SOL    HW232106   0.505   2.929   5.928
10403SOL     OW32107   5.493   1.627   2.733
10403SOL    HW132108   5.418   1.562   2.741
10403SOL    HW232109   5.579   1.577   2.722
10404SOL     OW32110   0.697   6.448   3.500
10404SOL    HW132111   0.695   6.395   3.585
10404SOL    HW232112   0.650   6.535   3.515
10405SOL     OW32113   1.776   5.688   5.270
10405SOL    HW132114   1.859   5.706   5.217
10405SOL    HW232115   1.727   5.610   5.230
10406SOL     OW32116   1.891   4.225   4.911
10406SOL    HW132117   1.947   4.184   4.839
10406SOL    HW232118   1.929   4.313   4.937
10407SOL     OW32119   1.650   0.723   6.239
10407SOL    HW132120   1.581   0.720   6.312
10407SOL    HW232121   1.704   0.639   6.241
10408SOL     OW32122   4.514   6.289   2.932
10408SOL    HW132123   4.433   6.262   2.983
10408SOL    HW232124   4.544   6.379   2.963
10409SOL     OW32125   0.231   4.778   1.461
10409SOL    HW132126   0.282   4.864   1.472
10409SOL    HW232127   0.206   4.767   1.365
10410SOL     OW32128   5.449   0.578   1.396
10410SOL    HW132129   5.373   0.616   1.449
10410SOL    HW232130   5.414   0.539   1.311
10411SOL     OW32131   2.382   4.730   4.214
10411SOL    HW132132   2.432   4.798   4.162
10411SOL    HW232133   2.293   4.768   4.241
10412SOL     OW32134   0.344   1.338   0.305
10412SOL    HW132135   0.245   1.343   0.312
10412SOL    HW232136   0.370   1.285   0.224
10413SOL     OW32137   1.030   2.390   0.867
10413SOL    HW132138   0.940   2.348   0.877
10413SOL    HW232139   1.077   2.390   0.955
10414SOL     OW32140   4.903   6.438   6.374
10414SOL    HW132141   4.889   6.363   6.438
10414SOL    HW232142   4.999   6.466   6.374
10415SOL     OW32143   1.472   5.122   3.813
10415SOL    HW132144   1.526   5.153   3.891
10415SOL    HW232145   1.483   5.023   3.802
10416SOL     OW32146   6.698   1.984   5.909
10416SOL    HW132147   6.621   1.956   5.851
10416SOL    HW232148   6.706   1.920   5.986
10417SOL     OW32149   4.382   4.522   3.191
10417SOL    HW132150   4.347   4.431   3.216
10417SOL    HW232151   4.446   4.513   3.115
10418SOL     OW32152   6.363   4.166   5.759
10418SOL    HW132153   6.294   4.147   5.689
10418SOL    HW232154   6.430   4.092   5.761
10419SOL     OW32155   2.836   1.203   5.111
10419SOL    HW132156   2.915   1.225   5.168
10419SOL    HW232157   2.752   1.226   5.160
10420SOL     OW32158   6.872   3.690   2.365
10420SOL    HW132159   6.844   3.637   2.445
10420SOL    HW232160   6.966   3.667   2.341
10421SOL     OW32161   1.463   4.355   4.092
10421SOL    HW132162   1.474   4.425   4.021
10421SOL    HW232163   1.469   4.398   4.182
10422SOL     OW32164   6.600   3.935   5.468
10422SOL    HW132165   6.586   4.031   5.489
10422SOL    HW232166   6.536   3.907   5.396
10423SOL     OW32167   3.679   4.959   3.984
10423SOL    HW132168   3.581   4.939   3.977
10423SOL    HW232169   3.712   4.931   4.074
10424SOL     OW32170   4.282   1.220   0.080
10424SOL    HW132171   4.199   1.260   0.042
10424SOL    HW232172   4.347   1.293   0.102
10425SOL     OW32173   1.140   6.519   1.601
10425SOL    HW132174   1.105   6.521   1.695
10425SOL    HW232175   1.139   6.611   1.563
10426SOL     OW32176   4.690   3.207   5.316
10426SOL    HW132177   4.702   3.109   5.326
10426SOL    HW232178   4.773   3.247   5.275
10427SOL     OW32179   5.387   5.759   5.271
10427SOL    HW132180   5.312   5.699   5.243
10427SOL    HW232181   5.452   5.707   5.326
10428SOL     OW32182   1.334   1.716   3.461
10428SOL    HW132183   1.422   1.674   3.439
10428SOL    HW232184   1.329   1.806   3.420
10429SOL     OW32185   1.229   3.497   2.440
10429SOL    HW132186   1.180   3.584   2.442
10429SOL    HW232187   1.326   3.514   2.459
10430SOL     OW32188   3.562   6.103   4.341
10430SOL    HW132189   3.654   6.094   4.380
10430SOL    HW232190   3.542   6.022   4.286
10431SOL     OW32191   2.541   1.851   4.515
10431SOL    HW132192   2.512   1.939   4.479
10431SOL    HW232193   2.469   1.783   4.500
10432SOL     OW32194   0.472   7.007   4.906
10432SOL    HW132195   0.464   0.046   4.830
10432SOL    HW232196   0.540   6.937   4.883
10433SOL     OW32197   1.859   7.007   1.527
10433SOL    HW132198   1.950   7.014   1.568
10433SOL    HW232199   1.867   6.967   1.436
10434SOL     OW32200   5.221   0.038   5.347
10434SOL    HW132201   5.127   0.016   5.319
10434SOL    HW232202   5.235   0.009   5.442
10435SOL     OW32203   1.044   2.392   6.216
10435SOL    HW132204   1.111   2.319   6.205
10435SOL    HW232205   0.969   2.379   6.152
10436SOL     OW32206   0.138   3.686   4.880
10436SOL    HW132207   0.160   3.774   4.838
10436SOL    HW232208   0.213   3.622   4.866
10437SOL     OW32209   4.818   4.950   5.141
10437SOL    HW132210   4.904   4.964   5.191
10437SOL    HW232211   4.747   5.008   5.180
10438SOL     OW32212   0.373   6.708   5.848
10438SOL    HW132213   0.302   6.665   5.794
10438SOL    HW232214   0.463   6.684   5.811
10439SOL     OW32215   6.683   0.899   4.793
10439SOL    HW132216   6.642   0.956   4.722
10439SOL    HW232217   6.768   0.859   4.759
10440SOL     OW32218   6.710   1.487   6.863
10440SOL    HW132219   6.809   1.498   6.867
10440SOL    HW232220   6.676   1.454   6.952
10441SOL     OW32221   3.506   1.651   1.345
10441SOL    HW132222   3.480   1.651   1.248
10441SOL    HW232223   3.557   1.735   1.366
10442SOL     OW32224   3.145   0.962   5.349
10442SOL    HW132225   3.168   1.041   5.291
10442SOL    HW232226   3.213   0.890   5.334
10443SOL     OW32227   0.259   2.150   3.337
10443SOL    HW132228   0.316   2.221   3.376
10443SOL    HW232229   0.189   2.192   3.279
10444SOL     OW32230   3.603   4.940   3.598
10444SOL    HW132231   3.537   4.980   3.662
10444SOL    HW232232   3.678   4.900   3.650
10445SOL     OW32233   0.466   3.893   1.957
10445SOL    HW132234   0.555   3.853   1.934
10445SOL    HW232235   0.405   3.821   1.990
10446SOL     OW32236   1.736   4.068   5.089
10446SOL    HW132237   1.713   4.154   5.134
10446SOL    HW232238   1.809   4.084   5.022
10447SOL     OW32239   6.157   2.137   2.935
10447SOL    HW132240   6.210   2.209   2.891
10447SOL    HW232241   6.127   2.168   3.025
10448SOL     OW32242   2.839   1.044   3.914
10448SOL    HW132243   2.855   1.055   3.816
10448SOL    HW232244   2.813   0.950   3.933
10449SOL     OW32245   3.388   5.667   6.920
10449SOL    HW132246   3.439   5.734   6.866
10449SOL    HW232247   3.312   5.632   6.866
10450SOL     OW32248   6.137   0.609   6.172
10450SOL    HW132249   6.102   0.532   6.119
10450SOL    HW232250   6.090   0.693   6.144
10451SOL     OW32251   2.483   0.759   3.689
10451SOL    HW132252   2.577   0.754   3.654
10451SOL    HW232253   2.449   0.667   3.708
10452SOL     OW32254   6.770   2.662   2.654
10452SOL    HW132255   6.768   2.658   2.754
10452SOL    HW232256   6.769   2.758   2.626
10453SOL     OW32257   4.387   6.575   2.764
10453SOL    HW132258   4.474   6.624   2.752
10453SOL    HW232259   4.332   6.583   2.681
10454SOL     OW32260   6.638   1.397   0.071
10454SOL    HW132261   6.571   1.337   0.115
10454SOL    HW232262   6.727   1.351   0.069
10455SOL     OW32263   6.029   6.049   4.250
10455SOL    HW132264   6.099   6.120   4.250
10455SOL    HW232265   5.939   6.091   4.267
10456SOL     OW32266   0.193   5.703   0.128
10456SOL    HW132267   0.116   5.705   0.191
10456SOL    HW232268   0.178   5.633   0.058
10457SOL     OW32269   4.772   3.631   7.008
10457SOL    HW132270   4.775   3.720   0.029
10457SOL    HW232271   4.864   3.609   6.975
10458SOL     OW32272   0.045   0.092   5.483
10458SOL    HW132273   7.016   0.166   5.446
10458SOL    HW232274   0.094   0.046   5.408
10459SOL     OW32275   6.867   5.421   0.970
10459SOL    HW132276   6.966   5.406   0.978
10459SOL    HW232277   6.819   5.348   1.018
10460SOL     OW32278   6.776   4.382   1.943
10460SOL    HW132279   6.766   4.320   1.865
10460SOL    HW232280   6.818   4.333   2.019
10461SOL     OW32281   6.575   4.203   5.535
10461SOL    HW132282   6.655   4.220   5.593
10461SOL    HW232283   6.492   4.227   5.585
10462SOL     OW32284   4.653   1.871   1.472
10462SOL    HW132285   4.578   1.834   1.526
10462SOL    HW232286   4.728   1.898   1.534
10463SOL     OW32287   4.828   1.677   6.156
10463SOL    HW132288   4.757   1.710   6.094
10463SOL    HW232289   4.816   1.719   6.246
10464SOL     OW32290   5.043   5.353   2.571
10464SOL    HW132291   5.062   5.259   2.598
10464SOL    HW232292   5.121   5.389   2.518
10465SOL     OW32293   5.420   4.040   2.804
10465SOL    HW132294   5.363   4.014   2.882
10465SOL    HW232295   5.450   3.957   2.756
10466SOL     OW32296   5.338   4.315   6.156
10466SOL    HW132297   5.319   4.303   6.254
10466SOL    HW232298   5.424   4.270   6.133
10467SOL     OW32299   1.945   2.599   6.845
10467SOL    HW132300   1.901   2.598   6.756
10467SOL    HW232301   1.912   2.678   6.898
10468SOL     OW32302   3.700   5.225   3.516
10468SOL    HW132303   3.725   5.299   3.578
10468SOL    HW232304   3.702   5.138   3.566
10469SOL     OW32305   5.167   3.811   5.641
10469SOL    HW132306   5.144   3.774   5.731
10469SOL    HW232307   5.176   3.736   5.576
10470SOL     OW32308   2.325   1.964   3.389
10470SOL    HW132309   2.239   2.007   3.418
10470SOL    HW232310   2.327   1.958   3.289
10471SOL     OW32311   2.873   0.745   6.952
10471SOL    HW132312   2.852   0.673   7.018
10471SOL    HW232313   2.884   0.832   6.999
10472SOL     OW32314   2.720   5.248   0.820
10472SOL    HW132315   2.779   5.193   0.761
10472SOL    HW232316   2.772   5.325   0.857
10473SOL     OW32317   5.437   5.869   6.186
10473SOL    HW132318   5.450   5.775   6.154
10473SOL    HW232319   5.479   5.879   6.276
10474SOL     OW32320   5.200   0.914   3.937
10474SOL    HW132321   5.294   0.880   3.935
10474SOL    HW232322   5.198   1.008   3.903
10475SOL     OW32323   2.528   6.210   1.963
10475SOL    HW132324   2.550   6.137   2.028
10475SOL    HW232325   2.541   6.299   2.006
10476SOL     OW32326   4.900   6.159   6.019
10476SOL    HW132327   4.867   6.135   5.927
10476SOL    HW232328   4.898   6.078   6.077
10477SOL     OW32329   6.996   6.663   3.965
10477SOL    HW132330   7.005   6.735   3.896
10477SOL    HW232331   7.021   6.575   3.926
10478SOL     OW32332   6.381   6.812   0.153
10478SOL    HW132333   6.368   6.906   0.124
10478SOL    HW232334   6.476   6.797   0.178
10479SOL     OW32335   0.063   2.421   2.237
10479SOL    HW132336   7.002   2.440   2.192
10479SOL    HW232337   0.126   2.497   2.222
10480SOL     OW32338   1.826   0.427   2.187
10480SOL    HW132339   1.754   0.472   2.241
10480SOL    HW232340   1.786   0.388   2.104
10481SOL     OW32341   0.786   6.066   3.065
10481SOL    HW132342   0.878   6.030   3.047
10481SOL    HW232343   0.790   6.135   3.137
10482SOL     OW32344   6.025   4.555   4.575
10482SOL    HW132345   5.999   4.644   4.537
10482SOL    HW232346   6.036   4.563   4.674
10483SOL     OW32347   5.837   5.621   0.575
10483SOL    HW132348   5.847   5.649   0.480
10483SOL    HW232349   5.775   5.543   0.581
10484SOL     OW32350   4.877   1.244   1.016
10484SOL    HW132351   4.819   1.166   0.993
10484SOL    HW232352   4.967   1.233   0.973
10485SOL     OW32353   3.594   3.974   6.749
10485SOL    HW132354   3.672   3.946   6.693
10485SOL    HW232355   3.627   4.024   6.830
10486SOL     OW32356   6.583   1.551   0.949
10486SOL    HW132357   6.636   1.597   0.877
10486SOL    HW232358   6.533   1.619   1.003
10487SOL     OW32359   5.061   6.571   2.336
10487SOL    HW132360   5.146   6.567   2.388
10487SOL    HW232361   5.060   6.498   2.267
10488SOL     OW32362   2.711   3.006   6.273
10488SOL    HW132363   2.647   2.938   6.308
10488SOL    HW232364   2.731   2.987   6.177
10489SOL     OW32365   0.948   6.988   5.874
10489SOL    HW132366   0.907   0.020   5.944
10489SOL    HW232367   0.895   6.995   5.789
10490SOL     OW32368   6.072   1.757   2.472
10490SOL    HW132369   6.142   1.813   2.517
10490SOL    HW232370   6.003   1.817   2.432
10491SOL     OW32371   1.510   3.387   6.949
10491SOL    HW132372   1.526   3.476   6.905
10491SOL    HW232373   1.531   3.314   6.884
10492SOL     OW32374   5.398   3.507   5.571
10492SOL    HW132375   5.352   3.566   5.505
10492SOL    HW232376   5.497   3.516   5.560
10493SOL     OW32377   3.467   0.976   1.855
10493SOL    HW132378   3.389   1.034   1.834
10493SOL    HW232379   3.436   0.882   1.869
10494SOL     OW32380   5.177   2.642   5.588
10494SOL    HW132381   5.209   2.668   5.680
10494SOL    HW232382   5.221   2.557   5.560
10495SOL     OW32383   2.612   6.891   0.346
10495SOL    HW132384   2.571   6.822   0.286
10495SOL    HW232385   2.543   6.959   0.371
10496SOL     OW32386   0.261   6.483   1.041
10496SOL    HW132387   0.307   6.564   1.076
10496SOL    HW232388   0.280   6.405   1.102
10497SOL     OW32389   2.037   6.551   2.128
10497SOL    HW132390   2.128   6.572   2.092
10497SOL    HW232391   2.033   6.578   2.224
10498SOL     OW32392   2.683   6.494   1.902
10498SOL    HW132393   2.666   6.483   1.804
10498SOL    HW232394   2.687   6.592   1.924
10499SOL     OW32395   2.904   6.222   2.499
10499SOL    HW132396   2.889   6.142   2.557
10499SOL    HW232397   2.876   6.200   2.405
10500SOL     OW32398   0.213   1.159   5.871
10500SOL    HW132399   0.260   1.196   5.950
10500SOL    HW232400   0.272   1.166   5.790
10501SOL     OW32401   1.523   5.678   3.628
10501SOL    HW132402   1.523   5.753   3.695
10501SOL    HW232403   1.557   5.712   3.540
10502SOL     OW32404   3.476   0.032   0.916
10502SOL    HW132405   3.433   0.118   0.890
10502SOL    HW232406   3.535   0.047   0.996
10503SOL     OW32407   4.289   2.626   0.578
10503SOL    HW132408   4.281   2.704   0.641
10503SOL    HW232409   4.217   2.560   0.599
10504SOL     OW32410   1.754   2.418   0.456
10504SOL    HW132411   1.655   2.409   0.450
10504SOL    HW232412   1.795   2.390   0.369
10505SOL     OW32413   6.276   5.477   0.337
10505SOL    HW132414   6.192   5.518   0.301
10505SOL    HW232415   6.304   5.525   0.420
10506SOL     OW32416   0.677   5.419   6.123
10506SOL    HW132417   0.724   5.507   6.116
10506SOL    HW232418   0.679   5.373   6.034
10507SOL     OW32419   2.340   5.997   0.082
10507SOL    HW132420   2.422   5.964   0.035
10507SOL    HW232421   2.260   5.979   0.025
10508SOL     OW32422   5.644   6.074   4.402
10508SOL    HW132423   5.594   5.990   4.382
10508SOL    HW232424   5.594   6.153   4.366
10509SOL     OW32425   1.062   6.633   5.693
10509SOL    HW132426   1.019   6.593   5.774
10509SOL    HW232427   1.156   6.600   5.686
10510SOL     OW32428   5.725   5.164   5.566
10510SOL    HW132429   5.678   5.187   5.481
10510SOL    HW232430   5.658   5.147   5.638
10511SOL     OW32431   4.795   2.683   1.222
10511SOL    HW132432   4.695   2.693   1.225
10511SOL    HW232433   4.836   2.738   1.294
10512SOL     OW32434   3.780   0.901   6.017
10512SOL    HW132435   3.740   0.868   6.103
10512SOL    HW232436   3.847   0.972   6.037
10513SOL     OW32437   6.945   2.867   5.992
10513SOL    HW132438   7.001   2.801   6.042
10513SOL    HW232439   6.994   2.954   5.986
10514SOL     OW32440   0.076   3.739   0.101
10514SOL    HW132441   0.161   3.706   0.059
10514SOL    HW232442   0.081   3.838   0.111
10515SOL     OW32443   5.972   3.257   3.294
10515SOL    HW132444   5.974   3.211   3.383
10515SOL    HW232445   5.911   3.336   3.299
10516SOL     OW32446   4.768   0.743   6.736
10516SOL    HW132447   4.702   0.732   6.810
10516SOL    HW232448   4.853   0.782   6.773
10517SOL     OW32449   0.541   2.152   2.603
10517SOL    HW132450   0.478   2.094   2.552
10517SOL    HW232451   0.557   2.237   2.553
10518SOL     OW32452   0.884   4.581   6.652
10518SOL    HW132453   0.826   4.641   6.707
10518SOL    HW232454   0.952   4.537   6.712
10519SOL     OW32455   2.974   2.782   6.237
10519SOL    HW132456   2.985   2.768   6.138
10519SOL    HW232457   2.948   2.696   6.281
10520SOL     OW32458   2.178   2.711   6.642
10520SOL    HW132459   2.156   2.806   6.624
10520SOL    HW232460   2.111   2.672   6.705
10521SOL     OW32461   6.079   5.359   1.636
10521SOL    HW132462   6.012   5.286   1.620
10521SOL    HW232463   6.035   5.447   1.623
10522SOL     OW32464   6.075   0.469   0.697
10522SOL    HW132465   6.151   0.506   0.751
10522SOL    HW232466   6.037   0.541   0.639
10523SOL     OW32467   0.079   6.697   4.544
10523SOL    HW132468   0.158   6.683   4.484
10523SOL    HW232469   7.024   6.715   4.489
10524SOL     OW32470   1.662   1.955   4.956
10524SOL    HW132471   1.683   2.027   5.022
10524SOL    HW232472   1.699   1.868   4.989
10525SOL     OW32473   3.120   6.653   5.724
10525SOL    HW132474   3.193   6.714   5.693
10525SOL    HW232475   3.095   6.676   5.818
10526SOL     OW32476   0.102   0.379   2.790
10526SOL    HW132477   0.007   0.378   2.822
10526SOL    HW232478   0.140   0.286   2.796
10527SOL     OW32479   0.242   2.527   4.072
10527SOL    HW132480   0.148   2.558   4.082
10527SOL    HW232481   0.246   2.455   4.003
10528SOL     OW32482   0.764   4.224   5.316
10528SOL    HW132483   0.672   4.255   5.339
10528SOL    HW232484   0.769   4.204   5.218
10529SOL     OW32485   1.129   6.252   3.267
10529SOL    HW132486   1.215   6.203   3.258
10529SOL    HW232487   1.060   6.191   3.307
10530SOL     OW32488   1.716   1.382   6.234
10530SOL    HW132489   1.719   1.363   6.136
10530SOL    HW232490   1.805   1.414   6.265
10531SOL     OW32491   0.892   3.318   5.013
10531SOL    HW132492   0.855   3.379   5.083
10531SOL    HW232493   0.892   3.365   4.924
10532SOL     OW32494   2.127   3.551   0.431
10532SOL    HW132495   2.074   3.466   0.425
10532SOL    HW232496   2.074   3.619   0.482
10533SOL     OW32497   3.438   1.705   4.382
10533SOL    HW132498   3.538   1.707   4.393
10533SOL    HW232499   3.411   1.622   4.334
10534SOL     OW32500   6.731   5.910   0.898
10534SOL    HW132501   6.696   5.963   0.975
10534SOL    HW232502   6.731   5.813   0.921
10535SOL     OW32503   0.522   2.758   1.721
10535SOL    HW132504   0.473   2.686   1.770
10535SOL    HW232505   0.461   2.801   1.654
10536SOL     OW32506   3.649   0.387   3.031
10536SOL    HW132507   3.579   0.340   3.085
10536SOL    HW232508   3.723   0.416   3.092
10537SOL     OW32509   3.061   5.539   3.242
10537SOL    HW132510   3.132   5.492   3.190
10537SOL    HW232511   2.972   5.520   3.201
10538SOL     OW32512   4.781   2.910   6.602
10538SOL    HW132513   4.744   2.843   6.666
10538SOL    HW232514   4.771   2.877   6.508
10539SOL     OW32515   0.724   4.495   6.222
10539SOL    HW132516   0.718   4.534   6.130
10539SOL    HW232517   0.715   4.395   6.216
10540SOL     OW32518   1.861   1.165   5.759
10540SOL    HW132519   1.884   1.178   5.662
10540SOL    HW232520   1.841   1.068   5.775
10541SOL     OW32521   3.691   3.787   1.760
10541SOL    HW132522   3.758   3.744   1.822
10541SOL    HW232523   3.622   3.835   1.814
10542SOL     OW32524   6.907   1.629   6.967
10542SOL    HW132525   6.875   1.693   0.010
10542SOL    HW232526   6.918   1.678   6.880
10543SOL     OW32527   0.904   0.954   4.873
10543SOL    HW132528   0.930   1.049   4.889
10543SOL    HW232529   0.804   0.948   4.865
10544SOL     OW32530   1.735   0.116   2.680
10544SOL    HW132531   1.742   0.197   2.738
10544SOL    HW232532   1.814   0.111   2.619
10545SOL     OW32533   6.369   1.135   2.723
10545SOL    HW132534   6.288   1.081   2.700
10545SOL    HW232535   6.382   1.207   2.654
10546SOL     OW32536   0.589   0.894   6.193
10546SOL    HW132537   0.684   0.896   6.221
10546SOL    HW232538   0.583   0.867   6.097
10547SOL     OW32539   4.511   1.744   1.272
10547SOL    HW132540   4.577   1.762   1.345
10547SOL    HW232541   4.507   1.822   1.210
10548SOL     OW32542   5.058   3.766   4.942
10548SOL    HW132543   4.975   3.714   4.957
10548SOL    HW232544   5.107   3.778   5.029
10549SOL     OW32545   6.401   0.640   1.926
10549SOL    HW132546   6.500   0.643   1.911
10549SOL    HW232547   6.365   0.733   1.926
10550SOL     OW32548   4.129   6.641   4.720
10550SOL    HW132549   4.059   6.628   4.649
10550SOL    HW232550   4.219   6.643   4.678
10551SOL     OW32551   1.226   2.744   5.277
10551SOL    HW132552   1.232   2.673   5.206
10551SOL    HW232553   1.314   2.792   5.282
10552SOL     OW32554   3.892   1.891   6.028
10552SOL    HW132555   3.930   1.812   6.076
10552SOL    HW232556   3.966   1.950   5.996
10553SOL     OW32557   1.148   4.916   1.786
10553SOL    HW132558   1.159   4.850   1.712
10553SOL    HW232559   1.094   4.994   1.753
10554SOL     OW32560   5.287   5.186   6.863
10554SOL    HW132561   5.236   5.257   6.910
10554SOL    HW232562   5.257   5.180   6.767
10555SOL     OW32563   2.959   2.360   1.207
10555SOL    HW132564   2.897   2.357   1.285
10555SOL    HW232565   2.906   2.380   1.124
10556SOL     OW32566   1.740   3.078   5.371
10556SOL    HW132567   1.706   3.168   5.345
10556SOL    HW232568   1.770   3.029   5.289
10557SOL     OW32569   0.991   2.758   3.145
10557SOL    HW132570   1.026   2.851   3.134
10557SOL    HW232571   1.067   2.693   3.134
10558SOL     OW32572   3.722   0.094   4.937
10558SOL    HW132573   3.696   0.012   4.886
10558SOL    HW232574   3.696   0.175   4.884
10559SOL     OW32575   3.556   1.024   0.802
10559SOL    HW132576   3.512   1.105   0.764
10559SOL    HW232577   3.599   0.972   0.727
10560SOL     OW32578   2.228   5.840   4.214
10560SOL    HW132579   2.310   5.790   4.188
10560SOL    HW232580   2.148   5.781   4.207
10561SOL     OW32581   2.767   4.759   0.158
10561SOL    HW132582   2.833   4.834   0.166
10561SOL    HW232583   2.761   4.711   0.245
10562SOL     OW32584   5.474   6.100   0.198
10562SOL    HW132585   5.386   6.092   0.243
10562SOL    HW232586   5.547   6.091   0.266
10563SOL     OW32587   1.307   0.728   3.731
10563SOL    HW132588   1.307   0.826   3.746
10563SOL    HW232589   1.243   0.704   3.658
10564SOL     OW32590   5.807   6.775   2.138
10564SOL    HW132591   5.798   6.700   2.204
10564SOL    HW232592   5.788   6.862   2.184
10565SOL     OW32593   0.587   0.759   5.957
10565SOL    HW132594   0.530   0.741   5.878
10565SOL    HW232595   0.624   0.673   5.992
10566SOL     OW32596   4.361   2.902   0.106
10566SOL    HW132597   4.324   2.809   0.120
10566SOL    HW232598   4.353   2.954   0.191
10567SOL     OW32599   2.289   2.947   3.724
10567SOL    HW132600   2.287   2.961   3.625
10567SOL    HW232601   2.356   2.877   3.747
10568SOL     OW32602   5.523   1.471   1.208
10568SOL    HW132603   5.552   1.426   1.124
10568SOL    HW232604   5.426   1.453   1.224
10569SOL     OW32605   6.485   2.978   1.641
10569SOL    HW132606   6.494   2.941   1.733
10569SOL    HW232607   6.566   2.952   1.587
10570SOL     OW32608   2.130   5.098   2.573
10570SOL    HW132609   2.194   5.035   2.616
10570SOL    HW232610   2.044   5.098   2.623
10571SOL     OW32611   6.929   5.069   4.549
10571SOL    HW132612   6.934   5.164   4.518
10571SOL    HW232613   6.857   5.060   4.618
10572SOL     OW32614   6.284   3.406   3.385
10572SOL    HW132615   6.234   3.428   3.469
10572SOL    HW232616   6.221   3.369   3.317
10573SOL     OW32617   5.651   5.967   3.880
10573SOL    HW132618   5.595   5.904   3.932
10573SOL    HW232619   5.735   5.986   3.930
10574SOL     OW32620   2.026   2.268   4.117
10574SOL    HW132621   2.045   2.248   4.021
10574SOL    HW232622   2.085   2.213   4.176
10575SOL     OW32623   0.277   0.962   3.747
10575SOL    HW132624   0.233   0.971   3.836
10575SOL    HW232625   0.253   1.042   3.690
10576SOL     OW32626   0.573   6.540   5.646
10576SOL    HW132627   0.490   6.560   5.592
10576SOL    HW232628   0.573   6.444   5.674
10577SOL     OW32629   1.233   2.417   6.676
10577SOL    HW132630   1.299   2.446   6.606
10577SOL    HW232631   1.280   2.363   6.746
10578SOL     OW32632   6.637   0.367   3.548
10578SOL    HW132633   6.675   0.400   3.462
10578SOL    HW232634   6.709   0.367   3.618
10579SOL     OW32635   3.384   2.022   0.380
10579SOL    HW132636   3.345   2.069   0.301
10579SOL    HW232637   3.427   2.088   0.441
10580SOL     OW32638   6.653   0.157   0.104
10580SOL    HW132639   6.675   0.218   0.028
10580SOL    HW232640   6.569   0.107   0.083
10581SOL     OW32641   5.982   0.113   2.908
10581SOL    HW132642   6.063   0.069   2.870
10581SOL    HW232643   5.903   0.094   2.849
10582SOL     OW32644   3.904   4.833   6.595
10582SOL    HW132645   3.992   4.807   6.636
10582SOL    HW232646   3.920   4.871   6.504
10583SOL     OW32647   4.339   0.957   5.634
10583SOL    HW132648   4.312   0.974   5.728
10583SOL    HW232649   4.409   1.023   5.607
10584SOL     OW32650   6.209   6.807   0.956
10584SOL    HW132651   6.133   6.742   0.951
10584SOL    HW232652   6.221   6.837   1.051
10585SOL     OW32653   1.621   3.029   5.912
10585SOL    HW132654   1.587   2.935   5.914
10585SOL    HW232655   1.655   3.050   5.821
10586SOL     OW32656   1.802   5.910   5.693
10586SOL    HW132657   1.816   5.857   5.609
10586SOL    HW232658   1.718   5.880   5.738
10587SOL     OW32659   5.780   3.979   0.086
10587SOL    HW132660   5.818   3.890   0.111
10587SOL    HW232661   5.778   4.038   0.167
10588SOL     OW32662   0.880   4.308   1.768
10588SOL    HW132663   0.909   4.403   1.780
10588SOL    HW232664   0.796   4.293   1.819
10589SOL     OW32665   5.560   1.572   4.453
10589SOL    HW132666   5.642   1.569   4.510
10589SOL    HW232667   5.547   1.484   4.407
10590SOL     OW32668   1.117   0.546   1.767
10590SOL    HW132669   1.130   0.488   1.687
10590SOL    HW232670   1.139   0.494   1.850
10591SOL     OW32671   1.724   1.597   5.622
10591SOL    HW132672   1.817   1.632   5.619
10591SOL    HW232673   1.704   1.547   5.538
10592SOL     OW32674   5.728   2.871   1.073
10592SOL    HW132675   5.699   2.850   1.167
10592SOL    HW232676   5.665   2.829   1.008
10593SOL     OW32677   2.964   5.144   0.641
10593SOL    HW132678   3.063   5.149   0.655
10593SOL    HW232679   2.945   5.147   0.543
10594SOL     OW32680   5.544   1.657   3.725
10594SOL    HW132681   5.620   1.593   3.738
10594SOL    HW232682   5.545   1.692   3.631
10595SOL     OW32683   3.518   0.336   6.149
10595SOL    HW132684   3.471   0.343   6.061
10595SOL    HW232685   3.603   0.387   6.146
10596SOL     OW32686   4.344   0.045   1.925
10596SOL    HW132687   4.422   0.077   1.979
10596SOL    HW232688   4.260   0.083   1.962
10597SOL     OW32689   2.814   1.410   4.716
10597SOL    HW132690   2.803   1.318   4.678
10597SOL    HW232691   2.835   1.474   4.642
10598SOL     OW32692   3.012   2.733   0.134
10598SOL    HW132693   2.996   2.658   0.071
10598SOL    HW232694   3.100   2.720   0.179
10599SOL     OW32695   5.868   2.144   0.398
10599SOL    HW132696   5.867   2.061   0.454
10599SOL    HW232697   5.886   2.121   0.303
10600SOL     OW32698   1.831   3.084   0.582
10600SOL    HW132699   1.887   3.059   0.503
10600SOL    HW232700   1.747   3.128   0.551
10601SOL     OW32701   2.582   5.161   5.771
10601SOL    HW132702   2.614   5.158   5.676
10601SOL    HW232703   2.527   5.080   5.790
10602SOL     OW32704   5.283   1.453   2.955
10602SOL    HW132705   5.191   1.487   2.974
10602SOL    HW232706   5.296   1.445   2.856
10603SOL     OW32707   2.170   5.909   3.350
10603SOL    HW132708   2.247   5.973   3.360
10603SOL    HW232709   2.165   5.877   3.255
10604SOL     OW32710   5.435   4.529   4.670
10604SOL    HW132711   5.385   4.574   4.743
10604SOL    HW232712   5.377   4.522   4.589
10605SOL     OW32713   0.875   4.835   0.180
10605SOL    HW132714   0.808   4.772   0.139
10605SOL    HW232715   0.930   4.785   0.247
10606SOL     OW32716   6.040   0.636   2.001
10606SOL    HW132717   6.010   0.709   1.939
10606SOL    HW232718   6.139   0.641   2.013
10607SOL     OW32719   4.163   3.520   5.714
10607SOL    HW132720   4.195   3.580   5.640
10607SOL    HW232721   4.127   3.576   5.788
10608SOL     OW32722   5.913   1.998   5.006
10608SOL    HW132723   5.875   2.046   5.085
10608SOL    HW232724   5.940   1.905   5.033
10609SOL     OW32725   2.958   6.064   1.723
10609SOL    HW132726   2.993   6.131   1.658
10609SOL    HW232727   2.875   6.023   1.686
10610SOL     OW32728   0.555   4.331   6.496
10610SOL    HW132729   0.621   4.300   6.564
10610SOL    HW232730   0.581   4.422   6.463
10611SOL     OW32731   5.305   3.357   0.006
10611SOL    HW132732   5.344   3.367   6.940
10611SOL    HW232733   5.295   3.260   0.027
10612SOL     OW32734   2.422   6.777   5.639
10612SOL    HW132735   2.497   6.840   5.618
10612SOL    HW232736   2.339   6.807   5.592
10613SOL     OW32737   0.532   6.966   5.746
10613SOL    HW132738   0.512   6.949   5.843
10613SOL    HW232739   0.464   0.002   5.708
10614SOL     OW32740   0.100   1.890   4.220
10614SOL    HW132741   0.016   1.857   4.177
10614SOL    HW232742   0.177   1.834   4.189
10615SOL     OW32743   4.190   5.364   5.506
10615SOL    HW132744   4.138   5.392   5.425
10615SOL    HW232745   4.129   5.316   5.569
10616SOL     OW32746   3.741   6.117   0.287
10616SOL    HW132747   3.792   6.204   0.286
10616SOL    HW232748   3.752   6.072   0.198
10617SOL     OW32749   2.319   2.653   0.587
10617SOL    HW132750   2.262   2.682   0.511
10617SOL    HW232751   2.336   2.730   0.648
10618SOL     OW32752   5.726   3.000   0.172
10618SOL    HW132753   5.794   3.039   0.111
10618SOL    HW232754   5.723   2.901   0.160
10619SOL     OW32755   0.339   3.548   1.720
10619SOL    HW132756   0.426   3.587   1.688
10619SOL    HW232757   0.269   3.620   1.721
10620SOL     OW32758   0.922   6.176   5.435
10620SOL    HW132759   0.903   6.250   5.501
10620SOL    HW232760   0.843   6.114   5.431
10621SOL     OW32761   1.492   6.071   0.755
10621SOL    HW132762   1.588   6.060   0.781
10621SOL    HW232763   1.439   6.102   0.833
10622SOL     OW32764   4.392   0.982   0.858
10622SOL    HW132765   4.466   0.939   0.909
10622SOL    HW232766   4.312   0.921   0.858
10623SOL     OW32767   5.897   3.441   3.847
10623SOL    HW132768   5.907   3.484   3.758
10623SOL    HW232769   5.876   3.511   3.916
10624SOL     OW32770   0.925   1.077   4.473
10624SOL    HW132771   0.892   1.064   4.380
10624SOL    HW232772   0.926   1.175   4.494
10625SOL     OW32773   0.719   4.226   6.737
10625SOL    HW132774   0.708   4.280   6.821
10625SOL    HW232775   0.815   4.229   6.709
10626SOL     OW32776   0.698   2.579   1.397
10626SOL    HW132777   0.736   2.572   1.489
10626SOL    HW232778   0.664   2.671   1.382
10627SOL     OW32779   5.536   6.145   2.502
10627SOL    HW132780   5.624   6.114   2.466
10627SOL    HW232781   5.536   6.136   2.602
10628SOL     OW32782   5.284   5.305   6.043
10628SOL    HW132783   5.361   5.338   5.988
10628SOL    HW232784   5.314   5.230   6.102
10629SOL     OW32785   2.791   4.655   5.395
10629SOL    HW132786   2.866   4.628   5.334
10629SOL    HW232787   2.743   4.734   5.357
10630SOL     OW32788   6.542   0.853   3.186
10630SOL    HW132789   6.509   0.922   3.122
10630SOL    HW232790   6.502   0.868   3.276
10631SOL     OW32791   1.340   5.942   4.603
10631SOL    HW132792   1.245   5.961   4.580
10631SOL    HW232793   1.387   5.903   4.524
10632SOL     OW32794   5.691   2.295   4.129
10632SOL    HW132795   5.709   2.202   4.098
10632SOL    HW232796   5.754   2.318   4.204
10633SOL     OW32797   2.942   4.043   1.270
10633SOL    HW132798   2.957   3.945   1.287
10633SOL    HW232799   3.019   4.080   1.218
10634SOL     OW32800   3.621   5.566   0.550
10634SOL    HW132801   3.702   5.510   0.532
10634SOL    HW232802   3.575   5.587   0.464
10635SOL     OW32803   2.632   1.467   1.284
10635SOL    HW132804   2.712   1.434   1.233
10635SOL    HW232805   2.556   1.404   1.272
10636SOL     OW32806   1.046   2.409   1.644
10636SOL    HW132807   1.017   2.324   1.689
10636SOL    HW232808   1.109   2.459   1.704
10637SOL     OW32809   3.684   3.932   5.611
10637SOL    HW132810   3.612   3.863   5.623
10637SOL    HW232811   3.649   4.006   5.553
10638SOL     OW32812   0.124   6.133   2.507
10638SOL    HW132813   0.095   6.164   2.417
10638SOL    HW232814   0.174   6.047   2.499
10639SOL     OW32815   0.731   1.775   3.596
10639SOL    HW132816   0.725   1.832   3.678
10639SOL    HW232817   0.815   1.797   3.546
10640SOL     OW32818   4.242   7.026   6.856
10640SOL    HW132819   4.275   6.962   6.787
10640SOL    HW232820   4.151   6.997   6.887
10641SOL     OW32821   3.753   1.843   0.136
10641SOL    HW132822   3.816   1.768   0.155
10641SOL    HW232823   3.661   1.817   0.166
10642SOL     OW32824   0.294   3.064   1.517
10642SOL    HW132825   0.302   3.061   1.417
10642SOL    HW232826   0.383   3.043   1.558
10643SOL     OW32827   2.220   4.392   5.847
10643SOL    HW132828   2.281   4.433   5.779
10643SOL    HW232829   2.127   4.388   5.809
10644SOL     OW32830   4.702   1.985   3.718
10644SOL    HW132831   4.737   1.978   3.811
10644SOL    HW232832   4.711   2.079   3.685
10645SOL     OW32833   1.168   1.039   4.219
10645SOL    HW132834   1.130   1.024   4.127
10645SOL    HW232835   1.267   1.026   4.216
10646SOL     OW32836   0.952   1.967   5.287
10646SOL    HW132837   0.952   1.935   5.382
10646SOL    HW232838   0.999   1.901   5.229
10647SOL     OW32839   5.000   5.578   6.362
10647SOL    HW132840   5.010   5.539   6.454
10647SOL    HW232841   5.076   5.549   6.305
10648SOL     OW32842   5.407   2.849   6.385
10648SOL    HW132843   5.352   2.920   6.429
10648SOL    HW232844   5.347   2.784   6.338
10649SOL     OW32845   0.202   4.296   3.737
10649SOL    HW132846   0.178   4.385   3.699
10649SOL    HW232847   0.146   4.277   3.818
10650SOL     OW32848   1.155   6.729   3.574
10650SOL    HW132849   1.255   6.729   3.565
10650SOL    HW232850   1.116   6.796   3.511
10651SOL     OW32851   4.850   6.665   5.790
10651SOL    HW132852   4.826   6.698   5.882
10651SOL    HW232853   4.798   6.582   5.770
10652SOL     OW32854   3.368   0.167   6.777
10652SOL    HW132855   3.418   0.248   6.747
10652SOL    HW232856   3.396   0.088   6.723
10653SOL     OW32857   5.067   4.638   4.592
10653SOL    HW132858   5.139   4.579   4.555
10653SOL    HW232859   4.982   4.586   4.598
10654SOL     OW32860   3.981   0.404   1.281
10654SOL    HW132861   3.934   0.450   1.205
10654SOL    HW232862   4.001   0.471   1.353
10655SOL     OW32863   3.071   5.525   1.302
10655SOL    HW132864   3.123   5.505   1.219
10655SOL    HW232865   3.130   5.573   1.368
10656SOL     OW32866   6.324   1.994   0.552
10656SOL    HW132867   6.406   1.947   0.584
10656SOL    HW232868   6.261   2.007   0.628
10657SOL     OW32869   6.384   6.597   0.745
10657SOL    HW132870   6.420   6.504   0.735
10657SOL    HW232871   6.456   6.657   0.780
10658SOL     OW32872   0.438   4.481   4.535
10658SOL    HW132873   0.536   4.464   4.522
10658SOL    HW232874   0.391   4.476   4.447
10659SOL     OW32875   6.834   6.561   1.019
10659SOL    HW132876   6.899   6.622   1.066
10659SOL    HW232877   6.883   6.482   0.983
10660SOL     OW32878   5.215   4.003   6.373
10660SOL    HW132879   5.161   4.040   6.298
10660SOL    HW232880   5.255   4.078   6.426
10661SOL     OW32881   6.785   6.749   2.614
10661SOL    HW132882   6.791   6.692   2.532
10661SOL    HW232883   6.824   6.699   2.692
10662SOL     OW32884   5.899   1.076   2.068
10662SOL    HW132885   5.823   1.141   2.061
10662SOL    HW232886   5.986   1.125   2.065
10663SOL     OW32887   0.896   0.406   0.692
10663SOL    HW132888   0.807   0.383   0.652
10663SOL    HW232889   0.925   0.332   0.752
10664SOL     OW32890   2.543   4.124   6.437
10664SOL    HW132891   2.531   4.136   6.339
10664SOL    HW232892   2.479   4.055   6.471
10665SOL     OW32893   1.049   1.247   6.707
10665SOL    HW132894   1.008   1.224   6.795
10665SOL    HW232895   1.066   1.163   6.655
10666SOL     OW32896   4.064   4.168   0.101
10666SOL    HW132897   4.105   4.186   0.011
10666SOL    HW232898   4.137   4.151   0.168
10667SOL     OW32899   4.150   1.798   5.655
10667SOL    HW132900   4.188   1.734   5.587
10667SOL    HW232901   4.096   1.867   5.608
10668SOL     OW32902   1.330   2.186   5.587
10668SOL    HW132903   1.363   2.127   5.513
10668SOL    HW232904   1.247   2.232   5.558
10669SOL     OW32905   0.287   6.864   0.637
10669SOL    HW132906   0.194   6.900   0.625
10669SOL    HW232907   0.337   6.871   0.551
10670SOL     OW32908   5.029   4.357   6.069
10670SOL    HW132909   5.128   4.349   6.081
10670SOL    HW232910   5.008   4.434   6.009
10671SOL     OW32911   2.132   3.626   2.719
10671SOL    HW132912   2.143   3.700   2.654
10671SOL    HW232913   2.172   3.542   2.682
10672SOL     OW32914   6.979   3.140   0.622
10672SOL    HW132915   7.019   3.231   0.630
10672SOL    HW232916   6.952   3.108   0.713
10673SOL     OW32917   2.890   2.652   5.790
10673SOL    HW132918   2.932   2.589   5.724
10673SOL    HW232919   2.797   2.621   5.812
10674SOL     OW32920   3.638   3.787   0.706
10674SOL    HW132921   3.538   3.787   0.701
10674SOL    HW232922   3.669   3.708   0.760
10675SOL     OW32923   1.042   0.971   5.394
10675SOL    HW132924   1.024   0.883   5.349
10675SOL    HW232925   1.114   1.019   5.344
10676SOL     OW32926   6.157   0.053   5.936
10676SOL    HW132927   6.176   0.059   5.838
10676SOL    HW232928   6.243   0.044   5.986
10677SOL     OW32929   0.819   0.835   1.921
10677SOL    HW132930   0.813   0.757   1.984
10677SOL    HW232931   0.789   0.918   1.968
10678SOL     OW32932   3.761   5.358   2.931
10678SOL    HW132933   3.753   5.457   2.914
10678SOL    HW232934   3.702   5.309   2.867
10679SOL     OW32935   5.593   5.631   4.916
10679SOL    HW132936   5.639   5.563   4.973
10679SOL    HW232937   5.560   5.706   4.974
10680SOL     OW32938   1.830   3.301   2.844
10680SOL    HW132939   1.874   3.304   2.934
10680SOL    HW232940   1.837   3.391   2.801
10681SOL     OW32941   6.333   4.329   6.973
10681SOL    HW132942   6.412   4.389   6.961
10681SOL    HW232943   6.250   4.385   6.976
10682SOL     OW32944   1.809   1.695   2.786
10682SOL    HW132945   1.900   1.696   2.827
10682SOL    HW232946   1.740   1.679   2.858
10683SOL     OW32947   2.413   2.669   4.008
10683SOL    HW132948   2.459   2.597   4.060
10683SOL    HW232949   2.421   2.650   3.910
10684SOL     OW32950   5.267   3.886   0.326
10684SOL    HW132951   5.179   3.844   0.302
10684SOL    HW232952   5.254   3.984   0.343
10685SOL     OW32953   0.635   3.983   3.055
10685SOL    HW132954   0.619   3.917   3.128
10685SOL    HW232955   0.635   3.936   2.966
10686SOL     OW32956   4.385   5.998   6.537
10686SOL    HW132957   4.357   6.087   6.573
10686SOL    HW232958   4.445   6.011   6.458
10687SOL     OW32959   6.985   5.188   2.275
10687SOL    HW132960   0.033   5.249   2.248
10687SOL    HW232961   7.021   5.094   2.283
10688SOL     OW32962   6.163   4.267   2.446
10688SOL    HW132963   6.172   4.170   2.464
10688SOL    HW232964   6.131   4.314   2.528
10689SOL     OW32965   6.837   6.891   2.946
10689SOL    HW132966   6.897   6.927   3.017
10689SOL    HW232967   6.840   6.952   2.866
10690SOL     OW32968   4.576   5.836   3.236
10690SOL    HW132969   4.523   5.899   3.292
10690SOL    HW232970   4.517   5.791   3.169
10691SOL     OW32971   6.375   1.221   1.625
10691SOL    HW132972   6.394   1.197   1.720
10691SOL    HW232973   6.285   1.264   1.619
10692SOL     OW32974   2.913   5.888   3.662
10692SOL    HW132975   2.941   5.931   3.748
10692SOL    HW232976   2.981   5.907   3.592
10693SOL     OW32977   1.037   1.217   1.103
10693SOL    HW132978   1.015   1.181   1.013
10693SOL    HW232979   1.079   1.145   1.159
10694SOL     OW32980   3.412   5.963   1.165
10694SOL    HW132981   3.490   5.948   1.104
10694SOL    HW232982   3.329   5.974   1.111
10695SOL     OW32983   0.030   2.693   4.205
10695SOL    HW132984   0.099   2.758   4.237
10695SOL    HW232985   6.992   2.739   4.145
10696SOL     OW32986   7.009   5.722   1.701
10696SOL    HW132987   6.987   5.635   1.657
10696SOL    HW232988   6.948   5.736   1.780
10697SOL     OW32989   0.123   6.296   3.388
10697SOL    HW132990   0.064   6.215   3.392
10697SOL    HW232991   0.082   6.370   3.443
10698SOL     OW32992   3.139   0.333   3.699
10698SOL    HW132993   3.209   0.262   3.703
10698SOL    HW232994   3.171   0.408   3.640
10699SOL     OW32995   4.274   1.644   2.797
10699SOL    HW132996   4.350   1.584   2.775
10699SOL    HW232997   4.309   1.731   2.833
10700SOL     OW32998   1.132   0.184   0.574
10700SOL    HW132999   1.207   0.151   0.632
10700SOL    HW233000   1.089   0.106   0.528
10701SOL     OW33001   4.572   5.842   6.698
10701SOL    HW133002   4.482   5.838   6.655
10701SOL    HW233003   4.607   5.749   6.711
10702SOL     OW33004   5.709   2.549   1.358
10702SOL    HW133005   5.741   2.493   1.281
10702SOL    HW233006   5.676   2.489   1.431
10703SOL     OW33007   3.540   3.860   3.168
10703SOL    HW133008   3.474   3.823   3.102
10703SOL    HW233009   3.633   3.851   3.131
10704SOL     OW33010   5.036   6.716   2.019
10704SOL    HW133011   5.101   6.785   1.987
10704SOL    HW233012   4.951   6.723   1.966
10705SOL     OW33013   1.313   3.328   6.547
10705SOL    HW133014   1.397   3.296   6.591
10705SOL    HW233015   1.285   3.416   6.586
10706SOL     OW33016   4.518   0.814   2.517
10706SOL    HW133017   4.421   0.803   2.539
10706SOL    HW233018   4.564   0.863   2.591
10707SOL     OW33019   0.109   6.937   5.813
10707SOL    HW133020   0.094   0.009   5.800
10707SOL    HW233021   0.094   6.889   5.727
10708SOL     OW33022   4.850   0.743   1.109
10708SOL    HW133023   4.876   0.839   1.096
10708SOL    HW233024   4.752   0.732   1.088
10709SOL     OW33025   6.404   0.632   5.111
10709SOL    HW133026   6.381   0.626   5.208
10709SOL    HW233027   6.413   0.728   5.084
10710SOL     OW33028   6.594   5.891   3.828
10710SOL    HW133029   6.495   5.887   3.814
10710SOL    HW233030   6.640   5.836   3.759
10711SOL     OW33031   2.061   0.508   3.873
10711SOL    HW133032   2.046   0.514   3.774
10711SOL    HW233033   1.974   0.490   3.919
10712SOL     OW33034   3.657   1.114   4.978
10712SOL    HW133035   3.662   1.187   5.047
10712SOL    HW233036   3.614   1.033   5.019
10713SOL     OW33037   2.163   5.679   2.121
10713SOL    HW133038   2.146   5.670   2.023
10713SOL    HW233039   2.190   5.773   2.141
10714SOL     OW33040   0.525   4.804   4.823
10714SOL    HW133041   0.511   4.900   4.800
10714SOL    HW233042   0.439   4.754   4.814
10715SOL     OW33043   4.712   2.089   4.299
10715SOL    HW133044   4.685   2.144   4.379
10715SOL    HW233045   4.806   2.111   4.274
10716SOL     OW33046   6.335   1.534   4.102
10716SOL    HW133047   6.373   1.625   4.086
10716SOL    HW233048   6.335   1.482   4.016
10717SOL     OW33049   0.040   1.205   1.244
10717SOL    HW133050   0.098   1.164   1.174
10717SOL    HW233051   0.097   1.236   1.320
10718SOL     OW33052   6.760   5.463   0.360
10718SOL    HW133053   6.763   5.368   0.392
10718SOL    HW233054   6.716   5.519   0.429
10719SOL     OW33055   5.193   0.924   2.282
10719SOL    HW133056   5.257   0.997   2.304
10719SOL    HW233057   5.242   0.848   2.240
10720SOL     OW33058   6.954   3.752   6.099
10720SOL    HW133059   6.963   3.786   6.193
10720SOL    HW233060   6.992   3.660   6.093
10721SOL     OW33061   6.340   2.120   4.505
10721SOL    HW133062   6.355   2.153   4.598
10721SOL    HW233063   6.396   2.038   4.490
10722SOL     OW33064   6.343   3.893   0.253
10722SOL    HW133065   6.440   3.869   0.251
10722SOL    HW233066   6.322   3.954   0.177
10723SOL     OW33067   5.258   4.006   6.757
10723SOL    HW133068   5.161   4.001   6.734
10723SOL    HW233069   5.275   3.959   6.843
10724SOL     OW33070   4.521   6.532   6.085
10724SOL    HW133071   4.467   6.548   6.168
10724SOL    HW233072   4.539   6.620   6.041
10725SOL     OW33073   0.518   6.318   4.271
10725SOL    HW133074   0.616   6.333   4.282
10725SOL    HW233075   0.501   6.223   4.246
10726SOL     OW33076   5.621   0.681   5.091
10726SOL    HW133077   5.571   0.624   5.026
10726SOL    HW233078   5.614   0.777   5.061
10727SOL     OW33079   2.378   4.818   5.055
10727SOL    HW133080   2.398   4.762   5.136
10727SOL    HW233081   2.408   4.770   4.973
10728SOL     OW33082   4.659   0.003   2.730
10728SOL    HW133083   4.735   7.002   2.790
10728SOL    HW233084   4.691   0.074   2.667
10729SOL     OW33085   6.062   2.746   3.052
10729SOL    HW133086   6.108   2.697   3.125
10729SOL    HW233087   6.115   2.738   2.967
10730SOL     OW33088   2.293   5.934   2.349
10730SOL    HW133089   2.230   5.971   2.417
10730SOL    HW233090   2.270   5.970   2.259
10731SOL     OW33091   3.145   5.567   0.388
10731SOL    HW133092   3.183   5.613   0.468
10731SOL    HW233093   3.211   5.573   0.313
10732SOL     OW33094   5.467   6.400   2.812
10732SOL    HW133095   5.376   6.381   2.849
10732SOL    HW233096   5.536   6.374   2.879
10733SOL     OW33097   5.829   1.037   6.987
10733SOL    HW133098   5.869   1.020   6.896
10733SOL    HW233099   5.788   0.952   7.021
10734SOL     OW33100   1.012   0.169   6.617
10734SOL    HW133101   1.030   0.208   6.707
10734SOL    HW233102   0.915   0.179   6.594
10735SOL     OW33103   0.713   5.383   2.191
10735SOL    HW133104   0.761   5.309   2.144
10735SOL    HW233105   0.768   5.416   2.267
10736SOL     OW33106   6.631   0.645   4.237
10736SOL    HW133107   6.697   0.664   4.310
10736SOL    HW233108   6.591   0.730   4.205
10737SOL     OW33109   0.145   1.999   1.147
10737SOL    HW133110   0.199   1.989   1.230
10737SOL    HW233111   0.169   1.927   1.082
10738SOL     OW33112   2.604   1.084   2.485
10738SOL    HW133113   2.567   1.167   2.442
10738SOL    HW233114   2.703   1.094   2.495
10739SOL     OW33115   6.253   1.923   2.626
10739SOL    HW133116   6.194   1.916   2.707
10739SOL    HW233117   6.267   2.020   2.603
10740SOL     OW33118   1.523   6.827   6.062
10740SOL    HW133119   1.512   6.927   6.062
10740SOL    HW233120   1.437   6.785   6.090
10741SOL     OW33121   1.495   2.958   3.240
10741SOL    HW133122   1.506   3.057   3.238
10741SOL    HW233123   1.581   2.915   3.268
10742SOL     OW33124   6.137   5.635   2.030
10742SOL    HW133125   6.121   5.540   2.054
10742SOL    HW233126   6.232   5.646   1.999
10743SOL     OW33127   3.536   1.348   5.672
10743SOL    HW133128   3.624   1.349   5.720
10743SOL    HW233129   3.466   1.306   5.731
10744SOL     OW33130   3.380   0.437   1.567
10744SOL    HW133131   3.457   0.407   1.623
10744SOL    HW233132   3.406   0.433   1.470
10745SOL     OW33133   2.044   4.623   0.675
10745SOL    HW133134   2.052   4.649   0.771
10745SOL    HW233135   2.106   4.546   0.657
10746SOL     OW33136   2.583   5.806   0.340
10746SOL    HW133137   2.539   5.727   0.383
10746SOL    HW233138   2.513   5.872   0.312
10747SOL     OW33139   5.915   2.538   4.401
10747SOL    HW133140   5.922   2.444   4.366
10747SOL    HW233141   5.858   2.539   4.483
10748SOL     OW33142   4.351   5.521   1.168
10748SOL    HW133143   4.280   5.470   1.216
10748SOL    HW233144   4.416   5.559   1.234
10749SOL     OW33145   5.868   4.764   3.405
10749SOL    HW133146   5.813   4.684   3.427
10749SOL    HW233147   5.955   4.736   3.365
10750SOL     OW33148   4.901   3.676   3.900
10750SOL    HW133149   4.913   3.764   3.947
10750SOL    HW233150   4.804   3.653   3.899
10751SOL     OW33151   1.229   3.511   5.035
10751SOL    HW133152   1.202   3.506   4.939
10751SOL    HW233153   1.204   3.601   5.072
10752SOL     OW33154   6.222   4.909   6.547
10752SOL    HW133155   6.127   4.880   6.541
10752SOL    HW233156   6.282   4.832   6.525
10753SOL     OW33157   4.346   6.271   4.456
10753SOL    HW133158   4.403   6.259   4.374
10753SOL    HW233159   4.377   6.351   4.507
10754SOL     OW33160   0.846   2.940   1.931
10754SOL    HW133161   0.939   2.907   1.947
10754SOL    HW233162   0.818   2.915   1.838
10755SOL     OW33163   6.951   2.032   1.716
10755SOL    HW133164   7.021   1.972   1.677
10755SOL    HW233165   6.994   2.092   1.784
10756SOL     OW33166   6.124   2.063   0.744
10756SOL    HW133167   6.088   2.028   0.831
10756SOL    HW233168   6.113   2.162   0.742
10757SOL     OW33169   6.635   3.924   0.244
10757SOL    HW133170   6.671   3.840   0.284
10757SOL    HW233171   6.658   3.927   0.147
10758SOL     OW33172   1.261   5.594   6.380
10758SOL    HW133173   1.191   5.611   6.449
10758SOL    HW233174   1.311   5.678   6.361
10759SOL     OW33175   1.478   2.250   6.132
10759SOL    HW133176   1.414   2.207   6.068
10759SOL    HW233177   1.469   2.208   6.222
10760SOL     OW33178   1.215   6.564   0.556
10760SOL    HW133179   1.263   6.543   0.642
10760SOL    HW233180   1.168   6.482   0.524
10761SOL     OW33181   0.921   2.047   6.245
10761SOL    HW133182   0.895   2.030   6.340
10761SOL    HW233183   1.009   2.095   6.242
10762SOL     OW33184   4.116   0.661   5.896
10762SOL    HW133185   4.188   0.679   5.829
10762SOL    HW233186   4.027   0.684   5.856
10763SOL     OW33187   5.774   0.732   2.908
10763SOL    HW133188   5.787   0.766   3.001
10763SOL    HW233189   5.680   0.750   2.878
10764SOL     OW33190   4.541   1.183   4.903
10764SOL    HW133191   4.610   1.124   4.944
10764SOL    HW233192   4.573   1.217   4.815
10765SOL     OW33193   5.803   1.873   2.372
10765SOL    HW133194   5.760   1.878   2.282
10765SOL    HW233195   5.747   1.816   2.433
10766SOL     OW33196   1.557   5.281   0.158
10766SOL    HW133197   1.473   5.260   0.208
10766SOL    HW233198   1.549   5.247   0.064
10767SOL     OW33199   2.087   6.649   0.491
10767SOL    HW133200   2.104   6.590   0.412
10767SOL    HW233201   2.036   6.730   0.462
10768SOL     OW33202   5.721   5.332   0.278
10768SOL    HW133203   5.786   5.308   0.351
10768SOL    HW233204   5.761   5.307   0.190
10769SOL     OW33205   2.642   4.209   5.450
10769SOL    HW133206   2.640   4.114   5.481
10769SOL    HW233207   2.560   4.228   5.396
10770SOL     OW33208   5.205   6.580   4.793
10770SOL    HW133209   5.225   6.490   4.753
10770SOL    HW233210   5.107   6.598   4.788
10771SOL     OW33211   4.648   0.135   5.253
10771SOL    HW133212   4.682   0.229   5.249
10771SOL    HW233213   4.642   0.106   5.349
10772SOL     OW33214   5.871   6.351   3.656
10772SOL    HW133215   5.827   6.286   3.718
10772SOL    HW233216   5.811   6.370   3.579
10773SOL     OW33217   6.746   4.278   0.552
10773SOL    HW133218   6.672   4.247   0.612
10773SOL    HW233219   6.754   4.215   0.475
10774SOL     OW33220   1.143   2.317   1.108
10774SOL    HW133221   1.101   2.368   1.182
10774SOL    HW233222   1.216   2.260   1.144
10775SOL     OW33223   1.765   4.637   0.613
10775SOL    HW133224   1.855   4.625   0.571
10775SOL    HW233225   1.742   4.734   0.616
10776SOL     OW33226   6.518   0.312   2.890
10776SOL    HW133227   6.444   0.287   2.828
10776SOL    HW233228   6.536   0.410   2.882
10777SOL     OW33229   2.782   0.796   3.911
10777SOL    HW133230   2.721   0.733   3.958
10777SOL    HW233231   2.850   0.745   3.859
10778SOL     OW33232   6.826   6.388   4.557
10778SOL    HW133233   6.782   6.475   4.535
10778SOL    HW233234   6.921   6.405   4.582
10779SOL     OW33235   5.579   4.604   3.439
10779SOL    HW133236   5.569   4.564   3.348
10779SOL    HW233237   5.488   4.618   3.479
10780SOL     OW33238   0.718   6.157   4.716
10780SOL    HW133239   0.805   6.203   4.695
10780SOL    HW233240   0.650   6.225   4.743
10781SOL     OW33241   6.281   2.061   5.220
10781SOL    HW133242   6.223   2.011   5.285
10781SOL    HW233243   6.309   2.148   5.261
10782SOL     OW33244   7.025   3.417   5.173
10782SOL    HW133245   6.975   3.384   5.252
10782SOL    HW233246   0.097   3.413   5.191
10783SOL     OW33247   1.204   2.468   2.308
10783SOL    HW133248   1.303   2.465   2.294
10783SOL    HW233249   1.177   2.395   2.370
10784SOL     OW33250   2.974   5.922   2.258
10784SOL    HW133251   2.930   6.007   2.230
10784SOL    HW233252   3.073   5.931   2.249
10785SOL     OW33253   1.409   5.197   1.433
10785SOL    HW133254   1.407   5.101   1.405
10785SOL    HW233255   1.354   5.209   1.516
10786SOL     OW33256   4.326   2.184   2.362
10786SOL    HW133257   4.236   2.164   2.326
10786SOL    HW233258   4.320   2.258   2.430
10787SOL     OW33259   3.573   1.606   4.059
10787SOL    HW133260   3.490   1.605   4.004
10787SOL    HW233261   3.653   1.600   3.999
10788SOL     OW33262   0.799   4.558   0.262
10788SOL    HW133263   0.718   4.512   0.297
10788SOL    HW233264   0.877   4.496   0.266
10789SOL     OW33265   6.255   0.966   0.259
10789SOL    HW133266   6.337   1.007   0.299
10789SOL    HW233267   6.255   0.867   0.275
10790SOL     OW33268   0.657   2.770   5.221
10790SOL    HW133269   0.637   2.815   5.134
10790SOL    HW233270   0.576   2.719   5.252
10791SOL     OW33271   2.268   1.848   2.381
10791SOL    HW133272   2.323   1.766   2.398
10791SOL    HW233273   2.175   1.833   2.415
10792SOL     OW33274   3.314   2.419   1.447
10792SOL    HW133275   3.318   2.433   1.546
10792SOL    HW233276   3.229   2.458   1.411
10793SOL     OW33277   5.088   1.727   4.800
10793SOL    HW133278   5.011   1.782   4.767
10793SOL    HW233279   5.158   1.722   4.729
10794SOL     OW33280   4.438   3.031   1.654
10794SOL    HW133281   4.507   3.043   1.725
10794SOL    HW233282   4.472   3.066   1.567
10795SOL     OW33283   0.172   4.093   2.339
10795SOL    HW133284   0.102   4.145   2.388
10795SOL    HW233285   0.142   3.998   2.328
10796SOL     OW33286   6.248   6.767   6.658
10796SOL    HW133287   6.237   6.855   6.613
10796SOL    HW233288   6.322   6.773   6.725
10797SOL     OW33289   3.823   2.971   0.583
10797SOL    HW133290   3.878   2.897   0.544
10797SOL    HW233291   3.729   2.940   0.594
10798SOL     OW33292   2.874   0.149   6.397
10798SOL    HW133293   2.974   0.158   6.405
10798SOL    HW233294   2.853   0.082   6.326
10799SOL     OW33295   3.306   1.716   2.687
10799SOL    HW133296   3.275   1.623   2.666
10799SOL    HW233297   3.349   1.717   2.777
10800SOL     OW33298   1.612   0.253   0.571
10800SOL    HW133299   1.666   0.305   0.505
10800SOL    HW233300   1.597   0.160   0.537
10801SOL     OW33301   1.982   6.327   5.634
10801SOL    HW133302   1.953   6.254   5.696
10801SOL    HW233303   2.005   6.288   5.545
10802SOL     OW33304   1.728   3.894   3.945
10802SOL    HW133305   1.787   3.905   4.025
10802SOL    HW233306   1.655   3.962   3.949
10803SOL     OW33307   5.748   4.570   5.302
10803SOL    HW133308   5.715   4.536   5.214
10803SOL    HW233309   5.714   4.663   5.316
10804SOL     OW33310   6.206   4.107   1.719
10804SOL    HW133311   6.184   4.192   1.767
10804SOL    HW233312   6.241   4.040   1.785
10805SOL     OW33313   4.248   6.562   0.491
10805SOL    HW133314   4.321   6.577   0.556
10805SOL    HW233315   4.176   6.630   0.503
10806SOL     OW33316   5.831   3.475   0.549
10806SOL    HW133317   5.841   3.535   0.628
10806SOL    HW233318   5.748   3.420   0.559
10807SOL     OW33319   3.471   6.151   3.463
10807SOL    HW133320   3.382   6.169   3.504
10807SOL    HW233321   3.463   6.076   3.397
10808SOL     OW33322   0.702   2.978   6.723
10808SOL    HW133323   0.682   2.883   6.750
10808SOL    HW233324   0.683   2.990   6.626
10809SOL     OW33325   3.254   1.431   4.326
10809SOL    HW133326   3.340   1.398   4.287
10809SOL    HW233327   3.198   1.353   4.353
10810SOL     OW33328   0.078   1.545   5.233
10810SOL    HW133329   0.076   1.532   5.134
10810SOL    HW233330   0.166   1.587   5.258
10811SOL     OW33331   4.130   5.556   5.045
10811SOL    HW133332   4.132   5.652   5.018
10811SOL    HW233333   4.215   5.511   5.017
10812SOL     OW33334   6.656   3.035   2.809
10812SOL    HW133335   6.575   2.981   2.787
10812SOL    HW233336   6.636   3.095   2.887
10813SOL     OW33337   2.661   5.769   1.951
10813SOL    HW133338   2.678   5.682   1.999
10813SOL    HW233339   2.739   5.791   1.893
10814SOL     OW33340   2.296   0.263   5.035
10814SOL    HW133341   2.331   0.217   4.953
10814SOL    HW233342   2.338   0.353   5.043
10815SOL     OW33343   5.714   4.287   2.860
10815SOL    HW133344   5.761   4.254   2.942
10815SOL    HW233345   5.634   4.229   2.842
10816SOL     OW33346   1.874   0.752   2.377
10816SOL    HW133347   1.951   0.747   2.440
10816SOL    HW233348   1.906   0.777   2.286
10817SOL     OW33349   5.307   0.314   2.516
10817SOL    HW133350   5.363   0.326   2.434
10817SOL    HW233351   5.321   0.392   2.577
10818SOL     OW33352   5.541   3.061   6.845
10818SOL    HW133353   5.497   3.090   6.929
10818SOL    HW233354   5.535   3.134   6.777
10819SOL     OW33355   0.320   4.773   6.189
10819SOL    HW133356   0.237   4.819   6.220
10819SOL    HW233357   0.339   4.695   6.249
10820SOL     OW33358   0.304   6.608   3.925
10820SOL    HW133359   0.362   6.598   4.005
10820SOL    HW233360   0.208   6.608   3.953
10821SOL     OW33361   0.093   0.145   1.619
10821SOL    HW133362   0.013   0.087   1.608
10821SOL    HW233363   0.150   0.140   1.537
10822SOL     OW33364   0.729   3.284   2.613
10822SOL    HW133365   0.645   3.230   2.613
10822SOL    HW233366   0.741   3.327   2.703
10823SOL     OW33367   2.760   5.948   1.264
10823SOL    HW133368   2.800   5.863   1.298
10823SOL    HW233369   2.667   5.930   1.231
10824SOL     OW33370   5.124   0.550   2.722
10824SOL    HW133371   5.165   0.483   2.785
10824SOL    HW233372   5.058   0.505   2.663
10825SOL     OW33373   3.237   0.921   1.254
10825SOL    HW133374   3.277   0.833   1.229
10825SOL    HW233375   3.235   0.981   1.175
10826SOL     OW33376   6.982   3.874   1.870
10826SOL    HW133377   6.920   3.893   1.794
10826SOL    HW233378   0.002   3.786   1.854
10827SOL     OW33379   0.213   3.656   4.527
10827SOL    HW133380   0.182   3.640   4.434
10827SOL    HW233381   0.195   3.751   4.553
10828SOL     OW33382   1.408   5.816   0.733
10828SOL    HW133383   1.401   5.915   0.739
10828SOL    HW233384   1.492   5.785   0.778
10829SOL     OW33385   3.103   3.889   1.879
10829SOL    HW133386   3.058   3.978   1.875
10829SOL    HW233387   3.055   3.830   1.945
10830SOL     OW33388   5.607   3.381   4.750
10830SOL    HW133389   5.593   3.405   4.846
10830SOL    HW233390   5.666   3.449   4.707
10831SOL     OW33391   5.238   0.997   2.631
10831SOL    HW133392   5.156   1.019   2.578
10831SOL    HW233393   5.307   1.067   2.616
10832SOL     OW33394   1.034   1.844   0.338
10832SOL    HW133395   0.961   1.912   0.333
10832SOL    HW233396   0.994   1.754   0.356
10833SOL     OW33397   2.679   0.874   4.540
10833SOL    HW133398   2.581   0.869   4.560
10833SOL    HW233399   2.720   0.949   4.592
10834SOL     OW33400   0.674   1.225   5.568
10834SOL    HW133401   0.725   1.303   5.605
10834SOL    HW233402   0.731   1.143   5.572
10835SOL     OW33403   5.907   2.104   2.320
10835SOL    HW133404   5.858   2.017   2.331
10835SOL    HW233405   5.889   2.141   2.228
10836SOL     OW33406   0.547   1.578   5.635
10836SOL    HW133407   0.462   1.552   5.589
10836SOL    HW233408   0.540   1.673   5.666
10837SOL     OW33409   6.962   4.469   0.293
10837SOL    HW133410   0.003   4.543   0.298
10837SOL    HW233411   6.989   4.405   0.220
10838SOL     OW33412   5.995   0.235   6.927
10838SOL    HW133413   6.057   0.310   6.951
10838SOL    HW233414   5.919   0.271   6.872
10839SOL     OW33415   2.537   1.776   0.090
10839SOL    HW133416   2.465   1.747   0.027
10839SOL    HW233417   2.589   1.851   0.049
10840SOL     OW33418   3.782   6.050   1.362
10840SOL    HW133419   3.783   5.958   1.400
10840SOL    HW233420   3.837   6.051   1.278
10841SOL     OW33421   4.216   6.000   6.131
10841SOL    HW133422   4.218   6.089   6.085
10841SOL    HW233423   4.170   6.011   6.220
10842SOL     OW33424   6.483   2.592   0.959
10842SOL    HW133425   6.570   2.588   0.910
10842SOL    HW233426   6.479   2.675   1.013
10843SOL     OW33427   1.407   1.648   1.836
10843SOL    HW133428   1.428   1.550   1.837
10843SOL    HW233429   1.453   1.692   1.913
10844SOL     OW33430   6.301   6.851   3.717
10844SOL    HW133431   6.253   6.776   3.672
10844SOL    HW233432   6.382   6.814   3.764
10845SOL     OW33433   1.040   1.010   1.773
10845SOL    HW133434   1.076   1.044   1.859
10845SOL    HW233435   1.092   0.930   1.743
10846SOL     OW33436   3.949   2.300   1.070
10846SOL    HW133437   4.010   2.225   1.045
10846SOL    HW233438   3.882   2.267   1.136
10847SOL     OW33439   3.344   1.983   5.795
10847SOL    HW133440   3.300   2.065   5.757
10847SOL    HW233441   3.357   1.915   5.723
10848SOL     OW33442   2.281   0.769   0.129
10848SOL    HW133443   2.214   0.699   0.106
10848SOL    HW233444   2.238   0.839   0.185
10849SOL     OW33445   2.856   4.960   4.403
10849SOL    HW133446   2.781   4.943   4.468
10849SOL    HW233447   2.871   5.058   4.394
10850SOL     OW33448   5.340   6.931   6.865
10850SOL    HW133449   5.362   6.900   6.772
10850SOL    HW233450   5.286   6.861   6.911
10851SOL     OW33451   2.638   2.698   5.968
10851SOL    HW133452   2.628   2.711   6.067
10851SOL    HW233453   2.548   2.695   5.925
10852SOL     OW33454   7.015   1.038   6.528
10852SOL    HW133455   6.937   0.976   6.530
10852SOL    HW233456   7.000   1.112   6.594
10853SOL     OW33457   3.059   1.948   4.734
10853SOL    HW133458   3.089   1.901   4.816
10853SOL    HW233459   2.993   1.891   4.685
10854SOL     OW33460   5.559   6.926   6.616
10854SOL    HW133461   5.624   6.901   6.544
10854SOL    HW233462   5.525   6.843   6.659
10855SOL     OW33463   1.862   6.261   2.673
10855SOL    HW133464   1.954   6.248   2.709
10855SOL    HW233465   1.846   6.200   2.596
10856SOL     OW33466   6.334   6.317   6.936
10856SOL    HW133467   6.362   6.261   6.858
10856SOL    HW233468   6.406   6.385   6.955
10857SOL     OW33469   6.139   2.476   3.704
10857SOL    HW133470   6.062   2.413   3.688
10857SOL    HW233471   6.154   2.485   3.802
10858SOL     OW33472   1.406   3.644   0.186
10858SOL    HW133473   1.497   3.609   0.162
10858SOL    HW233474   1.348   3.645   0.105
10859SOL     OW33475   1.067   4.603   3.434
10859SOL    HW133476   0.973   4.629   3.413
10859SOL    HW233477   1.068   4.548   3.517
10860SOL     OW33478   6.494   1.230   0.227
10860SOL    HW133479   6.402   1.267   0.239
10860SOL    HW233480   6.539   1.221   0.316
10861SOL     OW33481   3.046   2.619   1.733
10861SOL    HW133482   3.052   2.713   1.765
10861SOL    HW233483   2.998   2.564   1.801
10862SOL     OW33484   3.041   2.353   6.003
10862SOL    HW133485   3.118   2.377   5.943
10862SOL    HW233486   3.022   2.255   5.994
10863SOL     OW33487   2.294   0.388   3.347
10863SOL    HW133488   2.347   0.467   3.378
10863SOL    HW233489   2.350   0.332   3.286
10864SOL     OW33490   2.710   4.633   1.467
10864SOL    HW133491   2.618   4.626   1.429
10864SOL    HW233492   2.706   4.673   1.559
10865SOL     OW33493   5.370   2.846   3.373
10865SOL    HW133494   5.352   2.864   3.276
10865SOL    HW233495   5.289   2.871   3.427
10866SOL     OW33496   6.724   2.861   1.288
10866SOL    HW133497   6.778   2.809   1.222
10866SOL    HW233498   6.765   2.852   1.379
10867SOL     OW33499   2.877   2.432   0.289
10867SOL    HW133500   2.824   2.377   0.354
10867SOL    HW233501   2.822   2.446   0.206
10868SOL     OW33502   0.550   1.963   3.489
10868SOL    HW133503   0.554   1.947   3.390
10868SOL    HW233504   0.573   1.879   3.537
10869NA      NA33505   0.231   1.980   5.787
10870NA      NA33506   4.463   4.566   5.187
10871NA      NA33507   1.625   5.271   2.501
10872NA      NA33508   5.284   4.471   3.692
10873NA      NA33509   4.341   2.550   5.262
10874NA      NA33510   2.541   5.094   1.206
10875NA      NA33511   1.194   5.509   0.204
10876NA      NA33512   3.434   3.989   1.310
10877NA      NA33513   4.514   4.561   0.670
10878NA      NA33514   3.496   1.138   6.462
10879NA      NA33515   5.197   5.985   2.258
10880NA      NA33516   1.416   0.046   5.272
10881NA      NA33517   4.537   5.115   2.034
10882NA      NA33518   2.967   3.270   6.971
   7.02624   7.02624   7.02624
