Generated by trjconv : CNT in water t= 381.00000
33518
    1C        C    1   2.846   2.778   4.747
    1C        C    2   2.901   2.724   4.865
    1C        C    3   2.837   2.773   4.979
    1C        C    4   2.856   2.782   4.261
    1C        C    5   2.902   2.731   4.384
    1C        C    6   2.848   2.778   4.506
    1C        C    7   3.015   2.644   4.627
    1C        C    8   2.900   2.727   4.627
    1C        C    9   3.081   2.610   4.747
    1C        C   10   3.013   2.638   4.868
    1C        C   11   3.185   2.504   4.983
    1C        C   12   3.060   2.567   4.980
    1C        C   13   2.855   2.779   3.774
    1C        C   14   2.909   2.733   3.897
    1C        C   15   2.850   2.777   4.018
    1C        C   16   3.023   2.651   4.141
    1C        C   17   2.908   2.733   4.139
    1C        C   18   3.084   2.617   4.263
    1C        C   19   3.021   2.654   4.384
    1C        C   20   3.212   2.562   4.507
    1C        C   21   3.081   2.616   4.506
    1C        C   22   3.281   2.538   4.628
    1C        C   23   3.212   2.555   4.750
    1C        C   24   3.414   2.486   4.870
    1C        C   25   3.272   2.506   4.869
    1C        C   26   3.493   2.477   4.985
    1C        C   27   2.854   2.769   3.287
    1C        C   28   2.911   2.727   3.409
    1C        C   29   2.858   2.777   3.530
    1C        C   30   3.021   2.644   3.655
    1C        C   31   2.908   2.729   3.653
    1C        C   32   3.082   2.610   3.778
    1C        C   33   3.020   2.646   3.899
    1C        C   34   3.213   2.552   4.021
    1C        C   35   3.085   2.611   4.020
    1C        C   36   3.281   2.530   4.143
    1C        C   37   3.214   2.561   4.263
    1C        C   38   3.419   2.507   4.387
    1C        C   39   3.281   2.540   4.386
    1C        C   40   3.490   2.506   4.509
    1C        C   41   3.418   2.506   4.631
    1C        C   42   3.632   2.488   4.748
    1C        C   43   3.490   2.484   4.750
    1C        C   44   3.708   2.492   4.868
    1C        C   45   3.632   2.474   4.984
    1C        C   46   2.842   2.756   2.797
    1C        C   47   2.899   2.714   2.920
    1C        C   48   2.851   2.768   3.042
    1C        C   49   3.021   2.642   3.166
    1C        C   50   2.906   2.724   3.164
    1C        C   51   3.081   2.604   3.288
    1C        C   52   3.023   2.640   3.411
    1C        C   53   3.212   2.548   3.530
    1C        C   54   3.081   2.602   3.534
    1C        C   55   3.279   2.533   3.653
    1C        C   56   3.213   2.557   3.775
    1C        C   57   3.418   2.507   3.897
    1C        C   58   3.279   2.532   3.898
    1C        C   59   3.490   2.503   4.019
    1C        C   60   3.421   2.506   4.142
    1C        C   61   3.631   2.505   4.262
    1C        C   62   3.490   2.498   4.265
    1C        C   63   3.702   2.511   4.384
    1C        C   64   3.631   2.500   4.506
    1C        C   65   3.838   2.545   4.626
    1C        C   66   3.704   2.503   4.627
    1C        C   67   3.909   2.565   4.747
    1C        C   68   3.844   2.529   4.867
    1C        C   69   4.059   2.587   4.981
    1C        C   70   3.928   2.538   4.979
    1C        C   71   2.831   2.744   2.311
    1C        C   72   2.888   2.700   2.432
    1C        C   73   2.839   2.751   2.554
    1C        C   74   3.017   2.633   2.678
    1C        C   75   2.898   2.710   2.676
    1C        C   76   3.080   2.598   2.799
    1C        C   77   3.017   2.637   2.919
    1C        C   78   3.207   2.545   3.044
    1C        C   79   3.080   2.607   3.042
    1C        C   80   3.279   2.529   3.164
    1C        C   81   3.213   2.554   3.287
    1C        C   82   3.418   2.500   3.405
    1C        C   83   3.279   2.525   3.408
    1C        C   84   3.487   2.496   3.529
    1C        C   85   3.417   2.502   3.651
    1C        C   86   3.628   2.502   3.771
    1C        C   87   3.487   2.499   3.774
    1C        C   88   3.699   2.513   3.892
    1C        C   89   3.631   2.503   4.016
    1C        C   90   3.832   2.563   4.140
    1C        C   91   3.699   2.514   4.139
    1C        C   92   3.900   2.584   4.262
    1C        C   93   3.838   2.547   4.384
    1C        C   94   4.032   2.637   4.507
    1C        C   95   3.905   2.575   4.505
    1C        C   96   4.095   2.676   4.627
    1C        C   97   4.034   2.632   4.746
    1C        C   98   4.196   2.767   4.868
    1C        C   99   4.110   2.653   4.865
    1C        C  100   4.222   2.846   4.981
    1C        C  101   2.826   2.737   2.073
    1C        C  102   2.996   2.600   2.192
    1C        C  103   2.879   2.683   2.192
    1C        C  104   3.067   2.579   2.313
    1C        C  105   3.006   2.622   2.433
    1C        C  106   3.203   2.540   2.553
    1C        C  107   3.072   2.593   2.554
    1C        C  108   3.271   2.521   2.675
    1C        C  109   3.209   2.540   2.800
    1C        C  110   3.415   2.496   2.914
    1C        C  111   3.276   2.519   2.923
    1C        C  112   3.485   2.490   3.037
    1C        C  113   3.418   2.502   3.161
    1C        C  114   3.629   2.502   3.281
    1C        C  115   3.488   2.492   3.283
    1C        C  116   3.697   2.515   3.404
    1C        C  117   3.628   2.502   3.527
    1C        C  118   3.835   2.543   3.648
    1C        C  119   3.699   2.503   3.649
    1C        C  120   3.898   2.576   3.770
    1C        C  121   3.834   2.555   3.894
    1C        C  122   4.026   2.645   4.018
    1C        C  123   3.898   2.585   4.017
    1C        C  124   4.090   2.676   4.140
    1C        C  125   4.028   2.643   4.262
    1C        C  126   4.199   2.767   4.379
    1C        C  127   4.089   2.678   4.385
    1C        C  128   4.248   2.820   4.501
    1C        C  129   4.200   2.770   4.624
    1C        C  130   4.329   2.938   4.744
    1C        C  131   4.248   2.821   4.747
    1C        C  132   4.362   3.008   4.862
    1C        C  133   4.297   2.963   4.978
    1C        C  134   3.176   2.472   2.082
    1C        C  135   3.043   2.515   2.087
    1C        C  136   3.261   2.484   2.192
    1C        C  137   3.199   2.525   2.311
    1C        C  138   3.408   2.483   2.431
    1C        C  139   3.270   2.509   2.432
    1C        C  140   3.482   2.476   2.551
    1C        C  141   3.410   2.493   2.671
    1C        C  142   3.624   2.500   2.792
    1C        C  143   3.483   2.489   2.791
    1C        C  144   3.696   2.505   2.913
    1C        C  145   3.626   2.491   3.035
    1C        C  146   3.832   2.545   3.156
    1C        C  147   3.697   2.504   3.157
    1C        C  148   3.899   2.572   3.277
    1C        C  149   3.834   2.550   3.401
    1C        C  150   4.023   2.637   3.524
    1C        C  151   3.899   2.569   3.524
    1C        C  152   4.082   2.675   3.647
    1C        C  153   4.020   2.647   3.771
    1C        C  154   4.191   2.771   3.890
    1C        C  155   4.078   2.686   3.894
    1C        C  156   4.242   2.818   4.013
    1C        C  157   4.199   2.766   4.138
    1C        C  158   4.339   2.927   4.256
    1C        C  159   4.254   2.814   4.258
    1C        C  160   4.377   2.988   4.378
    1C        C  161   4.333   2.933   4.501
    1C        C  162   4.432   3.122   4.619
    1C        C  163   4.366   2.998   4.622
    1C        C  164   4.472   3.189   4.737
    1C        C  165   4.444   3.123   4.859
    1C        C  166   4.524   3.323   4.974
    1C        C  167   4.484   3.190   4.976
    1C        C  168   3.476   2.445   2.073
    1C        C  169   3.400   2.459   2.190
    1C        C  170   3.619   2.469   2.305
    1C        C  171   3.477   2.460   2.309
    1C        C  172   3.690   2.496   2.424
    1C        C  173   3.623   2.489   2.548
    1C        C  174   3.830   2.546   2.667
    1C        C  175   3.693   2.511   2.668
    1C        C  176   3.895   2.569   2.790
    1C        C  177   3.833   2.538   2.913
    1C        C  178   4.027   2.628   3.034
    1C        C  179   3.900   2.566   3.034
    1C        C  180   4.088   2.663   3.157
    1C        C  181   4.028   2.630   3.280
    1C        C  182   4.197   2.758   3.401
    1C        C  183   4.086   2.672   3.403
    1C        C  184   4.242   2.811   3.524
    1C        C  185   4.193   2.763   3.647
    1C        C  186   4.338   2.922   3.768
    1C        C  187   4.246   2.815   3.767
    1C        C  188   4.380   2.978   3.891
    1C        C  189   4.333   2.926   4.013
    1C        C  190   4.444   3.110   4.131
    1C        C  191   4.378   2.985   4.133
    1C        C  192   4.472   3.174   4.254
    1C        C  193   4.446   3.111   4.377
    1C        C  194   4.515   3.317   4.494
    1C        C  195   4.468   3.183   4.497
    1C        C  196   4.528   3.391   4.614
    1C        C  197   4.518   3.323   4.737
    1C        C  198   4.563   3.539   4.855
    1C        C  199   4.540   3.397   4.857
    1C        C  200   4.586   3.621   4.969
    1C        C  201   3.613   2.418   2.075
    1C        C  202   3.828   2.512   2.183
    1C        C  203   3.693   2.463   2.184
    1C        C  204   3.898   2.545   2.302
    1C        C  205   3.829   2.525   2.424
    1C        C  206   4.022   2.624   2.544
    1C        C  207   3.897   2.557   2.543
    1C        C  208   4.083   2.663   2.665
    1C        C  209   4.021   2.632   2.788
    1C        C  210   4.196   2.751   2.912
    1C        C  211   4.083   2.667   2.910
    1C        C  212   4.251   2.798   3.034
    1C        C  213   4.198   2.752   3.156
    1C        C  214   4.335   2.917   3.275
    1C        C  215   4.247   2.806   3.277
    1C        C  216   4.369   2.977   3.398
    1C        C  217   4.332   2.920   3.522
    1C        C  218   4.438   3.104   3.643
    1C        C  219   4.374   2.978   3.644
    1C        C  220   4.470   3.169   3.765
    1C        C  221   4.446   3.103   3.888
    1C        C  222   4.508   3.310   4.006
    1C        C  223   4.471   3.174   4.008
    1C        C  224   4.525   3.381   4.127
    1C        C  225   4.512   3.310   4.249
    1C        C  226   4.529   3.524   4.369
    1C        C  227   4.518   3.383   4.370
    1C        C  228   4.529   3.601   4.488
    1C        C  229   4.534   3.532   4.611
    1C        C  230   4.510   3.744   4.731
    1C        C  231   4.543   3.606   4.731
    1C        C  232   4.498   3.819   4.850
    1C        C  233   4.553   3.757   4.962
    1C        C  234   4.021   2.611   2.065
    1C        C  235   3.899   2.545   2.067
    1C        C  236   4.088   2.647   2.182
    1C        C  237   4.025   2.609   2.302
    1C        C  238   4.204   2.733   2.424
    1C        C  239   4.088   2.651   2.421
    1C        C  240   4.255   2.787   2.544
    1C        C  241   4.196   2.749   2.666
    1C        C  242   4.341   2.903   2.787
    1C        C  243   4.247   2.797   2.788
    1C        C  244   4.384   2.962   2.908
    1C        C  245   4.337   2.910   3.031
    1C        C  246   4.446   3.094   3.152
    1C        C  247   4.380   2.970   3.152
    1C        C  248   4.461   3.164   3.274
    1C        C  249   4.431   3.104   3.398
    1C        C  250   4.505   3.303   3.518
    1C        C  251   4.463   3.168   3.520
    1C        C  252   4.518   3.373   3.640
    1C        C  253   4.504   3.306   3.763
    1C        C  254   4.533   3.520   3.881
    1C        C  255   4.520   3.379   3.883
    1C        C  256   4.523   3.590   4.003
    1C        C  257   4.528   3.522   4.126
    1C        C  258   4.493   3.733   4.244
    1C        C  259   4.519   3.594   4.247
    1C        C  260   4.476   3.804   4.365
    1C        C  261   4.494   3.738   4.489
    1C        C  262   4.435   3.943   4.606
    1C        C  263   4.489   3.812   4.609
    1C        C  264   4.401   4.009   4.726
    1C        C  265   4.439   3.947   4.848
    1C        C  266   4.332   4.138   4.960
    1C        C  267   4.405   4.019   4.963
    1C        C  268   4.266   2.774   2.067
    1C        C  269   4.201   2.732   2.183
    1C        C  270   4.350   2.891   2.301
    1C        C  271   4.258   2.782   2.303
    1C        C  272   4.388   2.952   2.423
    1C        C  273   4.347   2.895   2.545
    1C        C  274   4.453   3.083   2.664
    1C        C  275   4.380   2.962   2.665
    1C        C  276   4.479   3.153   2.784
    1C        C  277   4.447   3.088   2.906
    1C        C  278   4.507   3.292   3.027
    1C        C  279   4.473   3.155   3.027
    1C        C  280   4.519   3.363   3.149
    1C        C  281   4.504   3.299   3.274
    1C        C  282   4.521   3.512   3.391
    1C        C  283   4.518   3.370   3.395
    1C        C  284   4.518   3.582   3.514
    1C        C  285   4.522   3.514   3.637
    1C        C  286   4.496   3.727   3.755
    1C        C  287   4.524   3.588   3.758
    1C        C  288   4.476   3.796   3.877
    1C        C  289   4.494   3.728   4.000
    1C        C  290   4.427   3.931   4.117
    1C        C  291   4.478   3.800   4.120
    1C        C  292   4.392   3.993   4.239
    1C        C  293   4.425   3.935   4.364
    1C        C  294   4.326   4.125   4.480
    1C        C  295   4.403   4.007   4.484
    1C        C  296   4.288   4.190   4.599
    1C        C  297   4.324   4.128   4.721
    1C        C  298   4.202   4.311   4.838
    1C        C  299   4.287   4.195   4.841
    1C        C  300   4.174   4.403   4.943
    1C        C  301   4.347   2.888   2.063
    1C        C  302   4.475   3.067   2.178
    1C        C  303   4.397   2.947   2.180
    1C        C  304   4.483   3.141   2.300
    1C        C  305   4.452   3.078   2.422
    1C        C  306   4.518   3.283   2.536
    1C        C  307   4.482   3.147   2.542
    1C        C  308   4.521   3.357   2.657
    1C        C  309   4.511   3.290   2.781
    1C        C  310   4.531   3.501   2.901
    1C        C  311   4.520   3.360   2.904
    1C        C  312   4.521   3.572   3.023
    1C        C  313   4.523   3.505   3.147
    1C        C  314   4.497   3.718   3.267
    1C        C  315   4.517   3.579   3.267
    1C        C  316   4.485   3.791   3.388
    1C        C  317   4.497   3.722   3.510
    1C        C  318   4.428   3.925   3.630
    1C        C  319   4.476   3.792   3.631
    1C        C  320   4.396   3.991   3.750
    1C        C  321   4.427   3.928   3.873
    1C        C  322   4.317   4.110   3.993
    1C        C  323   4.395   3.993   3.994
    1C        C  324   4.274   4.168   4.115
    1C        C  325   4.318   4.113   4.237
    1C        C  326   4.182   4.280   4.355
    1C        C  327   4.276   4.175   4.358
    1C        C  328   4.135   4.340   4.474
    1C        C  329   4.194   4.296   4.594
    1C        C  330   4.029   4.434   4.714
    1C        C  331   4.142   4.348   4.714
    1C        C  332   3.975   4.490   4.832
    1C        C  333   4.055   4.476   4.946
    1C        C  334   4.555   3.271   2.065
    1C        C  335   4.540   3.132   2.068
    1C        C  336   4.545   3.351   2.180
    1C        C  337   4.515   3.279   2.297
    1C        C  338   4.527   3.496   2.418
    1C        C  339   4.533   3.355   2.415
    1C        C  340   4.523   3.569   2.538
    1C        C  341   4.526   3.498   2.661
    1C        C  342   4.497   3.712   2.778
    1C        C  343   4.528   3.574   2.780
    1C        C  344   4.481   3.780   2.900
    1C        C  345   4.490   3.710   3.022
    1C        C  346   4.418   3.912   3.141
    1C        C  347   4.469   3.780   3.143
    1C        C  348   4.393   3.981   3.261
    1C        C  349   4.428   3.921   3.384
    1C        C  350   4.321   4.104   3.504
    1C        C  351   4.398   3.986   3.506
    1C        C  352   4.278   4.166   3.624
    1C        C  353   4.320   4.111   3.747
    1C        C  354   4.177   4.267   3.869
    1C        C  355   4.275   4.165   3.869
    1C        C  356   4.121   4.315   3.989
    1C        C  357   4.178   4.271   4.111
    1C        C  358   4.017   4.411   4.231
    1C        C  359   4.129   4.326   4.232
    1C        C  360   3.953   4.448   4.352
    1C        C  361   4.019   4.421   4.474
    1C        C  362   3.831   4.522   4.596
    1C        C  363   3.959   4.462   4.595
    1C        C  364   3.764   4.543   4.718
    1C        C  365   3.842   4.537   4.836
    1C        C  366   3.634   4.595   4.954
    1C        C  367   3.771   4.571   4.952
    1C        C  368   4.516   3.568   2.059
    1C        C  369   4.524   3.490   2.175
    1C        C  370   4.500   3.705   2.292
    1C        C  371   4.521   3.565   2.295
    1C        C  372   4.483   3.777   2.413
    1C        C  373   4.507   3.709   2.534
    1C        C  374   4.426   3.908   2.652
    1C        C  375   4.480   3.778   2.654
    1C        C  376   4.392   3.972   2.774
    1C        C  377   4.426   3.910   2.896
    1C        C  378   4.315   4.093   3.014
    1C        C  379   4.392   3.975   3.017
    1C        C  380   4.274   4.154   3.135
    1C        C  381   4.314   4.098   3.259
    1C        C  382   4.176   4.258   3.380
    1C        C  383   4.276   4.157   3.381
    1C        C  384   4.123   4.308   3.501
    1C        C  385   4.178   4.266   3.625
    1C        C  386   4.013   4.399   3.746
    1C        C  387   4.125   4.313   3.747
    1C        C  388   3.950   4.436   3.867
    1C        C  389   4.004   4.395   3.990
    1C        C  390   3.819   4.499   4.111
    1C        C  391   3.947   4.438   4.112
    1C        C  392   3.753   4.527   4.233
    1C        C  393   3.826   4.510   4.353
    1C        C  394   3.620   4.557   4.480
    1C        C  395   3.760   4.537   4.474
    1C        C  396   3.548   4.566   4.601
    1C        C  397   3.624   4.563   4.719
    1C        C  398   3.414   4.558   4.845
    1C        C  399   3.553   4.578   4.841
    1C        C  400   3.345   4.522   4.961
    1C        C  401   4.508   3.707   2.055
    1C        C  402   4.452   3.915   2.171
    1C        C  403   4.492   3.780   2.173
    1C        C  404   4.413   3.979   2.291
    1C        C  405   4.438   3.911   2.413
    1C        C  406   4.323   4.095   2.529
    1C        C  407   4.404   3.979   2.532
    1C        C  408   4.274   4.149   2.650
    1C        C  409   4.313   4.089   2.772
    1C        C  410   4.174   4.253   2.893
    1C        C  411   4.270   4.149   2.892
    1C        C  412   4.125   4.302   3.015
    1C        C  413   4.177   4.257   3.138
    1C        C  414   4.006   4.386   3.253
    1C        C  415   4.122   4.305   3.259
    1C        C  416   3.947   4.418   3.377
    1C        C  417   4.008   4.389   3.502
    1C        C  418   3.817   4.483   3.621
    1C        C  419   3.946   4.425   3.624
    1C        C  420   3.753   4.513   3.743
    1C        C  421   3.821   4.494   3.866
    1C        C  422   3.614   4.545   3.989
    1C        C  423   3.753   4.518   3.988
    1C        C  424   3.543   4.555   4.111
    1C        C  425   3.614   4.552   4.233
    1C        C  426   3.408   4.561   4.359
    1C        C  427   3.549   4.561   4.358
    1C        C  428   3.336   4.549   4.480
    1C        C  429   3.407   4.555   4.602
    1C        C  430   3.199   4.518   4.723
    1C        C  431   3.338   4.548   4.726
    1C        C  432   3.129   4.498   4.845
    1C        C  433   3.208   4.494   4.961
    1C        C  434   4.389   4.129   2.058
    1C        C  435   4.448   4.002   2.061
    1C        C  436   4.304   4.164   2.167
    1C        C  437   4.335   4.097   2.289
    1C        C  438   4.181   4.252   2.404
    1C        C  439   4.283   4.154   2.407
    1C        C  440   4.123   4.294   2.526
    1C        C  441   4.175   4.250   2.649
    1C        C  442   4.001   4.374   2.768
    1C        C  443   4.119   4.296   2.770
    1C        C  444   3.942   4.413   2.891
    1C        C  445   4.005   4.377   3.012
    1C        C  446   3.814   4.480   3.134
    1C        C  447   3.942   4.418   3.132
    1C        C  448   3.751   4.503   3.258
    1C        C  449   3.816   4.473   3.379
    1C        C  450   3.611   4.538   3.499
    1C        C  451   3.749   4.507   3.499
    1C        C  452   3.544   4.542   3.623
    1C        C  453   3.615   4.541   3.746
    1C        C  454   3.403   4.546   3.869
    1C        C  455   3.544   4.553   3.867
    1C        C  456   3.331   4.544   3.991
    1C        C  457   3.402   4.549   4.113
    1C        C  458   3.202   4.500   4.236
    1C        C  459   3.338   4.538   4.239
    1C        C  460   3.134   4.485   4.360
    1C        C  461   3.200   4.511   4.482
    1C        C  462   3.001   4.434   4.606
    1C        C  463   3.130   4.494   4.603
    1C        C  464   2.938   4.394   4.726
    1C        C  465   2.998   4.441   4.846
    1C        C  466   2.806   4.339   4.961
    1C        C  467   2.912   4.431   4.960
    1C        C  468   4.125   4.290   2.044
    1C        C  469   4.191   4.251   2.162
    1C        C  470   4.009   4.375   2.280
    1C        C  471   4.128   4.297   2.281
    1C        C  472   3.941   4.399   2.401
    1C        C  473   4.004   4.370   2.524
    1C        C  474   3.813   4.467   2.643
    1C        C  475   3.939   4.403   2.645
    1C        C  476   3.749   4.491   2.766
    1C        C  477   3.813   4.471   2.890
    1C        C  478   3.606   4.521   3.012
    1C        C  479   3.746   4.496   3.012
    1C        C  480   3.539   4.535   3.135
    1C        C  481   3.613   4.533   3.256
    1C        C  482   3.399   4.546   3.380
    1C        C  483   3.541   4.545   3.377
    1C        C  484   3.332   4.532   3.504
    1C        C  485   3.403   4.539   3.626
    1C        C  486   3.193   4.506   3.745
    1C        C  487   3.331   4.537   3.747
    1C        C  488   3.130   4.483   3.869
    1C        C  489   3.195   4.507   3.992
    1C        C  490   3.007   4.413   4.115
    1C        C  491   3.132   4.479   4.115
    1C        C  492   2.954   4.376   4.241
    1C        C  493   3.009   4.418   4.363
    1C        C  494   2.829   4.308   4.483
    1C        C  495   2.943   4.392   4.485
    1C        C  496   2.782   4.255   4.605
    1C        C  497   2.827   4.306   4.728
    1C        C  498   2.667   4.168   4.848
    1C        C  499   2.753   4.280   4.846
    1C        C  500   2.601   4.117   4.961
    1C        C  501   4.004   4.359   2.044
    1C        C  502   3.816   4.469   2.156
    1C        C  503   3.945   4.411   2.159
    1C        C  504   3.744   4.481   2.277
    1C        C  505   3.812   4.457   2.398
    1C        C  506   3.608   4.518   2.522
    1C        C  507   3.745   4.484   2.520
    1C        C  508   3.538   4.526   2.644
    1C        C  509   3.610   4.518   2.765
    1C        C  510   3.398   4.525   2.889
    1C        C  511   3.540   4.529   2.888
    1C        C  512   3.329   4.525   3.012
    1C        C  513   3.398   4.542   3.135
    1C        C  514   3.193   4.498   3.257
    1C        C  515   3.329   4.537   3.258
    1C        C  516   3.127   4.469   3.378
    1C        C  517   3.195   4.498   3.499
    1C        C  518   3.006   4.407   3.627
    1C        C  519   3.129   4.477   3.623
    1C        C  520   2.948   4.372   3.750
    1C        C  521   3.009   4.409   3.872
    1C        C  522   2.840   4.280   3.997
    1C        C  523   2.949   4.371   3.993
    1C        C  524   2.794   4.233   4.122
    1C        C  525   2.844   4.287   4.242
    1C        C  526   2.693   4.140   4.368
    1C        C  527   2.779   4.253   4.363
    1C        C  528   2.654   4.082   4.491
    1C        C  529   2.691   4.146   4.611
    1C        C  530   2.585   3.963   4.735
    1C        C  531   2.638   4.095   4.731
    1C        C  532   2.540   3.905   4.857
    1C        C  533   2.527   3.998   4.965
    1C        C  534   3.616   4.557   2.040
    1C        C  535   3.751   4.519   2.042
    1C        C  536   3.535   4.541   2.157
    1C        C  537   3.609   4.526   2.277
    1C        C  538   3.397   4.521   2.401
    1C        C  539   3.538   4.526   2.400
    1C        C  540   3.325   4.515   2.523
    1C        C  541   3.397   4.521   2.644
    1C        C  542   3.189   4.487   2.770
    1C        C  543   3.328   4.515   2.767
    1C        C  544   3.122   4.470   2.894
    1C        C  545   3.193   4.488   3.014
    1C        C  546   3.001   4.400   3.137
    1C        C  547   3.125   4.468   3.137
    1C        C  548   2.945   4.361   3.260
    1C        C  549   3.003   4.402   3.382
    1C        C  550   2.837   4.275   3.511
    1C        C  551   2.945   4.366   3.506
    1C        C  552   2.788   4.228   3.635
    1C        C  553   2.836   4.285   3.754
    1C        C  554   2.696   4.123   3.877
    1C        C  555   2.789   4.229   3.875
    1C        C  556   2.662   4.067   4.002
    1C        C  557   2.702   4.126   4.124
    1C        C  558   2.600   3.945   4.251
    1C        C  559   2.662   4.072   4.249
    1C        C  560   2.572   3.882   4.374
    1C        C  561   2.593   3.954   4.494
    1C        C  562   2.532   3.752   4.620
    1C        C  563   2.562   3.890   4.616
    1C        C  564   2.516   3.683   4.742
    1C        C  565   2.526   3.763   4.860
    1C        C  566   2.530   3.549   4.983
    1C        C  567   2.533   3.688   4.979
    1C        C  568   3.324   4.476   2.044
    1C        C  569   3.395   4.516   2.158
    1C        C  570   3.186   4.476   2.284
    1C        C  571   3.324   4.511   2.281
    1C        C  572   3.116   4.461   2.406
    1C        C  573   3.186   4.487   2.525
    1C        C  574   2.992   4.409   2.651
    1C        C  575   3.121   4.466   2.649
    1C        C  576   2.934   4.367   2.773
    1C        C  577   3.000   4.398   2.893
    1C        C  578   2.831   4.272   3.017
    1C        C  579   2.940   4.362   3.015
    1C        C  580   2.782   4.224   3.141
    1C        C  581   2.834   4.273   3.263
    1C        C  582   2.697   4.119   3.389
    1C        C  583   2.785   4.229   3.388
    1C        C  584   2.663   4.056   3.511
    1C        C  585   2.707   4.112   3.633
    1C        C  586   2.595   3.934   3.760
    1C        C  587   2.662   4.058   3.756
    1C        C  588   2.571   3.874   3.886
    1C        C  589   2.598   3.941   4.007
    1C        C  590   2.533   3.742   4.132
    1C        C  591   2.567   3.879   4.130
    1C        C  592   2.525   3.675   4.257
    1C        C  593   2.532   3.747   4.378
    1C        C  594   2.510   3.536   4.501
    1C        C  595   2.521   3.677   4.501
    1C        C  596   2.519   3.467   4.623
    1C        C  597   2.519   3.541   4.744
    1C        C  598   2.532   3.331   4.862
    1C        C  599   2.531   3.472   4.866
    1C        C  600   2.541   3.253   4.979
    1C        C  601   3.192   4.437   2.045
    1C        C  602   2.982   4.397   2.163
    1C        C  603   3.117   4.443   2.164
    1C        C  604   2.924   4.365   2.288
    1C        C  605   2.987   4.403   2.409
    1C        C  606   2.824   4.270   2.532
    1C        C  607   2.927   4.367   2.532
    1C        C  608   2.777   4.217   2.654
    1C        C  609   2.830   4.271   2.773
    1C        C  610   2.689   4.113   2.899
    1C        C  611   2.778   4.223   2.895
    1C        C  612   2.652   4.055   3.022
    1C        C  613   2.693   4.114   3.143
    1C        C  614   2.596   3.930   3.267
    1C        C  615   2.659   4.056   3.268
    1C        C  616   2.572   3.868   3.392
    1C        C  617   2.598   3.931   3.516
    1C        C  618   2.527   3.732   3.641
    1C        C  619   2.564   3.869   3.638
    1C        C  620   2.512   3.669   3.766
    1C        C  621   2.529   3.739   3.888
    1C        C  622   2.519   3.529   4.014
    1C        C  623   2.523   3.670   4.011
    1C        C  624   2.519   3.460   4.137
    1C        C  625   2.511   3.534   4.257
    1C        C  626   2.525   3.323   4.380
    1C        C  627   2.509   3.464   4.380
    1C        C  628   2.542   3.252   4.501
    1C        C  629   2.525   3.326   4.621
    1C        C  630   2.581   3.119   4.743
    1C        C  631   2.545   3.257   4.743
    1C        C  632   2.608   3.049   4.864
    1C        C  633   2.562   3.115   4.983
    1C        C  634   2.781   4.310   2.059
    1C        C  635   2.890   4.398   2.053
    1C        C  636   2.748   4.234   2.172
    1C        C  637   2.809   4.281   2.290
    1C        C  638   2.683   4.109   2.413
    1C        C  639   2.766   4.224   2.412
    1C        C  640   2.641   4.052   2.535
    1C        C  641   2.684   4.111   2.657
    1C        C  642   2.581   3.927   2.778
    1C        C  643   2.643   4.054   2.779
    1C        C  644   2.560   3.861   2.902
    1C        C  645   2.588   3.929   3.022
    1C        C  646   2.525   3.729   3.151
    1C        C  647   2.567   3.864   3.146
    1C        C  648   2.513   3.661   3.274
    1C        C  649   2.532   3.732   3.395
    1C        C  650   2.507   3.523   3.521
    1C        C  651   2.517   3.664   3.518
    1C        C  652   2.508   3.457   3.646
    1C        C  653   2.505   3.528   3.768
    1C        C  654   2.537   3.319   3.891
    1C        C  655   2.517   3.459   3.891
    1C        C  656   2.556   3.252   4.013
    1C        C  657   2.543   3.321   4.136
    1C        C  658   2.603   3.122   4.259
    1C        C  659   2.551   3.253   4.260
    1C        C  660   2.635   3.059   4.382
    1C        C  661   2.595   3.121   4.502
    1C        C  662   2.709   2.943   4.626
    1C        C  663   2.621   3.054   4.624
    1C        C  664   2.754   2.887   4.748
    1C        C  665   2.697   2.937   4.868
    1C        C  666   2.745   2.877   4.985
    1C        C  667   2.691   4.022   2.059
    1C        C  668   2.688   4.106   2.171
    1C        C  669   2.586   3.918   2.294
    1C        C  670   2.646   4.047   2.292
    1C        C  671   2.558   3.852   2.415
    1C        C  672   2.583   3.924   2.535
    1C        C  673   2.515   3.723   2.661
    1C        C  674   2.556   3.858   2.657
    1C        C  675   2.503   3.656   2.784
    1C        C  676   2.525   3.724   2.906
    1C        C  677   2.505   3.517   3.032
    1C        C  678   2.511   3.658   3.030
    1C        C  679   2.510   3.447   3.155
    1C        C  680   2.509   3.520   3.276
    1C        C  681   2.536   3.313   3.404
    1C        C  682   2.506   3.451   3.399
    1C        C  683   2.559   3.249   3.528
    1C        C  684   2.541   3.320   3.649
    1C        C  685   2.604   3.116   3.772
    1C        C  686   2.554   3.248   3.770
    1C        C  687   2.642   3.056   3.894
    1C        C  688   2.610   3.121   4.015
    1C        C  689   2.718   2.942   4.142
    1C        C  690   2.636   3.057   4.138
    1C        C  691   2.760   2.885   4.264
    1C        C  692   2.709   2.939   4.385
    1C        C  693   2.757   2.886   4.507
    1C        C  694   2.633   3.895   2.058
    1C        C  695   2.526   3.711   2.177
    1C        C  696   2.574   3.843   2.174
    1C        C  697   2.510   3.642   2.299
    1C        C  698   2.525   3.715   2.419
    1C        C  699   2.495   3.507   2.543
    1C        C  700   2.503   3.648   2.542
    1C        C  701   2.501   3.439   2.667
    1C        C  702   2.500   3.514   2.786
    1C        C  703   2.532   3.307   2.913
    1C        C  704   2.506   3.446   2.910
    1C        C  705   2.550   3.239   3.036
    1C        C  706   2.536   3.309   3.158
    1C        C  707   2.601   3.111   3.283
    1C        C  708   2.553   3.243   3.282
    1C        C  709   2.634   3.048   3.405
    1C        C  710   2.608   3.116   3.526
    1C        C  711   2.720   2.939   3.648
    1C        C  712   2.638   3.054   3.649
    1C        C  713   2.764   2.887   3.772
    1C        C  714   2.714   2.935   3.895
    1C        C  715   2.753   2.880   4.019
    1C        C  716   2.452   3.505   2.065
    1C        C  717   2.492   3.639   2.062
    1C        C  718   2.475   3.425   2.181
    1C        C  719   2.486   3.501   2.300
    1C        C  720   2.515   3.294   2.427
    1C        C  721   2.487   3.432   2.423
    1C        C  722   2.538   3.228   2.550
    1C        C  723   2.529   3.301   2.671
    1C        C  724   2.603   3.103   2.792
    1C        C  725   2.550   3.234   2.793
    1C        C  726   2.627   3.042   2.917
    1C        C  727   2.601   3.107   3.040
    1C        C  728   2.712   2.928   3.161
    1C        C  729   2.632   3.044   3.162
    1C        C  730   2.759   2.874   3.283
    1C        C  731   2.720   2.936   3.404
    1C        C  732   2.758   2.877   3.527
    1C        C  733   2.499   3.201   2.071
    1C        C  734   2.495   3.283   2.184
    1C        C  735   2.585   3.090   2.309
    1C        C  736   2.532   3.222   2.307
    1C        C  737   2.617   3.027   2.431
    1C        C  738   2.589   3.096   2.551
    1C        C  739   2.708   2.918   2.675
    1C        C  740   2.632   3.037   2.671
    1C        C  741   2.755   2.868   2.798
    1C        C  742   2.710   2.928   2.918
    1C        C  743   2.754   2.871   3.039
    1C        C  744   2.547   3.071   2.074
    1C        C  745   2.688   2.901   2.189
    1C        C  746   2.608   3.018   2.189
    1C        C  747   2.736   2.850   2.312
    1C        C  748   2.693   2.908   2.433
    1C        C  749   2.741   2.852   2.554
    1C        C  750   2.738   2.844   2.072
    1C        C  751   3.643   2.284   2.019
    1C        O  752   3.586   2.177   2.053
    1C        O  753   3.695   2.274   1.890
    1C        C  754   4.624   3.053   1.976
    1C        O  755   4.628   3.077   1.852
    1C        O  756   4.710   2.951   2.020
    1C        C  757   4.484   4.227   2.000
    1C        O  758   4.592   4.262   2.055
    1C        O  759   4.481   4.258   1.863
    1C        C  760   3.578   4.636   1.921
    1C        O  761   3.576   4.762   1.920
    1C        O  762   3.608   4.586   1.794
    1C        C  763   2.882   4.504   1.950
    1C        O  764   2.923   4.466   1.836
    1C        O  765   2.767   4.580   1.924
    1C        C  766   2.336   3.477   1.977
    1C        O  767   2.347   3.397   1.880
    1C        O  768   2.206   3.519   2.005
    1C        C  769   4.692   3.583   5.066
    1C        O  770   4.663   3.584   5.189
    1C        O  771   4.826   3.566   5.031
    1C        C  772   4.287   4.469   5.014
    1C        O  773   4.271   4.503   5.135
    1C        O  774   4.339   4.581   4.949
    1C        C  775   4.157   2.524   5.073
    1C        O  776   4.244   2.442   5.035
    1C        O  777   4.162   2.547   5.212
    1C        C  778   2.869   4.551   5.036
    1C        O  779   2.772   4.620   4.993
    1C        O  780   2.928   4.588   5.157
    1C        C  781   2.477   3.050   5.085
    1C        O  782   2.360   3.016   5.051
    1C        O  783   2.464   3.087   5.219
    1C        C  784   2.397   4.024   5.031
    1C        O  785   2.285   4.016   4.973
    1C        O  786   2.381   4.015   5.170
    1C        C  787   2.946   2.443   2.001
    1C        O  788   2.979   2.429   1.880
    1C        O  789   2.890   2.331   2.061
    1C        C  790   3.191   2.396   5.084
    1C        O  791   3.195   2.273   5.057
    1C        O  792   3.205   2.417   5.222
    1C        H  793   4.264   3.040   5.044
    1C        H  794   4.145   2.846   5.055
    1C        H  795   4.482   3.135   5.068
    1C        H  796   4.513   3.368   5.070
    1C        H  797   4.610   3.822   5.026
    1C        H  798   4.450   3.990   5.056
    1C        H  799   4.276   4.157   5.050
    1C        H  800   4.033   4.524   5.039
    1C        H  801   3.814   4.553   5.048
    1C        H  802   3.599   4.661   5.031
    1C        H  803   3.399   4.501   5.051
    1C        H  804   3.166   4.502   5.059
    1C        H  805   3.898   2.501   5.076
    1C        H  806   3.676   2.425   5.068
    1C        H  807   3.041   2.612   5.075
    1C        H  808   3.446   2.468   5.081
    1C        H  809   2.865   2.736   5.075
    1C        H  810   2.719   2.912   5.083
    1C        H  811   2.595   3.304   5.056
    1C        H  812   2.464   3.509   5.058
    1C        H  813   2.580   3.737   5.061
    1C        H  814   2.626   4.156   5.057
    1C        H  815   2.791   4.285   5.052
    1C        H  816   2.758   2.913   1.993
    1C        H  817   2.813   2.664   1.996
    1C        H  818   3.184   2.377   2.032
    1C        H  819   3.430   2.471   1.980
    1C        H  820   3.883   2.470   1.991
    1C        H  821   4.051   2.651   1.970
    1C        H  822   4.283   2.698   1.993
    1C        H  823   4.348   2.941   1.971
    1C        H  824   4.560   3.317   1.969
    1C        H  825   4.516   3.521   1.963
    1C        H  826   4.559   3.761   1.977
    1C        H  827   3.790   4.492   1.946
    1C        H  828   3.956   4.373   1.949
    1C        H  829   4.175   4.267   1.953
    1C        H  830   4.530   3.989   1.994
    1C        H  831   2.591   3.865   1.964
    1C        H  832   2.771   4.039   1.989
    1C        H  833   2.693   4.342   2.008
    1C        H  834   3.350   4.510   1.945
    1C        H  835   3.172   4.352   1.985
    1C        H  836   2.524   3.007   1.992
    1C        H  837   2.412   3.210   2.009
    1C        H  838   2.468   3.694   1.973
    2V3OU   H29  839   2.810   3.559   4.250
    2V3OU   C27  840   2.799   3.509   4.349
    2V3OU   H27  841   2.738   3.580   4.411
    2V3OU   H28  842   2.746   3.413   4.327
    2V3OU   O11  843   2.923   3.477   4.412
    2V3OU   C15  844   2.928   3.404   4.529
    2V3OU   C13  845   3.057   3.376   4.577
    2V3OU   C14  846   3.081   3.270   4.666
    2V3OU   C16  847   2.982   3.192   4.723
    2V3OU    H6  848   2.999   3.097   4.776
    2V3OU   C12  849   3.220   3.238   4.706
    2V3OU    O2  850   3.246   3.128   4.759
    2V3OU   C10  851   3.333   3.313   4.650
    2V3OU    C8  852   3.462   3.275   4.684
    2V3OU   O10  853   3.493   3.167   4.760
    2V3OU   H26  854   3.414   3.112   4.775
    2V3OU    C6  855   3.570   3.355   4.634
    2V3OU    C5  856   3.548   3.472   4.562
    2V3OU    C4  857   3.707   3.298   4.640
    2V3OU    H4  858   3.731   3.230   4.728
    2V3OU    H5  859   3.713   3.232   4.549
    2V3OU    C2  860   3.820   3.401   4.635
    2V3OU    O6  861   3.813   3.477   4.756
    2V3OU   H21  862   3.763   3.552   4.720
    2V3OU    C3  863   3.791   3.498   4.521
    2V3OU    H2  864   3.868   3.579   4.525
    2V3OU    H3  865   3.784   3.441   4.425
    2V3OU   C25  866   3.950   3.322   4.615
    2V3OU    O7  867   4.005   3.294   4.508
    2V3OU   C26  868   4.031   3.294   4.740
    2V3OU   H22  869   4.076   3.387   4.782
    2V3OU   H23  870   4.120   3.231   4.714
    2V3OU    O8  871   3.973   3.210   4.837
    2V3OU   H24  872   3.941   3.270   4.907
    2V3OU    C1  873   3.659   3.571   4.539
    2V3OU    H1  874   3.631   3.621   4.442
    2V3OU    O3  875   3.664   3.660   4.651
    2V3OU   C19  876   3.631   3.799   4.645
    2V3OU    H9  877   3.535   3.808   4.587
    2V3OU    O4  878   3.724   3.850   4.552
    2V3OU   C20  879   3.848   3.879   4.618
    2V3OU   H10  880   3.896   3.777   4.629
    2V3OU   C24  881   3.617   3.860   4.785
    2V3OU   H16  882   3.553   3.797   4.853
    2V3OU   H17  883   3.566   3.959   4.779
    2V3OU   C23  884   3.755   3.881   4.848
    2V3OU   H15  885   3.799   3.777   4.866
    2V3OU    N1  886   3.743   3.959   4.969
    2V3OU   H19  887   3.814   3.931   5.033
    2V3OU   H20  888   3.661   3.927   5.016
    2V3OU   C21  889   3.857   3.950   4.753
    2V3OU   H11  890   3.961   3.932   4.791
    2V3OU    O5  891   3.831   4.090   4.746
    2V3OU   H18  892   3.796   4.104   4.836
    2V3OU   C22  893   3.921   3.952   4.506
    2V3OU   H12  894   3.869   4.049   4.482
    2V3OU   H13  895   3.906   3.899   4.409
    2V3OU   H14  896   4.029   3.965   4.533
    2V3OU   C11  897   3.166   3.474   4.564
    2V3OU    O1  898   3.136   3.593   4.542
    2V3OU    C9  899   3.307   3.428   4.572
    2V3OU    C7  900   3.413   3.506   4.528
    2V3OU    O9  901   3.392   3.627   4.465
    2V3OU   H25  902   3.295   3.629   4.458
    2V3OU   C17  903   2.831   3.324   4.593
    2V3OU    H7  904   2.737   3.348   4.544
    2V3OU   C18  905   2.851   3.228   4.692
    2V3OU    H8  906   2.787   3.174   4.763
    3SOL     OW  907   3.059   4.442   5.335
    3SOL    HW1  908   2.998   4.489   5.272
    3SOL    HW2  909   3.068   4.346   5.309
    4SOL     OW  910   6.996   0.378   0.149
    4SOL    HW1  911   0.035   0.316   0.187
    4SOL    HW2  912   0.009   0.466   0.129
    5SOL     OW  913   4.117   0.865   2.036
    5SOL    HW1  914   4.134   0.854   2.134
    5SOL    HW2  915   4.205   0.878   1.989
    6SOL     OW  916   5.550   1.373   3.401
    6SOL    HW1  917   5.484   1.308   3.438
    6SOL    HW2  918   5.504   1.435   3.337
    7SOL     OW  919   1.187   4.317   5.389
    7SOL    HW1  920   1.229   4.233   5.422
    7SOL    HW2  921   1.111   4.295   5.327
    8SOL     OW  922   2.399   2.286   5.632
    8SOL    HW1  923   2.473   2.225   5.606
    8SOL    HW2  924   2.414   2.376   5.592
    9SOL     OW  925   6.885   1.645   6.385
    9SOL    HW1  926   6.806   1.677   6.334
    9SOL    HW2  927   6.854   1.587   6.461
   10SOL     OW  928   4.395   5.000   2.882
   10SOL    HW1  929   4.429   4.907   2.869
   10SOL    HW2  930   4.306   4.997   2.927
   11SOL     OW  931   1.912   0.619   0.026
   11SOL    HW1  932   1.912   0.544   0.092
   11SOL    HW2  933   1.839   0.684   0.048
   12SOL     OW  934   2.606   4.584   3.329
   12SOL    HW1  935   2.517   4.623   3.354
   12SOL    HW2  936   2.595   4.526   3.249
   13SOL     OW  937   4.337   5.836   2.766
   13SOL    HW1  938   4.247   5.879   2.778
   13SOL    HW2  939   4.368   5.801   2.855
   14SOL     OW  940   4.796   5.016   5.559
   14SOL    HW1  941   4.855   5.055   5.488
   14SOL    HW2  942   4.790   4.917   5.548
   15SOL     OW  943   0.877   5.940   6.165
   15SOL    HW1  944   0.894   6.021   6.220
   15SOL    HW2  945   0.824   5.874   6.219
   16SOL     OW  946   5.884   2.822   6.433
   16SOL    HW1  947   5.897   2.753   6.363
   16SOL    HW2  948   5.967   2.878   6.441
   17SOL     OW  949   6.106   0.547   5.710
   17SOL    HW1  950   6.117   0.597   5.625
   17SOL    HW2  951   6.162   0.464   5.707
   18SOL     OW  952   2.801   0.768   5.272
   18SOL    HW1  953   2.889   0.733   5.239
   18SOL    HW2  954   2.811   0.863   5.300
   19SOL     OW  955   0.984   1.883   3.032
   19SOL    HW1  956   0.960   1.905   3.126
   19SOL    HW2  957   1.082   1.896   3.018
   20SOL     OW  958   5.793   2.677   5.833
   20SOL    HW1  959   5.872   2.736   5.851
   20SOL    HW2  960   5.718   2.732   5.797
   21SOL     OW  961   3.704   6.137   2.741
   21SOL    HW1  962   3.743   6.178   2.658
   21SOL    HW2  963   3.768   6.150   2.817
   22SOL     OW  964   1.509   6.286   5.007
   22SOL    HW1  965   1.559   6.312   5.090
   22SOL    HW2  966   1.421   6.246   5.033
   23SOL     OW  967   5.141   4.726   1.968
   23SOL    HW1  968   5.176   4.751   2.058
   23SOL    HW2  969   5.041   4.722   1.971
   24SOL     OW  970   3.823   0.469   1.671
   24SOL    HW1  971   3.903   0.427   1.630
   24SOL    HW2  972   3.741   0.437   1.624
   25SOL     OW  973   2.950   6.864   3.214
   25SOL    HW1  974   2.998   6.893   3.297
   25SOL    HW2  975   2.858   6.903   3.214
   26SOL     OW  976   1.620   2.088   6.722
   26SOL    HW1  977   1.641   2.127   6.812
   26SOL    HW2  978   1.634   2.158   6.651
   27SOL     OW  979   0.251   1.036   2.628
   27SOL    HW1  980   0.187   1.054   2.553
   27SOL    HW2  981   0.243   1.108   2.697
   28SOL     OW  982   1.640   0.479   4.879
   28SOL    HW1  983   1.550   0.446   4.852
   28SOL    HW2  984   1.710   0.414   4.850
   29SOL     OW  985   6.819   0.745   0.142
   29SOL    HW1  986   6.825   0.673   0.211
   29SOL    HW2  987   6.881   0.819   0.167
   30SOL     OW  988   3.586   0.441   5.019
   30SOL    HW1  989   3.656   0.509   4.999
   30SOL    HW2  990   3.621   0.350   4.998
   31SOL     OW  991   0.171   2.648   4.770
   31SOL    HW1  992   0.132   2.684   4.685
   31SOL    HW2  993   0.194   2.552   4.757
   32SOL     OW  994   1.381   1.694   1.179
   32SOL    HW1  995   1.385   1.633   1.099
   32SOL    HW2  996   1.474   1.718   1.206
   33SOL     OW  997   0.156   3.760   5.657
   33SOL    HW1  998   0.132   3.700   5.733
   33SOL    HW2  999   0.088   3.833   5.651
   34SOL     OW 1000   1.574   5.361   4.756
   34SOL    HW1 1001   1.543   5.456   4.758
   34SOL    HW2 1002   1.643   5.350   4.685
   35SOL     OW 1003   3.732   2.638   6.299
   35SOL    HW1 1004   3.644   2.620   6.343
   35SOL    HW2 1005   3.789   2.556   6.304
   36SOL     OW 1006   5.136   1.050   4.091
   36SOL    HW1 1007   5.106   1.145   4.077
   36SOL    HW2 1008   5.234   1.049   4.110
   37SOL     OW 1009   2.241   1.194   3.471
   37SOL    HW1 1010   2.199   1.167   3.557
   37SOL    HW2 1011   2.183   1.167   3.395
   38SOL     OW 1012   1.988   5.175   2.068
   38SOL    HW1 1013   2.035   5.233   2.003
   38SOL    HW2 1014   2.032   5.085   2.071
   39SOL     OW 1015   6.119   4.572   6.698
   39SOL    HW1 1016   6.178   4.613   6.767
   39SOL    HW2 1017   6.028   4.615   6.703
   40SOL     OW 1018   3.337   0.464   6.157
   40SOL    HW1 1019   3.325   0.475   6.059
   40SOL    HW2 1020   3.423   0.416   6.176
   41SOL     OW 1021   5.723   4.141   2.292
   41SOL    HW1 1022   5.817   4.115   2.316
   41SOL    HW2 1023   5.678   4.179   2.372
   42SOL     OW 1024   2.630   5.593   4.904
   42SOL    HW1 1025   2.538   5.583   4.865
   42SOL    HW2 1026   2.695   5.609   4.830
   43SOL     OW 1027   4.125   6.713   4.829
   43SOL    HW1 1028   4.080   6.627   4.804
   43SOL    HW2 1029   4.223   6.705   4.813
   44SOL     OW 1030   6.251   3.249   5.063
   44SOL    HW1 1031   6.254   3.214   4.969
   44SOL    HW2 1032   6.181   3.321   5.069
   45SOL     OW 1033   4.327   5.522   1.006
   45SOL    HW1 1034   4.395   5.579   1.052
   45SOL    HW2 1035   4.359   5.428   1.001
   46SOL     OW 1036   0.726   3.125   4.057
   46SOL    HW1 1037   0.695   3.061   3.987
   46SOL    HW2 1038   0.690   3.098   4.146
   47SOL     OW 1039   5.313   3.719   2.083
   47SOL    HW1 1040   5.236   3.758   2.133
   47SOL    HW2 1041   5.329   3.773   2.000
   48SOL     OW 1042   7.012   3.182   6.675
   48SOL    HW1 1043   7.021   3.241   6.595
   48SOL    HW2 1044   0.031   3.097   6.660
   49SOL     OW 1045   4.985   2.902   0.421
   49SOL    HW1 1046   5.055   2.974   0.415
   49SOL    HW2 1047   5.029   2.813   0.412
   50SOL     OW 1048   6.178   2.043   5.977
   50SOL    HW1 1049   6.225   2.095   5.906
   50SOL    HW2 1050   6.242   2.024   6.052
   51SOL     OW 1051   2.062   4.728   2.613
   51SOL    HW1 1052   2.117   4.691   2.538
   51SOL    HW2 1053   2.039   4.823   2.594
   52SOL     OW 1054   5.401   2.952   2.071
   52SOL    HW1 1055   5.412   2.987   2.164
   52SOL    HW2 1056   5.408   2.852   2.072
   53SOL     OW 1057   5.198   0.017   3.488
   53SOL    HW1 1058   5.227   6.952   3.506
   53SOL    HW2 1059   5.099   0.024   3.497
   54SOL     OW 1060   5.714   5.908   0.526
   54SOL    HW1 1061   5.643   5.950   0.583
   54SOL    HW2 1062   5.733   5.816   0.560
   55SOL     OW 1063   2.261   2.577   6.435
   55SOL    HW1 1064   2.216   2.666   6.432
   55SOL    HW2 1065   2.264   2.539   6.343
   56SOL     OW 1066   1.459   1.934   0.525
   56SOL    HW1 1067   1.483   1.853   0.578
   56SOL    HW2 1068   1.447   2.012   0.586
   57SOL     OW 1069   3.698   0.617   0.018
   57SOL    HW1 1070   3.673   0.555   6.973
   57SOL    HW2 1071   3.742   0.698   7.009
   58SOL     OW 1072   0.773   0.396   6.581
   58SOL    HW1 1073   0.785   0.491   6.610
   58SOL    HW2 1074   0.690   0.359   6.623
   59SOL     OW 1075   6.389   3.763   6.615
   59SOL    HW1 1076   6.440   3.701   6.556
   59SOL    HW2 1077   6.453   3.815   6.672
   60SOL     OW 1078   5.879   0.254   3.467
   60SOL    HW1 1079   5.824   0.239   3.549
   60SOL    HW2 1080   5.825   0.307   3.400
   61SOL     OW 1081   0.641   1.170   3.956
   61SOL    HW1 1082   0.553   1.192   3.915
   61SOL    HW2 1083   0.633   1.173   4.056
   62SOL     OW 1084   0.928   1.040   1.750
   62SOL    HW1 1085   0.828   1.049   1.755
   62SOL    HW2 1086   0.951   0.945   1.731
   63SOL     OW 1087   4.022   6.683   4.050
   63SOL    HW1 1088   4.055   6.589   4.043
   63SOL    HW2 1089   3.991   6.715   3.961
   64SOL     OW 1090   1.449   3.935   6.899
   64SOL    HW1 1091   1.503   3.961   6.819
   64SOL    HW2 1092   1.420   4.018   6.948
   65SOL     OW 1093   0.651   0.638   5.647
   65SOL    HW1 1094   0.579   0.703   5.671
   65SOL    HW2 1095   0.642   0.612   5.550
   66SOL     OW 1096   3.714   6.962   2.403
   66SOL    HW1 1097   3.728   6.981   2.306
   66SOL    HW2 1098   3.720   0.018   2.455
   67SOL     OW 1099   0.567   2.351   0.649
   67SOL    HW1 1100   0.517   2.283   0.596
   67SOL    HW2 1101   0.505   2.424   0.676
   68SOL     OW 1102   0.213   1.656   5.648
   68SOL    HW1 1103   0.174   1.732   5.699
   68SOL    HW2 1104   0.293   1.687   5.597
   69SOL     OW 1105   1.302   5.339   5.880
   69SOL    HW1 1106   1.220   5.371   5.927
   69SOL    HW2 1107   1.382   5.354   5.938
   70SOL     OW 1108   5.401   3.808   4.586
   70SOL    HW1 1109   5.401   3.871   4.509
   70SOL    HW2 1110   5.404   3.861   4.672
   71SOL     OW 1111   4.748   1.390   5.010
   71SOL    HW1 1112   4.702   1.349   4.931
   71SOL    HW2 1113   4.704   1.476   5.034
   72SOL     OW 1114   0.200   0.759   3.346
   72SOL    HW1 1115   0.286   0.798   3.313
   72SOL    HW2 1116   0.131   0.832   3.354
   73SOL     OW 1117   2.797   0.972   0.411
   73SOL    HW1 1118   2.731   0.928   0.349
   73SOL    HW2 1119   2.888   0.933   0.396
   74SOL     OW 1120   2.481   1.448   6.204
   74SOL    HW1 1121   2.470   1.353   6.174
   74SOL    HW2 1122   2.419   1.466   6.281
   75SOL     OW 1123   4.412   1.212   1.011
   75SOL    HW1 1124   4.458   1.276   1.072
   75SOL    HW2 1125   4.332   1.174   1.057
   76SOL     OW 1126   2.731   4.529   5.635
   76SOL    HW1 1127   2.814   4.502   5.683
   76SOL    HW2 1128   2.756   4.583   5.554
   77SOL     OW 1129   1.833   5.123   3.950
   77SOL    HW1 1130   1.860   5.184   3.875
   77SOL    HW2 1131   1.899   5.049   3.959
   78SOL     OW 1132   4.534   1.503   0.944
   78SOL    HW1 1133   4.630   1.519   0.964
   78SOL    HW2 1134   4.485   1.590   0.944
   79SOL     OW 1135   2.367   5.417   1.800
   79SOL    HW1 1136   2.272   5.407   1.829
   79SOL    HW2 1137   2.425   5.432   1.880
   80SOL     OW 1138   4.567   2.367   5.485
   80SOL    HW1 1139   4.564   2.373   5.585
   80SOL    HW2 1140   4.603   2.277   5.459
   81SOL     OW 1141   2.195   6.943   1.199
   81SOL    HW1 1142   2.138   6.891   1.136
   81SOL    HW2 1143   2.246   7.013   1.149
   82SOL     OW 1144   0.930   6.253   2.170
   82SOL    HW1 1145   0.925   6.257   2.269
   82SOL    HW2 1146   0.843   6.284   2.131
   83SOL     OW 1147   6.750   2.192   5.499
   83SOL    HW1 1148   6.716   2.108   5.456
   83SOL    HW2 1149   6.828   2.169   5.558
   84SOL     OW 1150   6.212   2.765   3.860
   84SOL    HW1 1151   6.295   2.744   3.913
   84SOL    HW2 1152   6.233   2.763   3.763
   85SOL     OW 1153   1.627   6.948   3.873
   85SOL    HW1 1154   1.691   6.871   3.869
   85SOL    HW2 1155   1.610   6.982   3.781
   86SOL     OW 1156   5.427   1.432   6.176
   86SOL    HW1 1157   5.372   1.499   6.226
   86SOL    HW2 1158   5.450   1.356   6.237
   87SOL     OW 1159   4.649   4.449   6.722
   87SOL    HW1 1160   4.620   4.517   6.655
   87SOL    HW2 1161   4.568   4.402   6.758
   88SOL     OW 1162   2.993   2.373   5.576
   88SOL    HW1 1163   2.998   2.449   5.641
   88SOL    HW2 1164   3.009   2.406   5.484
   89SOL     OW 1165   2.855   3.221   1.780
   89SOL    HW1 1166   2.876   3.287   1.852
   89SOL    HW2 1167   2.889   3.255   1.692
   90SOL     OW 1168   4.957   3.739   3.284
   90SOL    HW1 1169   5.051   3.727   3.315
   90SOL    HW2 1170   4.912   3.810   3.339
   91SOL     OW 1171   6.130   5.770   6.279
   91SOL    HW1 1172   6.112   5.868   6.278
   91SOL    HW2 1173   6.177   5.743   6.195
   92SOL     OW 1174   4.986   4.171   0.275
   92SOL    HW1 1175   4.933   4.222   0.208
   92SOL    HW2 1176   4.929   4.151   0.355
   93SOL     OW 1177   3.309   2.878   0.986
   93SOL    HW1 1178   3.369   2.860   1.063
   93SOL    HW2 1179   3.231   2.815   0.988
   94SOL     OW 1180   2.788   0.259   6.214
   94SOL    HW1 1181   2.868   0.202   6.199
   94SOL    HW2 1182   2.732   0.262   6.131
   95SOL     OW 1183   0.420   0.609   4.583
   95SOL    HW1 1184   0.433   0.708   4.576
   95SOL    HW2 1185   0.381   0.574   4.498
   96SOL     OW 1186   4.871   4.975   6.960
   96SOL    HW1 1187   4.876   5.044   0.003
   96SOL    HW2 1188   4.922   4.894   6.987
   97SOL     OW 1189   1.965   4.780   5.420
   97SOL    HW1 1190   2.027   4.755   5.346
   97SOL    HW2 1191   1.984   4.874   5.450
   98SOL     OW 1192   1.014   2.469   2.230
   98SOL    HW1 1193   0.969   2.469   2.319
   98SOL    HW2 1194   0.994   2.383   2.182
   99SOL     OW 1195   3.774   3.533   3.289
   99SOL    HW1 1196   3.873   3.546   3.292
   99SOL    HW2 1197   3.728   3.621   3.296
  100SOL     OW 1198   0.195   6.857   4.032
  100SOL    HW1 1199   0.274   6.798   4.045
  100SOL    HW2 1200   0.127   6.837   4.102
  101SOL     OW 1201   0.270   5.018   2.279
  101SOL    HW1 1202   0.266   5.091   2.348
  101SOL    HW2 1203   0.178   4.995   2.250
  102SOL     OW 1204   2.968   6.386   2.080
  102SOL    HW1 1205   2.917   6.300   2.084
  102SOL    HW2 1206   3.057   6.375   2.124
  103SOL     OW 1207   2.294   1.235   2.677
  103SOL    HW1 1208   2.326   1.145   2.709
  103SOL    HW2 1209   2.373   1.289   2.647
  104SOL     OW 1210   1.082   4.557   1.881
  104SOL    HW1 1211   1.002   4.544   1.939
  104SOL    HW2 1212   1.123   4.469   1.860
  105SOL     OW 1213   5.956   1.907   6.801
  105SOL    HW1 1214   5.884   1.960   6.755
  105SOL    HW2 1215   5.922   1.874   6.888
  106SOL     OW 1216   5.286   5.266   1.621
  106SOL    HW1 1217   5.300   5.198   1.692
  106SOL    HW2 1218   5.276   5.221   1.532
  107SOL     OW 1219   6.748   1.072   6.898
  107SOL    HW1 1220   6.754   1.170   6.914
  107SOL    HW2 1221   6.835   1.029   6.923
  108SOL     OW 1222   2.201   0.527   5.062
  108SOL    HW1 1223   2.146   0.520   5.146
  108SOL    HW2 1224   2.296   0.503   5.083
  109SOL     OW 1225   3.703   0.915   2.868
  109SOL    HW1 1226   3.793   0.956   2.881
  109SOL    HW2 1227   3.652   0.968   2.800
  110SOL     OW 1228   2.165   4.423   5.434
  110SOL    HW1 1229   2.177   4.328   5.404
  110SOL    HW2 1230   2.233   4.444   5.504
  111SOL     OW 1231   6.272   1.442   2.487
  111SOL    HW1 1232   6.194   1.503   2.472
  111SOL    HW2 1233   6.285   1.384   2.407
  112SOL     OW 1234   4.175   6.396   6.633
  112SOL    HW1 1235   4.106   6.353   6.574
  112SOL    HW2 1236   4.133   6.421   6.721
  113SOL     OW 1237   6.286   5.741   2.737
  113SOL    HW1 1238   6.284   5.793   2.822
  113SOL    HW2 1239   6.268   5.644   2.757
  114SOL     OW 1240   1.166   4.332   3.464
  114SOL    HW1 1241   1.193   4.246   3.422
  114SOL    HW2 1242   1.203   4.337   3.557
  115SOL     OW 1243   6.018   1.030   3.287
  115SOL    HW1 1244   5.948   1.090   3.326
  115SOL    HW2 1245   6.094   1.023   3.351
  116SOL     OW 1246   1.110   6.318   1.383
  116SOL    HW1 1247   1.094   6.404   1.430
  116SOL    HW2 1248   1.139   6.248   1.449
  117SOL     OW 1249   3.003   1.462   0.128
  117SOL    HW1 1250   3.065   1.508   0.192
  117SOL    HW2 1251   2.927   1.524   0.106
  118SOL     OW 1252   1.206   1.334   3.415
  118SOL    HW1 1253   1.275   1.287   3.470
  118SOL    HW2 1254   1.165   1.408   3.468
  119SOL     OW 1255   6.869   6.939   0.247
  119SOL    HW1 1256   6.945   6.917   0.187
  119SOL    HW2 1257   6.805   7.000   0.199
  120SOL     OW 1258   4.805   0.824   5.663
  120SOL    HW1 1259   4.745   0.875   5.602
  120SOL    HW2 1260   4.898   0.861   5.658
  121SOL     OW 1261   1.330   3.520   6.720
  121SOL    HW1 1262   1.370   3.576   6.793
  121SOL    HW2 1263   1.399   3.460   6.681
  122SOL     OW 1264   0.893   4.314   0.163
  122SOL    HW1 1265   0.945   4.376   0.105
  122SOL    HW2 1266   0.853   4.365   0.239
  123SOL     OW 1267   1.394   0.874   1.795
  123SOL    HW1 1268   1.473   0.827   1.835
  123SOL    HW2 1269   1.397   0.863   1.696
  124SOL     OW 1270   3.147   2.622   1.001
  124SOL    HW1 1271   3.086   2.692   0.964
  124SOL    HW2 1272   3.120   2.532   0.965
  125SOL     OW 1273   3.533   2.577   0.118
  125SOL    HW1 1274   3.449   2.619   0.087
  125SOL    HW2 1275   3.593   2.646   0.159
  126SOL     OW 1276   3.417   2.878   3.008
  126SOL    HW1 1277   3.378   2.961   3.048
  126SOL    HW2 1278   3.366   2.854   2.925
  127SOL     OW 1279   6.771   5.939   5.924
  127SOL    HW1 1280   6.680   5.943   5.882
  127SOL    HW2 1281   6.773   5.867   5.993
  128SOL     OW 1282   5.095   3.479   1.650
  128SOL    HW1 1283   5.049   3.391   1.661
  128SOL    HW2 1284   5.190   3.471   1.681
  129SOL     OW 1285   2.164   5.886   0.874
  129SOL    HW1 1286   2.238   5.945   0.907
  129SOL    HW2 1287   2.183   5.791   0.899
  130SOL     OW 1288   5.635   2.070   4.702
  130SOL    HW1 1289   5.538   2.059   4.680
  130SOL    HW2 1290   5.682   1.983   4.688
  131SOL     OW 1291   6.796   1.589   4.070
  131SOL    HW1 1292   6.804   1.493   4.098
  131SOL    HW2 1293   6.857   1.606   3.993
  132SOL     OW 1294   3.664   4.172   1.435
  132SOL    HW1 1295   3.759   4.202   1.425
  132SOL    HW2 1296   3.611   4.244   1.480
  133SOL     OW 1297   5.338   0.575   4.299
  133SOL    HW1 1298   5.268   0.591   4.368
  133SOL    HW2 1299   5.373   0.481   4.308
  134SOL     OW 1300   5.865   0.532   2.216
  134SOL    HW1 1301   5.956   0.520   2.257
  134SOL    HW2 1302   5.806   0.581   2.280
  135SOL     OW 1303   4.905   3.770   4.035
  135SOL    HW1 1304   5.003   3.773   4.057
  135SOL    HW2 1305   4.891   3.709   3.958
  136SOL     OW 1306   2.411   6.018   4.843
  136SOL    HW1 1307   2.371   6.046   4.756
  136SOL    HW2 1308   2.367   6.067   4.918
  137SOL     OW 1309   3.688   2.133   4.604
  137SOL    HW1 1310   3.629   2.142   4.684
  137SOL    HW2 1311   3.676   2.212   4.544
  138SOL     OW 1312   0.473   5.665   3.912
  138SOL    HW1 1313   0.532   5.598   3.956
  138SOL    HW2 1314   0.412   5.707   3.980
  139SOL     OW 1315   2.325   5.535   6.422
  139SOL    HW1 1316   2.285   5.469   6.486
  139SOL    HW2 1317   2.326   5.495   6.330
  140SOL     OW 1318   2.320   0.573   2.897
  140SOL    HW1 1319   2.255   0.581   2.821
  140SOL    HW2 1320   2.411   0.552   2.862
  141SOL     OW 1321   6.649   3.829   0.003
  141SOL    HW1 1322   6.743   3.801   7.013
  141SOL    HW2 1323   6.588   3.750   7.025
  142SOL     OW 1324   0.886   4.190   1.755
  142SOL    HW1 1325   0.966   4.250   1.753
  142SOL    HW2 1326   0.827   4.210   1.678
  143SOL     OW 1327   6.113   6.463   1.343
  143SOL    HW1 1328   6.133   6.561   1.348
  143SOL    HW2 1329   6.199   6.413   1.333
  144SOL     OW 1330   2.736   4.845   3.985
  144SOL    HW1 1331   2.654   4.858   4.042
  144SOL    HW2 1332   2.815   4.885   4.031
  145SOL     OW 1333   6.679   5.084   2.730
  145SOL    HW1 1334   6.601   5.033   2.766
  145SOL    HW2 1335   6.649   5.175   2.703
  146SOL     OW 1336   6.110   1.830   5.825
  146SOL    HW1 1337   6.175   1.856   5.753
  146SOL    HW2 1338   6.118   1.894   5.902
  147SOL     OW 1339   5.099   1.560   5.305
  147SOL    HW1 1340   5.176   1.524   5.252
  147SOL    HW2 1341   5.112   1.539   5.402
  148SOL     OW 1342   1.206   4.475   1.096
  148SOL    HW1 1343   1.247   4.538   1.030
  148SOL    HW2 1344   1.107   4.475   1.086
  149SOL     OW 1345   2.529   2.229   5.332
  149SOL    HW1 1346   2.498   2.149   5.383
  149SOL    HW2 1347   2.450   2.281   5.299
  150SOL     OW 1348   4.056   1.677   5.502
  150SOL    HW1 1349   4.005   1.628   5.431
  150SOL    HW2 1350   4.001   1.752   5.539
  151SOL     OW 1351   3.938   1.608   0.792
  151SOL    HW1 1352   3.978   1.664   0.719
  151SOL    HW2 1353   3.958   1.650   0.881
  152SOL     OW 1354   0.886   1.607   0.023
  152SOL    HW1 1355   0.958   1.642   6.992
  152SOL    HW2 1356   0.862   1.514   7.025
  153SOL     OW 1357   2.702   1.250   3.763
  153SOL    HW1 1358   2.636   1.317   3.797
  153SOL    HW2 1359   2.778   1.241   3.829
  154SOL     OW 1360   6.464   1.817   1.179
  154SOL    HW1 1361   6.375   1.774   1.169
  154SOL    HW2 1362   6.508   1.785   1.263
  155SOL     OW 1363   0.220   0.184   2.070
  155SOL    HW1 1364   0.164   0.226   2.141
  155SOL    HW2 1365   0.293   0.130   2.113
  156SOL     OW 1366   4.709   0.782   0.297
  156SOL    HW1 1367   4.804   0.772   0.325
  156SOL    HW2 1368   4.699   0.865   0.242
  157SOL     OW 1369   5.421   3.743   0.559
  157SOL    HW1 1370   5.508   3.719   0.517
  157SOL    HW2 1371   5.384   3.825   0.516
  158SOL     OW 1372   1.462   3.300   2.563
  158SOL    HW1 1373   1.375   3.346   2.581
  158SOL    HW2 1374   1.472   3.288   2.464
  159SOL     OW 1375   5.078   5.440   1.074
  159SOL    HW1 1376   5.012   5.379   1.031
  159SOL    HW2 1377   5.086   5.523   1.019
  160SOL     OW 1378   5.888   0.742   0.669
  160SOL    HW1 1379   5.980   0.734   0.629
  160SOL    HW2 1380   5.889   0.704   0.761
  161SOL     OW 1381   0.956   6.579   0.512
  161SOL    HW1 1382   0.973   6.528   0.427
  161SOL    HW2 1383   0.984   6.523   0.590
  162SOL     OW 1384   2.333   6.143   0.250
  162SOL    HW1 1385   2.300   6.054   0.219
  162SOL    HW2 1386   2.258   6.193   0.293
  163SOL     OW 1387   6.970   4.646   3.307
  163SOL    HW1 1388   7.020   4.688   3.383
  163SOL    HW2 1389   7.022   4.568   3.272
  164SOL     OW 1390   1.512   1.718   2.861
  164SOL    HW1 1391   1.424   1.676   2.882
  164SOL    HW2 1392   1.501   1.783   2.786
  165SOL     OW 1393   0.326   5.464   2.748
  165SOL    HW1 1394   0.346   5.552   2.792
  165SOL    HW2 1395   0.394   5.397   2.776
  166SOL     OW 1396   6.028   4.025   1.583
  166SOL    HW1 1397   6.095   4.095   1.607
  166SOL    HW2 1398   5.994   4.042   1.491
  167SOL     OW 1399   5.439   1.877   6.895
  167SOL    HW1 1400   5.446   1.777   6.893
  167SOL    HW2 1401   5.349   1.905   6.860
  168SOL     OW 1402   4.610   3.602   1.728
  168SOL    HW1 1403   4.577   3.541   1.656
  168SOL    HW2 1404   4.670   3.671   1.689
  169SOL     OW 1405   5.949   3.245   0.793
  169SOL    HW1 1406   5.854   3.214   0.806
  169SOL    HW2 1407   5.964   3.267   0.697
  170SOL     OW 1408   1.680   5.399   2.701
  170SOL    HW1 1409   1.765   5.368   2.659
  170SOL    HW2 1410   1.641   5.474   2.647
  171SOL     OW 1411   1.981   3.427   0.219
  171SOL    HW1 1412   1.995   3.508   0.274
  171SOL    HW2 1413   2.041   3.431   0.138
  172SOL     OW 1414   5.809   2.132   1.817
  172SOL    HW1 1415   5.755   2.170   1.892
  172SOL    HW2 1416   5.902   2.168   1.820
  173SOL     OW 1417   6.114   1.182   5.389
  173SOL    HW1 1418   6.181   1.170   5.462
  173SOL    HW2 1419   6.062   1.098   5.377
  174SOL     OW 1420   5.419   5.791   5.475
  174SOL    HW1 1421   5.429   5.696   5.505
  174SOL    HW2 1422   5.506   5.824   5.438
  175SOL     OW 1423   1.754   0.847   0.780
  175SOL    HW1 1424   1.667   0.805   0.756
  175SOL    HW2 1425   1.748   0.885   0.873
  176SOL     OW 1426   4.953   4.702   2.603
  176SOL    HW1 1427   4.886   4.773   2.581
  176SOL    HW2 1428   4.908   4.630   2.656
  177SOL     OW 1429   5.528   1.712   4.474
  177SOL    HW1 1430   5.467   1.715   4.553
  177SOL    HW2 1431   5.509   1.789   4.414
  178SOL     OW 1432   2.294   5.834   5.004
  178SOL    HW1 1433   2.327   5.740   4.995
  178SOL    HW2 1434   2.352   5.895   4.951
  179SOL     OW 1435   4.321   5.070   0.385
  179SOL    HW1 1436   4.414   5.094   0.358
  179SOL    HW2 1437   4.291   4.989   0.334
  180SOL     OW 1438   3.900   0.078   0.682
  180SOL    HW1 1439   3.930   0.152   0.623
  180SOL    HW2 1440   3.929   0.096   0.776
  181SOL     OW 1441   3.276   2.650   5.368
  181SOL    HW1 1442   3.202   2.691   5.420
  181SOL    HW2 1443   3.246   2.562   5.331
  182SOL     OW 1444   5.050   2.842   6.993
  182SOL    HW1 1445   4.983   2.914   7.012
  182SOL    HW2 1446   5.133   2.882   6.954
  183SOL     OW 1447   3.710   1.854   4.191
  183SOL    HW1 1448   3.649   1.891   4.261
  183SOL    HW2 1449   3.785   1.804   4.234
  184SOL     OW 1450   0.860   6.179   3.590
  184SOL    HW1 1451   0.760   6.176   3.585
  184SOL    HW2 1452   0.888   6.262   3.640
  185SOL     OW 1453   0.332   1.777   4.214
  185SOL    HW1 1454   0.265   1.825   4.156
  185SOL    HW2 1455   0.418   1.827   4.212
  186SOL     OW 1456   5.294   5.873   4.459
  186SOL    HW1 1457   5.392   5.854   4.463
  186SOL    HW2 1458   5.274   5.955   4.513
  187SOL     OW 1459   4.101   5.310   2.504
  187SOL    HW1 1460   4.142   5.261   2.428
  187SOL    HW2 1461   4.153   5.393   2.523
  188SOL     OW 1462   2.463   2.213   3.232
  188SOL    HW1 1463   2.492   2.300   3.193
  188SOL    HW2 1464   2.370   2.192   3.203
  189SOL     OW 1465   6.255   5.423   6.936
  189SOL    HW1 1466   6.338   5.398   6.885
  189SOL    HW2 1467   6.213   5.503   6.894
  190SOL     OW 1468   6.321   5.321   0.253
  190SOL    HW1 1469   6.360   5.287   0.167
  190SOL    HW2 1470   6.235   5.369   0.235
  191SOL     OW 1471   6.815   1.026   6.016
  191SOL    HW1 1472   6.879   0.994   6.086
  191SOL    HW2 1473   6.804   1.125   6.023
  192SOL     OW 1474   0.191   4.809   1.308
  192SOL    HW1 1475   0.240   4.798   1.394
  192SOL    HW2 1476   0.204   4.902   1.273
  193SOL     OW 1477   3.528   5.186   6.052
  193SOL    HW1 1478   3.589   5.109   6.069
  193SOL    HW2 1479   3.462   5.194   6.127
  194SOL     OW 1480   4.024   6.708   1.905
  194SOL    HW1 1481   4.001   6.627   1.960
  194SOL    HW2 1482   4.093   6.683   1.837
  195SOL     OW 1483   3.175   0.712   2.320
  195SOL    HW1 1484   3.152   0.641   2.253
  195SOL    HW2 1485   3.094   0.736   2.373
  196SOL     OW 1486   2.596   1.286   6.474
  196SOL    HW1 1487   2.675   1.277   6.414
  196SOL    HW2 1488   2.625   1.283   6.569
  197SOL     OW 1489   2.217   5.975   0.078
  197SOL    HW1 1490   2.125   5.982   0.115
  197SOL    HW2 1491   2.229   5.885   0.036
  198SOL     OW 1492   4.518   5.672   0.762
  198SOL    HW1 1493   4.491   5.767   0.774
  198SOL    HW2 1494   4.617   5.666   0.751
  199SOL     OW 1495   5.499   0.703   1.922
  199SOL    HW1 1496   5.504   0.768   1.847
  199SOL    HW2 1497   5.515   0.750   2.009
  200SOL     OW 1498   1.282   3.163   2.256
  200SOL    HW1 1499   1.199   3.192   2.304
  200SOL    HW2 1500   1.356   3.228   2.275
  201SOL     OW 1501   2.573   0.887   6.969
  201SOL    HW1 1502   2.483   0.854   6.940
  201SOL    HW2 1503   2.641   0.863   6.899
  202SOL     OW 1504   5.050   6.353   4.085
  202SOL    HW1 1505   5.145   6.324   4.069
  202SOL    HW2 1506   5.049   6.424   4.155
  203SOL     OW 1507   5.012   3.399   6.133
  203SOL    HW1 1508   4.955   3.367   6.058
  203SOL    HW2 1509   4.954   3.438   6.205
  204SOL     OW 1510   0.940   7.018   0.143
  204SOL    HW1 1511   0.956   6.978   0.053
  204SOL    HW2 1512   1.017   0.047   0.168
  205SOL     OW 1513   0.489   1.599   1.081
  205SOL    HW1 1514   0.508   1.665   1.153
  205SOL    HW2 1515   0.549   1.520   1.092
  206SOL     OW 1516   0.777   4.237   1.017
  206SOL    HW1 1517   0.733   4.306   0.959
  206SOL    HW2 1518   0.721   4.222   1.098
  207SOL     OW 1519   4.073   0.419   5.625
  207SOL    HW1 1520   4.025   0.507   5.623
  207SOL    HW2 1521   4.007   0.345   5.611
  208SOL     OW 1522   5.430   4.376   6.103
  208SOL    HW1 1523   5.482   4.377   6.188
  208SOL    HW2 1524   5.339   4.337   6.120
  209SOL     OW 1525   0.587   6.014   5.686
  209SOL    HW1 1526   0.638   6.095   5.714
  209SOL    HW2 1527   0.530   6.036   5.606
  210SOL     OW 1528   4.218   2.262   2.135
  210SOL    HW1 1529   4.136   2.298   2.181
  210SOL    HW2 1530   4.204   2.165   2.115
  211SOL     OW 1531   0.741   1.439   2.211
  211SOL    HW1 1532   0.694   1.369   2.265
  211SOL    HW2 1533   0.814   1.480   2.266
  212SOL     OW 1534   1.122   4.729   3.279
  212SOL    HW1 1535   1.124   4.809   3.219
  212SOL    HW2 1536   1.167   4.652   3.233
  213SOL     OW 1537   5.212   1.391   6.962
  213SOL    HW1 1538   5.299   1.440   6.949
  213SOL    HW2 1539   5.140   1.457   6.983
  214SOL     OW 1540   0.845   6.724   3.346
  214SOL    HW1 1541   0.842   6.632   3.385
  214SOL    HW2 1542   0.940   6.756   3.344
  215SOL     OW 1543   3.887   2.765   1.765
  215SOL    HW1 1544   3.908   2.802   1.855
  215SOL    HW2 1545   3.828   2.830   1.716
  216SOL     OW 1546   1.085   0.163   4.751
  216SOL    HW1 1547   1.079   0.103   4.831
  216SOL    HW2 1548   1.016   0.235   4.758
  217SOL     OW 1549   2.012   2.512   4.306
  217SOL    HW1 1550   1.917   2.481   4.299
  217SOL    HW2 1551   2.058   2.459   4.378
  218SOL     OW 1552   1.115   1.863   4.516
  218SOL    HW1 1553   1.183   1.873   4.589
  218SOL    HW2 1554   1.051   1.940   4.519
  219SOL     OW 1555   3.401   3.827   0.093
  219SOL    HW1 1556   3.313   3.869   0.116
  219SOL    HW2 1557   3.466   3.898   0.065
  220SOL     OW 1558   2.196   5.444   0.097
  220SOL    HW1 1559   2.193   5.474   0.193
  220SOL    HW2 1560   2.272   5.380   0.085
  221SOL     OW 1561   5.926   3.446   3.925
  221SOL    HW1 1562   5.927   3.380   3.850
  221SOL    HW2 1563   5.933   3.398   4.012
  222SOL     OW 1564   1.605   5.400   5.056
  222SOL    HW1 1565   1.522   5.452   5.074
  222SOL    HW2 1566   1.601   5.360   4.965
  223SOL     OW 1567   0.244   3.835   1.495
  223SOL    HW1 1568   0.303   3.755   1.483
  223SOL    HW2 1569   0.154   3.805   1.527
  224SOL     OW 1570   2.540   2.491   2.539
  224SOL    HW1 1571   2.495   2.440   2.613
  224SOL    HW2 1572   2.602   2.430   2.490
  225SOL     OW 1573   5.882   1.220   0.322
  225SOL    HW1 1574   5.858   1.314   0.347
  225SOL    HW2 1575   5.965   1.193   0.371
  226SOL     OW 1576   1.240   0.359   0.999
  226SOL    HW1 1577   1.236   0.356   0.899
  226SOL    HW2 1578   1.296   0.437   1.028
  227SOL     OW 1579   1.512   3.924   3.149
  227SOL    HW1 1580   1.449   3.912   3.225
  227SOL    HW2 1581   1.605   3.936   3.184
  228SOL     OW 1582   3.532   6.748   4.361
  228SOL    HW1 1583   3.571   6.662   4.326
  228SOL    HW2 1584   3.543   6.752   4.460
  229SOL     OW 1585   5.903   5.781   1.193
  229SOL    HW1 1586   5.947   5.726   1.121
  229SOL    HW2 1587   5.952   5.867   1.203
  230SOL     OW 1588   1.979   3.736   4.093
  230SOL    HW1 1589   2.025   3.647   4.088
  230SOL    HW2 1590   1.893   3.726   4.143
  231SOL     OW 1591   6.671   3.074   6.243
  231SOL    HW1 1592   6.769   3.091   6.237
  231SOL    HW2 1593   6.620   3.151   6.205
  232SOL     OW 1594   1.533   3.597   6.370
  232SOL    HW1 1595   1.614   3.628   6.320
  232SOL    HW2 1596   1.480   3.536   6.312
  233SOL     OW 1597   2.249   0.847   5.562
  233SOL    HW1 1598   2.200   0.794   5.631
  233SOL    HW2 1599   2.186   0.875   5.490
  234SOL     OW 1600   2.354   4.818   6.632
  234SOL    HW1 1601   2.438   4.766   6.646
  234SOL    HW2 1602   2.346   4.889   6.702
  235SOL     OW 1603   3.764   3.424   3.798
  235SOL    HW1 1604   3.825   3.446   3.722
  235SOL    HW2 1605   3.791   3.476   3.879
  236SOL     OW 1606   6.488   3.300   6.455
  236SOL    HW1 1607   6.410   3.361   6.472
  236SOL    HW2 1608   6.465   3.208   6.485
  237SOL     OW 1609   0.090   6.551   0.929
  237SOL    HW1 1610   0.103   6.477   0.994
  237SOL    HW2 1611   0.018   6.526   0.864
  238SOL     OW 1612   5.446   3.413   1.450
  238SOL    HW1 1613   5.524   3.373   1.400
  238SOL    HW2 1614   5.465   3.410   1.548
  239SOL     OW 1615   0.040   5.619   6.946
  239SOL    HW1 1616   6.976   5.590   6.967
  239SOL    HW2 1617   0.039   5.675   6.862
  240SOL     OW 1618   0.753   3.683   5.872
  240SOL    HW1 1619   0.663   3.728   5.870
  240SOL    HW2 1620   0.789   3.686   5.965
  241SOL     OW 1621   0.322   1.317   3.536
  241SOL    HW1 1622   0.364   1.288   3.622
  241SOL    HW2 1623   0.323   1.241   3.471
  242SOL     OW 1624   1.478   2.859   4.843
  242SOL    HW1 1625   1.486   2.834   4.746
  242SOL    HW2 1626   1.557   2.824   4.893
  243SOL     OW 1627   4.812   0.559   6.200
  243SOL    HW1 1628   4.759   0.635   6.163
  243SOL    HW2 1629   4.752   0.499   6.253
  244SOL     OW 1630   4.852   1.595   5.207
  244SOL    HW1 1631   4.936   1.570   5.254
  244SOL    HW2 1632   4.812   1.513   5.165
  245SOL     OW 1633   6.568   2.578   4.954
  245SOL    HW1 1634   6.646   2.605   4.897
  245SOL    HW2 1635   6.558   2.479   4.951
  246SOL     OW 1636   4.801   4.028   4.118
  246SOL    HW1 1637   4.792   3.929   4.124
  246SOL    HW2 1638   4.866   4.059   4.187
  247SOL     OW 1639   2.496   1.337   3.330
  247SOL    HW1 1640   2.427   1.348   3.259
  247SOL    HW2 1641   2.478   1.401   3.405
  248SOL     OW 1642   5.026   2.200   4.940
  248SOL    HW1 1643   4.932   2.174   4.916
  248SOL    HW2 1644   5.085   2.119   4.934
  249SOL     OW 1645   3.274   6.391   4.794
  249SOL    HW1 1646   3.282   6.383   4.694
  249SOL    HW2 1647   3.201   6.455   4.817
  250SOL     OW 1648   5.716   2.329   5.474
  250SOL    HW1 1649   5.650   2.321   5.549
  250SOL    HW2 1650   5.674   2.296   5.389
  251SOL     OW 1651   4.282   3.149   6.207
  251SOL    HW1 1652   4.353   3.133   6.275
  251SOL    HW2 1653   4.275   3.070   6.146
  252SOL     OW 1654   6.902   1.494   5.670
  252SOL    HW1 1655   6.935   1.582   5.706
  252SOL    HW2 1656   6.814   1.472   5.713
  253SOL     OW 1657   1.827   2.957   1.220
  253SOL    HW1 1658   1.783   3.033   1.268
  253SOL    HW2 1659   1.762   2.916   1.156
  254SOL     OW 1660   0.049   3.315   4.459
  254SOL    HW1 1661   0.137   3.305   4.505
  254SOL    HW2 1662   0.003   3.397   4.493
  255SOL     OW 1663   3.060   2.207   3.410
  255SOL    HW1 1664   3.008   2.196   3.495
  255SOL    HW2 1665   3.128   2.135   3.403
  256SOL     OW 1666   6.479   5.510   6.607
  256SOL    HW1 1667   6.383   5.526   6.629
  256SOL    HW2 1668   6.537   5.551   6.678
  257SOL     OW 1669   2.857   5.670   6.138
  257SOL    HW1 1670   2.801   5.673   6.221
  257SOL    HW2 1671   2.853   5.579   6.098
  258SOL     OW 1672   4.939   4.384   4.537
  258SOL    HW1 1673   4.916   4.472   4.496
  258SOL    HW2 1674   4.864   4.319   4.522
  259SOL     OW 1675   1.916   2.943   2.562
  259SOL    HW1 1676   1.861   2.922   2.643
  259SOL    HW2 1677   1.962   2.860   2.531
  260SOL     OW 1678   5.074   0.554   6.364
  260SOL    HW1 1679   4.982   0.585   6.339
  260SOL    HW2 1680   5.131   0.633   6.386
  261SOL     OW 1681   0.457   4.238   1.766
  261SOL    HW1 1682   0.508   4.313   1.723
  261SOL    HW2 1683   0.483   4.151   1.723
  262SOL     OW 1684   0.991   3.217   2.374
  262SOL    HW1 1685   0.961   3.180   2.286
  262SOL    HW2 1686   0.952   3.161   2.448
  263SOL     OW 1687   0.817   2.336   4.709
  263SOL    HW1 1688   0.746   2.355   4.776
  263SOL    HW2 1689   0.805   2.396   4.630
  264SOL     OW 1690   0.852   3.587   5.449
  264SOL    HW1 1691   0.754   3.586   5.468
  264SOL    HW2 1692   0.902   3.568   5.534
  265SOL     OW 1693   4.881   4.630   4.437
  265SOL    HW1 1694   4.929   4.718   4.437
  265SOL    HW2 1695   4.820   4.625   4.358
  266SOL     OW 1696   4.062   1.765   0.575
  266SOL    HW1 1697   3.988   1.774   0.509
  266SOL    HW2 1698   4.148   1.746   0.527
  267SOL     OW 1699   1.594   2.823   6.728
  267SOL    HW1 1700   1.602   2.805   6.630
  267SOL    HW2 1701   1.683   2.846   6.766
  268SOL     OW 1702   4.426   4.596   4.417
  268SOL    HW1 1703   4.476   4.563   4.496
  268SOL    HW2 1704   4.347   4.650   4.448
  269SOL     OW 1705   1.678   1.893   6.533
  269SOL    HW1 1706   1.659   1.958   6.607
  269SOL    HW2 1707   1.594   1.873   6.483
  270SOL     OW 1708   5.564   0.886   2.109
  270SOL    HW1 1709   5.641   0.950   2.112
  270SOL    HW2 1710   5.479   0.936   2.127
  271SOL     OW 1711   1.749   0.968   1.027
  271SOL    HW1 1712   1.702   0.918   1.100
  271SOL    HW2 1713   1.815   1.031   1.066
  272SOL     OW 1714   3.991   5.366   4.394
  272SOL    HW1 1715   4.025   5.278   4.362
  272SOL    HW2 1716   4.009   5.376   4.492
  273SOL     OW 1717   1.544   5.884   4.502
  273SOL    HW1 1718   1.472   5.950   4.525
  273SOL    HW2 1719   1.509   5.791   4.516
  274SOL     OW 1720   6.015   2.824   3.343
  274SOL    HW1 1721   6.024   2.799   3.440
  274SOL    HW2 1722   6.023   2.924   3.335
  275SOL     OW 1723   6.848   6.476   5.950
  275SOL    HW1 1724   6.855   6.406   6.021
  275SOL    HW2 1725   6.765   6.531   5.965
  276SOL     OW 1726   6.924   6.070   3.528
  276SOL    HW1 1727   6.901   5.987   3.478
  276SOL    HW2 1728   7.021   6.069   3.551
  277SOL     OW 1729   3.528   1.482   5.522
  277SOL    HW1 1730   3.510   1.488   5.424
  277SOL    HW2 1731   3.615   1.527   5.543
  278SOL     OW 1732   5.012   4.400   2.158
  278SOL    HW1 1733   5.053   4.484   2.194
  278SOL    HW2 1734   4.929   4.422   2.108
  279SOL     OW 1735   0.152   3.147   3.148
  279SOL    HW1 1736   0.208   3.140   3.230
  279SOL    HW2 1737   0.161   3.064   3.094
  280SOL     OW 1738   4.282   6.750   3.864
  280SOL    HW1 1739   4.319   6.809   3.936
  280SOL    HW2 1740   4.309   6.656   3.882
  281SOL     OW 1741   4.164   5.518   3.827
  281SOL    HW1 1742   4.174   5.568   3.913
  281SOL    HW2 1743   4.247   5.465   3.810
  282SOL     OW 1744   4.511   2.081   6.312
  282SOL    HW1 1745   4.512   2.157   6.377
  282SOL    HW2 1746   4.560   2.003   6.350
  283SOL     OW 1747   6.475   0.721   4.732
  283SOL    HW1 1748   6.496   0.817   4.713
  283SOL    HW2 1749   6.500   0.699   4.826
  284SOL     OW 1750   0.315   4.988   5.065
  284SOL    HW1 1751   0.248   5.004   5.138
  284SOL    HW2 1752   0.371   5.069   5.053
  285SOL     OW 1753   4.773   0.305   0.043
  285SOL    HW1 1754   4.794   0.335   0.136
  285SOL    HW2 1755   4.767   0.385   7.012
  286SOL     OW 1756   3.828   5.304   4.693
  286SOL    HW1 1757   3.878   5.391   4.696
  286SOL    HW2 1758   3.853   5.250   4.773
  287SOL     OW 1759   1.327   5.647   6.283
  287SOL    HW1 1760   1.273   5.728   6.304
  287SOL    HW2 1761   1.326   5.630   6.185
  288SOL     OW 1762   3.936   0.495   1.004
  288SOL    HW1 1763   3.921   0.568   1.070
  288SOL    HW2 1764   4.013   0.438   1.035
  289SOL     OW 1765   0.832   6.073   5.490
  289SOL    HW1 1766   0.826   6.108   5.583
  289SOL    HW2 1767   0.926   6.046   5.471
  290SOL     OW 1768   4.729   0.751   3.557
  290SOL    HW1 1769   4.662   0.802   3.611
  290SOL    HW2 1770   4.764   0.810   3.484
  291SOL     OW 1771   4.649   0.577   4.409
  291SOL    HW1 1772   4.575   0.510   4.413
  291SOL    HW2 1773   4.716   0.548   4.341
  292SOL     OW 1774   3.705   0.072   3.845
  292SOL    HW1 1775   3.663   7.028   3.898
  292SOL    HW2 1776   3.711   0.044   3.749
  293SOL     OW 1777   4.804   6.407   2.228
  293SOL    HW1 1778   4.779   6.323   2.179
  293SOL    HW2 1779   4.778   6.487   2.173
  294SOL     OW 1780   5.791   0.227   5.967
  294SOL    HW1 1781   5.871   0.176   5.999
  294SOL    HW2 1782   5.721   0.228   6.038
  295SOL     OW 1783   1.018   2.106   5.300
  295SOL    HW1 1784   1.113   2.099   5.329
  295SOL    HW2 1785   0.982   2.196   5.325
  296SOL     OW 1786   6.365   0.852   1.493
  296SOL    HW1 1787   6.448   0.897   1.458
  296SOL    HW2 1788   6.338   0.779   1.430
  297SOL     OW 1789   4.897   4.690   3.639
  297SOL    HW1 1790   4.898   4.618   3.569
  297SOL    HW2 1791   4.857   4.773   3.600
  298SOL     OW 1792   4.173   0.379   0.348
  298SOL    HW1 1793   4.137   0.406   0.258
  298SOL    HW2 1794   4.232   0.451   0.383
  299SOL     OW 1795   3.318   1.561   0.223
  299SOL    HW1 1796   3.320   1.648   0.273
  299SOL    HW2 1797   3.335   1.579   0.126
  300SOL     OW 1798   3.506   1.226   2.478
  300SOL    HW1 1799   3.545   1.196   2.391
  300SOL    HW2 1800   3.409   1.201   2.481
  301SOL     OW 1801   5.121   6.051   1.769
  301SOL    HW1 1802   5.138   6.140   1.729
  301SOL    HW2 1803   5.199   6.024   1.826
  302SOL     OW 1804   6.912   6.403   1.697
  302SOL    HW1 1805   7.008   6.430   1.709
  302SOL    HW2 1806   6.861   6.476   1.653
  303SOL     OW 1807   6.083   5.721   2.393
  303SOL    HW1 1808   6.034   5.642   2.355
  303SOL    HW2 1809   6.095   5.790   2.322
  304SOL     OW 1810   1.334   6.751   5.465
  304SOL    HW1 1811   1.411   6.697   5.430
  304SOL    HW2 1812   1.363   6.846   5.476
  305SOL     OW 1813   0.906   3.082   1.695
  305SOL    HW1 1814   0.818   3.124   1.670
  305SOL    HW2 1815   0.980   3.125   1.644
  306SOL     OW 1816   0.056   1.095   2.438
  306SOL    HW1 1817   0.040   1.032   2.362
  306SOL    HW2 1818   0.095   1.180   2.403
  307SOL     OW 1819   3.447   3.114   0.789
  307SOL    HW1 1820   3.505   3.080   0.863
  307SOL    HW2 1821   3.352   3.120   0.821
  308SOL     OW 1822   5.602   1.463   4.590
  308SOL    HW1 1823   5.618   1.549   4.540
  308SOL    HW2 1824   5.686   1.410   4.593
  309SOL     OW 1825   0.162   6.925   6.859
  309SOL    HW1 1826   0.210   6.840   6.838
  309SOL    HW2 1827   0.121   6.962   6.776
  310SOL     OW 1828   5.329   6.333   4.395
  310SOL    HW1 1829   5.337   6.262   4.325
  310SOL    HW2 1830   5.419   6.373   4.413
  311SOL     OW 1831   2.506   5.232   2.829
  311SOL    HW1 1832   2.516   5.135   2.809
  311SOL    HW2 1833   2.445   5.244   2.907
  312SOL     OW 1834   4.491   2.207   3.328
  312SOL    HW1 1835   4.422   2.139   3.353
  312SOL    HW2 1836   4.451   2.272   3.263
  313SOL     OW 1837   3.804   3.472   2.480
  313SOL    HW1 1838   3.784   3.380   2.514
  313SOL    HW2 1839   3.774   3.480   2.385
  314SOL     OW 1840   1.837   5.737   5.093
  314SOL    HW1 1841   1.900   5.663   5.070
  314SOL    HW2 1842   1.767   5.744   5.022
  315SOL     OW 1843   6.409   1.294   3.639
  315SOL    HW1 1844   6.351   1.238   3.699
  315SOL    HW2 1845   6.426   1.244   3.554
  316SOL     OW 1846   4.309   1.639   5.717
  316SOL    HW1 1847   4.329   1.580   5.639
  316SOL    HW2 1848   4.252   1.715   5.687
  317SOL     OW 1849   1.657   1.727   1.937
  317SOL    HW1 1850   1.733   1.790   1.924
  317SOL    HW2 1851   1.588   1.743   1.867
  318SOL     OW 1852   6.187   0.737   6.229
  318SOL    HW1 1853   6.154   0.828   6.254
  318SOL    HW2 1854   6.285   0.730   6.249
  319SOL     OW 1855   0.585   2.205   2.682
  319SOL    HW1 1856   0.545   2.194   2.773
  319SOL    HW2 1857   0.580   2.119   2.632
  320SOL     OW 1858   5.739   2.215   6.913
  320SOL    HW1 1859   5.753   2.170   6.825
  320SOL    HW2 1860   5.702   2.149   6.978
  321SOL     OW 1861   3.975   3.488   0.605
  321SOL    HW1 1862   4.044   3.550   0.643
  321SOL    HW2 1863   3.915   3.538   0.543
  322SOL     OW 1864   3.909   3.360   6.440
  322SOL    HW1 1865   3.852   3.350   6.522
  322SOL    HW2 1866   3.912   3.273   6.391
  323SOL     OW 1867   0.598   2.735   3.669
  323SOL    HW1 1868   0.680   2.714   3.614
  323SOL    HW2 1869   0.533   2.785   3.613
  324SOL     OW 1870   2.431   6.663   3.355
  324SOL    HW1 1871   2.410   6.610   3.273
  324SOL    HW2 1872   2.516   6.630   3.396
  325SOL     OW 1873   1.144   3.878   2.452
  325SOL    HW1 1874   1.078   3.806   2.472
  325SOL    HW2 1875   1.228   3.861   2.502
  326SOL     OW 1876   1.503   4.956   6.179
  326SOL    HW1 1877   1.454   4.925   6.097
  326SOL    HW2 1878   1.571   5.025   6.154
  327SOL     OW 1879   2.984   4.831   2.422
  327SOL    HW1 1880   3.072   4.828   2.470
  327SOL    HW2 1881   2.909   4.824   2.488
  328SOL     OW 1882   1.183   4.333   1.745
  328SOL    HW1 1883   1.236   4.249   1.753
  328SOL    HW2 1884   1.145   4.341   1.653
  329SOL     OW 1885   2.871   3.829   1.405
  329SOL    HW1 1886   2.799   3.871   1.349
  329SOL    HW2 1887   2.833   3.750   1.454
  330SOL     OW 1888   3.692   5.532   0.232
  330SOL    HW1 1889   3.680   5.590   0.151
  330SOL    HW2 1890   3.607   5.530   0.285
  331SOL     OW 1891   5.668   5.155   0.935
  331SOL    HW1 1892   5.696   5.126   0.844
  331SOL    HW2 1893   5.568   5.154   0.942
  332SOL     OW 1894   5.437   1.739   3.821
  332SOL    HW1 1895   5.489   1.824   3.818
  332SOL    HW2 1896   5.356   1.752   3.878
  333SOL     OW 1897   4.116   1.004   5.282
  333SOL    HW1 1898   4.204   0.979   5.243
  333SOL    HW2 1899   4.127   1.026   5.379
  334SOL     OW 1900   3.630   2.856   2.357
  334SOL    HW1 1901   3.593   2.867   2.265
  334SOL    HW2 1902   3.730   2.849   2.352
  335SOL     OW 1903   4.215   6.904   6.709
  335SOL    HW1 1904   4.291   6.954   6.668
  335SOL    HW2 1905   4.198   6.820   6.657
  336SOL     OW 1906   3.057   1.284   3.395
  336SOL    HW1 1907   3.102   1.246   3.314
  336SOL    HW2 1908   2.999   1.214   3.437
  337SOL     OW 1909   1.510   2.155   5.626
  337SOL    HW1 1910   1.557   2.086   5.572
  337SOL    HW2 1911   1.412   2.132   5.631
  338SOL     OW 1912   4.298   2.989   1.398
  338SOL    HW1 1913   4.225   2.951   1.454
  338SOL    HW2 1914   4.263   3.068   1.347
  339SOL     OW 1915   4.263   4.855   4.571
  339SOL    HW1 1916   4.209   4.939   4.572
  339SOL    HW2 1917   4.240   4.800   4.650
  340SOL     OW 1918   5.209   3.020   4.955
  340SOL    HW1 1919   5.223   3.004   5.052
  340SOL    HW2 1920   5.295   3.048   4.913
  341SOL     OW 1921   5.606   5.729   4.862
  341SOL    HW1 1922   5.602   5.637   4.903
  341SOL    HW2 1923   5.670   5.728   4.786
  342SOL     OW 1924   4.724   3.803   1.072
  342SOL    HW1 1925   4.629   3.776   1.059
  342SOL    HW2 1926   4.747   3.876   1.007
  343SOL     OW 1927   0.524   6.454   2.406
  343SOL    HW1 1928   0.524   6.550   2.379
  343SOL    HW2 1929   0.455   6.438   2.476
  344SOL     OW 1930   0.743   1.957   2.044
  344SOL    HW1 1931   0.702   1.904   2.118
  344SOL    HW2 1932   0.842   1.947   2.046
  345SOL     OW 1933   6.522   2.558   4.231
  345SOL    HW1 1934   6.464   2.638   4.247
  345SOL    HW2 1935   6.534   2.508   4.316
  346SOL     OW 1936   1.890   6.733   2.562
  346SOL    HW1 1937   1.911   6.652   2.508
  346SOL    HW2 1938   1.849   6.706   2.649
  347SOL     OW 1939   2.515   5.762   6.893
  347SOL    HW1 1940   2.541   5.852   6.857
  347SOL    HW2 1941   2.502   5.769   6.992
  348SOL     OW 1942   4.323   4.947   2.420
  348SOL    HW1 1943   4.276   4.926   2.506
  348SOL    HW2 1944   4.314   4.869   2.357
  349SOL     OW 1945   6.687   4.310   2.214
  349SOL    HW1 1946   6.686   4.367   2.132
  349SOL    HW2 1947   6.633   4.227   2.198
  350SOL     OW 1948   3.177   2.858   0.159
  350SOL    HW1 1949   3.257   2.893   0.206
  350SOL    HW2 1950   3.171   2.899   0.068
  351SOL     OW 1951   2.835   3.771   0.814
  351SOL    HW1 1952   2.892   3.850   0.838
  351SOL    HW2 1953   2.803   3.727   0.898
  352SOL     OW 1954   3.953   6.384   3.481
  352SOL    HW1 1955   3.939   6.451   3.407
  352SOL    HW2 1956   3.968   6.432   3.567
  353SOL     OW 1957   3.382   6.998   5.867
  353SOL    HW1 1958   3.409   0.028   5.943
  353SOL    HW2 1959   3.288   7.017   5.840
  354SOL     OW 1960   5.342   3.143   0.407
  354SOL    HW1 1961   5.244   3.125   0.393
  354SOL    HW2 1962   5.366   3.229   0.362
  355SOL     OW 1963   1.913   2.707   2.426
  355SOL    HW1 1964   1.995   2.650   2.438
  355SOL    HW2 1965   1.836   2.649   2.400
  356SOL     OW 1966   1.764   0.665   4.673
  356SOL    HW1 1967   1.748   0.624   4.763
  356SOL    HW2 1968   1.682   0.714   4.643
  357SOL     OW 1969   7.028   5.925   4.160
  357SOL    HW1 1970   7.016   5.989   4.083
  357SOL    HW2 1971   7.012   5.832   4.128
  358SOL     OW 1972   4.725   6.411   0.900
  358SOL    HW1 1973   4.695   6.375   0.989
  358SOL    HW2 1974   4.786   6.490   0.915
  359SOL     OW 1975   3.415   0.847   1.242
  359SOL    HW1 1976   3.366   0.812   1.162
  359SOL    HW2 1977   3.494   0.901   1.211
  360SOL     OW 1978   1.540   4.165   4.652
  360SOL    HW1 1979   1.491   4.238   4.699
  360SOL    HW2 1980   1.639   4.179   4.663
  361SOL     OW 1981   5.899   6.238   2.634
  361SOL    HW1 1982   5.813   6.196   2.664
  361SOL    HW2 1983   5.914   6.218   2.537
  362SOL     OW 1984   3.921   4.028   0.761
  362SOL    HW1 1985   3.865   4.101   0.802
  362SOL    HW2 1986   3.990   3.999   0.827
  363SOL     OW 1987   5.999   4.770   2.840
  363SOL    HW1 1988   6.075   4.779   2.905
  363SOL    HW2 1989   5.915   4.751   2.890
  364SOL     OW 1990   0.685   4.841   6.430
  364SOL    HW1 1991   0.764   4.899   6.410
  364SOL    HW2 1992   0.716   4.756   6.474
  365SOL     OW 1993   3.568   1.017   1.053
  365SOL    HW1 1994   3.654   0.968   1.038
  365SOL    HW2 1995   3.586   1.104   1.099
  366SOL     OW 1996   6.146   3.031   6.587
  366SOL    HW1 1997   6.159   2.939   6.550
  366SOL    HW2 1998   6.204   3.044   6.667
  367SOL     OW 1999   6.098   2.630   6.038
  367SOL    HW1 2000   6.070   2.627   5.942
  367SOL    HW2 2001   6.016   2.638   6.096
  368SOL     OW 2002   6.909   2.196   5.908
  368SOL    HW1 2003   6.992   2.253   5.905
  368SOL    HW2 2004   6.935   2.100   5.916
  369SOL     OW 2005   6.097   4.118   2.803
  369SOL    HW1 2006   6.155   4.037   2.811
  369SOL    HW2 2007   6.152   4.195   2.769
  370SOL     OW 2008   1.201   1.511   4.304
  370SOL    HW1 2009   1.287   1.561   4.318
  370SOL    HW2 2010   1.124   1.574   4.313
  371SOL     OW 2011   1.841   4.598   6.652
  371SOL    HW1 2012   1.898   4.635   6.726
  371SOL    HW2 2013   1.749   4.635   6.660
  372SOL     OW 2014   1.796   6.867   5.200
  372SOL    HW1 2015   1.780   6.798   5.129
  372SOL    HW2 2016   1.716   6.927   5.207
  373SOL     OW 2017   5.769   6.862   5.415
  373SOL    HW1 2018   5.699   6.926   5.448
  373SOL    HW2 2019   5.768   6.860   5.315
  374SOL     OW 2020   2.254   1.654   2.975
  374SOL    HW1 2021   2.314   1.610   2.908
  374SOL    HW2 2022   2.268   1.753   2.971
  375SOL     OW 2023   0.774   5.253   4.537
  375SOL    HW1 2024   0.820   5.338   4.563
  375SOL    HW2 2025   0.819   5.176   4.581
  376SOL     OW 2026   1.809   1.539   5.314
  376SOL    HW1 2027   1.862   1.604   5.260
  376SOL    HW2 2028   1.717   1.577   5.329
  377SOL     OW 2029   1.830   2.531   0.285
  377SOL    HW1 2030   1.894   2.595   0.242
  377SOL    HW2 2031   1.870   2.497   0.370
  378SOL     OW 2032   3.651   1.399   6.323
  378SOL    HW1 2033   3.584   1.468   6.351
  378SOL    HW2 2034   3.681   1.347   6.402
  379SOL     OW 2035   5.227   2.652   0.020
  379SOL    HW1 2036   5.172   2.571   0.041
  379SOL    HW2 2037   5.170   2.734   0.022
  380SOL     OW 2038   2.679   1.453   1.593
  380SOL    HW1 2039   2.771   1.453   1.554
  380SOL    HW2 2040   2.678   1.396   1.676
  381SOL     OW 2041   1.672   3.676   4.188
  381SOL    HW1 2042   1.643   3.586   4.155
  381SOL    HW2 2043   1.703   3.669   4.283
  382SOL     OW 2044   5.725   0.168   6.880
  382SOL    HW1 2045   5.758   0.078   6.851
  382SOL    HW2 2046   5.787   0.206   6.948
  383SOL     OW 2047   4.367   2.557   0.280
  383SOL    HW1 2048   4.375   2.495   0.202
  383SOL    HW2 2049   4.270   2.572   0.300
  384SOL     OW 2050   0.397   4.645   4.101
  384SOL    HW1 2051   0.495   4.643   4.082
  384SOL    HW2 2052   0.381   4.698   4.184
  385SOL     OW 2053   3.651   5.777   5.749
  385SOL    HW1 2054   3.751   5.780   5.749
  385SOL    HW2 2055   3.615   5.867   5.775
  386SOL     OW 2056   4.146   0.577   4.362
  386SOL    HW1 2057   4.226   0.607   4.309
  386SOL    HW2 2058   4.121   0.485   4.335
  387SOL     OW 2059   1.570   5.574   2.551
  387SOL    HW1 2060   1.481   5.619   2.551
  387SOL    HW2 2061   1.618   5.594   2.465
  388SOL     OW 2062   1.945   1.736   6.628
  388SOL    HW1 2063   1.920   1.805   6.560
  388SOL    HW2 2064   2.009   1.775   6.694
  389SOL     OW 2065   4.140   3.183   2.127
  389SOL    HW1 2066   4.123   3.180   2.225
  389SOL    HW2 2067   4.211   3.117   2.103
  390SOL     OW 2068   3.219   0.967   4.247
  390SOL    HW1 2069   3.228   1.055   4.200
  390SOL    HW2 2070   3.264   0.896   4.193
  391SOL     OW 2071   2.174   2.845   6.451
  391SOL    HW1 2072   2.237   2.920   6.470
  391SOL    HW2 2073   2.089   2.859   6.503
  392SOL     OW 2074   2.142   4.690   0.243
  392SOL    HW1 2075   2.241   4.670   0.244
  392SOL    HW2 2076   2.093   4.607   0.216
  393SOL     OW 2077   6.750   4.684   5.385
  393SOL    HW1 2078   6.699   4.597   5.390
  393SOL    HW2 2079   6.757   4.723   5.476
  394SOL     OW 2080   0.386   0.333   0.338
  394SOL    HW1 2081   0.483   0.340   0.362
  394SOL    HW2 2082   0.330   0.353   0.418
  395SOL     OW 2083   5.258   3.972   2.704
  395SOL    HW1 2084   5.265   4.067   2.737
  395SOL    HW2 2085   5.279   3.969   2.606
  396SOL     OW 2086   4.033   3.894   1.982
  396SOL    HW1 2087   3.994   3.963   1.922
  396SOL    HW2 2088   4.099   3.839   1.931
  397SOL     OW 2089   3.672   2.769   5.893
  397SOL    HW1 2090   3.721   2.835   5.837
  397SOL    HW2 2091   3.637   2.696   5.835
  398SOL     OW 2092   0.392   6.621   2.127
  398SOL    HW1 2093   0.339   6.574   2.057
  398SOL    HW2 2094   0.410   6.715   2.097
  399SOL     OW 2095   4.652   5.960   2.234
  399SOL    HW1 2096   4.621   6.031   2.171
  399SOL    HW2 2097   4.685   6.003   2.318
  400SOL     OW 2098   6.702   0.234   5.365
  400SOL    HW1 2099   6.739   0.205   5.277
  400SOL    HW2 2100   6.716   0.333   5.376
  401SOL     OW 2101   4.399   0.936   5.970
  401SOL    HW1 2102   4.443   0.970   6.053
  401SOL    HW2 2103   4.330   1.002   5.939
  402SOL     OW 2104   6.015   6.476   2.743
  402SOL    HW1 2105   5.956   6.530   2.802
  402SOL    HW2 2106   5.965   6.397   2.708
  403SOL     OW 2107   3.750   2.218   5.651
  403SOL    HW1 2108   3.676   2.164   5.692
  403SOL    HW2 2109   3.832   2.161   5.643
  404SOL     OW 2110   1.644   6.570   3.888
  404SOL    HW1 2111   1.721   6.633   3.876
  404SOL    HW2 2112   1.667   6.501   3.956
  405SOL     OW 2113   1.638   2.983   1.691
  405SOL    HW1 2114   1.540   2.988   1.670
  405SOL    HW2 2115   1.672   3.075   1.712
  406SOL     OW 2116   0.799   3.854   3.692
  406SOL    HW1 2117   0.742   3.936   3.702
  406SOL    HW2 2118   0.750   3.775   3.730
  407SOL     OW 2119   1.944   0.766   4.284
  407SOL    HW1 2120   1.880   0.774   4.207
  407SOL    HW2 2121   1.978   0.672   4.289
  408SOL     OW 2122   1.368   0.958   2.751
  408SOL    HW1 2123   1.468   0.962   2.744
  408SOL    HW2 2124   1.343   0.908   2.834
  409SOL     OW 2125   6.060   3.027   1.934
  409SOL    HW1 2126   6.076   3.102   1.998
  409SOL    HW2 2127   6.144   3.007   1.884
  410SOL     OW 2128   2.355   0.117   6.743
  410SOL    HW1 2129   2.410   0.057   6.684
  410SOL    HW2 2130   2.348   0.207   6.702
  411SOL     OW 2131   5.823   6.969   6.759
  411SOL    HW1 2132   5.763   6.933   6.687
  411SOL    HW2 2133   5.860   6.892   6.812
  412SOL     OW 2134   4.589   6.515   3.687
  412SOL    HW1 2135   4.513   6.546   3.630
  412SOL    HW2 2136   4.554   6.461   3.764
  413SOL     OW 2137   5.378   4.818   1.488
  413SOL    HW1 2138   5.378   4.914   1.514
  413SOL    HW2 2139   5.310   4.768   1.542
  414SOL     OW 2140   3.611   4.986   3.485
  414SOL    HW1 2141   3.600   5.077   3.445
  414SOL    HW2 2142   3.521   4.946   3.504
  415SOL     OW 2143   0.980   5.770   6.915
  415SOL    HW1 2144   1.028   5.702   6.859
  415SOL    HW2 2145   0.912   5.724   6.972
  416SOL     OW 2146   4.861   5.119   5.114
  416SOL    HW1 2147   4.767   5.089   5.097
  416SOL    HW2 2148   4.867   5.217   5.100
  417SOL     OW 2149   2.777   5.765   0.820
  417SOL    HW1 2150   2.708   5.818   0.870
  417SOL    HW2 2151   2.851   5.740   0.882
  418SOL     OW 2152   4.118   5.975   1.540
  418SOL    HW1 2153   4.180   5.984   1.462
  418SOL    HW2 2154   4.106   5.878   1.562
  419SOL     OW 2155   1.820   0.217   1.680
  419SOL    HW1 2156   1.845   0.314   1.671
  419SOL    HW2 2157   1.821   0.192   1.777
  420SOL     OW 2158   6.307   2.767   1.641
  420SOL    HW1 2159   6.310   2.759   1.541
  420SOL    HW2 2160   6.375   2.706   1.682
  421SOL     OW 2161   0.028   5.024   5.940
  421SOL    HW1 2162   0.102   5.069   5.990
  421SOL    HW2 2163   6.986   4.995   6.004
  422SOL     OW 2164   6.037   4.363   0.253
  422SOL    HW1 2165   6.005   4.410   0.171
  422SOL    HW2 2166   6.134   4.339   0.242
  423SOL     OW 2167   0.618   2.807   6.894
  423SOL    HW1 2168   0.662   2.792   6.805
  423SOL    HW2 2169   0.644   2.898   6.928
  424SOL     OW 2170   2.792   3.497   1.318
  424SOL    HW1 2171   2.758   3.509   1.412
  424SOL    HW2 2172   2.886   3.530   1.313
  425SOL     OW 2173   5.929   0.902   2.328
  425SOL    HW1 2174   5.886   0.960   2.259
  425SOL    HW2 2175   6.021   0.876   2.297
  426SOL     OW 2176   5.298   2.180   4.342
  426SOL    HW1 2177   5.335   2.267   4.376
  426SOL    HW2 2178   5.198   2.181   4.350
  427SOL     OW 2179   5.837   4.698   2.218
  427SOL    HW1 2180   5.741   4.719   2.200
  427SOL    HW2 2181   5.854   4.601   2.201
  428SOL     OW 2182   4.569   6.933   4.647
  428SOL    HW1 2183   4.590   6.969   4.738
  428SOL    HW2 2184   4.526   7.004   4.592
  429SOL     OW 2185   2.702   4.150   1.623
  429SOL    HW1 2186   2.716   4.248   1.614
  429SOL    HW2 2187   2.608   4.127   1.594
  430SOL     OW 2188   0.330   0.154   4.354
  430SOL    HW1 2189   0.380   0.189   4.433
  430SOL    HW2 2190   0.388   0.091   4.303
  431SOL     OW 2191   3.268   0.271   0.527
  431SOL    HW1 2192   3.203   0.325   0.580
  431SOL    HW2 2193   3.308   0.201   0.586
  432SOL     OW 2194   6.541   2.488   2.182
  432SOL    HW1 2195   6.512   2.509   2.276
  432SOL    HW2 2196   6.517   2.564   2.122
  433SOL     OW 2197   3.036   6.227   4.433
  433SOL    HW1 2198   3.024   6.254   4.529
  433SOL    HW2 2199   2.958   6.260   4.380
  434SOL     OW 2200   4.213   5.055   1.794
  434SOL    HW1 2201   4.175   5.136   1.837
  434SOL    HW2 2202   4.304   5.036   1.832
  435SOL     OW 2203   3.708   1.999   5.206
  435SOL    HW1 2204   3.633   2.026   5.146
  435SOL    HW2 2205   3.768   1.935   5.158
  436SOL     OW 2206   3.270   5.928   0.424
  436SOL    HW1 2207   3.330   5.966   0.352
  436SOL    HW2 2208   3.325   5.906   0.504
  437SOL     OW 2209   1.130   6.516   6.478
  437SOL    HW1 2210   1.160   6.528   6.573
  437SOL    HW2 2211   1.096   6.603   6.443
  438SOL     OW 2212   1.886   2.938   2.203
  438SOL    HW1 2213   1.864   2.907   2.296
  438SOL    HW2 2214   1.926   2.862   2.152
  439SOL     OW 2215   6.416   4.596   3.219
  439SOL    HW1 2216   6.344   4.539   3.181
  439SOL    HW2 2217   6.426   4.577   3.317
  440SOL     OW 2218   1.105   1.852   5.139
  440SOL    HW1 2219   1.118   1.820   5.233
  440SOL    HW2 2220   1.152   1.940   5.128
  441SOL     OW 2221   0.651   2.167   3.875
  441SOL    HW1 2222   0.671   2.219   3.792
  441SOL    HW2 2223   0.565   2.118   3.865
  442SOL     OW 2224   2.414   5.001   6.828
  442SOL    HW1 2225   2.410   4.964   6.921
  442SOL    HW2 2226   2.508   5.022   6.805
  443SOL     OW 2227   0.898   3.900   4.721
  443SOL    HW1 2228   0.813   3.928   4.766
  443SOL    HW2 2229   0.915   3.960   4.643
  444SOL     OW 2230   5.167   2.081   6.056
  444SOL    HW1 2231   5.165   2.171   6.013
  444SOL    HW2 2232   5.260   2.060   6.087
  445SOL     OW 2233   1.283   5.812   3.245
  445SOL    HW1 2234   1.303   5.803   3.342
  445SOL    HW2 2235   1.331   5.741   3.194
  446SOL     OW 2236   3.961   4.846   4.147
  446SOL    HW1 2237   3.890   4.889   4.091
  446SOL    HW2 2238   3.951   4.747   4.142
  447SOL     OW 2239   0.910   2.681   6.901
  447SOL    HW1 2240   1.004   2.670   6.932
  447SOL    HW2 2241   0.857   2.731   6.970
  448SOL     OW 2242   2.678   0.777   4.499
  448SOL    HW1 2243   2.769   0.749   4.526
  448SOL    HW2 2244   2.613   0.704   4.520
  449SOL     OW 2245   4.121   0.449   4.831
  449SOL    HW1 2246   4.217   0.469   4.809
  449SOL    HW2 2247   4.115   0.411   4.923
  450SOL     OW 2248   1.587   6.087   3.971
  450SOL    HW1 2249   1.628   6.178   3.967
  450SOL    HW2 2250   1.648   6.026   4.022
  451SOL     OW 2251   1.848   1.880   3.529
  451SOL    HW1 2252   1.828   1.908   3.435
  451SOL    HW2 2253   1.934   1.829   3.531
  452SOL     OW 2254   6.462   5.904   1.245
  452SOL    HW1 2255   6.506   5.832   1.299
  452SOL    HW2 2256   6.481   5.888   1.148
  453SOL     OW 2257   3.426   0.509   4.585
  453SOL    HW1 2258   3.525   0.521   4.577
  453SOL    HW2 2259   3.383   0.595   4.612
  454SOL     OW 2260   0.288   5.156   6.174
  454SOL    HW1 2261   0.316   5.061   6.161
  454SOL    HW2 2262   0.348   5.200   6.241
  455SOL     OW 2263   6.590   2.053   3.320
  455SOL    HW1 2264   6.618   1.986   3.389
  455SOL    HW2 2265   6.591   2.009   3.230
  456SOL     OW 2266   5.223   5.633   4.648
  456SOL    HW1 2267   5.292   5.701   4.623
  456SOL    HW2 2268   5.184   5.657   4.737
  457SOL     OW 2269   2.113   3.429   3.768
  457SOL    HW1 2270   2.073   3.370   3.698
  457SOL    HW2 2271   2.131   3.519   3.729
  458SOL     OW 2272   4.419   5.784   3.822
  458SOL    HW1 2273   4.362   5.761   3.744
  458SOL    HW2 2274   4.470   5.703   3.852
  459SOL     OW 2275   1.841   6.632   4.596
  459SOL    HW1 2276   1.889   6.545   4.599
  459SOL    HW2 2277   1.745   6.616   4.574
  460SOL     OW 2278   1.653   0.046   3.626
  460SOL    HW1 2279   1.611   0.131   3.658
  460SOL    HW2 2280   1.742   0.066   3.584
  461SOL     OW 2281   6.033   0.159   5.389
  461SOL    HW1 2282   6.119   0.144   5.340
  461SOL    HW2 2283   5.987   0.071   5.404
  462SOL     OW 2284   3.870   2.718   6.073
  462SOL    HW1 2285   3.797   2.744   6.010
  462SOL    HW2 2286   3.830   2.676   6.154
  463SOL     OW 2287   6.844   5.275   3.543
  463SOL    HW1 2288   6.831   5.352   3.480
  463SOL    HW2 2289   6.806   5.192   3.502
  464SOL     OW 2290   2.594   2.729   6.443
  464SOL    HW1 2291   2.605   2.630   6.435
  464SOL    HW2 2292   2.537   2.749   6.522
  465SOL     OW 2293   1.229   2.654   4.125
  465SOL    HW1 2294   1.134   2.682   4.113
  465SOL    HW2 2295   1.252   2.655   4.222
  466SOL     OW 2296   1.336   5.026   2.854
  466SOL    HW1 2297   1.399   4.967   2.904
  466SOL    HW2 2298   1.380   5.113   2.833
  467SOL     OW 2299   1.162   1.193   0.029
  467SOL    HW1 2300   1.185   1.101   7.028
  467SOL    HW2 2301   1.215   1.260   7.007
  468SOL     OW 2302   3.806   6.246   6.791
  468SOL    HW1 2303   3.785   6.156   6.828
  468SOL    HW2 2304   3.793   6.315   6.862
  469SOL     OW 2305   3.185   4.543   0.624
  469SOL    HW1 2306   3.237   4.458   0.625
  469SOL    HW2 2307   3.088   4.524   0.634
  470SOL     OW 2308   4.339   0.241   2.345
  470SOL    HW1 2309   4.349   0.286   2.435
  470SOL    HW2 2310   4.298   0.151   2.358
  471SOL     OW 2311   1.750   2.489   4.256
  471SOL    HW1 2312   1.661   2.505   4.299
  471SOL    HW2 2313   1.745   2.409   4.197
  472SOL     OW 2314   5.342   3.754   6.639
  472SOL    HW1 2315   5.380   3.843   6.617
  472SOL    HW2 2316   5.261   3.765   6.697
  473SOL     OW 2317   0.892   3.180   2.091
  473SOL    HW1 2318   0.966   3.149   2.032
  473SOL    HW2 2319   0.814   3.208   2.034
  474SOL     OW 2320   4.993   5.236   3.801
  474SOL    HW1 2321   4.988   5.283   3.713
  474SOL    HW2 2322   5.089   5.216   3.822
  475SOL     OW 2323   5.325   1.146   6.253
  475SOL    HW1 2324   5.266   1.098   6.318
  475SOL    HW2 2325   5.344   1.087   6.175
  476SOL     OW 2326   6.766   4.031   2.804
  476SOL    HW1 2327   6.820   4.049   2.886
  476SOL    HW2 2328   6.802   3.950   2.758
  477SOL     OW 2329   1.292   4.463   4.568
  477SOL    HW1 2330   1.279   4.399   4.644
  477SOL    HW2 2331   1.350   4.420   4.499
  478SOL     OW 2332   3.248   6.860   2.164
  478SOL    HW1 2333   3.252   6.807   2.080
  478SOL    HW2 2334   3.340   6.871   2.201
  479SOL     OW 2335   4.234   2.181   6.788
  479SOL    HW1 2336   4.180   2.120   6.846
  479SOL    HW2 2337   4.254   2.134   6.701
  480SOL     OW 2338   2.158   1.562   0.119
  480SOL    HW1 2339   2.255   1.552   0.144
  480SOL    HW2 2340   2.108   1.600   0.197
  481SOL     OW 2341   1.667   0.510   0.199
  481SOL    HW1 2342   1.710   0.583   0.252
  481SOL    HW2 2343   1.583   0.545   0.157
  482SOL     OW 2344   4.897   5.058   2.969
  482SOL    HW1 2345   4.820   5.043   2.906
  482SOL    HW2 2346   4.961   4.982   2.962
  483SOL     OW 2347   6.921   1.454   1.804
  483SOL    HW1 2348   6.937   1.463   1.902
  483SOL    HW2 2349   6.903   1.358   1.782
  484SOL     OW 2350   1.185   2.789   4.819
  484SOL    HW1 2351   1.177   2.726   4.896
  484SOL    HW2 2352   1.243   2.866   4.844
  485SOL     OW 2353   3.835   5.347   2.482
  485SOL    HW1 2354   3.821   5.346   2.383
  485SOL    HW2 2355   3.932   5.341   2.502
  486SOL     OW 2356   6.626   2.235   0.667
  486SOL    HW1 2357   6.687   2.289   0.724
  486SOL    HW2 2358   6.675   2.203   0.586
  487SOL     OW 2359   1.332   1.921   1.349
  487SOL    HW1 2360   1.307   1.831   1.311
  487SOL    HW2 2361   1.263   1.988   1.323
  488SOL     OW 2362   0.769   2.116   1.815
  488SOL    HW1 2363   0.755   2.079   1.907
  488SOL    HW2 2364   0.799   2.043   1.754
  489SOL     OW 2365   3.310   6.157   6.362
  489SOL    HW1 2366   3.286   6.083   6.424
  489SOL    HW2 2367   3.277   6.244   6.399
  490SOL     OW 2368   0.077   6.176   2.997
  490SOL    HW1 2369   7.018   6.173   2.951
  490SOL    HW2 2370   0.075   6.119   3.079
  491SOL     OW 2371   0.155   3.093   2.417
  491SOL    HW1 2372   0.234   3.032   2.421
  491SOL    HW2 2373   0.174   3.168   2.353
  492SOL     OW 2374   2.292   0.178   5.278
  492SOL    HW1 2375   2.310   0.083   5.303
  492SOL    HW2 2376   2.287   0.185   5.178
  493SOL     OW 2377   5.079   6.585   5.827
  493SOL    HW1 2378   5.000   6.559   5.772
  493SOL    HW2 2379   5.067   6.552   5.921
  494SOL     OW 2380   6.860   0.634   6.498
  494SOL    HW1 2381   6.794   0.609   6.569
  494SOL    HW2 2382   6.928   0.562   6.489
  495SOL     OW 2383   4.711   6.021   3.526
  495SOL    HW1 2384   4.625   6.059   3.563
  495SOL    HW2 2385   4.689   5.951   3.458
  496SOL     OW 2386   5.271   3.478   2.190
  496SOL    HW1 2387   5.305   3.561   2.146
  496SOL    HW2 2388   5.186   3.449   2.145
  497SOL     OW 2389   3.642   1.063   4.497
  497SOL    HW1 2390   3.609   1.022   4.411
  497SOL    HW2 2391   3.633   0.997   4.571
  498SOL     OW 2392   1.782   4.319   1.517
  498SOL    HW1 2393   1.722   4.252   1.558
  498SOL    HW2 2394   1.780   4.309   1.417
  499SOL     OW 2395   2.712   0.377   3.896
  499SOL    HW1 2396   2.808   0.350   3.905
  499SOL    HW2 2397   2.706   0.477   3.891
  500SOL     OW 2398   0.532   3.398   3.510
  500SOL    HW1 2399   0.506   3.480   3.459
  500SOL    HW2 2400   0.478   3.393   3.594
  501SOL     OW 2401   2.865   6.240   6.980
  501SOL    HW1 2402   2.823   6.186   0.023
  501SOL    HW2 2403   2.873   6.335   7.010
  502SOL     OW 2404   6.723   4.093   7.020
  502SOL    HW1 2405   6.698   3.996   7.024
  502SOL    HW2 2406   6.658   4.141   6.961
  503SOL     OW 2407   5.967   5.778   6.034
  503SOL    HW1 2408   5.979   5.687   5.994
  503SOL    HW2 2409   6.015   5.782   6.122
  504SOL     OW 2410   1.878   5.397   3.112
  504SOL    HW1 2411   1.890   5.488   3.152
  504SOL    HW2 2412   1.905   5.328   3.179
  505SOL     OW 2413   3.418   6.167   4.864
  505SOL    HW1 2414   3.505   6.204   4.830
  505SOL    HW2 2415   3.343   6.224   4.833
  506SOL     OW 2416   1.984   5.538   4.967
  506SOL    HW1 2417   2.046   5.525   5.044
  506SOL    HW2 2418   2.001   5.468   4.898
  507SOL     OW 2419   3.829   0.536   3.612
  507SOL    HW1 2420   3.881   0.581   3.685
  507SOL    HW2 2421   3.892   0.483   3.554
  508SOL     OW 2422   6.677   3.773   2.312
  508SOL    HW1 2423   6.624   3.825   2.244
  508SOL    HW2 2424   6.760   3.824   2.335
  509SOL     OW 2425   3.626   1.141   1.900
  509SOL    HW1 2426   3.622   1.059   1.956
  509SOL    HW2 2427   3.537   1.188   1.902
  510SOL     OW 2428   6.320   5.180   6.749
  510SOL    HW1 2429   6.353   5.087   6.733
  510SOL    HW2 2430   6.279   5.187   6.840
  511SOL     OW 2431   0.237   1.411   6.385
  511SOL    HW1 2432   0.200   1.503   6.371
  511SOL    HW2 2433   0.201   1.349   6.316
  512SOL     OW 2434   0.023   2.721   6.784
  512SOL    HW1 2435   0.103   2.687   6.835
  512SOL    HW2 2436   6.981   2.651   6.784
  513SOL     OW 2437   6.152   5.991   3.206
  513SOL    HW1 2438   6.099   6.067   3.245
  513SOL    HW2 2439   6.093   5.912   3.193
  514SOL     OW 2440   6.848   2.809   3.894
  514SOL    HW1 2441   6.847   2.774   3.988
  514SOL    HW2 2442   6.777   2.878   3.883
  515SOL     OW 2443   2.001   0.327   6.781
  515SOL    HW1 2444   1.918   0.384   6.776
  515SOL    HW2 2445   2.080   0.385   6.800
  516SOL     OW 2446   2.530   4.495   1.872
  516SOL    HW1 2447   2.514   4.455   1.782
  516SOL    HW2 2448   2.621   4.535   1.875
  517SOL     OW 2449   5.047   5.339   2.162
  517SOL    HW1 2450   4.959   5.318   2.205
  517SOL    HW2 2451   5.120   5.337   2.231
  518SOL     OW 2452   2.158   2.246   2.767
  518SOL    HW1 2453   2.243   2.297   2.781
  518SOL    HW2 2454   2.117   2.273   2.680
  519SOL     OW 2455   0.630   0.797   4.463
  519SOL    HW1 2456   0.631   0.725   4.393
  519SOL    HW2 2457   0.679   0.877   4.429
  520SOL     OW 2458   6.262   4.435   0.052
  520SOL    HW1 2459   6.266   4.535   0.047
  520SOL    HW2 2460   6.314   4.403   0.131
  521SOL     OW 2461   6.948   3.708   6.364
  521SOL    HW1 2462   6.960   3.808   6.364
  521SOL    HW2 2463   7.020   3.667   6.308
  522SOL     OW 2464   3.625   3.885   5.422
  522SOL    HW1 2465   3.585   3.971   5.453
  522SOL    HW2 2466   3.717   3.903   5.385
  523SOL     OW 2467   0.654   4.973   1.269
  523SOL    HW1 2468   0.623   4.880   1.283
  523SOL    HW2 2469   0.691   5.009   1.354
  524SOL     OW 2470   1.227   1.577   0.734
  524SOL    HW1 2471   1.234   1.543   0.640
  524SOL    HW2 2472   1.152   1.531   0.781
  525SOL     OW 2473   2.086   3.707   6.747
  525SOL    HW1 2474   2.088   3.632   6.680
  525SOL    HW2 2475   2.023   3.683   6.821
  526SOL     OW 2476   4.103   6.854   4.232
  526SOL    HW1 2477   4.117   6.818   4.140
  526SOL    HW2 2478   4.173   6.817   4.293
  527SOL     OW 2479   6.775   3.143   6.797
  527SOL    HW1 2480   6.856   3.170   6.746
  527SOL    HW2 2481   6.724   3.074   6.746
  528SOL     OW 2482   0.952   1.320   3.703
  528SOL    HW1 2483   1.030   1.259   3.691
  528SOL    HW2 2484   0.867   1.266   3.699
  529SOL     OW 2485   1.196   6.425   4.228
  529SOL    HW1 2486   1.278   6.474   4.254
  529SOL    HW2 2487   1.174   6.445   4.133
  530SOL     OW 2488   3.063   3.231   5.140
  530SOL    HW1 2489   3.039   3.173   5.061
  530SOL    HW2 2490   3.118   3.179   5.204
  531SOL     OW 2491   0.241   0.415   2.406
  531SOL    HW1 2492   0.191   0.456   2.483
  531SOL    HW2 2493   0.240   0.477   2.328
  532SOL     OW 2494   1.635   2.200   6.966
  532SOL    HW1 2495   1.631   2.299   6.976
  532SOL    HW2 2496   1.692   2.162   0.009
  533SOL     OW 2497   4.048   6.552   3.729
  533SOL    HW1 2498   4.080   6.622   3.665
  533SOL    HW2 2499   4.125   6.514   3.779
  534SOL     OW 2500   5.247   5.498   3.451
  534SOL    HW1 2501   5.170   5.561   3.455
  534SOL    HW2 2502   5.326   5.546   3.412
  535SOL     OW 2503   0.441   3.779   4.430
  535SOL    HW1 2504   0.382   3.704   4.401
  535SOL    HW2 2505   0.387   3.863   4.439
  536SOL     OW 2506   0.093   5.226   2.097
  536SOL    HW1 2507   0.186   5.257   2.114
  536SOL    HW2 2508   0.089   5.126   2.103
  537SOL     OW 2509   2.315   6.333   3.542
  537SOL    HW1 2510   2.413   6.354   3.545
  537SOL    HW2 2511   2.299   6.245   3.587
  538SOL     OW 2512   0.968   4.022   2.751
  538SOL    HW1 2513   0.884   4.007   2.699
  538SOL    HW2 2514   1.021   3.937   2.756
  539SOL     OW 2515   0.796   6.200   0.169
  539SOL    HW1 2516   0.789   6.134   0.094
  539SOL    HW2 2517   0.744   6.167   0.248
  540SOL     OW 2518   0.279   1.166   2.276
  540SOL    HW1 2519   0.300   1.224   2.355
  540SOL    HW2 2520   0.348   1.180   2.205
  541SOL     OW 2521   3.259   6.288   3.652
  541SOL    HW1 2522   3.261   6.378   3.694
  541SOL    HW2 2523   3.168   6.248   3.664
  542SOL     OW 2524   6.627   0.162   0.300
  542SOL    HW1 2525   6.638   0.091   0.230
  542SOL    HW2 2526   6.641   0.252   0.258
  543SOL     OW 2527   1.457   4.908   5.448
  543SOL    HW1 2528   1.502   4.887   5.534
  543SOL    HW2 2529   1.431   5.004   5.445
  544SOL     OW 2530   1.861   4.352   1.099
  544SOL    HW1 2531   1.842   4.429   1.039
  544SOL    HW2 2532   1.780   4.333   1.155
  545SOL     OW 2533   3.380   0.417   2.957
  545SOL    HW1 2534   3.326   0.462   3.028
  545SOL    HW2 2535   3.367   0.318   2.962
  546SOL     OW 2536   1.842   3.175   0.243
  546SOL    HW1 2537   1.902   3.254   0.251
  546SOL    HW2 2538   1.897   3.091   0.244
  547SOL     OW 2539   2.810   1.651   0.009
  547SOL    HW1 2540   2.817   1.707   6.956
  547SOL    HW2 2541   2.747   1.575   7.021
  548SOL     OW 2542   3.941   3.015   2.008
  548SOL    HW1 2543   3.891   3.082   1.954
  548SOL    HW2 2544   4.021   3.058   2.050
  549SOL     OW 2545   4.631   3.124   1.294
  549SOL    HW1 2546   4.611   3.075   1.378
  549SOL    HW2 2547   4.691   3.068   1.237
  550SOL     OW 2548   6.654   4.720   3.502
  550SOL    HW1 2549   6.664   4.750   3.407
  550SOL    HW2 2550   6.579   4.770   3.545
  551SOL     OW 2551   0.987   0.597   1.186
  551SOL    HW1 2552   0.965   0.693   1.201
  551SOL    HW2 2553   0.962   0.571   1.093
  552SOL     OW 2554   4.463   5.182   0.703
  552SOL    HW1 2555   4.458   5.083   0.692
  552SOL    HW2 2556   4.515   5.222   0.627
  553SOL     OW 2557   2.620   6.631   2.090
  553SOL    HW1 2558   2.591   6.708   2.146
  553SOL    HW2 2559   2.711   6.601   2.120
  554SOL     OW 2560   5.562   6.557   5.678
  554SOL    HW1 2561   5.468   6.582   5.655
  554SOL    HW2 2562   5.620   6.638   5.674
  555SOL     OW 2563   2.191   5.037   3.198
  555SOL    HW1 2564   2.118   4.975   3.171
  555SOL    HW2 2565   2.153   5.109   3.256
  556SOL     OW 2566   5.874   2.343   4.070
  556SOL    HW1 2567   5.920   2.396   4.141
  556SOL    HW2 2568   5.821   2.405   4.011
  557SOL     OW 2569   0.287   4.796   0.427
  557SOL    HW1 2570   0.290   4.777   0.328
  557SOL    HW2 2571   0.340   4.726   0.475
  558SOL     OW 2572   3.249   4.087   4.806
  558SOL    HW1 2573   3.324   4.048   4.860
  558SOL    HW2 2574   3.197   4.013   4.763
  559SOL     OW 2575   6.561   6.141   6.643
  559SOL    HW1 2576   6.653   6.171   6.667
  559SOL    HW2 2577   6.563   6.046   6.615
  560SOL     OW 2578   3.794   5.440   6.968
  560SOL    HW1 2579   3.862   5.443   6.895
  560SOL    HW2 2580   3.811   5.361   7.027
  561SOL     OW 2581   6.153   1.076   6.993
  561SOL    HW1 2582   6.247   1.109   6.996
  561SOL    HW2 2583   6.118   1.085   6.900
  562SOL     OW 2584   4.198   0.458   6.183
  562SOL    HW1 2585   4.219   0.556   6.185
  562SOL    HW2 2586   4.131   0.437   6.254
  563SOL     OW 2587   2.241   6.604   3.585
  563SOL    HW1 2588   2.240   6.504   3.587
  563SOL    HW2 2589   2.291   6.636   3.505
  564SOL     OW 2590   2.617   1.677   6.635
  564SOL    HW1 2591   2.676   1.699   6.556
  564SOL    HW2 2592   2.554   1.604   6.609
  565SOL     OW 2593   4.052   3.381   5.770
  565SOL    HW1 2594   4.074   3.437   5.850
  565SOL    HW2 2595   4.045   3.440   5.690
  566SOL     OW 2596   6.127   3.856   3.681
  566SOL    HW1 2597   6.087   3.916   3.613
  566SOL    HW2 2598   6.226   3.869   3.683
  567SOL     OW 2599   3.654   4.117   3.245
  567SOL    HW1 2600   3.705   4.099   3.161
  567SOL    HW2 2601   3.698   4.070   3.322
  568SOL     OW 2602   3.500   2.603   0.455
  568SOL    HW1 2603   3.539   2.532   0.512
  568SOL    HW2 2604   3.426   2.565   0.399
  569SOL     OW 2605   1.662   3.505   0.280
  569SOL    HW1 2606   1.669   3.433   0.212
  569SOL    HW2 2607   1.566   3.530   0.292
  570SOL     OW 2608   1.971   6.299   6.089
  570SOL    HW1 2609   1.990   6.344   6.002
  570SOL    HW2 2610   1.900   6.350   6.138
  571SOL     OW 2611   3.378   0.175   3.102
  571SOL    HW1 2612   3.418   0.141   3.187
  571SOL    HW2 2613   3.279   0.186   3.113
  572SOL     OW 2614   2.388   5.116   5.529
  572SOL    HW1 2615   2.312   5.068   5.573
  572SOL    HW2 2616   2.424   5.060   5.454
  573SOL     OW 2617   4.387   1.305   5.262
  573SOL    HW1 2618   4.327   1.256   5.200
  573SOL    HW2 2619   4.389   1.402   5.236
  574SOL     OW 2620   2.253   2.098   3.744
  574SOL    HW1 2621   2.262   2.178   3.803
  574SOL    HW2 2622   2.284   2.120   3.651
  575SOL     OW 2623   6.777   3.560   6.146
  575SOL    HW1 2624   6.813   3.555   6.052
  575SOL    HW2 2625   6.849   3.591   6.208
  576SOL     OW 2626   1.422   2.359   2.139
  576SOL    HW1 2627   1.518   2.384   2.129
  576SOL    HW2 2628   1.367   2.442   2.148
  577SOL     OW 2629   1.678   0.888   3.010
  577SOL    HW1 2630   1.580   0.895   3.031
  577SOL    HW2 2631   1.696   0.802   2.962
  578SOL     OW 2632   6.730   4.065   3.332
  578SOL    HW1 2633   6.674   4.053   3.414
  578SOL    HW2 2634   6.738   4.162   3.311
  579SOL     OW 2635   3.269   2.497   1.249
  579SOL    HW1 2636   3.287   2.590   1.217
  579SOL    HW2 2637   3.172   2.477   1.241
  580SOL     OW 2638   0.312   4.253   6.811
  580SOL    HW1 2639   0.278   4.177   6.866
  580SOL    HW2 2640   0.405   4.233   6.780
  581SOL     OW 2641   3.231   3.333   2.851
  581SOL    HW1 2642   3.195   3.376   2.769
  581SOL    HW2 2643   3.225   3.233   2.842
  582SOL     OW 2644   5.333   5.246   2.810
  582SOL    HW1 2645   5.363   5.151   2.797
  582SOL    HW2 2646   5.331   5.268   2.907
  583SOL     OW 2647   2.379   5.008   6.324
  583SOL    HW1 2648   2.351   5.079   6.389
  583SOL    HW2 2649   2.426   4.935   6.373
  584SOL     OW 2650   1.319   5.148   5.430
  584SOL    HW1 2651   1.352   5.203   5.354
  584SOL    HW2 2652   1.219   5.155   5.435
  585SOL     OW 2653   6.348   2.969   6.237
  585SOL    HW1 2654   6.367   2.900   6.167
  585SOL    HW2 2655   6.394   3.054   6.214
  586SOL     OW 2656   3.217   0.390   6.862
  586SOL    HW1 2657   3.188   0.294   6.851
  586SOL    HW2 2658   3.276   0.416   6.786
  587SOL     OW 2659   2.729   2.407   5.224
  587SOL    HW1 2660   2.662   2.350   5.271
  587SOL    HW2 2661   2.682   2.463   5.155
  588SOL     OW 2662   2.489   5.332   0.554
  588SOL    HW1 2663   2.523   5.333   0.459
  588SOL    HW2 2664   2.447   5.244   0.573
  589SOL     OW 2665   4.093   4.843   1.660
  589SOL    HW1 2666   4.110   4.855   1.562
  589SOL    HW2 2667   4.136   4.917   1.711
  590SOL     OW 2668   6.019   2.831   1.594
  590SOL    HW1 2669   6.116   2.854   1.606
  590SOL    HW2 2670   5.964   2.914   1.606
  591SOL     OW 2671   4.074   6.395   4.027
  591SOL    HW1 2672   3.975   6.380   4.019
  591SOL    HW2 2673   4.109   6.347   4.107
  592SOL     OW 2674   4.313   0.075   1.169
  592SOL    HW1 2675   4.337   0.024   1.086
  592SOL    HW2 2676   4.395   0.085   1.226
  593SOL     OW 2677   4.288   2.068   3.480
  593SOL    HW1 2678   4.304   1.995   3.548
  593SOL    HW2 2679   4.193   2.098   3.484
  594SOL     OW 2680   4.421   2.460   6.243
  594SOL    HW1 2681   4.412   2.366   6.212
  594SOL    HW2 2682   4.501   2.468   6.303
  595SOL     OW 2683   4.836   6.468   3.543
  595SOL    HW1 2684   4.744   6.464   3.583
  595SOL    HW2 2685   4.904   6.483   3.615
  596SOL     OW 2686   0.997   3.392   1.757
  596SOL    HW1 2687   0.954   3.468   1.806
  596SOL    HW2 2688   0.935   3.360   1.685
  597SOL     OW 2689   4.925   0.142   5.395
  597SOL    HW1 2690   4.936   0.115   5.299
  597SOL    HW2 2691   4.830   0.125   5.423
  598SOL     OW 2692   3.560   4.014   6.801
  598SOL    HW1 2693   3.519   3.970   6.882
  598SOL    HW2 2694   3.590   4.106   6.826
  599SOL     OW 2695   1.393   0.178   2.905
  599SOL    HW1 2696   1.479   0.194   2.857
  599SOL    HW2 2697   1.397   0.220   2.996
  600SOL     OW 2698   1.344   0.760   1.231
  600SOL    HW1 2699   1.293   0.809   1.160
  600SOL    HW2 2700   1.280   0.709   1.289
  601SOL     OW 2701   2.726   5.697   4.062
  601SOL    HW1 2702   2.783   5.766   4.018
  601SOL    HW2 2703   2.692   5.731   4.150
  602SOL     OW 2704   1.350   2.210   6.854
  602SOL    HW1 2705   1.330   2.119   6.818
  602SOL    HW2 2706   1.443   2.211   6.892
  603SOL     OW 2707   4.255   2.031   4.056
  603SOL    HW1 2708   4.352   2.057   4.059
  603SOL    HW2 2709   4.202   2.091   4.116
  604SOL     OW 2710   0.469   3.911   1.231
  604SOL    HW1 2711   0.433   3.823   1.261
  604SOL    HW2 2712   0.553   3.931   1.280
  605SOL     OW 2713   6.673   5.348   3.030
  605SOL    HW1 2714   6.740   5.419   3.008
  605SOL    HW2 2715   6.719   5.271   3.074
  606SOL     OW 2716   4.963   0.404   5.480
  606SOL    HW1 2717   4.946   0.313   5.442
  606SOL    HW2 2718   4.926   0.409   5.573
  607SOL     OW 2719   5.173   0.434   5.281
  607SOL    HW1 2720   5.102   0.426   5.351
  607SOL    HW2 2721   5.132   0.418   5.191
  608SOL     OW 2722   3.863   6.517   0.285
  608SOL    HW1 2723   3.876   6.486   0.379
  608SOL    HW2 2724   3.766   6.517   0.263
  609SOL     OW 2725   3.223   3.615   4.235
  609SOL    HW1 2726   3.203   3.555   4.157
  609SOL    HW2 2727   3.166   3.697   4.228
  610SOL     OW 2728   5.513   2.250   3.305
  610SOL    HW1 2729   5.575   2.314   3.349
  610SOL    HW2 2730   5.419   2.281   3.315
  611SOL     OW 2731   1.201   0.054   6.413
  611SOL    HW1 2732   1.160   0.109   6.340
  611SOL    HW2 2733   1.269   0.108   6.461
  612SOL     OW 2734   3.454   5.612   5.910
  612SOL    HW1 2735   3.517   5.683   5.878
  612SOL    HW2 2736   3.464   5.530   5.854
  613SOL     OW 2737   4.982   6.797   5.530
  613SOL    HW1 2738   4.887   6.817   5.553
  613SOL    HW2 2739   5.042   6.866   5.572
  614SOL     OW 2740   6.338   4.438   0.843
  614SOL    HW1 2741   6.247   4.456   0.805
  614SOL    HW2 2742   6.333   4.362   0.907
  615SOL     OW 2743   0.898   2.010   0.944
  615SOL    HW1 2744   0.981   1.958   0.920
  615SOL    HW2 2745   0.847   1.960   1.013
  616SOL     OW 2746   5.776   1.653   3.295
  616SOL    HW1 2747   5.780   1.659   3.395
  616SOL    HW2 2748   5.695   1.701   3.262
  617SOL     OW 2749   0.194   3.583   6.810
  617SOL    HW1 2750   0.278   3.591   6.756
  617SOL    HW2 2751   0.160   3.489   6.803
  618SOL     OW 2752   6.507   3.334   0.671
  618SOL    HW1 2753   6.536   3.314   0.764
  618SOL    HW2 2754   6.510   3.250   0.617
  619SOL     OW 2755   3.853   7.027   6.568
  619SOL    HW1 2756   3.917   7.013   6.492
  619SOL    HW2 2757   3.902   0.037   6.646
  620SOL     OW 2758   5.944   2.801   0.956
  620SOL    HW1 2759   5.856   2.833   0.919
  620SOL    HW2 2760   5.970   2.857   1.035
  621SOL     OW 2761   1.680   0.119   5.332
  621SOL    HW1 2762   1.774   0.098   5.306
  621SOL    HW2 2763   1.679   0.171   5.417
  622SOL     OW 2764   0.446   2.127   5.377
  622SOL    HW1 2765   0.372   2.155   5.315
  622SOL    HW2 2766   0.532   2.169   5.346
  623SOL     OW 2767   0.243   0.024   4.843
  623SOL    HW1 2768   0.224   0.054   4.937
  623SOL    HW2 2769   0.188   0.077   4.779
  624SOL     OW 2770   6.437   1.124   6.938
  624SOL    HW1 2771   6.434   1.218   6.903
  624SOL    HW2 2772   6.521   1.080   6.908
  625SOL     OW 2773   1.459   1.704   0.688
  625SOL    HW1 2774   1.382   1.642   0.676
  625SOL    HW2 2775   1.496   1.694   0.780
  626SOL     OW 2776   0.914   5.586   2.810
  626SOL    HW1 2777   0.995   5.583   2.869
  626SOL    HW2 2778   0.918   5.666   2.751
  627SOL     OW 2779   6.367   6.645   0.120
  627SOL    HW1 2780   6.384   6.718   0.054
  627SOL    HW2 2781   6.453   6.599   0.143
  628SOL     OW 2782   5.757   3.966   4.994
  628SOL    HW1 2783   5.845   3.991   4.954
  628SOL    HW2 2784   5.767   3.883   5.048
  629SOL     OW 2785   0.602   0.586   7.014
  629SOL    HW1 2786   0.540   0.530   0.039
  629SOL    HW2 2787   0.567   0.591   6.920
  630SOL     OW 2788   0.337   2.201   0.572
  630SOL    HW1 2789   0.281   2.211   0.655
  630SOL    HW2 2790   0.398   2.123   0.583
  631SOL     OW 2791   3.907   1.730   4.357
  631SOL    HW1 2792   3.924   1.816   4.406
  631SOL    HW2 2793   3.967   1.659   4.393
  632SOL     OW 2794   4.120   2.678   0.930
  632SOL    HW1 2795   4.131   2.733   0.848
  632SOL    HW2 2796   4.156   2.586   0.913
  633SOL     OW 2797   2.802   4.336   0.147
  633SOL    HW1 2798   2.721   4.326   0.090
  633SOL    HW2 2799   2.811   4.432   0.175
  634SOL     OW 2800   3.839   3.254   3.048
  634SOL    HW1 2801   3.788   3.339   3.038
  634SOL    HW2 2802   3.807   3.187   2.981
  635SOL     OW 2803   4.828   6.837   0.079
  635SOL    HW1 2804   4.868   6.799   7.024
  635SOL    HW2 2805   4.856   6.781   0.157
  636SOL     OW 2806   3.150   0.036   5.738
  636SOL    HW1 2807   3.140   0.135   5.723
  636SOL    HW2 2808   3.062   7.026   5.763
  637SOL     OW 2809   5.678   2.141   2.580
  637SOL    HW1 2810   5.604   2.193   2.537
  637SOL    HW2 2811   5.739   2.204   2.629
  638SOL     OW 2812   5.744   3.631   3.834
  638SOL    HW1 2813   5.819   3.578   3.873
  638SOL    HW2 2814   5.659   3.609   3.882
  639SOL     OW 2815   5.720   4.273   4.039
  639SOL    HW1 2816   5.654   4.348   4.034
  639SOL    HW2 2817   5.694   4.201   3.975
  640SOL     OW 2818   6.927   4.741   3.597
  640SOL    HW1 2819   6.840   4.727   3.549
  640SOL    HW2 2820   6.971   4.652   3.612
  641SOL     OW 2821   0.970   4.428   4.696
  641SOL    HW1 2822   0.901   4.498   4.716
  641SOL    HW2 2823   0.985   4.423   4.597
  642SOL     OW 2824   1.213   2.347   4.628
  642SOL    HW1 2825   1.189   2.436   4.587
  642SOL    HW2 2826   1.310   2.330   4.613
  643SOL     OW 2827   6.113   0.609   6.705
  643SOL    HW1 2828   6.036   0.640   6.650
  643SOL    HW2 2829   6.094   0.518   6.741
  644SOL     OW 2830   1.549   0.822   4.620
  644SOL    HW1 2831   1.463   0.800   4.574
  644SOL    HW2 2832   1.530   0.877   4.701
  645SOL     OW 2833   3.366   5.368   4.087
  645SOL    HW1 2834   3.381   5.359   4.185
  645SOL    HW2 2835   3.292   5.434   4.071
  646SOL     OW 2836   3.705   0.554   4.559
  646SOL    HW1 2837   3.729   0.582   4.466
  646SOL    HW2 2838   3.756   0.610   4.625
  647SOL     OW 2839   5.706   1.688   5.138
  647SOL    HW1 2840   5.624   1.730   5.099
  647SOL    HW2 2841   5.763   1.652   5.065
  648SOL     OW 2842   6.828   3.581   3.570
  648SOL    HW1 2843   6.757   3.652   3.570
  648SOL    HW2 2844   6.793   3.499   3.614
  649SOL     OW 2845   2.331   3.946   0.805
  649SOL    HW1 2846   2.423   3.915   0.784
  649SOL    HW2 2847   2.273   3.867   0.827
  650SOL     OW 2848   6.955   5.376   0.556
  650SOL    HW1 2849   6.874   5.408   0.604
  650SOL    HW2 2850   6.952   5.407   0.461
  651SOL     OW 2851   1.597   0.424   5.692
  651SOL    HW1 2852   1.643   0.460   5.773
  651SOL    HW2 2853   1.498   0.425   5.706
  652SOL     OW 2854   4.397   6.780   2.045
  652SOL    HW1 2855   4.466   6.796   2.116
  652SOL    HW2 2856   4.434   6.806   1.956
  653SOL     OW 2857   0.321   6.152   0.439
  653SOL    HW1 2858   0.392   6.166   0.509
  653SOL    HW2 2859   0.317   6.055   0.415
  654SOL     OW 2860   6.585   6.420   6.177
  654SOL    HW1 2861   6.639   6.381   6.251
  654SOL    HW2 2862   6.562   6.348   6.111
  655SOL     OW 2863   6.885   5.533   1.929
  655SOL    HW1 2864   6.972   5.491   1.902
  655SOL    HW2 2865   6.896   5.632   1.931
  656SOL     OW 2866   2.125   6.256   0.394
  656SOL    HW1 2867   2.073   6.341   0.385
  656SOL    HW2 2868   2.144   6.239   0.491
  657SOL     OW 2869   3.268   3.918   0.724
  657SOL    HW1 2870   3.258   3.845   0.792
  657SOL    HW2 2871   3.272   3.878   0.632
  658SOL     OW 2872   1.290   4.126   6.013
  658SOL    HW1 2873   1.268   4.191   6.087
  658SOL    HW2 2874   1.389   4.112   6.009
  659SOL     OW 2875   2.531   5.688   4.524
  659SOL    HW1 2876   2.580   5.701   4.438
  659SOL    HW2 2877   2.539   5.772   4.579
  660SOL     OW 2878   4.320   4.752   2.230
  660SOL    HW1 2879   4.254   4.767   2.157
  660SOL    HW2 2880   4.408   4.726   2.190
  661SOL     OW 2881   4.746   4.210   4.432
  661SOL    HW1 2882   4.818   4.180   4.370
  661SOL    HW2 2883   4.686   4.275   4.385
  662SOL     OW 2884   4.392   1.555   6.461
  662SOL    HW1 2885   4.333   1.628   6.426
  662SOL    HW2 2886   4.350   1.466   6.439
  663SOL     OW 2887   0.316   4.817   0.127
  663SOL    HW1 2888   0.277   4.849   0.041
  663SOL    HW2 2889   0.416   4.816   0.120
  664SOL     OW 2890   1.391   5.498   6.497
  664SOL    HW1 2891   1.467   5.434   6.485
  664SOL    HW2 2892   1.377   5.550   6.413
  665SOL     OW 2893   4.076   5.502   0.799
  665SOL    HW1 2894   4.012   5.435   0.837
  665SOL    HW2 2895   4.165   5.459   0.785
  666SOL     OW 2896   4.321   2.399   1.043
  666SOL    HW1 2897   4.322   2.466   1.117
  666SOL    HW2 2898   4.344   2.308   1.080
  667SOL     OW 2899   0.538   3.725   3.839
  667SOL    HW1 2900   0.595   3.660   3.789
  667SOL    HW2 2901   0.594   3.803   3.868
  668SOL     OW 2902   4.820   5.367   0.271
  668SOL    HW1 2903   4.744   5.420   0.308
  668SOL    HW2 2904   4.907   5.406   0.301
  669SOL     OW 2905   2.268   6.053   2.880
  669SOL    HW1 2906   2.237   6.095   2.794
  669SOL    HW2 2907   2.208   5.976   2.902
  670SOL     OW 2908   3.265   3.794   2.361
  670SOL    HW1 2909   3.193   3.736   2.401
  670SOL    HW2 2910   3.224   3.858   2.296
  671SOL     OW 2911   2.609   5.996   6.167
  671SOL    HW1 2912   2.694   6.049   6.171
  671SOL    HW2 2913   2.610   5.925   6.237
  672SOL     OW 2914   0.653   3.842   2.388
  672SOL    HW1 2915   0.661   3.895   2.473
  672SOL    HW2 2916   0.727   3.868   2.326
  673SOL     OW 2917   4.587   0.356   0.966
  673SOL    HW1 2918   4.622   0.437   1.013
  673SOL    HW2 2919   4.595   0.276   1.026
  674SOL     OW 2920   0.419   3.405   4.172
  674SOL    HW1 2921   0.516   3.411   4.195
  674SOL    HW2 2922   0.374   3.492   4.194
  675SOL     OW 2923   0.574   1.523   5.179
  675SOL    HW1 2924   0.589   1.484   5.088
  675SOL    HW2 2925   0.477   1.512   5.203
  676SOL     OW 2926   3.195   5.060   3.240
  676SOL    HW1 2927   3.151   4.980   3.280
  676SOL    HW2 2928   3.220   5.124   3.312
  677SOL     OW 2929   5.675   1.478   6.376
  677SOL    HW1 2930   5.596   1.525   6.335
  677SOL    HW2 2931   5.739   1.546   6.412
  678SOL     OW 2932   2.124   1.557   5.137
  678SOL    HW1 2933   2.163   1.476   5.181
  678SOL    HW2 2934   2.193   1.629   5.134
  679SOL     OW 2935   4.229   0.939   4.519
  679SOL    HW1 2936   4.184   0.863   4.565
  679SOL    HW2 2937   4.290   0.986   4.583
  680SOL     OW 2938   6.134   4.993   5.838
  680SOL    HW1 2939   6.037   5.004   5.859
  680SOL    HW2 2940   6.175   5.082   5.818
  681SOL     OW 2941   6.279   0.198   1.068
  681SOL    HW1 2942   6.219   0.138   1.120
  681SOL    HW2 2943   6.273   0.176   0.971
  682SOL     OW 2944   1.986   6.554   6.790
  682SOL    HW1 2945   1.997   6.500   6.873
  682SOL    HW2 2946   2.065   6.613   6.778
  683SOL     OW 2947   3.117   0.499   5.949
  683SOL    HW1 2948   3.165   0.488   5.861
  683SOL    HW2 2949   3.085   0.410   5.981
  684SOL     OW 2950   6.207   1.697   6.244
  684SOL    HW1 2951   6.282   1.661   6.298
  684SOL    HW2 2952   6.176   1.627   6.179
  685SOL     OW 2953   5.139   0.043   5.600
  685SOL    HW1 2954   5.070   0.056   5.529
  685SOL    HW2 2955   5.174   0.131   5.630
  686SOL     OW 2956   5.570   2.928   3.311
  686SOL    HW1 2957   5.479   2.945   3.274
  686SOL    HW2 2958   5.606   3.012   3.350
  687SOL     OW 2959   6.764   2.773   5.438
  687SOL    HW1 2960   6.758   2.673   5.439
  687SOL    HW2 2961   6.698   2.809   5.372
  688SOL     OW 2962   1.963   4.236   6.995
  688SOL    HW1 2963   2.036   4.187   0.014
  688SOL    HW2 2964   1.977   4.228   6.896
  689SOL     OW 2965   0.585   4.356   5.173
  689SOL    HW1 2966   0.494   4.380   5.138
  689SOL    HW2 2967   0.636   4.306   5.102
  690SOL     OW 2968   0.259   3.689   3.191
  690SOL    HW1 2969   0.235   3.595   3.216
  690SOL    HW2 2970   0.184   3.730   3.139
  691SOL     OW 2971   2.273   1.368   6.660
  691SOL    HW1 2972   2.303   1.369   6.756
  691SOL    HW2 2973   2.180   1.405   6.654
  692SOL     OW 2974   3.268   6.784   3.757
  692SOL    HW1 2975   3.176   6.824   3.762
  692SOL    HW2 2976   3.326   6.825   3.827
  693SOL     OW 2977   6.703   1.430   3.484
  693SOL    HW1 2978   6.768   1.354   3.470
  693SOL    HW2 2979   6.701   1.455   3.580
  694SOL     OW 2980   3.208   5.678   2.313
  694SOL    HW1 2981   3.211   5.727   2.226
  694SOL    HW2 2982   3.152   5.595   2.303
  695SOL     OW 2983   5.326   4.727   5.820
  695SOL    HW1 2984   5.402   4.721   5.885
  695SOL    HW2 2985   5.279   4.814   5.830
  696SOL     OW 2986   3.218   5.050   1.643
  696SOL    HW1 2987   3.315   5.024   1.642
  696SOL    HW2 2988   3.197   5.098   1.728
  697SOL     OW 2989   1.257   2.782   5.488
  697SOL    HW1 2990   1.280   2.685   5.480
  697SOL    HW2 2991   1.233   2.818   5.398
  698SOL     OW 2992   5.924   0.332   5.169
  698SOL    HW1 2993   5.847   0.393   5.191
  698SOL    HW2 2994   5.939   0.270   5.246
  699SOL     OW 2995   0.699   4.170   0.004
  699SOL    HW1 2996   0.745   4.107   6.970
  699SOL    HW2 2997   0.767   4.224   0.053
  700SOL     OW 2998   3.323   2.023   3.545
  700SOL    HW1 2999   3.263   1.948   3.572
  700SOL    HW2 3000   3.313   2.041   3.447
  701SOL     OW 3001   0.769   4.456   6.205
  701SOL    HW1 3002   0.777   4.381   6.271
  701SOL    HW2 3003   0.830   4.530   6.231
  702SOL     OW 3004   5.696   6.135   6.441
  702SOL    HW1 3005   5.606   6.160   6.475
  702SOL    HW2 3006   5.762   6.206   6.464
  703SOL     OW 3007   4.391   3.827   6.544
  703SOL    HW1 3008   4.384   3.760   6.470
  703SOL    HW2 3009   4.300   3.849   6.578
  704SOL     OW 3010   1.985   1.647   6.186
  704SOL    HW1 3011   1.929   1.727   6.207
  704SOL    HW2 3012   2.017   1.654   6.091
  705SOL     OW 3013   5.219   6.933   3.780
  705SOL    HW1 3014   5.314   6.961   3.768
  705SOL    HW2 3015   5.214   6.833   3.781
  706SOL     OW 3016   4.040   2.219   3.452
  706SOL    HW1 3017   3.973   2.234   3.379
  706SOL    HW2 3018   3.992   2.210   3.540
  707SOL     OW 3019   4.680   0.096   2.860
  707SOL    HW1 3020   4.710   0.103   2.765
  707SOL    HW2 3021   4.587   0.131   2.869
  708SOL     OW 3022   4.210   0.311   0.775
  708SOL    HW1 3023   4.165   0.277   0.857
  708SOL    HW2 3024   4.250   0.235   0.724
  709SOL     OW 3025   1.432   5.545   0.550
  709SOL    HW1 3026   1.391   5.519   0.462
  709SOL    HW2 3027   1.364   5.536   0.622
  710SOL     OW 3028   3.995   3.662   2.576
  710SOL    HW1 3029   3.985   3.663   2.676
  710SOL    HW2 3030   3.923   3.604   2.537
  711SOL     OW 3031   1.021   1.988   6.025
  711SOL    HW1 3032   0.999   2.053   5.952
  711SOL    HW2 3033   1.108   2.013   6.067
  712SOL     OW 3034   2.185   4.400   1.013
  712SOL    HW1 3035   2.146   4.308   1.019
  712SOL    HW2 3036   2.130   4.456   0.950
  713SOL     OW 3037   3.075   4.003   0.494
  713SOL    HW1 3038   3.033   4.085   0.534
  713SOL    HW2 3039   3.073   3.928   0.560
  714SOL     OW 3040   6.469   4.771   4.883
  714SOL    HW1 3041   6.416   4.688   4.899
  714SOL    HW2 3042   6.564   4.747   4.863
  715SOL     OW 3043   4.757   6.088   0.474
  715SOL    HW1 3044   4.661   6.079   0.448
  715SOL    HW2 3045   4.774   6.037   0.559
  716SOL     OW 3046   0.972   6.430   0.759
  716SOL    HW1 3047   0.981   6.409   0.856
  716SOL    HW2 3048   0.980   6.346   0.705
  717SOL     OW 3049   5.945   5.234   6.425
  717SOL    HW1 3050   5.867   5.286   6.460
  717SOL    HW2 3051   6.019   5.237   6.491
  718SOL     OW 3052   3.847   1.986   5.884
  718SOL    HW1 3053   3.820   1.906   5.937
  718SOL    HW2 3054   3.857   2.065   5.945
  719SOL     OW 3055   6.051   2.649   1.835
  719SOL    HW1 3056   6.063   2.662   1.736
  719SOL    HW2 3057   5.979   2.709   1.869
  720SOL     OW 3058   3.082   0.909   6.168
  720SOL    HW1 3059   3.069   0.996   6.120
  720SOL    HW2 3060   3.136   0.847   6.110
  721SOL     OW 3061   1.609   6.896   4.783
  721SOL    HW1 3062   1.550   6.938   4.853
  721SOL    HW2 3063   1.664   6.825   4.826
  722SOL     OW 3064   3.229   6.739   5.124
  722SOL    HW1 3065   3.149   6.789   5.158
  722SOL    HW2 3066   3.301   6.804   5.100
  723SOL     OW 3067   2.201   2.985   2.291
  723SOL    HW1 3068   2.280   2.924   2.278
  723SOL    HW2 3069   2.117   2.930   2.293
  724SOL     OW 3070   1.062   1.119   4.513
  724SOL    HW1 3071   1.028   1.184   4.581
  724SOL    HW2 3072   1.158   1.098   4.533
  725SOL     OW 3073   2.763   5.014   1.487
  725SOL    HW1 3074   2.764   5.052   1.580
  725SOL    HW2 3075   2.677   5.039   1.442
  726SOL     OW 3076   4.262   4.549   0.883
  726SOL    HW1 3077   4.343   4.600   0.913
  726SOL    HW2 3078   4.282   4.451   0.885
  727SOL     OW 3079   4.482   5.604   4.955
  727SOL    HW1 3080   4.426   5.660   4.894
  727SOL    HW2 3081   4.427   5.530   4.993
  728SOL     OW 3082   0.422   4.068   5.278
  728SOL    HW1 3083   0.470   3.980   5.271
  728SOL    HW2 3084   0.468   4.125   5.347
  729SOL     OW 3085   2.471   0.816   0.461
  729SOL    HW1 3086   2.488   0.910   0.492
  729SOL    HW2 3087   2.558   0.766   0.459
  730SOL     OW 3088   5.441   0.055   3.731
  730SOL    HW1 3089   5.450   0.123   3.658
  730SOL    HW2 3090   5.374   0.086   3.797
  731SOL     OW 3091   5.474   3.593   5.998
  731SOL    HW1 3092   5.487   3.686   5.965
  731SOL    HW2 3093   5.532   3.577   6.078
  732SOL     OW 3094   0.408   3.721   0.851
  732SOL    HW1 3095   0.345   3.766   0.914
  732SOL    HW2 3096   0.388   3.623   0.849
  733SOL     OW 3097   5.608   4.724   4.664
  733SOL    HW1 3098   5.520   4.747   4.622
  733SOL    HW2 3099   5.599   4.725   4.763
  734SOL     OW 3100   6.359   4.688   2.593
  734SOL    HW1 3101   6.398   4.739   2.516
  734SOL    HW2 3102   6.416   4.608   2.611
  735SOL     OW 3103   3.424   2.484   0.945
  735SOL    HW1 3104   3.327   2.497   0.967
  735SOL    HW2 3105   3.461   2.570   0.910
  736SOL     OW 3106   6.347   6.103   2.518
  736SOL    HW1 3107   6.356   6.105   2.618
  736SOL    HW2 3108   6.337   6.197   2.484
  737SOL     OW 3109   4.672   3.049   0.734
  737SOL    HW1 3110   4.719   2.967   0.701
  737SOL    HW2 3111   4.576   3.047   0.705
  738SOL     OW 3112   1.910   4.593   2.874
  738SOL    HW1 3113   1.948   4.685   2.871
  738SOL    HW2 3114   1.979   4.527   2.844
  739SOL     OW 3115   4.750   6.347   5.393
  739SOL    HW1 3116   4.827   6.284   5.395
  739SOL    HW2 3117   4.668   6.300   5.359
  740SOL     OW 3118   5.217   0.511   0.637
  740SOL    HW1 3119   5.203   0.459   0.553
  740SOL    HW2 3120   5.136   0.503   0.696
  741SOL     OW 3121   2.085   6.487   2.853
  741SOL    HW1 3122   2.180   6.515   2.868
  741SOL    HW2 3123   2.077   6.387   2.864
  742SOL     OW 3124   2.413   6.588   1.856
  742SOL    HW1 3125   2.387   6.674   1.813
  742SOL    HW2 3126   2.507   6.594   1.890
  743SOL     OW 3127   1.874   3.669   4.734
  743SOL    HW1 3128   1.837   3.762   4.739
  743SOL    HW2 3129   1.838   3.614   4.809
  744SOL     OW 3130   6.199   0.313   6.751
  744SOL    HW1 3131   6.161   0.257   6.677
  744SOL    HW2 3132   6.286   0.273   6.781
  745SOL     OW 3133   0.654   5.040   4.369
  745SOL    HW1 3134   0.678   5.102   4.295
  745SOL    HW2 3135   0.659   5.089   4.456
  746SOL     OW 3136   0.554   6.066   5.157
  746SOL    HW1 3137   0.523   6.083   5.063
  746SOL    HW2 3138   0.505   5.988   5.194
  747SOL     OW 3139   4.807   4.715   4.684
  747SOL    HW1 3140   4.844   4.801   4.717
  747SOL    HW2 3141   4.861   4.683   4.605
  748SOL     OW 3142   3.779   5.205   2.773
  748SOL    HW1 3143   3.877   5.211   2.791
  748SOL    HW2 3144   3.731   5.178   2.856
  749SOL     OW 3145   6.338   3.674   4.888
  749SOL    HW1 3146   6.380   3.620   4.961
  749SOL    HW2 3147   6.399   3.675   4.808
  750SOL     OW 3148   1.693   3.803   0.538
  750SOL    HW1 3149   1.732   3.711   0.548
  750SOL    HW2 3150   1.616   3.799   0.475
  751SOL     OW 3151   3.870   1.885   6.619
  751SOL    HW1 3152   3.826   1.950   6.681
  751SOL    HW2 3153   3.800   1.839   6.565
  752SOL     OW 3154   4.321   2.273   1.727
  752SOL    HW1 3155   4.416   2.267   1.695
  752SOL    HW2 3156   4.287   2.182   1.748
  753SOL     OW 3157   1.783   2.777   4.053
  753SOL    HW1 3158   1.811   2.721   4.131
  753SOL    HW2 3159   1.720   2.725   3.995
  754SOL     OW 3160   5.883   3.165   6.569
  754SOL    HW1 3161   5.842   3.114   6.494
  754SOL    HW2 3162   5.973   3.127   6.590
  755SOL     OW 3163   1.388   5.986   6.632
  755SOL    HW1 3164   1.460   6.009   6.566
  755SOL    HW2 3165   1.397   5.891   6.660
  756SOL     OW 3166   4.676   6.305   1.152
  756SOL    HW1 3167   4.614   6.248   1.206
  756SOL    HW2 3168   4.769   6.295   1.187
  757SOL     OW 3169   0.538   6.223   2.742
  757SOL    HW1 3170   0.499   6.243   2.832
  757SOL    HW2 3171   0.500   6.137   2.709
  758SOL     OW 3172   3.988   0.980   1.348
  758SOL    HW1 3173   3.952   1.048   1.412
  758SOL    HW2 3174   3.927   0.901   1.345
  759SOL     OW 3175   0.584   1.156   0.470
  759SOL    HW1 3176   0.662   1.217   0.458
  759SOL    HW2 3177   0.546   1.132   0.381
  760SOL     OW 3178   4.294   0.667   6.479
  760SOL    HW1 3179   4.312   0.701   6.571
  760SOL    HW2 3180   4.196   0.664   6.463
  761SOL     OW 3181   5.671   3.847   5.565
  761SOL    HW1 3182   5.737   3.906   5.519
  761SOL    HW2 3183   5.611   3.903   5.623
  762SOL     OW 3184   2.372   6.652   4.068
  762SOL    HW1 3185   2.448   6.612   4.120
  762SOL    HW2 3186   2.287   6.607   4.094
  763SOL     OW 3187   4.339   5.042   6.462
  763SOL    HW1 3188   4.343   4.971   6.392
  763SOL    HW2 3189   4.414   5.030   6.526
  764SOL     OW 3190   4.613   0.426   3.850
  764SOL    HW1 3191   4.674   0.359   3.891
  764SOL    HW2 3192   4.630   0.431   3.751
  765SOL     OW 3193   1.553   6.581   0.786
  765SOL    HW1 3194   1.459   6.566   0.755
  765SOL    HW2 3195   1.576   6.513   0.855
  766SOL     OW 3196   0.990   2.287   0.920
  766SOL    HW1 3197   0.922   2.350   0.883
  766SOL    HW2 3198   0.947   2.199   0.940
  767SOL     OW 3199   0.116   5.975   2.550
  767SOL    HW1 3200   0.168   5.889   2.549
  767SOL    HW2 3201   0.029   5.962   2.502
  768SOL     OW 3202   2.846   6.904   2.322
  768SOL    HW1 3203   2.753   6.885   2.290
  768SOL    HW2 3204   2.909   6.837   2.283
  769SOL     OW 3205   3.081   0.608   4.027
  769SOL    HW1 3206   3.046   0.698   4.055
  769SOL    HW2 3207   3.163   0.586   4.080
  770SOL     OW 3208   1.264   4.627   2.733
  770SOL    HW1 3209   1.344   4.662   2.783
  770SOL    HW2 3210   1.262   4.527   2.740
  771SOL     OW 3211   2.371   5.618   2.773
  771SOL    HW1 3212   2.367   5.587   2.869
  771SOL    HW2 3213   2.420   5.550   2.719
  772SOL     OW 3214   6.968   5.021   0.894
  772SOL    HW1 3215   0.016   5.063   0.847
  772SOL    HW2 3216   6.883   5.042   0.844
  773SOL     OW 3217   0.214   4.223   3.517
  773SOL    HW1 3218   0.127   4.264   3.487
  773SOL    HW2 3219   0.269   4.202   3.437
  774SOL     OW 3220   0.928   1.476   2.393
  774SOL    HW1 3221   0.931   1.567   2.434
  774SOL    HW2 3222   1.017   1.432   2.402
  775SOL     OW 3223   0.427   1.568   3.197
  775SOL    HW1 3224   0.462   1.504   3.128
  775SOL    HW2 3225   0.495   1.581   3.268
  776SOL     OW 3226   6.679   1.198   5.593
  776SOL    HW1 3227   6.764   1.144   5.590
  776SOL    HW2 3228   6.601   1.135   5.594
  777SOL     OW 3229   3.421   6.296   0.879
  777SOL    HW1 3230   3.410   6.334   0.788
  777SOL    HW2 3231   3.467   6.207   0.873
  778SOL     OW 3232   3.828   1.388   3.534
  778SOL    HW1 3233   3.897   1.452   3.568
  778SOL    HW2 3234   3.776   1.432   3.461
  779SOL     OW 3235   0.659   1.664   3.023
  779SOL    HW1 3236   0.672   1.758   2.992
  779SOL    HW2 3237   0.611   1.663   3.110
  780SOL     OW 3238   6.527   3.967   4.253
  780SOL    HW1 3239   6.450   4.021   4.287
  780SOL    HW2 3240   6.507   3.870   4.262
  781SOL     OW 3241   5.514   1.480   6.720
  781SOL    HW1 3242   5.452   1.407   6.693
  781SOL    HW2 3243   5.608   1.445   6.722
  782SOL     OW 3244   0.772   3.608   6.969
  782SOL    HW1 3245   0.769   3.643   6.875
  782SOL    HW2 3246   0.686   3.560   6.988
  783SOL     OW 3247   3.797   4.870   0.664
  783SOL    HW1 3248   3.811   4.906   0.757
  783SOL    HW2 3249   3.860   4.795   0.647
  784SOL     OW 3250   5.071   6.784   6.317
  784SOL    HW1 3251   4.977   6.817   6.327
  784SOL    HW2 3252   5.124   6.851   6.266
  785SOL     OW 3253   6.933   2.102   3.753
  785SOL    HW1 3254   6.971   2.193   3.772
  785SOL    HW2 3255   6.834   2.106   3.754
  786SOL     OW 3256   1.579   1.292   0.798
  786SOL    HW1 3257   1.557   1.297   0.701
  786SOL    HW2 3258   1.669   1.333   0.815
  787SOL     OW 3259   3.203   1.930   6.326
  787SOL    HW1 3260   3.246   1.882   6.401
  787SOL    HW2 3261   3.181   2.024   6.354
  788SOL     OW 3262   2.239   2.282   4.777
  788SOL    HW1 3263   2.195   2.364   4.815
  788SOL    HW2 3264   2.332   2.304   4.749
  789SOL     OW 3265   5.551   4.317   0.895
  789SOL    HW1 3266   5.548   4.247   0.966
  789SOL    HW2 3267   5.484   4.388   0.915
  790SOL     OW 3268   2.712   1.217   4.442
  790SOL    HW1 3269   2.694   1.163   4.525
  790SOL    HW2 3270   2.626   1.232   4.393
  791SOL     OW 3271   3.548   6.969   3.257
  791SOL    HW1 3272   3.597   6.883   3.264
  791SOL    HW2 3273   3.605   0.014   3.291
  792SOL     OW 3274   0.460   0.548   1.997
  792SOL    HW1 3275   0.496   0.630   1.953
  792SOL    HW2 3276   0.501   0.467   1.955
  793SOL     OW 3277   4.180   6.236   2.349
  793SOL    HW1 3278   4.181   6.188   2.262
  793SOL    HW2 3279   4.272   6.237   2.389
  794SOL     OW 3280   2.875   3.383   5.259
  794SOL    HW1 3281   2.798   3.322   5.280
  794SOL    HW2 3282   2.943   3.332   5.206
  795SOL     OW 3283   3.331   5.171   5.251
  795SOL    HW1 3284   3.345   5.269   5.265
  795SOL    HW2 3285   3.255   5.157   5.189
  796SOL     OW 3286   1.129   2.352   6.310
  796SOL    HW1 3287   1.075   2.369   6.228
  796SOL    HW2 3288   1.194   2.427   6.323
  797SOL     OW 3289   4.945   2.605   2.465
  797SOL    HW1 3290   4.962   2.611   2.367
  797SOL    HW2 3291   4.993   2.678   2.512
  798SOL     OW 3292   5.201   0.138   1.053
  798SOL    HW1 3293   5.226   0.197   1.129
  798SOL    HW2 3294   5.148   0.190   0.986
  799SOL     OW 3295   6.008   1.615   4.299
  799SOL    HW1 3296   6.017   1.523   4.260
  799SOL    HW2 3297   5.950   1.611   4.381
  800SOL     OW 3298   5.530   1.159   2.402
  800SOL    HW1 3299   5.465   1.124   2.469
  800SOL    HW2 3300   5.483   1.219   2.338
  801SOL     OW 3301   1.940   3.117   3.354
  801SOL    HW1 3302   1.923   3.019   3.360
  801SOL    HW2 3303   1.899   3.152   3.269
  802SOL     OW 3304   4.117   6.965   0.391
  802SOL    HW1 3305   4.042   6.972   0.325
  802SOL    HW2 3306   4.204   6.969   0.342
  803SOL     OW 3307   0.234   5.457   5.061
  803SOL    HW1 3308   0.159   5.406   5.018
  803SOL    HW2 3309   0.206   5.553   5.074
  804SOL     OW 3310   6.130   6.032   6.969
  804SOL    HW1 3311   6.106   6.031   6.872
  804SOL    HW2 3312   6.228   6.018   6.980
  805SOL     OW 3313   3.348   2.216   5.615
  805SOL    HW1 3314   3.362   2.230   5.517
  805SOL    HW2 3315   3.251   2.200   5.633
  806SOL     OW 3316   4.370   1.108   4.702
  806SOL    HW1 3317   4.457   1.066   4.727
  806SOL    HW2 3318   4.387   1.187   4.643
  807SOL     OW 3319   0.887   1.796   3.945
  807SOL    HW1 3320   0.825   1.873   3.958
  807SOL    HW2 3321   0.925   1.799   3.852
  808SOL     OW 3322   4.782   3.814   6.368
  808SOL    HW1 3323   4.740   3.903   6.350
  808SOL    HW2 3324   4.821   3.814   6.460
  809SOL     OW 3325   0.761   4.860   1.881
  809SOL    HW1 3326   0.830   4.932   1.884
  809SOL    HW2 3327   0.717   4.852   1.970
  810SOL     OW 3328   3.982   2.636   1.170
  810SOL    HW1 3329   4.017   2.657   1.079
  810SOL    HW2 3330   3.919   2.558   1.164
  811SOL     OW 3331   4.278   5.359   4.132
  811SOL    HW1 3332   4.306   5.263   4.144
  811SOL    HW2 3333   4.294   5.409   4.217
  812SOL     OW 3334   0.482   1.609   2.350
  812SOL    HW1 3335   0.390   1.572   2.338
  812SOL    HW2 3336   0.550   1.542   2.319
  813SOL     OW 3337   3.961   5.058   4.323
  813SOL    HW1 3338   3.865   5.088   4.324
  813SOL    HW2 3339   3.969   4.974   4.269
  814SOL     OW 3340   5.445   6.172   3.387
  814SOL    HW1 3341   5.373   6.122   3.339
  814SOL    HW2 3342   5.410   6.208   3.473
  815SOL     OW 3343   0.158   3.045   2.685
  815SOL    HW1 3344   0.216   3.126   2.687
  815SOL    HW2 3345   0.126   3.029   2.592
  816SOL     OW 3346   6.612   6.812   0.238
  816SOL    HW1 3347   6.704   6.838   0.267
  816SOL    HW2 3348   6.610   6.714   0.218
  817SOL     OW 3349   2.209   3.925   2.054
  817SOL    HW1 3350   2.207   4.008   1.998
  817SOL    HW2 3351   2.178   3.847   1.998
  818SOL     OW 3352   6.266   3.006   1.741
  818SOL    HW1 3353   6.229   3.043   1.656
  818SOL    HW2 3354   6.309   2.918   1.724
  819SOL     OW 3355   5.694   3.308   3.680
  819SOL    HW1 3356   5.783   3.348   3.703
  819SOL    HW2 3357   5.627   3.381   3.673
  820SOL     OW 3358   1.836   2.837   6.549
  820SOL    HW1 3359   1.847   2.920   6.603
  820SOL    HW2 3360   1.787   2.858   6.464
  821SOL     OW 3361   2.003   4.898   0.899
  821SOL    HW1 3362   2.062   4.972   0.869
  821SOL    HW2 3363   1.908   4.930   0.901
  822SOL     OW 3364   0.773   4.580   4.306
  822SOL    HW1 3365   0.756   4.595   4.209
  822SOL    HW2 3366   0.867   4.548   4.318
  823SOL     OW 3367   4.928   4.030   6.845
  823SOL    HW1 3368   5.017   3.991   6.869
  823SOL    HW2 3369   4.931   4.065   6.751
  824SOL     OW 3370   5.342   0.937   5.450
  824SOL    HW1 3371   5.416   0.963   5.387
  824SOL    HW2 3372   5.371   0.858   5.504
  825SOL     OW 3373   1.483   4.273   1.605
  825SOL    HW1 3374   1.400   4.289   1.552
  825SOL    HW2 3375   1.508   4.176   1.599
  826SOL     OW 3376   5.990   3.262   0.529
  826SOL    HW1 3377   6.089   3.271   0.519
  826SOL    HW2 3378   5.946   3.277   0.440
  827SOL     OW 3379   3.500   5.826   6.098
  827SOL    HW1 3380   3.411   5.868   6.118
  827SOL    HW2 3381   3.486   5.739   6.052
  828SOL     OW 3382   6.173   6.963   5.624
  828SOL    HW1 3383   6.125   0.003   5.678
  828SOL    HW2 3384   6.117   6.940   5.544
  829SOL     OW 3385   2.984   3.760   4.073
  829SOL    HW1 3386   2.992   3.791   4.168
  829SOL    HW2 3387   2.948   3.667   4.071
  830SOL     OW 3388   5.112   4.879   6.310
  830SOL    HW1 3389   5.025   4.858   6.356
  830SOL    HW2 3390   5.104   4.857   6.213
  831SOL     OW 3391   6.917   0.509   5.558
  831SOL    HW1 3392   6.852   0.470   5.623
  831SOL    HW2 3393   6.870   0.530   5.472
  832SOL     OW 3394   1.763   0.945   0.520
  832SOL    HW1 3395   1.762   0.928   0.619
  832SOL    HW2 3396   1.822   1.023   0.500
  833SOL     OW 3397   0.597   5.400   6.086
  833SOL    HW1 3398   0.625   5.305   6.098
  833SOL    HW2 3399   0.639   5.436   6.003
  834SOL     OW 3400   3.438   3.764   1.129
  834SOL    HW1 3401   3.517   3.817   1.161
  834SOL    HW2 3402   3.448   3.669   1.156
  835SOL     OW 3403   3.377   6.934   4.243
  835SOL    HW1 3404   3.281   6.911   4.256
  835SOL    HW2 3405   3.435   6.868   4.290
  836SOL     OW 3406   3.663   6.640   6.841
  836SOL    HW1 3407   3.724   6.578   6.891
  836SOL    HW2 3408   3.643   6.601   6.751
  837SOL     OW 3409   5.179   6.476   6.735
  837SOL    HW1 3410   5.146   6.552   6.680
  837SOL    HW2 3411   5.160   6.390   6.688
  838SOL     OW 3412   0.859   0.679   5.176
  838SOL    HW1 3413   0.905   0.716   5.257
  838SOL    HW2 3414   0.903   0.714   5.094
  839SOL     OW 3415   2.650   2.363   2.170
  839SOL    HW1 3416   2.656   2.336   2.266
  839SOL    HW2 3417   2.741   2.360   2.129
  840SOL     OW 3418   5.963   0.617   6.268
  840SOL    HW1 3419   5.940   0.538   6.212
  840SOL    HW2 3420   6.045   0.662   6.232
  841SOL     OW 3421   5.972   4.592   0.455
  841SOL    HW1 3422   6.046   4.642   0.409
  841SOL    HW2 3423   5.937   4.522   0.393
  842SOL     OW 3424   4.558   5.096   4.572
  842SOL    HW1 3425   4.606   5.145   4.645
  842SOL    HW2 3426   4.614   5.095   4.490
  843SOL     OW 3427   4.278   2.450   6.591
  843SOL    HW1 3428   4.282   2.523   6.659
  843SOL    HW2 3429   4.269   2.489   6.500
  844SOL     OW 3430   4.357   6.957   0.930
  844SOL    HW1 3431   4.383   6.987   0.838
  844SOL    HW2 3432   4.407   6.874   0.954
  845SOL     OW 3433   6.255   4.017   4.531
  845SOL    HW1 3434   6.295   4.064   4.610
  845SOL    HW2 3435   6.195   3.944   4.563
  846SOL     OW 3436   5.088   1.681   6.869
  846SOL    HW1 3437   5.024   1.634   6.930
  846SOL    HW2 3438   5.044   1.697   6.781
  847SOL     OW 3439   6.851   3.314   0.028
  847SOL    HW1 3440   6.779   3.247   0.013
  847SOL    HW2 3441   6.872   3.320   0.126
  848SOL     OW 3442   6.487   2.060   6.470
  848SOL    HW1 3443   6.387   2.058   6.473
  848SOL    HW2 3444   6.516   2.107   6.386
  849SOL     OW 3445   1.190   5.057   5.770
  849SOL    HW1 3446   1.176   4.958   5.773
  849SOL    HW2 3447   1.116   5.100   5.718
  850SOL     OW 3448   5.533   0.761   3.174
  850SOL    HW1 3449   5.471   0.833   3.207
  850SOL    HW2 3450   5.506   0.673   3.213
  851SOL     OW 3451   0.521   1.859   1.714
  851SOL    HW1 3452   0.517   1.786   1.782
  851SOL    HW2 3453   0.466   1.937   1.744
  852SOL     OW 3454   3.100   2.598   0.110
  852SOL    HW1 3455   3.131   2.693   0.115
  852SOL    HW2 3456   3.004   2.595   0.083
  853SOL     OW 3457   1.167   4.131   2.342
  853SOL    HW1 3458   1.258   4.118   2.303
  853SOL    HW2 3459   1.130   4.043   2.372
  854SOL     OW 3460   4.508   5.767   2.108
  854SOL    HW1 3461   4.558   5.828   2.170
  854SOL    HW2 3462   4.561   5.683   2.095
  855SOL     OW 3463   6.412   6.965   1.071
  855SOL    HW1 3464   6.463   6.965   0.985
  855SOL    HW2 3465   6.316   6.981   1.053
  856SOL     OW 3466   2.002   1.596   4.823
  856SOL    HW1 3467   2.012   1.553   4.913
  856SOL    HW2 3468   1.927   1.553   4.773
  857SOL     OW 3469   6.199   5.432   0.955
  857SOL    HW1 3470   6.202   5.468   1.048
  857SOL    HW2 3471   6.292   5.417   0.921
  858SOL     OW 3472   2.227   4.382   1.784
  858SOL    HW1 3473   2.258   4.475   1.803
  858SOL    HW2 3474   2.130   4.374   1.810
  859SOL     OW 3475   5.297   5.483   6.839
  859SOL    HW1 3476   5.342   5.396   6.816
  859SOL    HW2 3477   5.198   5.469   6.844
  860SOL     OW 3478   4.529   4.158   0.910
  860SOL    HW1 3479   4.559   4.252   0.923
  860SOL    HW2 3480   4.604   4.103   0.873
  861SOL     OW 3481   1.815   0.271   4.837
  861SOL    HW1 3482   1.848   0.255   4.930
  861SOL    HW2 3483   1.838   0.193   4.779
  862SOL     OW 3484   6.152   4.783   5.574
  862SOL    HW1 3485   6.182   4.710   5.635
  862SOL    HW2 3486   6.226   4.850   5.563
  863SOL     OW 3487   1.202   0.315   0.713
  863SOL    HW1 3488   1.189   0.329   0.615
  863SOL    HW2 3489   1.276   0.249   0.728
  864SOL     OW 3490   4.832   4.939   3.394
  864SOL    HW1 3491   4.754   4.877   3.381
  864SOL    HW2 3492   4.833   4.971   3.489
  865SOL     OW 3493   1.388   6.208   5.440
  865SOL    HW1 3494   1.356   6.180   5.531
  865SOL    HW2 3495   1.373   6.306   5.428
  866SOL     OW 3496   2.143   2.500   1.386
  866SOL    HW1 3497   2.144   2.504   1.486
  866SOL    HW2 3498   2.217   2.557   1.350
  867SOL     OW 3499   3.687   2.773   0.755
  867SOL    HW1 3500   3.714   2.806   0.665
  867SOL    HW2 3501   3.708   2.842   0.824
  868SOL     OW 3502   6.614   6.614   1.090
  868SOL    HW1 3503   6.642   6.699   1.134
  868SOL    HW2 3504   6.601   6.631   0.992
  869SOL     OW 3505   6.551   5.411   2.771
  869SOL    HW1 3506   6.594   5.492   2.731
  869SOL    HW2 3507   6.582   5.400   2.865
  870SOL     OW 3508   6.236   3.658   0.420
  870SOL    HW1 3509   6.244   3.560   0.404
  870SOL    HW2 3510   6.201   3.674   0.512
  871SOL     OW 3511   6.715   3.168   2.323
  871SOL    HW1 3512   6.787   3.141   2.386
  871SOL    HW2 3513   6.629   3.122   2.349
  872SOL     OW 3514   6.697   4.109   3.632
  872SOL    HW1 3515   6.718   4.069   3.721
  872SOL    HW2 3516   6.635   4.187   3.645
  873SOL     OW 3517   4.285   6.935   3.258
  873SOL    HW1 3518   4.361   6.942   3.193
  873SOL    HW2 3519   4.287   7.013   3.320
  874SOL     OW 3520   1.763   3.998   5.615
  874SOL    HW1 3521   1.734   3.953   5.531
  874SOL    HW2 3522   1.782   4.094   5.597
  875SOL     OW 3523   5.085   3.852   1.171
  875SOL    HW1 3524   5.054   3.757   1.170
  875SOL    HW2 3525   5.046   3.899   1.250
  876SOL     OW 3526   0.137   5.472   3.157
  876SOL    HW1 3527   0.072   5.430   3.094
  876SOL    HW2 3528   0.114   5.569   3.169
  877SOL     OW 3529   4.121   4.275   6.989
  877SOL    HW1 3530   4.170   4.342   6.934
  877SOL    HW2 3531   4.128   4.184   6.947
  878SOL     OW 3532   4.212   5.631   6.432
  878SOL    HW1 3533   4.188   5.590   6.519
  878SOL    HW2 3534   4.145   5.604   6.362
  879SOL     OW 3535   3.679   2.112   2.340
  879SOL    HW1 3536   3.688   2.160   2.253
  879SOL    HW2 3537   3.599   2.051   2.336
  880SOL     OW 3538   2.960   4.706   6.979
  880SOL    HW1 3539   2.945   4.704   6.880
  880SOL    HW2 3540   3.048   4.662   7.000
  881SOL     OW 3541   4.193   4.793   5.140
  881SOL    HW1 3542   4.211   4.703   5.099
  881SOL    HW2 3543   4.113   4.835   5.096
  882SOL     OW 3544   1.988   1.343   3.967
  882SOL    HW1 3545   2.078   1.299   3.962
  882SOL    HW2 3546   1.949   1.348   3.875
  883SOL     OW 3547   4.730   5.399   5.234
  883SOL    HW1 3548   4.704   5.373   5.327
  883SOL    HW2 3549   4.685   5.486   5.210
  884SOL     OW 3550   6.809   3.564   2.166
  884SOL    HW1 3551   6.770   3.628   2.231
  884SOL    HW2 3552   6.874   3.612   2.107
  885SOL     OW 3553   5.377   5.779   6.995
  885SOL    HW1 3554   5.333   5.866   6.970
  885SOL    HW2 3555   5.421   5.740   6.915
  886SOL     OW 3556   4.471   0.408   0.012
  886SOL    HW1 3557   4.466   0.371   0.105
  886SOL    HW2 3558   4.393   0.376   6.988
  887SOL     OW 3559   4.289   6.479   5.529
  887SOL    HW1 3560   4.281   6.446   5.434
  887SOL    HW2 3561   4.370   6.536   5.538
  888SOL     OW 3562   6.638   6.474   3.058
  888SOL    HW1 3563   6.646   6.394   2.998
  888SOL    HW2 3564   6.671   6.450   3.150
  889SOL     OW 3565   6.989   6.615   5.758
  889SOL    HW1 3566   6.941   6.560   5.826
  889SOL    HW2 3567   6.933   6.696   5.735
  890SOL     OW 3568   2.686   4.773   2.079
  890SOL    HW1 3569   2.600   4.740   2.117
  890SOL    HW2 3570   2.729   4.701   2.025
  891SOL     OW 3571   5.608   3.922   1.509
  891SOL    HW1 3572   5.616   3.955   1.603
  891SOL    HW2 3573   5.628   3.824   1.507
  892SOL     OW 3574   4.243   3.727   0.478
  892SOL    HW1 3575   4.198   3.814   0.458
  892SOL    HW2 3576   4.195   3.682   0.554
  893SOL     OW 3577   1.928   0.778   1.205
  893SOL    HW1 3578   1.963   0.771   1.111
  893SOL    HW2 3579   2.001   0.812   1.265
  894SOL     OW 3580   2.040   3.868   3.829
  894SOL    HW1 3581   1.970   3.915   3.775
  894SOL    HW2 3582   2.014   3.870   3.926
  895SOL     OW 3583   2.105   6.396   4.888
  895SOL    HW1 3584   2.008   6.381   4.866
  895SOL    HW2 3585   2.116   6.488   4.927
  896SOL     OW 3586   5.561   5.598   3.843
  896SOL    HW1 3587   5.652   5.568   3.870
  896SOL    HW2 3588   5.562   5.628   3.747
  897SOL     OW 3589   4.797   1.221   0.272
  897SOL    HW1 3590   4.810   1.159   0.350
  897SOL    HW2 3591   4.713   1.274   0.286
  898SOL     OW 3592   4.055   5.998   3.780
  898SOL    HW1 3593   4.138   6.016   3.834
  898SOL    HW2 3594   3.980   6.055   3.815
  899SOL     OW 3595   0.273   5.233   0.042
  899SOL    HW1 3596   0.309   5.195   0.127
  899SOL    HW2 3597   0.309   5.325   0.029
  900SOL     OW 3598   5.405   6.010   1.549
  900SOL    HW1 3599   5.336   5.951   1.592
  900SOL    HW2 3600   5.436   6.077   1.616
  901SOL     OW 3601   6.987   1.448   4.704
  901SOL    HW1 3602   7.027   1.492   4.624
  901SOL    HW2 3603   7.008   1.350   4.703
  902SOL     OW 3604   6.952   1.193   6.469
  902SOL    HW1 3605   7.004   1.222   6.389
  902SOL    HW2 3606   6.993   1.110   6.507
  903SOL     OW 3607   6.468   4.678   6.820
  903SOL    HW1 3608   6.412   4.686   6.903
  903SOL    HW2 3609   6.562   4.655   6.846
  904SOL     OW 3610   1.465   1.877   4.210
  904SOL    HW1 3611   1.404   1.937   4.260
  904SOL    HW2 3612   1.451   1.888   4.112
  905SOL     OW 3613   5.280   2.683   6.597
  905SOL    HW1 3614   5.195   2.655   6.641
  905SOL    HW2 3615   5.283   2.645   6.504
  906SOL     OW 3616   0.223   3.727   6.518
  906SOL    HW1 3617   0.135   3.682   6.530
  906SOL    HW2 3618   0.229   3.805   6.581
  907SOL     OW 3619   5.769   2.802   3.170
  907SOL    HW1 3620   5.704   2.852   3.227
  907SOL    HW2 3621   5.848   2.776   3.224
  908SOL     OW 3622   0.997   0.372   4.472
  908SOL    HW1 3623   0.900   0.356   4.490
  908SOL    HW2 3624   1.010   0.395   4.376
  909SOL     OW 3625   2.408   1.061   0.895
  909SOL    HW1 3626   2.422   0.990   0.825
  909SOL    HW2 3627   2.496   1.085   0.936
  910SOL     OW 3628   2.213   0.702   0.905
  910SOL    HW1 3629   2.196   0.609   0.872
  910SOL    HW2 3630   2.129   0.756   0.897
  911SOL     OW 3631   0.418   4.746   1.491
  911SOL    HW1 3632   0.494   4.774   1.549
  911SOL    HW2 3633   0.454   4.710   1.404
  912SOL     OW 3634   0.538   1.347   5.580
  912SOL    HW1 3635   0.456   1.397   5.553
  912SOL    HW2 3636   0.588   1.318   5.499
  913SOL     OW 3637   2.121   0.530   3.317
  913SOL    HW1 3638   2.028   0.565   3.309
  913SOL    HW2 3639   2.119   0.438   3.355
  914SOL     OW 3640   2.134   5.581   5.225
  914SOL    HW1 3641   2.199   5.657   5.222
  914SOL    HW2 3642   2.163   5.515   5.295
  915SOL     OW 3643   0.452   3.209   0.871
  915SOL    HW1 3644   0.354   3.188   0.867
  915SOL    HW2 3645   0.503   3.140   0.819
  916SOL     OW 3646   1.697   2.160   2.297
  916SOL    HW1 3647   1.656   2.070   2.279
  916SOL    HW2 3648   1.726   2.200   2.210
  917SOL     OW 3649   3.945   1.216   1.480
  917SOL    HW1 3650   3.866   1.192   1.538
  917SOL    HW2 3651   4.015   1.259   1.536
  918SOL     OW 3652   3.145   6.192   6.965
  918SOL    HW1 3653   3.184   6.223   6.878
  918SOL    HW2 3654   3.045   6.198   6.961
  919SOL     OW 3655   1.581   6.609   1.866
  919SOL    HW1 3656   1.670   6.585   1.827
  919SOL    HW2 3657   1.514   6.622   1.793
  920SOL     OW 3658   2.356   0.028   3.365
  920SOL    HW1 3659   2.384   6.976   3.415
  920SOL    HW2 3660   2.435   0.085   3.345
  921SOL     OW 3661   5.053   5.059   3.267
  921SOL    HW1 3662   4.981   5.011   3.318
  921SOL    HW2 3663   5.092   4.997   3.199
  922SOL     OW 3664   3.377   2.932   6.343
  922SOL    HW1 3665   3.446   2.875   6.299
  922SOL    HW2 3666   3.402   2.948   6.438
  923SOL     OW 3667   2.939   6.045   0.490
  923SOL    HW1 3668   2.983   6.125   0.532
  923SOL    HW2 3669   3.002   6.004   0.424
  924SOL     OW 3670   5.353   3.561   2.675
  924SOL    HW1 3671   5.335   3.520   2.586
  924SOL    HW2 3672   5.287   3.527   2.742
  925SOL     OW 3673   6.781   1.926   5.413
  925SOL    HW1 3674   6.876   1.929   5.384
  925SOL    HW2 3675   6.735   1.848   5.369
  926SOL     OW 3676   5.871   0.945   0.042
  926SOL    HW1 3677   5.862   0.916   0.138
  926SOL    HW2 3678   5.943   0.891   7.027
  927SOL     OW 3679   4.932   4.362   4.078
  927SOL    HW1 3680   4.996   4.378   4.003
  927SOL    HW2 3681   4.861   4.298   4.049
  928SOL     OW 3682   1.927   0.352   0.674
  928SOL    HW1 3683   1.887   0.277   0.726
  928SOL    HW2 3684   1.854   0.408   0.634
  929SOL     OW 3685   6.780   2.187   2.019
  929SOL    HW1 3686   6.855   2.120   2.019
  929SOL    HW2 3687   6.818   2.279   2.013
  930SOL     OW 3688   6.789   5.333   4.655
  930SOL    HW1 3689   6.872   5.363   4.608
  930SOL    HW2 3690   6.804   5.244   4.697
  931SOL     OW 3691   0.323   3.966   3.191
  931SOL    HW1 3692   0.240   4.008   3.153
  931SOL    HW2 3693   0.308   3.868   3.205
  932SOL     OW 3694   3.429   6.452   1.584
  932SOL    HW1 3695   3.412   6.544   1.549
  932SOL    HW2 3696   3.394   6.385   1.518
  933SOL     OW 3697   0.822   4.891   2.361
  933SOL    HW1 3698   0.824   4.973   2.419
  933SOL    HW2 3699   0.781   4.815   2.412
  934SOL     OW 3700   2.764   1.557   4.643
  934SOL    HW1 3701   2.813   1.471   4.628
  934SOL    HW2 3702   2.806   1.629   4.589
  935SOL     OW 3703   4.479   3.762   5.783
  935SOL    HW1 3704   4.507   3.801   5.871
  935SOL    HW2 3705   4.557   3.765   5.720
  936SOL     OW 3706   0.626   6.617   0.038
  936SOL    HW1 3707   0.616   6.517   0.036
  936SOL    HW2 3708   0.669   6.644   0.124
  937SOL     OW 3709   4.526   1.907   5.121
  937SOL    HW1 3710   4.497   1.832   5.182
  937SOL    HW2 3711   4.617   1.938   5.147
  938SOL     OW 3712   6.971   4.413   6.367
  938SOL    HW1 3713   0.027   4.414   6.419
  938SOL    HW2 3714   6.979   4.475   6.289
  939SOL     OW 3715   5.035   1.530   5.929
  939SOL    HW1 3716   4.943   1.567   5.941
  939SOL    HW2 3717   5.089   1.593   5.874
  940SOL     OW 3718   6.597   1.899   3.077
  940SOL    HW1 3719   6.658   1.825   3.050
  940SOL    HW2 3720   6.541   1.927   2.999
  941SOL     OW 3721   6.024   1.083   3.976
  941SOL    HW1 3722   6.018   1.126   4.066
  941SOL    HW2 3723   5.934   1.049   3.950
  942SOL     OW 3724   5.079   0.343   4.994
  942SOL    HW1 3725   4.993   0.373   5.034
  942SOL    HW2 3726   5.061   0.296   4.907
  943SOL     OW 3727   0.259   3.317   2.795
  943SOL    HW1 3728   0.295   3.407   2.819
  943SOL    HW2 3729   0.159   3.320   2.794
  944SOL     OW 3730   6.132   3.338   5.766
  944SOL    HW1 3731   6.067   3.398   5.812
  944SOL    HW2 3732   6.214   3.326   5.823
  945SOL     OW 3733   5.197   4.758   4.814
  945SOL    HW1 3734   5.234   4.705   4.890
  945SOL    HW2 3735   5.156   4.697   4.747
  946SOL     OW 3736   5.633   2.917   6.549
  946SOL    HW1 3737   5.714   2.872   6.511
  946SOL    HW2 3738   5.626   2.895   6.646
  947SOL     OW 3739   3.035   3.242   5.509
  947SOL    HW1 3740   3.078   3.154   5.491
  947SOL    HW2 3741   2.980   3.270   5.430
  948SOL     OW 3742   4.126   0.727   0.881
  948SOL    HW1 3743   4.125   0.822   0.851
  948SOL    HW2 3744   4.048   0.710   0.941
  949SOL     OW 3745   6.497   6.281   5.938
  949SOL    HW1 3746   6.512   6.223   5.858
  949SOL    HW2 3747   6.446   6.363   5.911
  950SOL     OW 3748   4.139   4.942   2.625
  950SOL    HW1 3749   4.040   4.945   2.611
  950SOL    HW2 3750   4.167   5.017   2.684
  951SOL     OW 3751   1.929   0.313   2.240
  951SOL    HW1 3752   1.962   0.271   2.156
  951SOL    HW2 3753   1.830   0.304   2.246
  952SOL     OW 3754   5.983   1.811   2.305
  952SOL    HW1 3755   5.963   1.864   2.222
  952SOL    HW2 3756   5.927   1.845   2.380
  953SOL     OW 3757   4.631   5.803   5.285
  953SOL    HW1 3758   4.580   5.717   5.290
  953SOL    HW2 3759   4.720   5.791   5.330
  954SOL     OW 3760   5.860   0.372   0.702
  954SOL    HW1 3761   5.898   0.414   0.620
  954SOL    HW2 3762   5.790   0.432   0.741
  955SOL     OW 3763   1.119   4.992   3.868
  955SOL    HW1 3764   1.038   4.941   3.839
  955SOL    HW2 3765   1.170   5.021   3.788
  956SOL     OW 3766   1.046   1.932   1.818
  956SOL    HW1 3767   1.024   1.930   1.916
  956SOL    HW2 3768   0.963   1.949   1.765
  957SOL     OW 3769   1.065   4.919   4.835
  957SOL    HW1 3770   1.083   4.824   4.861
  957SOL    HW2 3771   1.016   4.966   4.909
  958SOL     OW 3772   4.892   1.873   1.003
  958SOL    HW1 3773   4.946   1.790   1.002
  958SOL    HW2 3774   4.842   1.880   1.089
  959SOL     OW 3775   3.091   4.860   3.401
  959SOL    HW1 3776   3.149   4.840   3.480
  959SOL    HW2 3777   3.000   4.821   3.416
  960SOL     OW 3778   0.939   6.027   3.970
  960SOL    HW1 3779   0.976   6.113   3.935
  960SOL    HW2 3780   0.957   5.954   3.904
  961SOL     OW 3781   4.526   6.382   2.613
  961SOL    HW1 3782   4.570   6.435   2.541
  961SOL    HW2 3783   4.557   6.415   2.702
  962SOL     OW 3784   1.526   1.170   3.815
  962SOL    HW1 3785   1.457   1.103   3.843
  962SOL    HW2 3786   1.613   1.149   3.859
  963SOL     OW 3787   5.944   0.498   0.445
  963SOL    HW1 3788   5.958   0.576   0.505
  963SOL    HW2 3789   6.014   0.498   0.373
  964SOL     OW 3790   5.897   3.228   1.078
  964SOL    HW1 3791   5.931   3.231   0.984
  964SOL    HW2 3792   5.822   3.294   1.088
  965SOL     OW 3793   6.036   1.859   1.146
  965SOL    HW1 3794   6.108   1.827   1.085
  965SOL    HW2 3795   5.981   1.930   1.100
  966SOL     OW 3796   6.033   1.584   2.456
  966SOL    HW1 3797   5.992   1.623   2.539
  966SOL    HW2 3798   6.032   1.653   2.383
  967SOL     OW 3799   1.268   5.157   0.250
  967SOL    HW1 3800   1.248   5.107   0.334
  967SOL    HW2 3801   1.345   5.114   0.203
  968SOL     OW 3802   4.588   2.563   2.358
  968SOL    HW1 3803   4.669   2.505   2.369
  968SOL    HW2 3804   4.506   2.506   2.352
  969SOL     OW 3805   3.407   5.881   5.577
  969SOL    HW1 3806   3.490   5.917   5.619
  969SOL    HW2 3807   3.329   5.938   5.602
  970SOL     OW 3808   4.820   1.459   5.446
  970SOL    HW1 3809   4.811   1.514   5.363
  970SOL    HW2 3810   4.892   1.391   5.433
  971SOL     OW 3811   0.319   1.225   2.854
  971SOL    HW1 3812   0.342   1.136   2.895
  971SOL    HW2 3813   0.352   1.298   2.913
  972SOL     OW 3814   6.034   4.198   0.667
  972SOL    HW1 3815   5.948   4.234   0.701
  972SOL    HW2 3816   6.024   4.100   0.645
  973SOL     OW 3817   0.461   5.238   6.369
  973SOL    HW1 3818   0.441   5.158   6.426
  973SOL    HW2 3819   0.551   5.274   6.393
  974SOL     OW 3820   3.880   0.672   2.259
  974SOL    HW1 3821   3.923   0.762   2.264
  974SOL    HW2 3822   3.950   0.601   2.252
  975SOL     OW 3823   2.215   6.264   7.005
  975SOL    HW1 3824   2.181   6.171   7.020
  975SOL    HW2 3825   2.223   6.282   6.907
  976SOL     OW 3826   6.469   2.956   2.876
  976SOL    HW1 3827   6.513   2.984   2.791
  976SOL    HW2 3828   6.414   2.874   2.860
  977SOL     OW 3829   2.394   1.323   4.224
  977SOL    HW1 3830   2.335   1.249   4.193
  977SOL    HW2 3831   2.338   1.395   4.265
  978SOL     OW 3832   5.301   3.984   4.787
  978SOL    HW1 3833   5.233   4.056   4.771
  978SOL    HW2 3834   5.368   4.017   4.853
  979SOL     OW 3835   6.245   1.596   2.771
  979SOL    HW1 3836   6.183   1.600   2.693
  979SOL    HW2 3837   6.224   1.671   2.834
  980SOL     OW 3838   5.042   1.841   3.648
  980SOL    HW1 3839   4.995   1.756   3.625
  980SOL    HW2 3840   5.139   1.833   3.627
  981SOL     OW 3841   1.123   1.793   4.856
  981SOL    HW1 3842   1.108   1.800   4.954
  981SOL    HW2 3843   1.036   1.811   4.808
  982SOL     OW 3844   1.875   2.830   3.139
  982SOL    HW1 3845   1.971   2.821   3.166
  982SOL    HW2 3846   1.830   2.740   3.146
  983SOL     OW 3847   5.952   2.833   3.658
  983SOL    HW1 3848   5.889   2.862   3.730
  983SOL    HW2 3849   6.031   2.894   3.655
  984SOL     OW 3850   3.359   0.561   5.098
  984SOL    HW1 3851   3.442   0.526   5.054
  984SOL    HW2 3852   3.309   0.618   5.033
  985SOL     OW 3853   5.202   4.881   6.575
  985SOL    HW1 3854   5.159   4.820   6.642
  985SOL    HW2 3855   5.153   4.874   6.488
  986SOL     OW 3856   5.055   5.205   0.386
  986SOL    HW1 3857   5.027   5.206   0.482
  986SOL    HW2 3858   5.081   5.297   0.358
  987SOL     OW 3859   3.947   6.589   1.074
  987SOL    HW1 3860   3.941   6.628   1.165
  987SOL    HW2 3861   3.964   6.491   1.080
  988SOL     OW 3862   4.085   2.885   1.533
  988SOL    HW1 3863   4.086   2.928   1.624
  988SOL    HW2 3864   3.990   2.866   1.507
  989SOL     OW 3865   0.238   0.724   5.948
  989SOL    HW1 3866   0.183   0.756   5.871
  989SOL    HW2 3867   0.239   0.624   5.949
  990SOL     OW 3868   4.792   0.202   3.612
  990SOL    HW1 3869   4.836   0.208   3.523
  990SOL    HW2 3870   4.861   0.182   3.682
  991SOL     OW 3871   1.619   1.799   5.005
  991SOL    HW1 3872   1.590   1.741   5.080
  991SOL    HW2 3873   1.716   1.822   5.016
  992SOL     OW 3874   0.950   3.281   0.512
  992SOL    HW1 3875   0.891   3.202   0.528
  992SOL    HW2 3876   1.040   3.264   0.550
  993SOL     OW 3877   2.268   5.609   2.325
  993SOL    HW1 3878   2.250   5.704   2.351
  993SOL    HW2 3879   2.185   5.554   2.339
  994SOL     OW 3880   3.662   3.786   2.516
  994SOL    HW1 3881   3.715   3.755   2.595
  994SOL    HW2 3882   3.568   3.750   2.522
  995SOL     OW 3883   2.497   2.230   6.328
  995SOL    HW1 3884   2.558   2.152   6.347
  995SOL    HW2 3885   2.402   2.197   6.324
  996SOL     OW 3886   1.836   4.042   3.737
  996SOL    HW1 3887   1.790   3.972   3.791
  996SOL    HW2 3888   1.879   4.109   3.798
  997SOL     OW 3889   6.779   6.838   1.169
  997SOL    HW1 3890   6.877   6.826   1.153
  997SOL    HW2 3891   6.748   6.922   1.124
  998SOL     OW 3892   4.645   7.001   3.658
  998SOL    HW1 3893   4.578   7.014   3.731
  998SOL    HW2 3894   4.693   0.058   3.641
  999SOL     OW 3895   5.553   5.463   1.256
  999SOL    HW1 3896   5.564   5.388   1.321
  999SOL    HW2 3897   5.623   5.533   1.273
 1000SOL     OW 3898   0.912   0.876   2.433
 1000SOL    HW1 3899   0.999   0.848   2.474
 1000SOL    HW2 3900   0.930   0.925   2.348
 1001SOL     OW 3901   4.674   6.495   6.774
 1001SOL    HW1 3902   4.732   6.415   6.791
 1001SOL    HW2 3903   4.614   6.476   6.696
 1002SOL     OW 3904   5.596   1.778   6.620
 1002SOL    HW1 3905   5.523   1.737   6.566
 1002SOL    HW2 3906   5.577   1.766   6.717
 1003SOL     OW 3907   2.826   6.753   1.655
 1003SOL    HW1 3908   2.865   6.661   1.650
 1003SOL    HW2 3909   2.781   6.776   1.569
 1004SOL     OW 3910   6.886   0.716   0.788
 1004SOL    HW1 3911   6.892   0.741   0.885
 1004SOL    HW2 3912   6.790   0.714   0.760
 1005SOL     OW 3913   6.981   1.122   3.084
 1005SOL    HW1 3914   7.024   1.192   3.028
 1005SOL    HW2 3915   6.894   1.155   3.120
 1006SOL     OW 3916   2.582   6.115   1.760
 1006SOL    HW1 3917   2.601   6.087   1.854
 1006SOL    HW2 3918   2.541   6.206   1.759
 1007SOL     OW 3919   6.181   6.869   3.579
 1007SOL    HW1 3920   6.267   6.831   3.612
 1007SOL    HW2 3921   6.188   6.885   3.480
 1008SOL     OW 3922   1.775   2.954   4.328
 1008SOL    HW1 3923   1.845   2.882   4.327
 1008SOL    HW2 3924   1.684   2.912   4.329
 1009SOL     OW 3925   0.307   5.828   4.056
 1009SOL    HW1 3926   0.295   5.917   4.013
 1009SOL    HW2 3927   0.221   5.801   4.100
 1010SOL     OW 3928   3.784   2.537   6.773
 1010SOL    HW1 3929   3.690   2.533   6.741
 1010SOL    HW2 3930   3.814   2.633   6.780
 1011SOL     OW 3931   2.741   5.539   2.743
 1011SOL    HW1 3932   2.823   5.493   2.775
 1011SOL    HW2 3933   2.698   5.485   2.671
 1012SOL     OW 3934   6.931   5.877   0.522
 1012SOL    HW1 3935   6.895   5.821   0.596
 1012SOL    HW2 3936   7.021   5.844   0.496
 1013SOL     OW 3937   0.353   1.199   6.590
 1013SOL    HW1 3938   0.260   1.174   6.564
 1013SOL    HW2 3939   0.353   1.293   6.626
 1014SOL     OW 3940   5.204   5.668   0.174
 1014SOL    HW1 3941   5.190   5.764   0.198
 1014SOL    HW2 3942   5.267   5.661   0.097
 1015SOL     OW 3943   2.568   6.896   5.425
 1015SOL    HW1 3944   2.555   6.974   5.364
 1015SOL    HW2 3945   2.660   6.860   5.414
 1016SOL     OW 3946   2.297   3.126   0.727
 1016SOL    HW1 3947   2.270   3.150   0.820
 1016SOL    HW2 3948   2.231   3.166   0.662
 1017SOL     OW 3949   4.583   2.669   0.686
 1017SOL    HW1 3950   4.544   2.666   0.778
 1017SOL    HW2 3951   4.667   2.724   0.687
 1018SOL     OW 3952   1.841   3.510   3.900
 1018SOL    HW1 3953   1.846   3.570   3.820
 1018SOL    HW2 3954   1.933   3.499   3.939
 1019SOL     OW 3955   0.997   0.555   0.676
 1019SOL    HW1 3956   1.082   0.581   0.631
 1019SOL    HW2 3957   0.937   0.507   0.612
 1020SOL     OW 3958   2.155   6.522   1.271
 1020SOL    HW1 3959   2.167   6.576   1.355
 1020SOL    HW2 3960   2.075   6.556   1.221
 1021SOL     OW 3961   6.428   0.908   0.592
 1021SOL    HW1 3962   6.407   0.956   0.506
 1021SOL    HW2 3963   6.462   0.973   0.659
 1022SOL     OW 3964   4.164   4.533   6.149
 1022SOL    HW1 3965   4.069   4.529   6.179
 1022SOL    HW2 3966   4.179   4.466   6.077
 1023SOL     OW 3967   6.275   0.452   2.540
 1023SOL    HW1 3968   6.214   0.456   2.619
 1023SOL    HW2 3969   6.325   0.365   2.541
 1024SOL     OW 3970   6.539   2.934   4.122
 1024SOL    HW1 3971   6.458   2.892   4.165
 1024SOL    HW2 3972   6.593   2.980   4.193
 1025SOL     OW 3973   3.503   4.066   0.061
 1025SOL    HW1 3974   3.575   4.117   0.107
 1025SOL    HW2 3975   3.414   4.102   0.087
 1026SOL     OW 3976   1.398   2.040   0.809
 1026SOL    HW1 3977   1.399   2.130   0.853
 1026SOL    HW2 3978   1.306   2.002   0.813
 1027SOL     OW 3979   3.140   6.058   1.114
 1027SOL    HW1 3980   3.107   6.015   1.198
 1027SOL    HW2 3981   3.147   5.989   1.041
 1028SOL     OW 3982   3.343   5.886   6.791
 1028SOL    HW1 3983   3.275   5.813   6.786
 1028SOL    HW2 3984   3.314   5.953   6.859
 1029SOL     OW 3985   2.045   0.313   0.427
 1029SOL    HW1 3986   2.018   0.336   0.520
 1029SOL    HW2 3987   2.145   0.306   0.422
 1030SOL     OW 3988   3.104   3.040   2.675
 1030SOL    HW1 3989   3.042   3.114   2.699
 1030SOL    HW2 3990   3.105   3.028   2.576
 1031SOL     OW 3991   4.847   5.004   0.700
 1031SOL    HW1 3992   4.852   4.973   0.605
 1031SOL    HW2 3993   4.865   4.927   0.762
 1032SOL     OW 3994   1.520   1.647   4.796
 1032SOL    HW1 3995   1.438   1.606   4.837
 1032SOL    HW2 3996   1.555   1.719   4.855
 1033SOL     OW 3997   1.328   6.754   1.334
 1033SOL    HW1 3998   1.236   6.752   1.373
 1033SOL    HW2 3999   1.322   6.779   1.237
 1034SOL     OW 4000   1.479   6.427   4.787
 1034SOL    HW1 4001   1.382   6.423   4.766
 1034SOL    HW2 4002   1.494   6.399   4.882
 1035SOL     OW 4003   3.067   1.809   3.485
 1035SOL    HW1 4004   3.124   1.785   3.563
 1035SOL    HW2 4005   3.045   1.726   3.433
 1036SOL     OW 4006   2.903   0.513   0.934
 1036SOL    HW1 4007   2.986   0.460   0.917
 1036SOL    HW2 4008   2.928   0.605   0.964
 1037SOL     OW 4009   1.253   1.094   1.512
 1037SOL    HW1 4010   1.230   1.144   1.595
 1037SOL    HW2 4011   1.272   1.158   1.438
 1038SOL     OW 4012   1.178   0.834   5.886
 1038SOL    HW1 4013   1.259   0.842   5.827
 1038SOL    HW2 4014   1.148   0.925   5.913
 1039SOL     OW 4015   4.386   2.575   5.680
 1039SOL    HW1 4016   4.288   2.559   5.680
 1039SOL    HW2 4017   4.433   2.492   5.712
 1040SOL     OW 4018   5.265   3.300   3.011
 1040SOL    HW1 4019   5.199   3.295   2.936
 1040SOL    HW2 4020   5.288   3.396   3.030
 1041SOL     OW 4021   6.578   6.918   4.098
 1041SOL    HW1 4022   6.636   6.948   4.174
 1041SOL    HW2 4023   6.575   6.818   4.097
 1042SOL     OW 4024   3.233   4.879   2.200
 1042SOL    HW1 4025   3.143   4.866   2.158
 1042SOL    HW2 4026   3.226   4.864   2.299
 1043SOL     OW 4027   4.427   1.098   5.721
 1043SOL    HW1 4028   4.512   1.075   5.675
 1043SOL    HW2 4029   4.443   1.170   5.788
 1044SOL     OW 4030   4.248   2.560   1.734
 1044SOL    HW1 4031   4.282   2.469   1.712
 1044SOL    HW2 4032   4.150   2.564   1.717
 1045SOL     OW 4033   2.884   0.250   1.500
 1045SOL    HW1 4034   2.890   0.182   1.573
 1045SOL    HW2 4035   2.815   0.221   1.434
 1046SOL     OW 4036   2.027   6.902   6.834
 1046SOL    HW1 4037   2.038   6.804   6.816
 1046SOL    HW2 4038   1.996   6.947   6.751
 1047SOL     OW 4039   1.493   5.278   2.829
 1047SOL    HW1 4040   1.413   5.335   2.809
 1047SOL    HW2 4041   1.571   5.310   2.776
 1048SOL     OW 4042   4.366   5.378   5.510
 1048SOL    HW1 4043   4.449   5.326   5.531
 1048SOL    HW2 4044   4.313   5.393   5.593
 1049SOL     OW 4045   6.955   4.288   4.919
 1049SOL    HW1 4046   6.914   4.240   4.841
 1049SOL    HW2 4047   6.892   4.358   4.951
 1050SOL     OW 4048   2.913   5.391   1.193
 1050SOL    HW1 4049   2.929   5.400   1.095
 1050SOL    HW2 4050   2.842   5.456   1.221
 1051SOL     OW 4051   3.612   4.560   7.023
 1051SOL    HW1 4052   3.536   4.592   0.050
 1051SOL    HW2 4053   3.654   4.637   6.975
 1052SOL     OW 4054   4.442   0.285   4.033
 1052SOL    HW1 4055   4.482   0.371   3.999
 1052SOL    HW2 4056   4.344   0.285   4.015
 1053SOL     OW 4057   5.510   5.928   3.350
 1053SOL    HW1 4058   5.435   5.901   3.411
 1053SOL    HW2 4059   5.539   6.021   3.372
 1054SOL     OW 4060   2.391   4.701   5.281
 1054SOL    HW1 4061   2.378   4.763   5.204
 1054SOL    HW2 4062   2.458   4.631   5.256
 1055SOL     OW 4063   5.423   6.822   4.383
 1055SOL    HW1 4064   5.448   6.845   4.477
 1055SOL    HW2 4065   5.496   6.850   4.321
 1056SOL     OW 4066   1.647   6.095   5.257
 1056SOL    HW1 4067   1.620   6.032   5.184
 1056SOL    HW2 4068   1.689   6.044   5.332
 1057SOL     OW 4069   3.460   3.967   3.035
 1057SOL    HW1 4070   3.366   3.998   3.051
 1057SOL    HW2 4071   3.486   3.984   2.940
 1058SOL     OW 4072   4.838   1.453   2.689
 1058SOL    HW1 4073   4.845   1.531   2.626
 1058SOL    HW2 4074   4.927   1.408   2.696
 1059SOL     OW 4075   3.145   0.526   2.100
 1059SOL    HW1 4076   3.224   0.519   2.038
 1059SOL    HW2 4077   3.062   0.498   2.051
 1060SOL     OW 4078   6.918   3.506   5.263
 1060SOL    HW1 4079   6.967   3.593   5.258
 1060SOL    HW2 4080   6.835   3.518   5.317
 1061SOL     OW 4081   4.739   4.310   1.343
 1061SOL    HW1 4082   4.676   4.241   1.376
 1061SOL    HW2 4083   4.827   4.300   1.390
 1062SOL     OW 4084   6.514   5.843   6.105
 1062SOL    HW1 4085   6.459   5.791   6.171
 1062SOL    HW2 4086   6.522   5.790   6.020
 1063SOL     OW 4087   1.040   4.165   1.095
 1063SOL    HW1 4088   1.031   4.177   1.194
 1063SOL    HW2 4089   0.961   4.204   1.049
 1064SOL     OW 4090   0.743   4.215   2.428
 1064SOL    HW1 4091   0.763   4.309   2.455
 1064SOL    HW2 4092   0.747   4.206   2.329
 1065SOL     OW 4093   4.597   0.729   5.084
 1065SOL    HW1 4094   4.656   0.748   5.162
 1065SOL    HW2 4095   4.534   0.654   5.106
 1066SOL     OW 4096   5.366   0.764   4.070
 1066SOL    HW1 4097   5.356   0.861   4.093
 1066SOL    HW2 4098   5.318   0.708   4.137
 1067SOL     OW 4099   1.679   2.859   0.339
 1067SOL    HW1 4100   1.613   2.784   0.346
 1067SOL    HW2 4101   1.642   2.940   0.384
 1068SOL     OW 4102   5.620   3.893   1.783
 1068SOL    HW1 4103   5.578   3.808   1.753
 1068SOL    HW2 4104   5.550   3.964   1.792
 1069SOL     OW 4105   5.257   5.144   1.350
 1069SOL    HW1 4106   5.183   5.093   1.306
 1069SOL    HW2 4107   5.325   5.170   1.281
 1070SOL     OW 4108   0.952   1.313   6.921
 1070SOL    HW1 4109   1.008   1.253   6.978
 1070SOL    HW2 4110   1.001   1.333   6.835
 1071SOL     OW 4111   4.050   0.495   3.461
 1071SOL    HW1 4112   4.040   0.595   3.455
 1071SOL    HW2 4113   4.132   0.466   3.412
 1072SOL     OW 4114   1.846   6.230   2.056
 1072SOL    HW1 4115   1.771   6.296   2.067
 1072SOL    HW2 4116   1.821   6.144   2.102
 1073SOL     OW 4117   3.882   5.696   2.549
 1073SOL    HW1 4118   3.871   5.665   2.643
 1073SOL    HW2 4119   3.904   5.617   2.491
 1074SOL     OW 4120   2.059   5.684   1.825
 1074SOL    HW1 4121   2.119   5.671   1.903
 1074SOL    HW2 4122   1.965   5.661   1.851
 1075SOL     OW 4123   4.694   5.283   3.503
 1075SOL    HW1 4124   4.684   5.263   3.406
 1075SOL    HW2 4125   4.622   5.237   3.555
 1076SOL     OW 4126   0.668   4.375   4.894
 1076SOL    HW1 4127   0.648   4.294   4.838
 1076SOL    HW2 4128   0.616   4.453   4.858
 1077SOL     OW 4129   5.901   0.222   0.089
 1077SOL    HW1 4130   5.957   0.148   0.125
 1077SOL    HW2 4131   5.820   0.234   0.147
 1078SOL     OW 4132   1.548   1.010   2.158
 1078SOL    HW1 4133   1.604   0.979   2.235
 1078SOL    HW2 4134   1.482   1.078   2.191
 1079SOL     OW 4135   1.769   5.143   2.991
 1079SOL    HW1 4136   1.839   5.211   3.012
 1079SOL    HW2 4137   1.765   5.129   2.892
 1080SOL     OW 4138   1.553   4.303   3.396
 1080SOL    HW1 4139   1.548   4.225   3.458
 1080SOL    HW2 4140   1.509   4.382   3.438
 1081SOL     OW 4141   0.381   1.274   5.298
 1081SOL    HW1 4142   0.470   1.234   5.320
 1081SOL    HW2 4143   0.349   1.330   5.374
 1082SOL     OW 4144   1.586   0.219   6.013
 1082SOL    HW1 4145   1.489   0.239   5.998
 1082SOL    HW2 4146   1.607   0.229   6.110
 1083SOL     OW 4147   3.550   3.981   2.114
 1083SOL    HW1 4148   3.592   4.007   2.200
 1083SOL    HW2 4149   3.587   4.038   2.040
 1084SOL     OW 4150   6.570   5.767   1.016
 1084SOL    HW1 4151   6.554   5.679   0.972
 1084SOL    HW2 4152   6.663   5.770   1.053
 1085SOL     OW 4153   1.937   3.797   3.308
 1085SOL    HW1 4154   2.019   3.777   3.362
 1085SOL    HW2 4155   1.920   3.896   3.309
 1086SOL     OW 4156   6.125   5.722   3.203
 1086SOL    HW1 4157   6.219   5.690   3.195
 1086SOL    HW2 4158   6.064   5.660   3.153
 1087SOL     OW 4159   5.606   3.041   5.632
 1087SOL    HW1 4160   5.643   3.108   5.696
 1087SOL    HW2 4161   5.515   3.071   5.602
 1088SOL     OW 4162   6.466   4.914   3.576
 1088SOL    HW1 4163   6.483   4.984   3.645
 1088SOL    HW2 4164   6.482   4.952   3.485
 1089SOL     OW 4165   1.062   0.506   4.677
 1089SOL    HW1 4166   1.077   0.592   4.629
 1089SOL    HW2 4167   1.056   0.431   4.611
 1090SOL     OW 4168   2.847   1.286   4.014
 1090SOL    HW1 4169   2.901   1.348   3.958
 1090SOL    HW2 4170   2.764   1.332   4.044
 1091SOL     OW 4171   1.880   1.533   4.117
 1091SOL    HW1 4172   1.789   1.568   4.098
 1091SOL    HW2 4173   1.918   1.493   4.034
 1092SOL     OW 4174   2.213   3.575   1.142
 1092SOL    HW1 4175   2.163   3.660   1.161
 1092SOL    HW2 4176   2.224   3.524   1.227
 1093SOL     OW 4177   2.312   1.391   3.148
 1093SOL    HW1 4178   2.245   1.325   3.184
 1093SOL    HW2 4179   2.264   1.469   3.109
 1094SOL     OW 4180   6.781   6.748   2.605
 1094SOL    HW1 4181   6.838   6.830   2.599
 1094SOL    HW2 4182   6.839   6.669   2.625
 1095SOL     OW 4183   6.708   2.351   5.732
 1095SOL    HW1 4184   6.775   2.313   5.796
 1095SOL    HW2 4185   6.684   2.282   5.665
 1096SOL     OW 4186   3.621   4.583   1.326
 1096SOL    HW1 4187   3.531   4.594   1.283
 1096SOL    HW2 4188   3.685   4.546   1.259
 1097SOL     OW 4189   1.002   4.177   4.768
 1097SOL    HW1 4190   1.020   4.126   4.684
 1097SOL    HW2 4191   0.961   4.265   4.746
 1098SOL     OW 4192   5.464   2.630   1.076
 1098SOL    HW1 4193   5.408   2.674   1.006
 1098SOL    HW2 4194   5.544   2.687   1.096
 1099SOL     OW 4195   4.461   1.325   4.548
 1099SOL    HW1 4196   4.463   1.272   4.464
 1099SOL    HW2 4197   4.427   1.417   4.529
 1100SOL     OW 4198   1.758   1.682   6.362
 1100SOL    HW1 4199   1.686   1.614   6.378
 1100SOL    HW2 4200   1.741   1.762   6.420
 1101SOL     OW 4201   5.302   2.541   1.316
 1101SOL    HW1 4202   5.318   2.488   1.399
 1101SOL    HW2 4203   5.377   2.527   1.251
 1102SOL     OW 4204   1.563   4.980   3.045
 1102SOL    HW1 4205   1.621   5.056   3.015
 1102SOL    HW2 4206   1.550   4.985   3.144
 1103SOL     OW 4207   2.343   0.700   1.154
 1103SOL    HW1 4208   2.269   0.709   1.087
 1103SOL    HW2 4209   2.381   0.791   1.173
 1104SOL     OW 4210   1.652   3.984   6.275
 1104SOL    HW1 4211   1.716   4.030   6.337
 1104SOL    HW2 4212   1.683   3.891   6.259
 1105SOL     OW 4213   5.010   3.606   5.836
 1105SOL    HW1 4214   4.945   3.541   5.875
 1105SOL    HW2 4215   5.081   3.627   5.903
 1106SOL     OW 4216   1.313   1.771   0.225
 1106SOL    HW1 4217   1.216   1.782   0.206
 1106SOL    HW2 4218   1.355   1.861   0.239
 1107SOL     OW 4219   0.548   0.286   6.776
 1107SOL    HW1 4220   0.475   0.222   6.755
 1107SOL    HW2 4221   0.521   0.341   6.856
 1108SOL     OW 4222   2.745   0.228   5.915
 1108SOL    HW1 4223   2.703   0.280   5.840
 1108SOL    HW2 4224   2.735   0.130   5.896
 1109SOL     OW 4225   4.299   5.714   4.795
 1109SOL    HW1 4226   4.308   5.813   4.788
 1109SOL    HW2 4227   4.345   5.671   4.717
 1110SOL     OW 4228   3.198   1.736   2.268
 1110SOL    HW1 4229   3.247   1.816   2.232
 1110SOL    HW2 4230   3.102   1.759   2.281
 1111SOL     OW 4231   5.411   6.005   0.297
 1111SOL    HW1 4232   5.440   6.099   0.311
 1111SOL    HW2 4233   5.484   5.954   0.252
 1112SOL     OW 4234   6.153   1.229   2.657
 1112SOL    HW1 4235   6.202   1.299   2.605
 1112SOL    HW2 4236   6.092   1.178   2.596
 1113SOL     OW 4237   6.105   3.186   2.633
 1113SOL    HW1 4238   6.032   3.245   2.668
 1113SOL    HW2 4239   6.193   3.226   2.656
 1114SOL     OW 4240   4.506   0.777   6.323
 1114SOL    HW1 4241   4.427   0.764   6.382
 1114SOL    HW2 4242   4.585   0.730   6.362
 1115SOL     OW 4243   4.632   3.460   0.250
 1115SOL    HW1 4244   4.609   3.424   0.340
 1115SOL    HW2 4245   4.712   3.520   0.258
 1116SOL     OW 4246   5.201   5.721   4.259
 1116SOL    HW1 4247   5.187   5.770   4.345
 1116SOL    HW2 4248   5.133   5.648   4.251
 1117SOL     OW 4249   2.755   2.649   1.496
 1117SOL    HW1 4250   2.839   2.704   1.493
 1117SOL    HW2 4251   2.760   2.584   1.572
 1118SOL     OW 4252   1.365   5.197   2.221
 1118SOL    HW1 4253   1.383   5.203   2.319
 1118SOL    HW2 4254   1.332   5.286   2.188
 1119SOL     OW 4255   3.867   3.942   1.044
 1119SOL    HW1 4256   3.802   3.999   1.095
 1119SOL    HW2 4257   3.819   3.896   0.969
 1120SOL     OW 4258   5.479   6.534   5.977
 1120SOL    HW1 4259   5.495   6.514   5.881
 1120SOL    HW2 4260   5.530   6.615   6.004
 1121SOL     OW 4261   5.122   3.408   2.773
 1121SOL    HW1 4262   5.095   3.367   2.686
 1121SOL    HW2 4263   5.047   3.398   2.839
 1122SOL     OW 4264   5.230   2.980   5.921
 1122SOL    HW1 4265   5.313   3.035   5.921
 1122SOL    HW2 4266   5.195   2.972   5.827
 1123SOL     OW 4267   4.796   1.639   2.481
 1123SOL    HW1 4268   4.724   1.574   2.461
 1123SOL    HW2 4269   4.818   1.692   2.399
 1124SOL     OW 4270   6.754   4.095   5.223
 1124SOL    HW1 4271   6.730   4.008   5.180
 1124SOL    HW2 4272   6.853   4.105   5.227
 1125SOL     OW 4273   2.667   2.080   5.134
 1125SOL    HW1 4274   2.641   2.139   5.210
 1125SOL    HW2 4275   2.586   2.036   5.096
 1126SOL     OW 4276   4.912   0.237   6.819
 1126SOL    HW1 4277   4.901   0.187   6.733
 1126SOL    HW2 4278   4.880   0.180   6.895
 1127SOL     OW 4279   3.592   5.257   5.385
 1127SOL    HW1 4280   3.503   5.228   5.349
 1127SOL    HW2 4281   3.579   5.313   5.466
 1128SOL     OW 4282   4.739   2.321   4.768
 1128SOL    HW1 4283   4.748   2.397   4.832
 1128SOL    HW2 4284   4.683   2.350   4.690
 1129SOL     OW 4285   3.941   6.825   0.043
 1129SOL    HW1 4286   4.002   6.864   7.003
 1129SOL    HW2 4287   3.963   6.729   0.057
 1130SOL     OW 4288   1.666   4.197   0.503
 1130SOL    HW1 4289   1.705   4.151   0.423
 1130SOL    HW2 4290   1.739   4.241   0.555
 1131SOL     OW 4291   0.238   6.243   5.786
 1131SOL    HW1 4292   0.221   6.145   5.777
 1131SOL    HW2 4293   0.185   6.292   5.716
 1132SOL     OW 4294   4.422   0.232   6.758
 1132SOL    HW1 4295   4.390   0.161   6.695
 1132SOL    HW2 4296   4.485   0.191   6.824
 1133SOL     OW 4297   6.687   2.382   0.905
 1133SOL    HW1 4298   6.693   2.328   0.988
 1133SOL    HW2 4299   6.594   2.415   0.893
 1134SOL     OW 4300   5.833   2.221   0.225
 1134SOL    HW1 4301   5.745   2.267   0.232
 1134SOL    HW2 4302   5.819   2.123   0.208
 1135SOL     OW 4303   2.946   1.985   2.559
 1135SOL    HW1 4304   2.937   2.083   2.580
 1135SOL    HW2 4305   2.923   1.931   2.640
 1136SOL     OW 4306   3.020   4.932   4.556
 1136SOL    HW1 4307   3.112   4.945   4.593
 1136SOL    HW2 4308   2.965   4.881   4.623
 1137SOL     OW 4309   1.112   3.089   0.169
 1137SOL    HW1 4310   1.035   3.153   0.168
 1137SOL    HW2 4311   1.080   2.999   0.199
 1138SOL     OW 4312   1.960   1.894   5.900
 1138SOL    HW1 4313   1.988   1.799   5.913
 1138SOL    HW2 4314   1.895   1.899   5.824
 1139SOL     OW 4315   2.547   6.739   2.525
 1139SOL    HW1 4316   2.474   6.720   2.591
 1139SOL    HW2 4317   2.622   6.786   2.571
 1140SOL     OW 4318   4.018   2.199   2.324
 1140SOL    HW1 4319   4.016   2.184   2.423
 1140SOL    HW2 4320   3.981   2.118   2.277
 1141SOL     OW 4321   6.541   6.044   5.777
 1141SOL    HW1 4322   6.586   5.980   5.714
 1141SOL    HW2 4323   6.452   6.007   5.804
 1142SOL     OW 4324   4.757   0.809   5.288
 1142SOL    HW1 4325   4.845   0.840   5.253
 1142SOL    HW2 4326   4.699   0.889   5.308
 1143SOL     OW 4327   3.475   2.097   2.686
 1143SOL    HW1 4328   3.566   2.123   2.719
 1143SOL    HW2 4329   3.481   2.065   2.592
 1144SOL     OW 4330   6.765   4.296   4.689
 1144SOL    HW1 4331   6.766   4.392   4.659
 1144SOL    HW2 4332   6.674   4.273   4.724
 1145SOL     OW 4333   0.374   5.187   3.404
 1145SOL    HW1 4334   0.353   5.266   3.461
 1145SOL    HW2 4335   0.294   5.163   3.348
 1146SOL     OW 4336   5.274   0.955   1.336
 1146SOL    HW1 4337   5.359   0.997   1.305
 1146SOL    HW2 4338   5.218   0.929   1.258
 1147SOL     OW 4339   1.215   4.064   0.813
 1147SOL    HW1 4340   1.279   4.141   0.820
 1147SOL    HW2 4341   1.236   3.998   0.885
 1148SOL     OW 4342   2.455   6.423   6.956
 1148SOL    HW1 4343   2.547   6.383   6.949
 1148SOL    HW2 4344   2.388   6.350   6.969
 1149SOL     OW 4345   5.288   3.551   3.104
 1149SOL    HW1 4346   5.348   3.631   3.114
 1149SOL    HW2 4347   5.203   3.577   3.059
 1150SOL     OW 4348   2.096   4.219   1.348
 1150SOL    HW1 4349   2.178   4.247   1.399
 1150SOL    HW2 4350   2.072   4.291   1.282
 1151SOL     OW 4351   5.343   5.854   6.489
 1151SOL    HW1 4352   5.371   5.832   6.396
 1151SOL    HW2 4353   5.318   5.771   6.538
 1152SOL     OW 4354   0.962   6.912   5.280
 1152SOL    HW1 4355   1.035   6.948   5.338
 1152SOL    HW2 4356   0.878   6.965   5.295
 1153SOL     OW 4357   3.256   6.639   2.399
 1153SOL    HW1 4358   3.326   6.689   2.349
 1153SOL    HW2 4359   3.299   6.584   2.471
 1154SOL     OW 4360   0.374   3.462   1.727
 1154SOL    HW1 4361   0.429   3.393   1.681
 1154SOL    HW2 4362   0.278   3.434   1.729
 1155SOL     OW 4363   3.625   5.389   6.577
 1155SOL    HW1 4364   3.618   5.305   6.631
 1155SOL    HW2 4365   3.535   5.434   6.575
 1156SOL     OW 4366   2.208   0.546   4.351
 1156SOL    HW1 4367   2.262   0.567   4.270
 1156SOL    HW2 4368   2.205   0.627   4.411
 1157SOL     OW 4369   6.625   2.401   4.418
 1157SOL    HW1 4370   6.633   2.318   4.362
 1157SOL    HW2 4371   6.715   2.443   4.427
 1158SOL     OW 4372   6.287   5.324   5.456
 1158SOL    HW1 4373   6.333   5.277   5.381
 1158SOL    HW2 4374   6.266   5.418   5.430
 1159SOL     OW 4375   4.636   0.554   2.859
 1159SOL    HW1 4376   4.630   0.647   2.895
 1159SOL    HW2 4377   4.589   0.491   2.922
 1160SOL     OW 4378   3.271   3.781   1.410
 1160SOL    HW1 4379   3.357   3.833   1.406
 1160SOL    HW2 4380   3.291   3.684   1.422
 1161SOL     OW 4381   4.983   0.087   5.131
 1161SOL    HW1 4382   5.080   0.085   5.155
 1161SOL    HW2 4383   4.965   0.163   5.069
 1162SOL     OW 4384   3.688   3.181   0.488
 1162SOL    HW1 4385   3.746   3.238   0.430
 1162SOL    HW2 4386   3.592   3.194   0.464
 1163SOL     OW 4387   5.413   2.150   1.992
 1163SOL    HW1 4388   5.342   2.189   2.051
 1163SOL    HW2 4389   5.374   2.077   1.937
 1164SOL     OW 4390   5.747   2.787   4.006
 1164SOL    HW1 4391   5.706   2.847   3.937
 1164SOL    HW2 4392   5.681   2.771   4.080
 1165SOL     OW 4393   1.976   4.189   3.564
 1165SOL    HW1 4394   1.928   4.131   3.630
 1165SOL    HW2 4395   2.065   4.149   3.543
 1166SOL     OW 4396   3.768   0.768   6.785
 1166SOL    HW1 4397   3.813   0.837   6.842
 1166SOL    HW2 4398   3.706   0.813   6.721
 1167SOL     OW 4399   3.015   0.252   6.001
 1167SOL    HW1 4400   3.023   0.153   6.015
 1167SOL    HW2 4401   2.919   0.275   5.985
 1168SOL     OW 4402   5.906   0.173   2.303
 1168SOL    HW1 4403   5.994   0.215   2.282
 1168SOL    HW2 4404   5.905   0.078   2.271
 1169SOL     OW 4405   0.545   3.214   0.504
 1169SOL    HW1 4406   0.539   3.303   0.550
 1169SOL    HW2 4407   0.515   3.223   0.409
 1170SOL     OW 4408   3.902   0.839   1.898
 1170SOL    HW1 4409   3.992   0.861   1.935
 1170SOL    HW2 4410   3.879   0.744   1.920
 1171SOL     OW 4411   2.514   5.800   0.465
 1171SOL    HW1 4412   2.602   5.823   0.506
 1171SOL    HW2 4413   2.441   5.817   0.531
 1172SOL     OW 4414   3.257   4.105   3.528
 1172SOL    HW1 4415   3.211   4.023   3.494
 1172SOL    HW2 4416   3.301   4.152   3.451
 1173SOL     OW 4417   3.461   6.532   5.742
 1173SOL    HW1 4418   3.401   6.457   5.717
 1173SOL    HW2 4419   3.556   6.505   5.730
 1174SOL     OW 4420   2.985   5.730   0.978
 1174SOL    HW1 4421   3.029   5.641   0.974
 1174SOL    HW2 4422   2.955   5.747   1.072
 1175SOL     OW 4423   5.139   3.844   6.856
 1175SOL    HW1 4424   5.092   3.798   6.931
 1175SOL    HW2 4425   5.232   3.867   6.885
 1176SOL     OW 4426   6.134   4.793   0.355
 1176SOL    HW1 4427   6.138   4.888   0.324
 1176SOL    HW2 4428   6.126   4.792   0.455
 1177SOL     OW 4429   0.262   2.247   5.201
 1177SOL    HW1 4430   0.216   2.288   5.281
 1177SOL    HW2 4431   0.206   2.171   5.167
 1178SOL     OW 4432   4.705   3.794   1.567
 1178SOL    HW1 4433   4.728   3.890   1.588
 1178SOL    HW2 4434   4.766   3.760   1.495
 1179SOL     OW 4435   2.644   4.767   0.405
 1179SOL    HW1 4436   2.707   4.826   0.454
 1179SOL    HW2 4437   2.560   4.756   0.458
 1180SOL     OW 4438   2.761   0.682   4.010
 1180SOL    HW1 4439   2.670   0.719   3.995
 1180SOL    HW2 4440   2.799   0.650   3.922
 1181SOL     OW 4441   0.779   3.292   4.529
 1181SOL    HW1 4442   0.830   3.333   4.454
 1181SOL    HW2 4443   0.836   3.222   4.573
 1182SOL     OW 4444   2.131   4.813   2.886
 1182SOL    HW1 4445   2.131   4.787   2.790
 1182SOL    HW2 4446   2.218   4.856   2.909
 1183SOL     OW 4447   4.256   5.188   2.304
 1183SOL    HW1 4448   4.295   5.115   2.360
 1183SOL    HW2 4449   4.211   5.148   2.224
 1184SOL     OW 4450   3.718   2.350   5.420
 1184SOL    HW1 4451   3.634   2.399   5.397
 1184SOL    HW2 4452   3.707   2.302   5.507
 1185SOL     OW 4453   2.298   0.562   0.538
 1185SOL    HW1 4454   2.370   0.492   0.546
 1185SOL    HW2 4455   2.341   0.652   0.530
 1186SOL     OW 4456   6.011   0.335   6.178
 1186SOL    HW1 4457   6.082   0.340   6.108
 1186SOL    HW2 4458   5.995   0.239   6.203
 1187SOL     OW 4459   5.205   6.171   5.395
 1187SOL    HW1 4460   5.262   6.120   5.460
 1187SOL    HW2 4461   5.232   6.267   5.395
 1188SOL     OW 4462   3.227   6.405   6.467
 1188SOL    HW1 4463   3.161   6.434   6.536
 1188SOL    HW2 4464   3.236   6.476   6.397
 1189SOL     OW 4465   5.072   1.479   2.113
 1189SOL    HW1 4466   5.119   1.440   2.192
 1189SOL    HW2 4467   4.985   1.432   2.100
 1190SOL     OW 4468   4.077   5.059   4.567
 1190SOL    HW1 4469   4.022   5.040   4.649
 1190SOL    HW2 4470   4.016   5.066   4.488
 1191SOL     OW 4471   3.592   5.398   5.667
 1191SOL    HW1 4472   3.505   5.379   5.712
 1191SOL    HW2 4473   3.578   5.467   5.595
 1192SOL     OW 4474   5.636   4.996   3.125
 1192SOL    HW1 4475   5.692   4.975   3.045
 1192SOL    HW2 4476   5.691   5.047   3.191
 1193SOL     OW 4477   6.439   0.365   4.001
 1193SOL    HW1 4478   6.491   0.423   3.938
 1193SOL    HW2 4479   6.483   0.365   4.091
 1194SOL     OW 4480   0.412   1.234   0.813
 1194SOL    HW1 4481   0.363   1.170   0.754
 1194SOL    HW2 4482   0.508   1.207   0.818
 1195SOL     OW 4483   6.430   1.801   0.754
 1195SOL    HW1 4484   6.347   1.795   0.808
 1195SOL    HW2 4485   6.431   1.886   0.702
 1196SOL     OW 4486   6.972   5.164   1.867
 1196SOL    HW1 4487   6.897   5.107   1.900
 1196SOL    HW2 4488   7.018   5.207   1.945
 1197SOL     OW 4489   3.867   5.870   5.569
 1197SOL    HW1 4490   3.925   5.911   5.499
 1197SOL    HW2 4491   3.830   5.941   5.628
 1198SOL     OW 4492   2.344   2.779   2.150
 1198SOL    HW1 4493   2.350   2.682   2.176
 1198SOL    HW2 4494   2.406   2.797   2.074
 1199SOL     OW 4495   4.048   3.090   2.646
 1199SOL    HW1 4496   4.108   3.116   2.571
 1199SOL    HW2 4497   4.050   3.160   2.717
 1200SOL     OW 4498   4.209   3.482   5.077
 1200SOL    HW1 4499   4.256   3.529   5.152
 1200SOL    HW2 4500   4.202   3.384   5.098
 1201SOL     OW 4501   0.697   1.187   4.230
 1201SOL    HW1 4502   0.726   1.118   4.296
 1201SOL    HW2 4503   0.777   1.220   4.179
 1202SOL     OW 4504   6.059   0.816   5.876
 1202SOL    HW1 4505   6.149   0.820   5.921
 1202SOL    HW2 4506   6.042   0.722   5.845
 1203SOL     OW 4507   5.667   6.965   1.112
 1203SOL    HW1 4508   5.628   0.018   1.070
 1203SOL    HW2 4509   5.596   6.895   1.119
 1204SOL     OW 4510   3.847   1.099   0.253
 1204SOL    HW1 4511   3.931   1.047   0.242
 1204SOL    HW2 4512   3.769   1.042   0.225
 1205SOL     OW 4513   4.757   3.156   6.619
 1205SOL    HW1 4514   4.766   3.077   6.558
 1205SOL    HW2 4515   4.783   3.239   6.569
 1206SOL     OW 4516   1.724   1.491   4.734
 1206SOL    HW1 4517   1.736   1.487   4.635
 1206SOL    HW2 4518   1.645   1.547   4.757
 1207SOL     OW 4519   0.040   6.761   1.115
 1207SOL    HW1 4520   0.031   6.715   1.204
 1207SOL    HW2 4521   0.070   6.695   1.046
 1208SOL     OW 4522   3.669   4.042   2.418
 1208SOL    HW1 4523   3.683   3.953   2.461
 1208SOL    HW2 4524   3.575   4.072   2.434
 1209SOL     OW 4525   5.948   6.711   4.712
 1209SOL    HW1 4526   5.979   6.618   4.732
 1209SOL    HW2 4527   6.008   6.753   4.645
 1210SOL     OW 4528   4.464   6.857   2.788
 1210SOL    HW1 4529   4.562   6.860   2.769
 1210SOL    HW2 4530   4.444   6.778   2.846
 1211SOL     OW 4531   1.712   3.369   3.733
 1211SOL    HW1 4532   1.644   3.411   3.673
 1211SOL    HW2 4533   1.753   3.439   3.791
 1212SOL     OW 4534   0.520   2.669   5.288
 1212SOL    HW1 4535   0.488   2.613   5.365
 1212SOL    HW2 4536   0.445   2.728   5.256
 1213SOL     OW 4537   6.132   2.626   4.725
 1213SOL    HW1 4538   6.130   2.551   4.791
 1213SOL    HW2 4539   6.157   2.711   4.771
 1214SOL     OW 4540   1.568   3.174   4.027
 1214SOL    HW1 4541   1.646   3.116   4.002
 1214SOL    HW2 4542   1.506   3.123   4.087
 1215SOL     OW 4543   2.079   4.577   2.194
 1215SOL    HW1 4544   2.136   4.501   2.161
 1215SOL    HW2 4545   2.039   4.624   2.115
 1216SOL     OW 4546   0.204   0.148   1.661
 1216SOL    HW1 4547   0.185   0.088   1.739
 1216SOL    HW2 4548   0.303   0.164   1.655
 1217SOL     OW 4549   1.989   6.639   1.066
 1217SOL    HW1 4550   1.928   6.692   1.126
 1217SOL    HW2 4551   1.935   6.570   1.017
 1218SOL     OW 4552   1.080   2.622   5.036
 1218SOL    HW1 4553   0.989   2.612   4.996
 1218SOL    HW2 4554   1.136   2.543   5.009
 1219SOL     OW 4555   4.471   4.899   1.063
 1219SOL    HW1 4556   4.400   4.837   1.098
 1219SOL    HW2 4557   4.431   4.989   1.046
 1220SOL     OW 4558   5.154   4.240   2.345
 1220SOL    HW1 4559   5.093   4.303   2.296
 1220SOL    HW2 4560   5.248   4.269   2.332
 1221SOL     OW 4561   6.139   3.552   6.912
 1221SOL    HW1 4562   6.183   3.474   6.868
 1221SOL    HW2 4563   6.175   3.637   6.872
 1222SOL     OW 4564   7.003   0.285   1.155
 1222SOL    HW1 4565   0.022   0.200   1.175
 1222SOL    HW2 4566   6.984   0.333   1.241
 1223SOL     OW 4567   5.556   1.247   0.906
 1223SOL    HW1 4568   5.585   1.296   0.825
 1223SOL    HW2 4569   5.554   1.149   0.887
 1224SOL     OW 4570   3.715   6.003   6.937
 1224SOL    HW1 4571   3.798   5.972   6.984
 1224SOL    HW2 4572   3.666   5.924   6.899
 1225SOL     OW 4573   4.014   2.236   1.101
 1225SOL    HW1 4574   3.949   2.295   1.148
 1225SOL    HW2 4575   4.015   2.258   1.003
 1226SOL     OW 4576   5.813   6.573   1.041
 1226SOL    HW1 4577   5.804   6.516   1.123
 1226SOL    HW2 4578   5.905   6.612   1.038
 1227SOL     OW 4579   6.164   5.062   5.505
 1227SOL    HW1 4580   6.154   5.017   5.593
 1227SOL    HW2 4581   6.212   5.149   5.517
 1228SOL     OW 4582   3.983   3.028   0.791
 1228SOL    HW1 4583   3.956   2.968   0.715
 1228SOL    HW2 4584   3.965   3.123   0.767
 1229SOL     OW 4585   2.009   0.181   1.957
 1229SOL    HW1 4586   2.074   0.110   1.935
 1229SOL    HW2 4587   1.917   0.151   1.932
 1230SOL     OW 4588   5.330   5.630   2.997
 1230SOL    HW1 4589   5.268   5.641   2.919
 1230SOL    HW2 4590   5.281   5.585   3.072
 1231SOL     OW 4591   1.714   2.940   6.053
 1231SOL    HW1 4592   1.659   2.993   5.989
 1231SOL    HW2 4593   1.757   2.864   6.005
 1232SOL     OW 4594   4.523   1.243   5.486
 1232SOL    HW1 4595   4.473   1.303   5.549
 1232SOL    HW2 4596   4.489   1.257   5.393
 1233SOL     OW 4597   0.671   5.413   3.807
 1233SOL    HW1 4598   0.740   5.440   3.875
 1233SOL    HW2 4599   0.686   5.463   3.722
 1234SOL     OW 4600   0.339   2.889   6.701
 1234SOL    HW1 4601   0.353   2.847   6.791
 1234SOL    HW2 4602   0.369   2.826   6.630
 1235SOL     OW 4603   6.525   5.316   6.889
 1235SOL    HW1 4604   6.526   5.250   6.964
 1235SOL    HW2 4605   6.482   5.275   6.809
 1236SOL     OW 4606   3.301   1.795   0.361
 1236SOL    HW1 4607   3.366   1.869   0.375
 1236SOL    HW2 4608   3.259   1.770   0.448
 1237SOL     OW 4609   1.657   6.620   5.144
 1237SOL    HW1 4610   1.574   6.665   5.109
 1237SOL    HW2 4611   1.632   6.532   5.185
 1238SOL     OW 4612   0.357   6.953   3.588
 1238SOL    HW1 4613   0.286   6.955   3.517
 1238SOL    HW2 4614   0.444   6.927   3.546
 1239SOL     OW 4615   6.850   5.114   4.807
 1239SOL    HW1 4616   6.926   5.055   4.832
 1239SOL    HW2 4617   6.764   5.071   4.833
 1240SOL     OW 4618   5.799   5.422   2.051
 1240SOL    HW1 4619   5.832   5.353   1.986
 1240SOL    HW2 4620   5.732   5.380   2.112
 1241SOL     OW 4621   6.760   4.759   4.882
 1241SOL    HW1 4622   6.771   4.823   4.958
 1241SOL    HW2 4623   6.838   4.767   4.820
 1242SOL     OW 4624   2.090   4.120   0.307
 1242SOL    HW1 4625   2.162   4.188   0.317
 1242SOL    HW2 4626   2.023   4.131   0.380
 1243SOL     OW 4627   0.257   2.054   4.952
 1243SOL    HW1 4628   0.306   1.969   4.932
 1243SOL    HW2 4629   0.311   2.131   4.919
 1244SOL     OW 4630   5.260   0.018   5.215
 1244SOL    HW1 4631   5.325   0.084   5.252
 1244SOL    HW2 4632   5.261   6.965   5.272
 1245SOL     OW 4633   5.221   6.088   1.150
 1245SOL    HW1 4634   5.181   6.116   1.238
 1245SOL    HW2 4635   5.278   6.162   1.115
 1246SOL     OW 4636   4.033   1.213   2.329
 1246SOL    HW1 4637   4.039   1.313   2.334
 1246SOL    HW2 4638   4.118   1.173   2.363
 1247SOL     OW 4639   6.372   6.895   4.546
 1247SOL    HW1 4640   6.343   6.990   4.529
 1247SOL    HW2 4641   6.292   6.837   4.557
 1248SOL     OW 4642   0.644   6.477   3.964
 1248SOL    HW1 4643   0.650   6.493   3.866
 1248SOL    HW2 4644   0.581   6.400   3.981
 1249SOL     OW 4645   6.807   4.302   1.564
 1249SOL    HW1 4646   6.738   4.297   1.491
 1249SOL    HW2 4647   6.763   4.332   1.649
 1250SOL     OW 4648   6.243   3.188   5.325
 1250SOL    HW1 4649   6.221   3.263   5.388
 1250SOL    HW2 4650   6.233   3.220   5.231
 1251SOL     OW 4651   2.114   0.742   2.670
 1251SOL    HW1 4652   2.106   0.791   2.757
 1251SOL    HW2 4653   2.117   0.644   2.687
 1252SOL     OW 4654   3.601   5.252   6.353
 1252SOL    HW1 4655   3.687   5.202   6.347
 1252SOL    HW2 4656   3.600   5.308   6.436
 1253SOL     OW 4657   2.938   0.908   1.611
 1253SOL    HW1 4658   2.861   0.953   1.656
 1253SOL    HW2 4659   3.007   0.976   1.586
 1254SOL     OW 4660   6.438   1.497   3.339
 1254SOL    HW1 4661   6.400   1.589   3.332
 1254SOL    HW2 4662   6.510   1.495   3.408
 1255SOL     OW 4663   5.658   2.759   5.223
 1255SOL    HW1 4664   5.608   2.691   5.168
 1255SOL    HW2 4665   5.746   2.777   5.181
 1256SOL     OW 4666   6.719   6.177   3.073
 1256SOL    HW1 4667   6.694   6.237   3.148
 1256SOL    HW2 4668   6.703   6.082   3.099
 1257SOL     OW 4669   6.912   4.474   4.446
 1257SOL    HW1 4670   6.997   4.420   4.445
 1257SOL    HW2 4671   6.861   4.456   4.362
 1258SOL     OW 4672   2.057   6.220   2.864
 1258SOL    HW1 4673   2.046   6.175   2.775
 1258SOL    HW2 4674   2.125   6.171   2.919
 1259SOL     OW 4675   3.536   6.685   4.945
 1259SOL    HW1 4676   3.505   6.592   4.965
 1259SOL    HW2 4677   3.516   6.707   4.850
 1260SOL     OW 4678   3.093   1.053   2.025
 1260SOL    HW1 4679   3.101   1.051   2.125
 1260SOL    HW2 4680   3.000   1.028   1.999
 1261SOL     OW 4681   6.922   3.311   0.296
 1261SOL    HW1 4682   6.933   3.383   0.364
 1261SOL    HW2 4683   6.865   3.238   0.333
 1262SOL     OW 4684   4.635   4.445   1.035
 1262SOL    HW1 4685   4.591   4.527   0.997
 1262SOL    HW2 4686   4.724   4.469   1.074
 1263SOL     OW 4687   6.239   2.069   1.423
 1263SOL    HW1 4688   6.201   1.990   1.471
 1263SOL    HW2 4689   6.167   2.137   1.410
 1264SOL     OW 4690   0.290   4.406   2.955
 1264SOL    HW1 4691   0.290   4.484   3.017
 1264SOL    HW2 4692   0.360   4.341   2.985
 1265SOL     OW 4693   6.574   4.349   3.683
 1265SOL    HW1 4694   6.545   4.426   3.740
 1265SOL    HW2 4695   6.625   4.384   3.604
 1266SOL     OW 4696   2.457   0.994   4.125
 1266SOL    HW1 4697   2.543   1.022   4.168
 1266SOL    HW2 4698   2.381   1.013   4.187
 1267SOL     OW 4699   5.865   6.016   1.691
 1267SOL    HW1 4700   5.797   5.955   1.730
 1267SOL    HW2 4701   5.828   6.061   1.610
 1268SOL     OW 4702   5.204   2.194   0.284
 1268SOL    HW1 4703   5.218   2.253   0.364
 1268SOL    HW2 4704   5.193   2.099   0.314
 1269SOL     OW 4705   6.048   6.534   5.039
 1269SOL    HW1 4706   6.027   6.631   5.053
 1269SOL    HW2 4707   6.008   6.480   5.113
 1270SOL     OW 4708   2.128   3.964   4.081
 1270SOL    HW1 4709   2.078   4.025   4.143
 1270SOL    HW2 4710   2.091   3.871   4.090
 1271SOL     OW 4711   3.619   1.766   3.136
 1271SOL    HW1 4712   3.651   1.840   3.078
 1271SOL    HW2 4713   3.555   1.708   3.085
 1272SOL     OW 4714   0.138   5.874   1.178
 1272SOL    HW1 4715   0.190   5.838   1.101
 1272SOL    HW2 4716   0.172   5.965   1.201
 1273SOL     OW 4717   2.139   3.951   7.016
 1273SOL    HW1 4718   2.063   3.941   6.952
 1273SOL    HW2 4719   2.143   3.870   0.047
 1274SOL     OW 4720   6.886   2.996   1.513
 1274SOL    HW1 4721   6.925   3.060   1.447
 1274SOL    HW2 4722   6.958   2.959   1.571
 1275SOL     OW 4723   4.696   0.579   3.318
 1275SOL    HW1 4724   4.622   0.631   3.275
 1275SOL    HW2 4725   4.742   0.637   3.386
 1276SOL     OW 4726   0.005   0.614   3.473
 1276SOL    HW1 4727   7.015   0.533   3.416
 1276SOL    HW2 4728   0.069   0.674   3.424
 1277SOL     OW 4729   1.023   0.741   4.567
 1277SOL    HW1 4730   1.016   0.822   4.625
 1277SOL    HW2 4731   0.969   0.754   4.484
 1278SOL     OW 4732   1.537   1.684   5.253
 1278SOL    HW1 4733   1.467   1.746   5.289
 1278SOL    HW2 4734   1.508   1.589   5.269
 1279SOL     OW 4735   2.433   0.091   0.896
 1279SOL    HW1 4736   2.345   0.043   0.891
 1279SOL    HW2 4737   2.479   0.086   0.808
 1280SOL     OW 4738   2.653   6.526   3.395
 1280SOL    HW1 4739   2.734   6.577   3.366
 1280SOL    HW2 4740   2.658   6.432   3.360
 1281SOL     OW 4741   1.140   5.572   2.971
 1281SOL    HW1 4742   1.225   5.544   3.015
 1281SOL    HW2 4743   1.078   5.611   3.040
 1282SOL     OW 4744   1.166   1.066   0.727
 1282SOL    HW1 4745   1.128   0.973   0.724
 1282SOL    HW2 4746   1.130   1.114   0.807
 1283SOL     OW 4747   5.469   3.000   5.267
 1283SOL    HW1 4748   5.537   2.927   5.260
 1283SOL    HW2 4749   5.379   2.964   5.241
 1284SOL     OW 4750   3.251   2.855   2.089
 1284SOL    HW1 4751   3.236   2.780   2.153
 1284SOL    HW2 4752   3.247   2.820   1.995
 1285SOL     OW 4753   5.680   3.586   6.194
 1285SOL    HW1 4754   5.780   3.585   6.183
 1285SOL    HW2 4755   5.657   3.607   6.289
 1286SOL     OW 4756   4.344   4.656   2.472
 1286SOL    HW1 4757   4.330   4.686   2.377
 1286SOL    HW2 4758   4.437   4.621   2.483
 1287SOL     OW 4759   5.553   4.438   6.387
 1287SOL    HW1 4760   5.622   4.504   6.355
 1287SOL    HW2 4761   5.548   4.441   6.487
 1288SOL     OW 4762   6.594   3.461   1.410
 1288SOL    HW1 4763   6.561   3.477   1.317
 1288SOL    HW2 4764   6.525   3.412   1.463
 1289SOL     OW 4765   0.708   6.332   1.938
 1289SOL    HW1 4766   0.798   6.325   1.895
 1289SOL    HW2 4767   0.640   6.284   1.883
 1290SOL     OW 4768   0.763   1.022   0.283
 1290SOL    HW1 4769   0.702   1.048   0.208
 1290SOL    HW2 4770   0.709   0.982   0.357
 1291SOL     OW 4771   1.572   4.345   6.065
 1291SOL    HW1 4772   1.567   4.394   5.978
 1291SOL    HW2 4773   1.589   4.248   6.048
 1292SOL     OW 4774   6.478   5.152   2.264
 1292SOL    HW1 4775   6.380   5.172   2.263
 1292SOL    HW2 4776   6.524   5.212   2.199
 1293SOL     OW 4777   2.674   1.629   6.323
 1293SOL    HW1 4778   2.600   1.562   6.328
 1293SOL    HW2 4779   2.641   1.710   6.275
 1294SOL     OW 4780   0.852   3.201   0.872
 1294SOL    HW1 4781   0.842   3.138   0.950
 1294SOL    HW2 4782   0.887   3.288   0.904
 1295SOL     OW 4783   6.515   3.475   2.693
 1295SOL    HW1 4784   6.487   3.504   2.602
 1295SOL    HW2 4785   6.573   3.394   2.686
 1296SOL     OW 4786   4.204   1.140   5.894
 1296SOL    HW1 4787   4.223   1.234   5.922
 1296SOL    HW2 4788   4.251   1.121   5.808
 1297SOL     OW 4789   5.729   1.009   6.689
 1297SOL    HW1 4790   5.694   1.040   6.777
 1297SOL    HW2 4791   5.720   0.909   6.684
 1298SOL     OW 4792   6.251   3.386   3.681
 1298SOL    HW1 4793   6.229   3.457   3.747
 1298SOL    HW2 4794   6.298   3.311   3.729
 1299SOL     OW 4795   1.069   3.769   2.833
 1299SOL    HW1 4796   0.989   3.729   2.788
 1299SOL    HW2 4797   1.145   3.776   2.768
 1300SOL     OW 4798   3.697   3.414   2.183
 1300SOL    HW1 4799   3.639   3.429   2.103
 1300SOL    HW2 4800   3.693   3.318   2.210
 1301SOL     OW 4801   0.971   5.788   2.619
 1301SOL    HW1 4802   1.012   5.738   2.543
 1301SOL    HW2 4803   0.942   5.878   2.587
 1302SOL     OW 4804   2.876   6.883   4.770
 1302SOL    HW1 4805   2.948   6.919   4.711
 1302SOL    HW2 4806   2.875   6.933   4.856
 1303SOL     OW 4807   4.287   1.682   0.443
 1303SOL    HW1 4808   4.236   1.617   0.386
 1303SOL    HW2 4809   4.369   1.638   0.479
 1304SOL     OW 4810   2.019   1.479   6.656
 1304SOL    HW1 4811   2.057   1.514   6.742
 1304SOL    HW2 4812   1.955   1.546   6.619
 1305SOL     OW 4813   5.972   6.024   6.714
 1305SOL    HW1 4814   5.911   6.081   6.769
 1305SOL    HW2 4815   5.931   6.008   6.625
 1306SOL     OW 4816   0.600   4.840   5.376
 1306SOL    HW1 4817   0.666   4.880   5.438
 1306SOL    HW2 4818   0.611   4.740   5.376
 1307SOL     OW 4819   1.765   3.018   3.950
 1307SOL    HW1 4820   1.831   3.088   3.975
 1307SOL    HW2 4821   1.778   2.938   4.008
 1308SOL     OW 4822   3.914   5.804   4.895
 1308SOL    HW1 4823   4.012   5.790   4.891
 1308SOL    HW2 4824   3.891   5.859   4.976
 1309SOL     OW 4825   5.176   2.963   5.203
 1309SOL    HW1 4826   5.088   3.000   5.173
 1309SOL    HW2 4827   5.161   2.876   5.250
 1310SOL     OW 4828   5.975   3.845   5.193
 1310SOL    HW1 4829   6.013   3.795   5.270
 1310SOL    HW2 4830   6.047   3.862   5.125
 1311SOL     OW 4831   6.543   6.623   4.083
 1311SOL    HW1 4832   6.535   6.628   4.183
 1311SOL    HW2 4833   6.452   6.609   4.044
 1312SOL     OW 4834   1.029   0.310   6.745
 1312SOL    HW1 4835   0.931   0.292   6.747
 1312SOL    HW2 4836   1.046   0.401   6.707
 1313SOL     OW 4837   1.730   5.668   5.530
 1313SOL    HW1 4838   1.826   5.663   5.560
 1313SOL    HW2 4839   1.715   5.602   5.456
 1314SOL     OW 4840   2.200   1.867   5.473
 1314SOL    HW1 4841   2.120   1.925   5.459
 1314SOL    HW2 4842   2.173   1.784   5.521
 1315SOL     OW 4843   1.001   1.189   0.261
 1315SOL    HW1 4844   1.037   1.200   0.169
 1315SOL    HW2 4845   0.922   1.129   0.259
 1316SOL     OW 4846   2.080   6.985   3.387
 1316SOL    HW1 4847   2.073   6.994   3.487
 1316SOL    HW2 4848   2.177   6.982   3.361
 1317SOL     OW 4849   1.000   4.026   5.002
 1317SOL    HW1 4850   0.984   4.084   4.922
 1317SOL    HW2 4851   1.032   3.936   4.972
 1318SOL     OW 4852   6.981   0.915   0.517
 1318SOL    HW1 4853   6.903   0.944   0.573
 1318SOL    HW2 4854   0.035   0.918   0.573
 1319SOL     OW 4855   6.688   1.780   0.242
 1319SOL    HW1 4856   6.647   1.775   0.151
 1319SOL    HW2 4857   6.788   1.780   0.234
 1320SOL     OW 4858   5.975   3.809   0.275
 1320SOL    HW1 4859   6.048   3.874   0.293
 1320SOL    HW2 4860   6.012   3.716   0.274
 1321SOL     OW 4861   4.127   2.886   6.385
 1321SOL    HW1 4862   4.095   2.796   6.358
 1321SOL    HW2 4863   4.226   2.893   6.372
 1322SOL     OW 4864   5.723   0.898   3.012
 1322SOL    HW1 4865   5.711   0.997   3.017
 1322SOL    HW2 4866   5.670   0.854   3.084
 1323SOL     OW 4867   5.024   2.225   5.456
 1323SOL    HW1 4868   4.985   2.147   5.507
 1323SOL    HW2 4869   5.120   2.208   5.437
 1324SOL     OW 4870   1.042   2.519   1.866
 1324SOL    HW1 4871   1.138   2.538   1.887
 1324SOL    HW2 4872   1.033   2.424   1.833
 1325SOL     OW 4873   3.067   0.001   2.032
 1325SOL    HW1 4874   3.104   0.085   2.071
 1325SOL    HW2 4875   3.108   6.951   2.076
 1326SOL     OW 4876   4.641   2.768   4.878
 1326SOL    HW1 4877   4.593   2.845   4.837
 1326SOL    HW2 4878   4.669   2.704   4.806
 1327SOL     OW 4879   2.952   5.439   2.900
 1327SOL    HW1 4880   3.049   5.429   2.878
 1327SOL    HW2 4881   2.936   5.531   2.937
 1328SOL     OW 4882   1.179   3.255   0.644
 1328SOL    HW1 4883   1.178   3.171   0.698
 1328SOL    HW2 4884   1.269   3.265   0.601
 1329SOL     OW 4885   0.007   1.509   0.178
 1329SOL    HW1 4886   6.979   1.588   0.156
 1329SOL    HW2 4887   0.017   1.500   0.277
 1330SOL     OW 4888   6.789   0.095   1.060
 1330SOL    HW1 4889   6.742   0.183   1.063
 1330SOL    HW2 4890   6.883   0.107   1.091
 1331SOL     OW 4891   4.478   2.143   2.725
 1331SOL    HW1 4892   4.469   2.080   2.648
 1331SOL    HW2 4893   4.556   2.204   2.710
 1332SOL     OW 4894   3.074   0.104   0.131
 1332SOL    HW1 4895   3.023   0.185   0.103
 1332SOL    HW2 4896   3.012   0.038   0.174
 1333SOL     OW 4897   3.927   4.181   6.367
 1333SOL    HW1 4898   3.951   4.254   6.431
 1333SOL    HW2 4899   3.835   4.147   6.388
 1334SOL     OW 4900   0.637   2.996   4.320
 1334SOL    HW1 4901   0.733   2.967   4.322
 1334SOL    HW2 4902   0.584   2.936   4.380
 1335SOL     OW 4903   3.029   6.179   3.285
 1335SOL    HW1 4904   3.047   6.131   3.370
 1335SOL    HW2 4905   3.022   6.113   3.210
 1336SOL     OW 4906   2.030   1.221   6.204
 1336SOL    HW1 4907   2.105   1.227   6.269
 1336SOL    HW2 4908   1.977   1.139   6.222
 1337SOL     OW 4909   0.898   1.661   5.087
 1337SOL    HW1 4910   0.953   1.744   5.098
 1337SOL    HW2 4911   0.803   1.680   5.111
 1338SOL     OW 4912   4.236   3.742   5.878
 1338SOL    HW1 4913   4.321   3.721   5.830
 1338SOL    HW2 4914   4.194   3.823   5.837
 1339SOL     OW 4915   0.353   6.675   0.067
 1339SOL    HW1 4916   0.316   6.715   0.151
 1339SOL    HW2 4917   0.448   6.649   0.082
 1340SOL     OW 4918   1.119   1.376   2.082
 1340SOL    HW1 4919   1.197   1.436   2.067
 1340SOL    HW2 4920   1.042   1.407   2.026
 1341SOL     OW 4921   3.842   0.210   5.302
 1341SOL    HW1 4922   3.801   0.203   5.212
 1341SOL    HW2 4923   3.823   0.300   5.341
 1342SOL     OW 4924   1.114   5.151   6.046
 1342SOL    HW1 4925   1.076   5.242   6.033
 1342SOL    HW2 4926   1.169   5.126   5.967
 1343SOL     OW 4927   4.079   6.675   2.593
 1343SOL    HW1 4928   4.053   6.581   2.613
 1343SOL    HW2 4929   4.179   6.683   2.589
 1344SOL     OW 4930   6.707   3.831   3.572
 1344SOL    HW1 4931   6.753   3.913   3.540
 1344SOL    HW2 4932   6.637   3.856   3.639
 1345SOL     OW 4933   0.711   1.679   3.677
 1345SOL    HW1 4934   0.686   1.583   3.689
 1345SOL    HW2 4935   0.694   1.728   3.763
 1346SOL     OW 4936   1.882   0.216   2.938
 1346SOL    HW1 4937   1.928   0.295   2.980
 1346SOL    HW2 4938   1.950   0.159   2.892
 1347SOL     OW 4939   6.372   6.349   3.705
 1347SOL    HW1 4940   6.331   6.387   3.622
 1347SOL    HW2 4941   6.447   6.407   3.735
 1348SOL     OW 4942   5.793   5.383   3.012
 1348SOL    HW1 4943   5.873   5.439   3.034
 1348SOL    HW2 4944   5.728   5.438   2.958
 1349SOL     OW 4945   4.936   2.669   6.447
 1349SOL    HW1 4946   4.906   2.668   6.543
 1349SOL    HW2 4947   4.926   2.761   6.410
 1350SOL     OW 4948   3.920   4.694   0.001
 1350SOL    HW1 4949   3.978   4.667   0.078
 1350SOL    HW2 4950   3.893   4.612   6.980
 1351SOL     OW 4951   0.561   1.353   3.043
 1351SOL    HW1 4952   0.650   1.369   3.001
 1351SOL    HW2 4953   0.547   1.254   3.057
 1352SOL     OW 4954   0.470   0.875   3.299
 1352SOL    HW1 4955   0.525   0.854   3.379
 1352SOL    HW2 4956   0.472   0.798   3.235
 1353SOL     OW 4957   0.037   4.211   5.752
 1353SOL    HW1 4958   0.036   4.212   5.852
 1353SOL    HW2 4959   6.973   4.194   5.719
 1354SOL     OW 4960   7.005   1.732   0.471
 1354SOL    HW1 4961   0.002   1.654   0.413
 1354SOL    HW2 4962   0.058   1.781   0.498
 1355SOL     OW 4963   5.260   3.341   6.184
 1355SOL    HW1 4964   5.252   3.368   6.280
 1355SOL    HW2 4965   5.172   3.355   6.138
 1356SOL     OW 4966   3.318   3.888   4.321
 1356SOL    HW1 4967   3.313   3.930   4.411
 1356SOL    HW2 4968   3.265   3.942   4.256
 1357SOL     OW 4969   2.780   2.890   5.680
 1357SOL    HW1 4970   2.854   2.922   5.740
 1357SOL    HW2 4971   2.819   2.848   5.599
 1358SOL     OW 4972   3.009   1.742   6.258
 1358SOL    HW1 4973   2.935   1.769   6.320
 1358SOL    HW2 4974   3.072   1.819   6.247
 1359SOL     OW 4975   6.834   4.655   1.204
 1359SOL    HW1 4976   6.850   4.746   1.165
 1359SOL    HW2 4977   6.917   4.600   1.196
 1360SOL     OW 4978   4.127   3.310   2.802
 1360SOL    HW1 4979   4.089   3.329   2.893
 1360SOL    HW2 4980   4.147   3.396   2.755
 1361SOL     OW 4981   6.837   6.875   6.655
 1361SOL    HW1 4982   6.925   6.920   6.643
 1361SOL    HW2 4983   6.833   6.792   6.600
 1362SOL     OW 4984   2.940   3.660   4.904
 1362SOL    HW1 4985   2.862   3.598   4.907
 1362SOL    HW2 4986   3.025   3.607   4.903
 1363SOL     OW 4987   0.023   6.386   4.089
 1363SOL    HW1 4988   0.055   6.360   4.181
 1363SOL    HW2 4989   0.100   6.419   4.035
 1364SOL     OW 4990   0.037   2.302   6.687
 1364SOL    HW1 4991   0.130   2.292   6.721
 1364SOL    HW2 4992   7.020   2.213   6.690
 1365SOL     OW 4993   1.345   3.627   5.503
 1365SOL    HW1 4994   1.274   3.671   5.558
 1365SOL    HW2 4995   1.303   3.582   5.423
 1366SOL     OW 4996   0.459   4.036   0.993
 1366SOL    HW1 4997   0.386   3.972   1.018
 1366SOL    HW2 4998   0.541   3.985   0.967
 1367SOL     OW 4999   1.157   5.222   3.106
 1367SOL    HW1 5000   1.061   5.195   3.101
 1367SOL    HW2 5001   1.203   5.199   3.020
 1368SOL     OW 5002   6.636   0.518   3.858
 1368SOL    HW1 5003   6.673   0.588   3.919
 1368SOL    HW2 5004   6.705   0.447   3.843
 1369SOL     OW 5005   2.296   6.319   2.035
 1369SOL    HW1 5006   2.394   6.331   2.051
 1369SOL    HW2 5007   2.275   6.339   1.939
 1370SOL     OW 5008   6.544   2.184   4.233
 1370SOL    HW1 5009   6.587   2.142   4.153
 1370SOL    HW2 5010   6.457   2.226   4.207
 1371SOL     OW 5011   4.867   1.000   4.786
 1371SOL    HW1 5012   4.953   1.015   4.835
 1371SOL    HW2 5013   4.867   1.055   4.702
 1372SOL     OW 5014   6.915   1.869   1.159
 1372SOL    HW1 5015   6.853   1.937   1.120
 1372SOL    HW2 5016   6.946   1.807   1.087
 1373SOL     OW 5017   4.837   1.905   0.486
 1373SOL    HW1 5018   4.894   1.933   0.564
 1373SOL    HW2 5019   4.804   1.987   0.439
 1374SOL     OW 5020   5.364   4.249   6.919
 1374SOL    HW1 5021   5.304   4.289   6.850
 1374SOL    HW2 5022   5.359   4.302   7.003
 1375SOL     OW 5023   6.954   6.632   6.567
 1375SOL    HW1 5024   6.976   6.598   6.659
 1375SOL    HW2 5025   0.007   6.632   6.510
 1376SOL     OW 5026   3.626   4.944   6.163
 1376SOL    HW1 5027   3.530   4.915   6.170
 1376SOL    HW2 5028   3.670   4.935   6.253
 1377SOL     OW 5029   1.147   3.005   3.532
 1377SOL    HW1 5030   1.234   3.008   3.482
 1377SOL    HW2 5031   1.120   2.910   3.545
 1378SOL     OW 5032   5.114   2.625   4.806
 1378SOL    HW1 5033   5.153   2.535   4.788
 1378SOL    HW2 5034   5.048   2.618   4.881
 1379SOL     OW 5035   4.397   5.534   3.145
 1379SOL    HW1 5036   4.357   5.505   3.231
 1379SOL    HW2 5037   4.464   5.467   3.114
 1380SOL     OW 5038   6.861   6.169   2.859
 1380SOL    HW1 5039   6.821   6.240   2.802
 1380SOL    HW2 5040   6.813   6.167   2.947
 1381SOL     OW 5041   5.855   1.852   0.010
 1381SOL    HW1 5042   5.762   1.889   0.013
 1381SOL    HW2 5043   5.852   1.754   7.021
 1382SOL     OW 5044   5.060   2.958   1.346
 1382SOL    HW1 5045   5.031   2.969   1.441
 1382SOL    HW2 5046   5.080   2.861   1.329
 1383SOL     OW 5047   1.201   0.171   1.451
 1383SOL    HW1 5048   1.244   0.210   1.369
 1383SOL    HW2 5049   1.109   0.140   1.428
 1384SOL     OW 5050   4.778   6.968   1.560
 1384SOL    HW1 5051   4.769   6.911   1.642
 1384SOL    HW2 5052   4.790   6.909   1.480
 1385SOL     OW 5053   2.384   4.703   3.441
 1385SOL    HW1 5054   2.415   4.797   3.423
 1385SOL    HW2 5055   2.288   4.705   3.468
 1386SOL     OW 5056   3.396   0.409   3.873
 1386SOL    HW1 5057   3.370   0.313   3.882
 1386SOL    HW2 5058   3.329   0.457   3.817
 1387SOL     OW 5059   3.257   5.593   2.594
 1387SOL    HW1 5060   3.183   5.643   2.639
 1387SOL    HW2 5061   3.250   5.605   2.495
 1388SOL     OW 5062   6.531   6.911   2.161
 1388SOL    HW1 5063   6.481   6.868   2.237
 1388SOL    HW2 5064   6.604   6.850   2.131
 1389SOL     OW 5065   5.965   1.953   3.971
 1389SOL    HW1 5066   6.022   1.898   4.032
 1389SOL    HW2 5067   6.006   2.043   3.958
 1390SOL     OW 5068   0.412   3.555   6.632
 1390SOL    HW1 5069   0.506   3.545   6.602
 1390SOL    HW2 5070   0.359   3.600   6.561
 1391SOL     OW 5071   6.098   6.791   4.500
 1391SOL    HW1 5072   6.075   6.871   4.445
 1391SOL    HW2 5073   6.094   6.709   4.443
 1392SOL     OW 5074   6.102   6.030   6.329
 1392SOL    HW1 5075   6.190   6.048   6.372
 1392SOL    HW2 5076   6.063   6.115   6.293
 1393SOL     OW 5077   6.147   4.673   5.261
 1393SOL    HW1 5078   6.192   4.699   5.346
 1393SOL    HW2 5079   6.084   4.745   5.233
 1394SOL     OW 5080   3.087   5.170   5.105
 1394SOL    HW1 5081   3.048   5.157   5.196
 1394SOL    HW2 5082   3.059   5.095   5.045
 1395SOL     OW 5083   2.811   4.188   5.569
 1395SOL    HW1 5084   2.799   4.180   5.470
 1395SOL    HW2 5085   2.860   4.272   5.590
 1396SOL     OW 5086   1.195   1.177   5.237
 1396SOL    HW1 5087   1.170   1.252   5.297
 1396SOL    HW2 5088   1.249   1.212   5.160
 1397SOL     OW 5089   0.004   0.173   3.918
 1397SOL    HW1 5090   0.102   0.168   3.936
 1397SOL    HW2 5091   6.983   0.164   4.005
 1398SOL     OW 5092   3.078   0.431   6.295
 1398SOL    HW1 5093   3.003   0.478   6.249
 1398SOL    HW2 5094   3.158   0.429   6.234
 1399SOL     OW 5095   3.445   5.452   0.351
 1399SOL    HW1 5096   3.478   5.362   0.321
 1399SOL    HW2 5097   3.481   5.472   0.442
 1400SOL     OW 5098   0.009   1.350   2.914
 1400SOL    HW1 5099   6.956   1.404   2.897
 1400SOL    HW2 5100   0.076   1.368   2.842
 1401SOL     OW 5101   6.346   1.700   4.504
 1401SOL    HW1 5102   6.370   1.623   4.563
 1401SOL    HW2 5103   6.247   1.708   4.499
 1402SOL     OW 5104   0.170   3.721   0.004
 1402SOL    HW1 5105   0.234   3.795   7.013
 1402SOL    HW2 5106   0.147   3.672   6.949
 1403SOL     OW 5107   2.168   2.239   1.729
 1403SOL    HW1 5108   2.265   2.218   1.737
 1403SOL    HW2 5109   2.157   2.336   1.708
 1404SOL     OW 5110   5.718   6.575   0.099
 1404SOL    HW1 5111   5.783   6.507   0.068
 1404SOL    HW2 5112   5.761   6.634   0.168
 1405SOL     OW 5113   2.169   3.871   1.099
 1405SOL    HW1 5114   2.084   3.857   1.048
 1405SOL    HW2 5115   2.221   3.945   1.056
 1406SOL     OW 5116   1.056   5.442   0.920
 1406SOL    HW1 5117   0.975   5.411   0.872
 1406SOL    HW2 5118   1.063   5.395   1.008
 1407SOL     OW 5119   0.394   2.413   2.600
 1407SOL    HW1 5120   0.441   2.500   2.583
 1407SOL    HW2 5121   0.455   2.352   2.650
 1408SOL     OW 5122   5.487   1.260   5.829
 1408SOL    HW1 5123   5.533   1.340   5.869
 1408SOL    HW2 5124   5.389   1.276   5.826
 1409SOL     OW 5125   0.570   0.536   5.407
 1409SOL    HW1 5126   0.479   0.504   5.432
 1409SOL    HW2 5127   0.562   0.608   5.337
 1410SOL     OW 5128   1.674   3.164   6.410
 1410SOL    HW1 5129   1.632   3.148   6.500
 1410SOL    HW2 5130   1.605   3.200   6.347
 1411SOL     OW 5131   3.145   6.681   1.133
 1411SOL    HW1 5132   3.157   6.609   1.201
 1411SOL    HW2 5133   3.234   6.710   1.099
 1412SOL     OW 5134   0.439   2.005   0.888
 1412SOL    HW1 5135   0.356   1.950   0.894
 1412SOL    HW2 5136   0.476   2.000   0.795
 1413SOL     OW 5137   1.922   1.908   5.459
 1413SOL    HW1 5138   1.875   1.994   5.443
 1413SOL    HW2 5139   1.924   1.855   5.374
 1414SOL     OW 5140   2.455   1.509   2.329
 1414SOL    HW1 5141   2.517   1.489   2.254
 1414SOL    HW2 5142   2.388   1.578   2.301
 1415SOL     OW 5143   2.360   0.766   4.988
 1415SOL    HW1 5144   2.428   0.743   5.058
 1415SOL    HW2 5145   2.328   0.682   4.944
 1416SOL     OW 5146   4.982   5.352   4.473
 1416SOL    HW1 5147   5.003   5.263   4.514
 1416SOL    HW2 5148   4.902   5.392   4.516
 1417SOL     OW 5149   2.621   2.193   0.225
 1417SOL    HW1 5150   2.657   2.145   0.304
 1417SOL    HW2 5151   2.688   2.191   0.151
 1418SOL     OW 5152   3.168   3.829   3.439
 1418SOL    HW1 5153   3.132   3.736   3.442
 1418SOL    HW2 5154   3.257   3.829   3.393
 1419SOL     OW 5155   2.378   5.403   4.370
 1419SOL    HW1 5156   2.304   5.373   4.431
 1419SOL    HW2 5157   2.433   5.323   4.344
 1420SOL     OW 5158   2.743   0.311   0.973
 1420SOL    HW1 5159   2.807   0.387   0.980
 1420SOL    HW2 5160   2.661   0.331   1.027
 1421SOL     OW 5161   1.932   3.918   3.031
 1421SOL    HW1 5162   1.943   3.860   3.111
 1421SOL    HW2 5163   1.966   4.010   3.051
 1422SOL     OW 5164   1.123   3.923   1.435
 1422SOL    HW1 5165   1.100   3.838   1.483
 1422SOL    HW2 5166   1.133   3.903   1.337
 1423SOL     OW 5167   5.160   6.137   3.173
 1423SOL    HW1 5168   5.082   6.191   3.202
 1423SOL    HW2 5169   5.163   6.051   3.223
 1424SOL     OW 5170   6.591   5.281   6.254
 1424SOL    HW1 5171   6.635   5.249   6.338
 1424SOL    HW2 5172   6.656   5.335   6.200
 1425SOL     OW 5173   1.072   6.097   4.813
 1425SOL    HW1 5174   1.009   6.091   4.890
 1425SOL    HW2 5175   1.024   6.135   4.734
 1426SOL     OW 5176   1.831   3.393   6.147
 1426SOL    HW1 5177   1.831   3.316   6.083
 1426SOL    HW2 5178   1.802   3.361   6.237
 1427SOL     OW 5179   0.311   0.268   3.723
 1427SOL    HW1 5180   0.408   0.254   3.703
 1427SOL    HW2 5181   0.281   0.199   3.789
 1428SOL     OW 5182   6.780   3.233   0.520
 1428SOL    HW1 5183   6.772   3.294   0.599
 1428SOL    HW2 5184   6.693   3.187   0.504
 1429SOL     OW 5185   4.497   2.345   0.130
 1429SOL    HW1 5186   4.595   2.365   0.128
 1429SOL    HW2 5187   4.482   2.256   0.174
 1430SOL     OW 5188   1.705   4.323   3.841
 1430SOL    HW1 5189   1.802   4.307   3.857
 1430SOL    HW2 5190   1.694   4.405   3.785
 1431SOL     OW 5191   2.587   2.255   0.985
 1431SOL    HW1 5192   2.588   2.355   0.987
 1431SOL    HW2 5193   2.679   2.221   0.965
 1432SOL     OW 5194   2.745   1.445   2.284
 1432SOL    HW1 5195   2.766   1.386   2.206
 1432SOL    HW2 5196   2.747   1.540   2.256
 1433SOL     OW 5197   4.037   0.679   5.415
 1433SOL    HW1 5198   4.135   0.677   5.395
 1433SOL    HW2 5199   4.022   0.696   5.512
 1434SOL     OW 5200   0.214   0.143   5.587
 1434SOL    HW1 5201   0.177   0.191   5.666
 1434SOL    HW2 5202   0.282   0.077   5.617
 1435SOL     OW 5203   6.185   0.434   3.194
 1435SOL    HW1 5204   6.240   0.369   3.247
 1435SOL    HW2 5205   6.099   0.390   3.166
 1436SOL     OW 5206   5.535   3.775   0.157
 1436SOL    HW1 5207   5.445   3.793   0.117
 1436SOL    HW2 5208   5.567   3.856   0.206
 1437SOL     OW 5209   2.610   2.351   3.444
 1437SOL    HW1 5210   2.581   2.257   3.463
 1437SOL    HW2 5211   2.669   2.352   3.363
 1438SOL     OW 5212   3.175   5.962   1.385
 1438SOL    HW1 5213   3.248   5.894   1.395
 1438SOL    HW2 5214   3.147   5.995   1.475
 1439SOL     OW 5215   6.969   5.487   1.504
 1439SOL    HW1 5216   0.031   5.461   1.471
 1439SOL    HW2 5217   6.954   5.447   1.595
 1440SOL     OW 5218   3.171   2.914   6.899
 1440SOL    HW1 5219   3.211   2.970   6.827
 1440SOL    HW2 5220   3.078   2.886   6.873
 1441SOL     OW 5221   6.158   0.730   3.844
 1441SOL    HW1 5222   6.159   0.631   3.828
 1441SOL    HW2 5223   6.096   0.773   3.778
 1442SOL     OW 5224   0.348   5.911   0.312
 1442SOL    HW1 5225   0.263   5.903   0.260
 1442SOL    HW2 5226   0.398   5.824   0.307
 1443SOL     OW 5227   0.606   3.123   3.573
 1443SOL    HW1 5228   0.557   3.207   3.592
 1443SOL    HW2 5229   0.648   3.128   3.482
 1444SOL     OW 5230   5.008   5.961   1.061
 1444SOL    HW1 5231   5.093   6.012   1.073
 1444SOL    HW2 5232   4.969   5.983   0.971
 1445SOL     OW 5233   1.087   2.824   3.219
 1445SOL    HW1 5234   1.126   2.894   3.160
 1445SOL    HW2 5235   1.150   2.804   3.294
 1446SOL     OW 5236   6.243   1.500   0.094
 1446SOL    HW1 5237   6.219   1.517   7.028
 1446SOL    HW2 5238   6.188   1.423   0.129
 1447SOL     OW 5239   5.753   6.191   4.437
 1447SOL    HW1 5240   5.814   6.160   4.365
 1447SOL    HW2 5241   5.798   6.262   4.491
 1448SOL     OW 5242   6.636   3.167   5.457
 1448SOL    HW1 5243   6.729   3.131   5.462
 1448SOL    HW2 5244   6.571   3.091   5.460
 1449SOL     OW 5245   1.581   3.088   5.848
 1449SOL    HW1 5246   1.529   3.167   5.816
 1449SOL    HW2 5247   1.530   3.004   5.830
 1450SOL     OW 5248   0.943   1.875   0.439
 1450SOL    HW1 5249   0.964   1.855   0.344
 1450SOL    HW2 5250   0.869   1.942   0.444
 1451SOL     OW 5251   0.862   6.041   2.641
 1451SOL    HW1 5252   0.786   6.071   2.583
 1451SOL    HW2 5253   0.828   6.015   2.731
 1452SOL     OW 5254   4.502   1.824   5.404
 1452SOL    HW1 5255   4.424   1.831   5.465
 1452SOL    HW2 5256   4.583   1.796   5.456
 1453SOL     OW 5257   0.528   4.353   5.979
 1453SOL    HW1 5258   0.485   4.427   5.928
 1453SOL    HW2 5259   0.603   4.390   6.034
 1454SOL     OW 5260   0.308   2.679   2.319
 1454SOL    HW1 5261   0.319   2.772   2.354
 1454SOL    HW2 5262   0.317   2.680   2.219
 1455SOL     OW 5263   1.803   6.871   1.831
 1455SOL    HW1 5264   1.827   6.791   1.886
 1455SOL    HW2 5265   1.872   6.942   1.845
 1456SOL     OW 5266   6.420   0.388   6.483
 1456SOL    HW1 5267   6.473   0.469   6.457
 1456SOL    HW2 5268   6.331   0.417   6.520
 1457SOL     OW 5269   0.966   6.228   1.178
 1457SOL    HW1 5270   0.889   6.178   1.217
 1457SOL    HW2 5271   1.033   6.248   1.250
 1458SOL     OW 5272   5.892   5.228   4.508
 1458SOL    HW1 5273   5.891   5.188   4.417
 1458SOL    HW2 5274   5.849   5.318   4.506
 1459SOL     OW 5275   3.737   6.483   5.788
 1459SOL    HW1 5276   3.820   6.518   5.745
 1459SOL    HW2 5277   3.755   6.462   5.884
 1460SOL     OW 5278   0.820   0.421   5.164
 1460SOL    HW1 5279   0.742   0.414   5.102
 1460SOL    HW2 5280   0.839   0.517   5.184
 1461SOL     OW 5281   6.641   4.183   2.609
 1461SOL    HW1 5282   6.695   4.180   2.525
 1461SOL    HW2 5283   6.677   4.116   2.674
 1462SOL     OW 5284   1.580   1.067   6.946
 1462SOL    HW1 5285   1.670   1.072   6.987
 1462SOL    HW2 5286   1.511   1.099   7.011
 1463SOL     OW 5287   0.151   5.649   6.170
 1463SOL    HW1 5288   0.208   5.576   6.207
 1463SOL    HW2 5289   0.155   5.647   6.071
 1464SOL     OW 5290   0.223   6.021   2.231
 1464SOL    HW1 5291   0.265   6.093   2.176
 1464SOL    HW2 5292   0.124   6.036   2.236
 1465SOL     OW 5293   1.242   1.116   4.015
 1465SOL    HW1 5294   1.306   1.040   4.020
 1465SOL    HW2 5295   1.254   1.174   4.095
 1466SOL     OW 5296   2.646   1.845   2.665
 1466SOL    HW1 5297   2.619   1.917   2.600
 1466SOL    HW2 5298   2.631   1.756   2.623
 1467SOL     OW 5299   2.130   1.114   3.717
 1467SOL    HW1 5300   2.059   1.049   3.745
 1467SOL    HW2 5301   2.196   1.125   3.790
 1468SOL     OW 5302   2.546   5.676   2.362
 1468SOL    HW1 5303   2.544   5.773   2.341
 1468SOL    HW2 5304   2.452   5.642   2.373
 1469SOL     OW 5305   7.027   0.265   2.843
 1469SOL    HW1 5306   7.008   0.172   2.813
 1469SOL    HW2 5307   0.061   0.263   2.920
 1470SOL     OW 5308   1.242   1.832   2.253
 1470SOL    HW1 5309   1.176   1.823   2.328
 1470SOL    HW2 5310   1.284   1.744   2.234
 1471SOL     OW 5311   0.701   0.237   0.596
 1471SOL    HW1 5312   0.783   0.181   0.586
 1471SOL    HW2 5313   0.694   0.301   0.519
 1472SOL     OW 5314   1.992   5.590   5.884
 1472SOL    HW1 5315   1.999   5.638   5.796
 1472SOL    HW2 5316   1.898   5.594   5.916
 1473SOL     OW 5317   3.576   5.607   5.517
 1473SOL    HW1 5318   3.600   5.687   5.572
 1473SOL    HW2 5319   3.607   5.620   5.423
 1474SOL     OW 5320   5.151   4.986   1.739
 1474SOL    HW1 5321   5.063   5.001   1.693
 1474SOL    HW2 5322   5.149   4.897   1.786
 1475SOL     OW 5323   5.346   0.652   1.355
 1475SOL    HW1 5324   5.260   0.603   1.340
 1475SOL    HW2 5325   5.332   0.749   1.336
 1476SOL     OW 5326   2.693   0.994   1.716
 1476SOL    HW1 5327   2.698   1.050   1.633
 1476SOL    HW2 5328   2.637   0.913   1.697
 1477SOL     OW 5329   3.297   6.539   5.995
 1477SOL    HW1 5330   3.367   6.517   5.927
 1477SOL    HW2 5331   3.207   6.513   5.959
 1478SOL     OW 5332   5.980   5.991   5.183
 1478SOL    HW1 5333   5.939   6.074   5.145
 1478SOL    HW2 5334   6.073   5.981   5.147
 1479SOL     OW 5335   2.471   2.806   0.926
 1479SOL    HW1 5336   2.486   2.862   0.844
 1479SOL    HW2 5337   2.516   2.850   1.004
 1480SOL     OW 5338   3.000   0.393   4.533
 1480SOL    HW1 5339   3.050   0.354   4.456
 1480SOL    HW2 5340   3.039   0.359   4.619
 1481SOL     OW 5341   6.143   3.238   6.363
 1481SOL    HW1 5342   6.126   3.210   6.269
 1481SOL    HW2 5343   6.158   3.157   6.420
 1482SOL     OW 5344   4.632   1.147   1.536
 1482SOL    HW1 5345   4.681   1.089   1.601
 1482SOL    HW2 5346   4.624   1.100   1.449
 1483SOL     OW 5347   5.328   2.405   5.868
 1483SOL    HW1 5348   5.249   2.356   5.903
 1483SOL    HW2 5349   5.382   2.345   5.809
 1484SOL     OW 5350   4.686   5.030   3.973
 1484SOL    HW1 5351   4.659   5.012   4.068
 1484SOL    HW2 5352   4.718   5.124   3.964
 1485SOL     OW 5353   4.672   0.748   4.656
 1485SOL    HW1 5354   4.637   0.842   4.648
 1485SOL    HW2 5355   4.672   0.705   4.566
 1486SOL     OW 5356   5.899   0.732   2.883
 1486SOL    HW1 5357   5.914   0.785   2.800
 1486SOL    HW2 5358   5.826   0.775   2.937
 1487SOL     OW 5359   0.239   2.640   0.319
 1487SOL    HW1 5360   0.197   2.667   0.233
 1487SOL    HW2 5361   0.204   2.549   0.345
 1488SOL     OW 5362   5.664   7.004   3.919
 1488SOL    HW1 5363   5.746   6.979   3.867
 1488SOL    HW2 5364   5.590   7.026   3.855
 1489SOL     OW 5365   4.267   5.287   6.479
 1489SOL    HW1 5366   4.300   5.192   6.474
 1489SOL    HW2 5367   4.252   5.311   6.575
 1490SOL     OW 5368   0.451   3.490   0.964
 1490SOL    HW1 5369   0.427   3.401   0.927
 1490SOL    HW2 5370   0.416   3.497   1.058
 1491SOL     OW 5371   6.261   4.833   2.182
 1491SOL    HW1 5372   6.329   4.873   2.244
 1491SOL    HW2 5373   6.306   4.770   2.119
 1492SOL     OW 5374   6.144   0.261   2.186
 1492SOL    HW1 5375   6.165   0.353   2.220
 1492SOL    HW2 5376   6.222   0.201   2.202
 1493SOL     OW 5377   3.853   6.664   6.087
 1493SOL    HW1 5378   3.781   6.701   6.029
 1493SOL    HW2 5379   3.841   6.699   6.181
 1494SOL     OW 5380   5.075   2.355   6.377
 1494SOL    HW1 5381   4.982   2.360   6.340
 1494SOL    HW2 5382   5.124   2.439   6.355
 1495SOL     OW 5383   0.548   3.820   5.273
 1495SOL    HW1 5384   0.546   3.738   5.329
 1495SOL    HW2 5385   0.635   3.824   5.223
 1496SOL     OW 5386   0.880   1.594   0.836
 1496SOL    HW1 5387   0.784   1.569   0.824
 1496SOL    HW2 5388   0.908   1.576   0.930
 1497SOL     OW 5389   5.045   2.825   2.610
 1497SOL    HW1 5390   5.126   2.875   2.580
 1497SOL    HW2 5391   4.974   2.890   2.638
 1498SOL     OW 5392   2.695   4.541   6.449
 1498SOL    HW1 5393   2.778   4.524   6.503
 1498SOL    HW2 5394   2.617   4.498   6.494
 1499SOL     OW 5395   0.797   2.332   5.330
 1499SOL    HW1 5396   0.795   2.238   5.297
 1499SOL    HW2 5397   0.760   2.393   5.259
 1500SOL     OW 5398   0.637   6.962   6.981
 1500SOL    HW1 5399   0.562   6.896   6.986
 1500SOL    HW2 5400   0.617   0.011   0.011
 1501SOL     OW 5401   5.595   2.281   6.663
 1501SOL    HW1 5402   5.551   2.251   6.748
 1501SOL    HW2 5403   5.606   2.380   6.664
 1502SOL     OW 5404   4.179   0.643   6.894
 1502SOL    HW1 5405   4.262   0.649   6.840
 1502SOL    HW2 5406   4.158   0.547   6.914
 1503SOL     OW 5407   1.429   2.793   2.469
 1503SOL    HW1 5408   1.347   2.843   2.498
 1503SOL    HW2 5409   1.490   2.855   2.419
 1504SOL     OW 5410   0.327   0.708   4.088
 1504SOL    HW1 5411   0.331   0.807   4.101
 1504SOL    HW2 5412   0.353   0.686   3.994
 1505SOL     OW 5413   4.412   0.544   5.117
 1505SOL    HW1 5414   4.405   0.495   5.204
 1505SOL    HW2 5415   4.327   0.593   5.099
 1506SOL     OW 5416   0.534   6.153   0.624
 1506SOL    HW1 5417   0.572   6.089   0.690
 1506SOL    HW2 5418   0.571   6.244   0.640
 1507SOL     OW 5419   6.947   1.749   5.762
 1507SOL    HW1 5420   7.024   1.781   5.706
 1507SOL    HW2 5421   6.957   1.784   5.855
 1508SOL     OW 5422   6.163   1.009   1.038
 1508SOL    HW1 5423   6.171   1.089   1.096
 1508SOL    HW2 5424   6.066   0.990   1.021
 1509SOL     OW 5425   4.358   1.953   4.917
 1509SOL    HW1 5426   4.416   1.945   4.997
 1509SOL    HW2 5427   4.304   2.037   4.922
 1510SOL     OW 5428   5.168   0.745   4.988
 1510SOL    HW1 5429   5.183   0.839   4.957
 1510SOL    HW2 5430   5.174   0.742   5.088
 1511SOL     OW 5431   4.116   3.571   3.721
 1511SOL    HW1 5432   4.152   3.536   3.807
 1511SOL    HW2 5433   4.046   3.509   3.686
 1512SOL     OW 5434   6.534   6.284   0.920
 1512SOL    HW1 5435   6.557   6.191   0.950
 1512SOL    HW2 5436   6.616   6.340   0.920
 1513SOL     OW 5437   3.879   0.643   4.766
 1513SOL    HW1 5438   3.894   0.594   4.852
 1513SOL    HW2 5439   3.958   0.631   4.706
 1514SOL     OW 5440   3.706   2.798   5.342
 1514SOL    HW1 5441   3.763   2.742   5.402
 1514SOL    HW2 5442   3.764   2.849   5.279
 1515SOL     OW 5443   5.242   2.191   2.201
 1515SOL    HW1 5444   5.180   2.114   2.215
 1515SOL    HW2 5445   5.229   2.258   2.274
 1516SOL     OW 5446   6.276   5.601   5.776
 1516SOL    HW1 5447   6.373   5.598   5.756
 1516SOL    HW2 5448   6.235   5.682   5.733
 1517SOL     OW 5449   3.925   5.666   2.817
 1517SOL    HW1 5450   3.989   5.603   2.862
 1517SOL    HW2 5451   3.882   5.724   2.886
 1518SOL     OW 5452   0.319   2.326   0.199
 1518SOL    HW1 5453   0.413   2.341   0.169
 1518SOL    HW2 5454   0.311   2.347   0.296
 1519SOL     OW 5455   6.559   4.602   1.455
 1519SOL    HW1 5456   6.543   4.683   1.513
 1519SOL    HW2 5457   6.658   4.590   1.442
 1520SOL     OW 5458   0.270   4.561   1.779
 1520SOL    HW1 5459   0.306   4.553   1.872
 1520SOL    HW2 5460   0.263   4.470   1.738
 1521SOL     OW 5461   2.326   4.443   6.329
 1521SOL    HW1 5462   2.243   4.389   6.347
 1521SOL    HW2 5463   2.389   4.389   6.272
 1522SOL     OW 5464   5.667   6.218   4.998
 1522SOL    HW1 5465   5.585   6.217   5.056
 1522SOL    HW2 5466   5.650   6.273   4.917
 1523SOL     OW 5467   4.337   6.523   6.904
 1523SOL    HW1 5468   4.244   6.546   6.877
 1523SOL    HW2 5469   4.396   6.522   6.823
 1524SOL     OW 5470   2.091   1.716   2.713
 1524SOL    HW1 5471   2.105   1.815   2.717
 1524SOL    HW2 5472   2.156   1.671   2.775
 1525SOL     OW 5473   6.624   3.615   0.390
 1525SOL    HW1 5474   6.720   3.613   0.414
 1525SOL    HW2 5475   6.589   3.522   0.385
 1526SOL     OW 5476   6.875   0.671   6.858
 1526SOL    HW1 5477   6.809   0.689   6.785
 1526SOL    HW2 5478   6.830   0.620   6.931
 1527SOL     OW 5479   4.220   1.737   4.802
 1527SOL    HW1 5480   4.273   1.818   4.827
 1527SOL    HW2 5481   4.282   1.659   4.789
 1528SOL     OW 5482   3.851   4.837   2.912
 1528SOL    HW1 5483   3.928   4.790   2.954
 1528SOL    HW2 5484   3.792   4.875   2.983
 1529SOL     OW 5485   4.185   0.160   0.022
 1529SOL    HW1 5486   4.257   0.177   0.088
 1529SOL    HW2 5487   4.176   0.062   0.006
 1530SOL     OW 5488   4.107   1.821   2.381
 1530SOL    HW1 5489   4.067   1.759   2.448
 1530SOL    HW2 5490   4.037   1.848   2.315
 1531SOL     OW 5491   4.457   6.881   5.454
 1531SOL    HW1 5492   4.372   6.837   5.425
 1531SOL    HW2 5493   4.535   6.832   5.415
 1532SOL     OW 5494   3.653   3.984   6.205
 1532SOL    HW1 5495   3.557   3.990   6.180
 1532SOL    HW2 5496   3.673   3.893   6.241
 1533SOL     OW 5497   5.942   5.240   6.851
 1533SOL    HW1 5498   5.988   5.152   6.863
 1533SOL    HW2 5499   5.857   5.241   6.903
 1534SOL     OW 5500   2.843   5.879   6.867
 1534SOL    HW1 5501   2.781   5.884   6.789
 1534SOL    HW2 5502   2.826   5.957   6.928
 1535SOL     OW 5503   4.908   6.344   4.367
 1535SOL    HW1 5504   4.987   6.404   4.358
 1535SOL    HW2 5505   4.917   6.268   4.303
 1536SOL     OW 5506   3.871   4.484   5.927
 1536SOL    HW1 5507   3.776   4.465   5.904
 1536SOL    HW2 5508   3.889   4.453   6.021
 1537SOL     OW 5509   3.997   5.706   3.733
 1537SOL    HW1 5510   4.073   5.643   3.747
 1537SOL    HW2 5511   4.032   5.799   3.723
 1538SOL     OW 5512   2.907   6.890   6.528
 1538SOL    HW1 5513   2.883   6.928   6.439
 1538SOL    HW2 5514   2.915   6.964   6.595
 1539SOL     OW 5515   5.011   3.814   1.834
 1539SOL    HW1 5516   5.108   3.830   1.817
 1539SOL    HW2 5517   4.978   3.739   1.776
 1540SOL     OW 5518   0.322   6.438   5.009
 1540SOL    HW1 5519   0.310   6.345   4.976
 1540SOL    HW2 5520   0.330   6.438   5.108
 1541SOL     OW 5521   3.062   3.223   4.001
 1541SOL    HW1 5522   3.013   3.221   4.089
 1541SOL    HW2 5523   3.160   3.216   4.017
 1542SOL     OW 5524   6.452   0.199   2.701
 1542SOL    HW1 5525   6.546   0.199   2.735
 1542SOL    HW2 5526   6.392   0.246   2.767
 1543SOL     OW 5527   3.489   4.966   5.066
 1543SOL    HW1 5528   3.457   5.055   5.034
 1543SOL    HW2 5529   3.588   4.969   5.081
 1544SOL     OW 5530   2.952   3.286   2.749
 1544SOL    HW1 5531   2.945   3.297   2.848
 1544SOL    HW2 5532   2.898   3.357   2.703
 1545SOL     OW 5533   5.154   0.617   2.881
 1545SOL    HW1 5534   5.131   0.567   2.965
 1545SOL    HW2 5535   5.116   0.709   2.886
 1546SOL     OW 5536   3.926   6.694   5.631
 1546SOL    HW1 5537   3.972   6.776   5.599
 1546SOL    HW2 5538   3.829   6.714   5.644
 1547SOL     OW 5539   2.221   3.992   1.420
 1547SOL    HW1 5540   2.154   3.937   1.470
 1547SOL    HW2 5541   2.173   4.062   1.367
 1548SOL     OW 5542   5.383   3.921   6.157
 1548SOL    HW1 5543   5.338   3.839   6.192
 1548SOL    HW2 5544   5.444   3.895   6.082
 1549SOL     OW 5545   4.171   1.965   1.660
 1549SOL    HW1 5546   4.075   1.976   1.687
 1549SOL    HW2 5547   4.177   1.953   1.561
 1550SOL     OW 5548   2.385   3.790   0.102
 1550SOL    HW1 5549   2.320   3.739   0.157
 1550SOL    HW2 5550   2.362   3.779   0.005
 1551SOL     OW 5551   2.086   4.192   6.065
 1551SOL    HW1 5552   2.019   4.248   6.016
 1551SOL    HW2 5553   2.103   4.231   6.155
 1552SOL     OW 5554   1.561   5.594   0.117
 1552SOL    HW1 5555   1.476   5.641   0.141
 1552SOL    HW2 5556   1.541   5.504   0.079
 1553SOL     OW 5557   6.801   1.795   6.695
 1553SOL    HW1 5558   6.886   1.819   6.649
 1553SOL    HW2 5559   6.724   1.808   6.633
 1554SOL     OW 5560   4.033   2.153   2.620
 1554SOL    HW1 5561   4.046   2.057   2.642
 1554SOL    HW2 5562   4.095   2.209   2.674
 1555SOL     OW 5563   5.254   2.673   0.503
 1555SOL    HW1 5564   5.174   2.637   0.456
 1555SOL    HW2 5565   5.337   2.632   0.465
 1556SOL     OW 5566   3.022   1.990   0.333
 1556SOL    HW1 5567   2.927   2.012   0.311
 1556SOL    HW2 5568   3.066   1.950   0.253
 1557SOL     OW 5569   1.833   2.264   5.329
 1557SOL    HW1 5570   1.781   2.341   5.367
 1557SOL    HW2 5571   1.921   2.258   5.374
 1558SOL     OW 5572   5.968   0.789   4.941
 1558SOL    HW1 5573   6.006   0.862   4.998
 1558SOL    HW2 5574   6.027   0.774   4.862
 1559SOL     OW 5575   1.807   3.039   6.779
 1559SOL    HW1 5576   1.722   3.079   6.744
 1559SOL    HW2 5577   1.872   3.112   6.800
 1560SOL     OW 5578   6.910   1.047   5.594
 1560SOL    HW1 5579   6.879   0.979   5.660
 1560SOL    HW2 5580   6.938   1.000   5.509
 1561SOL     OW 5581   6.053   6.401   3.933
 1561SOL    HW1 5582   6.097   6.332   3.877
 1561SOL    HW2 5583   6.115   6.430   4.006
 1562SOL     OW 5584   4.632   5.458   2.820
 1562SOL    HW1 5585   4.566   5.409   2.877
 1562SOL    HW2 5586   4.677   5.393   2.759
 1563SOL     OW 5587   2.230   6.702   5.591
 1563SOL    HW1 5588   2.211   6.779   5.653
 1563SOL    HW2 5589   2.169   6.626   5.613
 1564SOL     OW 5590   1.147   2.489   3.616
 1564SOL    HW1 5591   1.107   2.420   3.556
 1564SOL    HW2 5592   1.127   2.466   3.711
 1565SOL     OW 5593   4.370   4.580   3.422
 1565SOL    HW1 5594   4.449   4.519   3.432
 1565SOL    HW2 5595   4.358   4.632   3.506
 1566SOL     OW 5596   5.884   5.077   2.971
 1566SOL    HW1 5597   5.927   4.988   2.963
 1566SOL    HW2 5598   5.866   5.114   2.880
 1567SOL     OW 5599   6.327   5.993   0.695
 1567SOL    HW1 5600   6.427   5.993   0.694
 1567SOL    HW2 5601   6.295   5.982   0.790
 1568SOL     OW 5602   1.313   6.643   0.046
 1568SOL    HW1 5603   1.314   6.696   6.991
 1568SOL    HW2 5604   1.326   6.704   0.124
 1569SOL     OW 5605   4.633   6.137   3.259
 1569SOL    HW1 5606   4.690   6.055   3.251
 1569SOL    HW2 5607   4.633   6.168   3.354
 1570SOL     OW 5608   1.925   0.383   1.400
 1570SOL    HW1 5609   2.016   0.424   1.391
 1570SOL    HW2 5610   1.875   0.428   1.474
 1571SOL     OW 5611   5.117   2.333   0.881
 1571SOL    HW1 5612   5.112   2.244   0.926
 1571SOL    HW2 5613   5.208   2.345   0.840
 1572SOL     OW 5614   0.451   6.555   0.769
 1572SOL    HW1 5615   0.520   6.616   0.731
 1572SOL    HW2 5616   0.491   6.465   0.784
 1573SOL     OW 5617   5.395   2.695   2.692
 1573SOL    HW1 5618   5.387   2.724   2.596
 1573SOL    HW2 5619   5.309   2.652   2.720
 1574SOL     OW 5620   6.377   0.480   1.644
 1574SOL    HW1 5621   6.305   0.548   1.661
 1574SOL    HW2 5622   6.367   0.444   1.551
 1575SOL     OW 5623   3.398   1.279   0.740
 1575SOL    HW1 5624   3.471   1.212   0.724
 1575SOL    HW2 5625   3.344   1.289   0.656
 1576SOL     OW 5626   0.639   6.942   3.503
 1576SOL    HW1 5627   0.674   6.865   3.450
 1576SOL    HW2 5628   0.709   7.013   3.510
 1577SOL     OW 5629   3.210   2.130   4.433
 1577SOL    HW1 5630   3.244   2.224   4.438
 1577SOL    HW2 5631   3.254   2.074   4.503
 1578SOL     OW 5632   6.332   3.278   5.949
 1578SOL    HW1 5633   6.363   3.314   6.037
 1578SOL    HW2 5634   6.398   3.211   5.915
 1579SOL     OW 5635   6.819   1.758   2.979
 1579SOL    HW1 5636   6.826   1.807   2.893
 1579SOL    HW2 5637   6.906   1.765   3.029
 1580SOL     OW 5638   2.795   3.807   5.344
 1580SOL    HW1 5639   2.851   3.760   5.276
 1580SOL    HW2 5640   2.850   3.826   5.425
 1581SOL     OW 5641   0.204   4.323   4.871
 1581SOL    HW1 5642   0.107   4.308   4.887
 1581SOL    HW2 5643   0.258   4.256   4.923
 1582SOL     OW 5644   1.366   6.765   4.510
 1582SOL    HW1 5645   1.324   6.760   4.600
 1582SOL    HW2 5646   1.337   6.850   4.465
 1583SOL     OW 5647   0.927   4.472   3.486
 1583SOL    HW1 5648   1.020   4.445   3.461
 1583SOL    HW2 5649   0.875   4.392   3.515
 1584SOL     OW 5650   1.468   6.781   5.055
 1584SOL    HW1 5651   1.424   6.859   5.099
 1584SOL    HW2 5652   1.401   6.733   4.998
 1585SOL     OW 5653   5.653   1.424   3.648
 1585SOL    HW1 5654   5.747   1.407   3.676
 1585SOL    HW2 5655   5.642   1.397   3.552
 1586SOL     OW 5656   3.231   4.140   0.892
 1586SOL    HW1 5657   3.252   4.052   0.848
 1586SOL    HW2 5658   3.146   4.131   0.943
 1587SOL     OW 5659   2.624   5.793   6.596
 1587SOL    HW1 5660   2.585   5.859   6.659
 1587SOL    HW2 5661   2.592   5.701   6.619
 1588SOL     OW 5662   5.234   1.543   2.967
 1588SOL    HW1 5663   5.180   1.463   2.943
 1588SOL    HW2 5664   5.180   1.626   2.951
 1589SOL     OW 5665   6.294   4.278   2.288
 1589SOL    HW1 5666   6.200   4.245   2.304
 1589SOL    HW2 5667   6.310   4.361   2.342
 1590SOL     OW 5668   2.484   6.149   6.565
 1590SOL    HW1 5669   2.507   6.106   6.477
 1590SOL    HW2 5670   2.520   6.242   6.566
 1591SOL     OW 5671   0.565   5.253   2.469
 1591SOL    HW1 5672   0.548   5.351   2.477
 1591SOL    HW2 5673   0.489   5.210   2.419
 1592SOL     OW 5674   2.035   4.614   0.858
 1592SOL    HW1 5675   1.982   4.589   0.777
 1592SOL    HW2 5676   2.019   4.710   0.880
 1593SOL     OW 5677   0.623   6.571   3.674
 1593SOL    HW1 5678   0.624   6.563   3.574
 1593SOL    HW2 5679   0.617   6.668   3.699
 1594SOL     OW 5680   6.690   5.964   2.807
 1594SOL    HW1 5681   6.740   5.888   2.767
 1594SOL    HW2 5682   6.754   6.037   2.832
 1595SOL     OW 5683   1.149   5.095   7.026
 1595SOL    HW1 5684   1.183   5.110   0.089
 1595SOL    HW2 5685   1.209   5.031   6.978
 1596SOL     OW 5686   0.607   3.389   4.712
 1596SOL    HW1 5687   0.658   3.366   4.629
 1596SOL    HW2 5688   0.671   3.408   4.786
 1597SOL     OW 5689   2.533   6.135   7.029
 1597SOL    HW1 5690   2.455   6.115   0.058
 1597SOL    HW2 5691   2.618   6.127   0.052
 1598SOL     OW 5692   0.960   3.652   0.158
 1598SOL    HW1 5693   0.930   3.608   0.243
 1598SOL    HW2 5694   0.898   3.627   0.084
 1599SOL     OW 5695   5.039   4.183   5.796
 1599SOL    HW1 5696   4.992   4.224   5.874
 1599SOL    HW2 5697   5.033   4.244   5.718
 1600SOL     OW 5698   5.233   2.103   5.190
 1600SOL    HW1 5699   5.220   2.075   5.095
 1600SOL    HW2 5700   5.218   2.025   5.250
 1601SOL     OW 5701   0.109   4.248   4.356
 1601SOL    HW1 5702   0.078   4.184   4.426
 1601SOL    HW2 5703   0.053   4.238   4.274
 1602SOL     OW 5704   2.040   5.006   3.777
 1602SOL    HW1 5705   2.110   4.967   3.717
 1602SOL    HW2 5706   2.082   5.073   3.837
 1603SOL     OW 5707   0.535   5.957   2.563
 1603SOL    HW1 5708   0.555   6.045   2.520
 1603SOL    HW2 5709   0.467   5.908   2.508
 1604SOL     OW 5710   6.439   4.544   6.537
 1604SOL    HW1 5711   6.455   4.446   6.537
 1604SOL    HW2 5712   6.435   4.577   6.632
 1605SOL     OW 5713   6.233   6.649   2.228
 1605SOL    HW1 5714   6.185   6.624   2.312
 1605SOL    HW2 5715   6.286   6.571   2.196
 1606SOL     OW 5716   3.131   0.220   4.894
 1606SOL    HW1 5717   3.186   0.248   4.973
 1606SOL    HW2 5718   3.192   0.194   4.819
 1607SOL     OW 5719   4.388   2.280   0.440
 1607SOL    HW1 5720   4.301   2.233   0.457
 1607SOL    HW2 5721   4.372   2.361   0.385
 1608SOL     OW 5722   1.536   0.760   5.528
 1608SOL    HW1 5723   1.549   0.759   5.627
 1608SOL    HW2 5724   1.458   0.703   5.504
 1609SOL     OW 5725   4.689   0.538   6.925
 1609SOL    HW1 5726   4.656   0.526   6.831
 1609SOL    HW2 5727   4.614   0.521   6.989
 1610SOL     OW 5728   5.932   4.398   5.714
 1610SOL    HW1 5729   5.846   4.361   5.750
 1610SOL    HW2 5730   5.941   4.494   5.740
 1611SOL     OW 5731   3.211   3.466   1.472
 1611SOL    HW1 5732   3.141   3.533   1.497
 1611SOL    HW2 5733   3.179   3.374   1.495
 1612SOL     OW 5734   2.584   1.074   5.385
 1612SOL    HW1 5735   2.669   1.081   5.437
 1612SOL    HW2 5736   2.604   1.076   5.287
 1613SOL     OW 5737   1.643   6.130   1.471
 1613SOL    HW1 5738   1.653   6.170   1.562
 1613SOL    HW2 5739   1.696   6.183   1.405
 1614SOL     OW 5740   6.257   3.798   0.173
 1614SOL    HW1 5741   6.311   3.775   0.254
 1614SOL    HW2 5742   6.160   3.788   0.194
 1615SOL     OW 5743   6.307   4.733   0.781
 1615SOL    HW1 5744   6.342   4.640   0.782
 1615SOL    HW2 5745   6.313   4.773   0.872
 1616SOL     OW 5746   4.103   2.120   5.356
 1616SOL    HW1 5747   4.032   2.177   5.315
 1616SOL    HW2 5748   4.128   2.158   5.446
 1617SOL     OW 5749   6.450   6.655   1.307
 1617SOL    HW1 5750   6.507   6.646   1.226
 1617SOL    HW2 5751   6.491   6.720   1.371
 1618SOL     OW 5752   1.109   3.689   1.182
 1618SOL    HW1 5753   1.017   3.724   1.164
 1618SOL    HW2 5754   1.177   3.755   1.152
 1619SOL     OW 5755   1.131   1.617   3.559
 1619SOL    HW1 5756   1.093   1.675   3.631
 1619SOL    HW2 5757   1.113   1.659   3.470
 1620SOL     OW 5758   2.185   5.641   0.949
 1620SOL    HW1 5759   2.117   5.614   1.017
 1620SOL    HW2 5760   2.276   5.632   0.987
 1621SOL     OW 5761   1.031   1.785   0.180
 1621SOL    HW1 5762   1.020   1.858   0.113
 1621SOL    HW2 5763   0.983   1.703   0.149
 1622SOL     OW 5764   0.749   2.555   4.510
 1622SOL    HW1 5765   0.669   2.498   4.491
 1622SOL    HW2 5766   0.762   2.620   4.435
 1623SOL     OW 5767   2.571   3.317   5.566
 1623SOL    HW1 5768   2.603   3.239   5.513
 1623SOL    HW2 5769   2.619   3.400   5.536
 1624SOL     OW 5770   3.171   0.789   5.725
 1624SOL    HW1 5771   3.245   0.789   5.657
 1624SOL    HW2 5772   3.100   0.854   5.696
 1625SOL     OW 5773   1.435   5.781   1.872
 1625SOL    HW1 5774   1.364   5.754   1.936
 1625SOL    HW2 5775   1.414   5.871   1.835
 1626SOL     OW 5776   2.829   2.379   6.343
 1626SOL    HW1 5777   2.848   2.281   6.357
 1626SOL    HW2 5778   2.736   2.399   6.376
 1627SOL     OW 5779   6.334   2.263   4.057
 1627SOL    HW1 5780   6.255   2.209   4.027
 1627SOL    HW2 5781   6.368   2.316   3.979
 1628SOL     OW 5782   4.465   4.673   0.223
 1628SOL    HW1 5783   4.434   4.587   0.263
 1628SOL    HW2 5784   4.393   4.742   0.233
 1629SOL     OW 5785   2.691   1.693   4.307
 1629SOL    HW1 5786   2.757   1.710   4.381
 1629SOL    HW2 5787   2.604   1.664   4.347
 1630SOL     OW 5788   1.096   6.036   5.418
 1630SOL    HW1 5789   1.135   5.981   5.492
 1630SOL    HW2 5790   1.167   6.056   5.351
 1631SOL     OW 5791   0.302   1.441   6.648
 1631SOL    HW1 5792   0.272   1.426   6.554
 1631SOL    HW2 5793   0.248   1.515   6.689
 1632SOL     OW 5794   0.228   1.625   0.039
 1632SOL    HW1 5795   0.168   1.574   0.102
 1632SOL    HW2 5796   0.189   1.716   0.023
 1633SOL     OW 5797   4.917   2.107   4.049
 1633SOL    HW1 5798   5.009   2.099   4.010
 1633SOL    HW2 5799   4.854   2.049   3.997
 1634SOL     OW 5800   4.095   4.743   5.943
 1634SOL    HW1 5801   4.046   4.664   5.979
 1634SOL    HW2 5802   4.082   4.747   5.843
 1635SOL     OW 5803   6.439   5.429   5.166
 1635SOL    HW1 5804   6.397   5.471   5.247
 1635SOL    HW2 5805   6.482   5.343   5.191
 1636SOL     OW 5806   2.291   3.444   1.375
 1636SOL    HW1 5807   2.359   3.374   1.357
 1636SOL    HW2 5808   2.236   3.417   1.454
 1637SOL     OW 5809   0.239   0.555   2.995
 1637SOL    HW1 5810   0.160   0.593   3.045
 1637SOL    HW2 5811   0.319   0.556   3.055
 1638SOL     OW 5812   0.653   3.943   3.955
 1638SOL    HW1 5813   0.597   4.015   3.915
 1638SOL    HW2 5814   0.750   3.967   3.947
 1639SOL     OW 5815   4.478   6.929   3.089
 1639SOL    HW1 5816   4.489   6.896   2.995
 1639SOL    HW2 5817   4.567   6.958   3.125
 1640SOL     OW 5818   5.786   1.824   1.334
 1640SOL    HW1 5819   5.823   1.854   1.246
 1640SOL    HW2 5820   5.795   1.898   1.401
 1641SOL     OW 5821   5.034   3.157   4.203
 1641SOL    HW1 5822   4.987   3.132   4.118
 1641SOL    HW2 5823   4.969   3.153   4.279
 1642SOL     OW 5824   6.138   3.326   6.752
 1642SOL    HW1 5825   6.177   3.335   6.660
 1642SOL    HW2 5826   6.038   3.328   6.746
 1643SOL     OW 5827   2.804   5.226   4.102
 1643SOL    HW1 5828   2.827   5.319   4.130
 1643SOL    HW2 5829   2.811   5.219   4.002
 1644SOL     OW 5830   1.296   3.028   1.414
 1644SOL    HW1 5831   1.343   3.053   1.499
 1644SOL    HW2 5832   1.242   2.945   1.430
 1645SOL     OW 5833   2.476   6.037   5.309
 1645SOL    HW1 5834   2.569   6.000   5.299
 1645SOL    HW2 5835   2.476   6.134   5.285
 1646SOL     OW 5836   2.580   6.461   1.054
 1646SOL    HW1 5837   2.488   6.486   1.086
 1646SOL    HW2 5838   2.618   6.536   1.001
 1647SOL     OW 5839   5.598   3.015   4.526
 1647SOL    HW1 5840   5.553   2.957   4.593
 1647SOL    HW2 5841   5.537   3.028   4.448
 1648SOL     OW 5842   5.996   6.269   1.037
 1648SOL    HW1 5843   5.949   6.187   1.070
 1648SOL    HW2 5844   5.961   6.349   1.084
 1649SOL     OW 5845   3.968   0.149   3.690
 1649SOL    HW1 5846   4.048   0.097   3.721
 1649SOL    HW2 5847   3.891   0.128   3.750
 1650SOL     OW 5848   2.026   6.815   4.617
 1650SOL    HW1 5849   1.951   6.749   4.607
 1650SOL    HW2 5850   2.019   6.860   4.706
 1651SOL     OW 5851   1.127   0.789   1.823
 1651SOL    HW1 5852   1.213   0.840   1.813
 1651SOL    HW2 5853   1.082   0.817   1.907
 1652SOL     OW 5854   1.871   3.133   1.928
 1652SOL    HW1 5855   1.924   3.073   1.867
 1652SOL    HW2 5856   1.809   3.189   1.874
 1653SOL     OW 5857   0.001   6.665   1.380
 1653SOL    HW1 5858   6.963   6.591   1.376
 1653SOL    HW2 5859   7.007   6.727   1.455
 1654SOL     OW 5860   6.699   2.758   2.235
 1654SOL    HW1 5861   6.700   2.763   2.335
 1654SOL    HW2 5862   6.788   2.784   2.199
 1655SOL     OW 5863   5.864   3.202   5.350
 1655SOL    HW1 5864   5.835   3.167   5.439
 1655SOL    HW2 5865   5.893   3.297   5.359
 1656SOL     OW 5866   1.666   4.437   2.903
 1656SOL    HW1 5867   1.726   4.517   2.907
 1656SOL    HW2 5868   1.612   4.431   2.988
 1657SOL     OW 5869   6.869   0.654   4.292
 1657SOL    HW1 5870   6.959   0.648   4.334
 1657SOL    HW2 5871   6.818   0.570   4.308
 1658SOL     OW 5872   0.778   0.800   2.683
 1658SOL    HW1 5873   0.795   0.881   2.626
 1658SOL    HW2 5874   0.741   0.727   2.626
 1659SOL     OW 5875   3.395   1.133   6.167
 1659SOL    HW1 5876   3.458   1.125   6.244
 1659SOL    HW2 5877   3.413   1.059   6.102
 1660SOL     OW 5878   1.562   4.611   4.067
 1660SOL    HW1 5879   1.569   4.603   3.967
 1660SOL    HW2 5880   1.636   4.669   4.101
 1661SOL     OW 5881   3.090   1.777   1.540
 1661SOL    HW1 5882   3.130   1.825   1.618
 1661SOL    HW2 5883   3.101   1.679   1.551
 1662SOL     OW 5884   6.687   1.069   4.132
 1662SOL    HW1 5885   6.740   0.989   4.160
 1662SOL    HW2 5886   6.628   1.044   4.055
 1663SOL     OW 5887   3.130   1.035   3.205
 1663SOL    HW1 5888   3.116   1.081   3.118
 1663SOL    HW2 5889   3.063   0.962   3.216
 1664SOL     OW 5890   1.262   0.323   4.080
 1664SOL    HW1 5891   1.323   0.273   4.019
 1664SOL    HW2 5892   1.207   0.387   4.027
 1665SOL     OW 5893   6.750   1.678   2.684
 1665SOL    HW1 5894   6.657   1.642   2.687
 1665SOL    HW2 5895   6.812   1.607   2.651
 1666SOL     OW 5896   5.893   3.519   0.382
 1666SOL    HW1 5897   5.826   3.445   0.390
 1666SOL    HW2 5898   5.941   3.512   0.295
 1667SOL     OW 5899   5.525   6.833   0.830
 1667SOL    HW1 5900   5.568   6.920   0.854
 1667SOL    HW2 5901   5.594   6.771   0.793
 1668SOL     OW 5902   5.318   5.732   5.819
 1668SOL    HW1 5903   5.294   5.689   5.906
 1668SOL    HW2 5904   5.254   5.704   5.748
 1669SOL     OW 5905   6.022   0.006   0.228
 1669SOL    HW1 5906   6.020   0.080   0.297
 1669SOL    HW2 5907   6.025   6.947   0.275
 1670SOL     OW 5908   6.972   5.116   6.771
 1670SOL    HW1 5909   6.993   5.154   6.681
 1670SOL    HW2 5910   6.875   5.091   6.775
 1671SOL     OW 5911   4.421   2.150   1.100
 1671SOL    HW1 5912   4.505   2.099   1.080
 1671SOL    HW2 5913   4.406   2.150   1.199
 1672SOL     OW 5914   2.202   3.910   2.344
 1672SOL    HW1 5915   2.110   3.879   2.318
 1672SOL    HW2 5916   2.254   3.933   2.261
 1673SOL     OW 5917   0.406   2.516   4.412
 1673SOL    HW1 5918   0.363   2.514   4.322
 1673SOL    HW2 5919   0.428   2.422   4.440
 1674SOL     OW 5920   0.601   3.863   2.011
 1674SOL    HW1 5921   0.665   3.893   1.941
 1674SOL    HW2 5922   0.640   3.881   2.102
 1675SOL     OW 5923   4.048   0.191   6.040
 1675SOL    HW1 5924   4.020   0.280   6.004
 1675SOL    HW2 5925   4.087   0.137   5.966
 1676SOL     OW 5926   3.179   1.087   2.352
 1676SOL    HW1 5927   3.091   1.040   2.338
 1676SOL    HW2 5928   3.253   1.021   2.347
 1677SOL     OW 5929   4.208   2.811   5.328
 1677SOL    HW1 5930   4.178   2.726   5.287
 1677SOL    HW2 5931   4.300   2.834   5.296
 1678SOL     OW 5932   5.089   4.534   4.715
 1678SOL    HW1 5933   5.036   4.468   4.660
 1678SOL    HW2 5934   5.053   4.537   4.808
 1679SOL     OW 5935   1.994   3.353   4.911
 1679SOL    HW1 5936   2.038   3.265   4.928
 1679SOL    HW2 5937   2.054   3.427   4.944
 1680SOL     OW 5938   0.602   1.875   4.184
 1680SOL    HW1 5939   0.637   1.820   4.259
 1680SOL    HW2 5940   0.678   1.926   4.142
 1681SOL     OW 5941   6.830   5.789   1.141
 1681SOL    HW1 5942   6.874   5.879   1.145
 1681SOL    HW2 5943   6.784   5.771   1.228
 1682SOL     OW 5944   6.812   2.580   4.810
 1682SOL    HW1 5945   6.853   2.617   4.893
 1682SOL    HW2 5946   6.847   2.487   4.795
 1683SOL     OW 5947   3.778   5.756   0.895
 1683SOL    HW1 5948   3.836   5.770   0.815
 1683SOL    HW2 5949   3.832   5.716   0.969
 1684SOL     OW 5950   1.653   6.100   2.614
 1684SOL    HW1 5951   1.664   6.192   2.653
 1684SOL    HW2 5952   1.637   6.108   2.515
 1685SOL     OW 5953   2.804   1.258   6.315
 1685SOL    HW1 5954   2.888   1.207   6.330
 1685SOL    HW2 5955   2.815   1.318   6.235
 1686SOL     OW 5956   1.745   4.969   5.007
 1686SOL    HW1 5957   1.684   4.926   5.073
 1686SOL    HW2 5958   1.713   4.950   4.914
 1687SOL     OW 5959   2.279   3.029   1.062
 1687SOL    HW1 5960   2.378   3.014   1.061
 1687SOL    HW2 5961   2.253   3.087   0.985
 1688SOL     OW 5962   1.304   2.393   4.090
 1688SOL    HW1 5963   1.307   2.492   4.103
 1688SOL    HW2 5964   1.236   2.354   4.152
 1689SOL     OW 5965   4.138   1.138   1.821
 1689SOL    HW1 5966   4.066   1.069   1.824
 1689SOL    HW2 5967   4.125   1.202   1.897
 1690SOL     OW 5968   1.436   2.719   3.512
 1690SOL    HW1 5969   1.506   2.791   3.501
 1690SOL    HW2 5970   1.461   2.660   3.588
 1691SOL     OW 5971   4.820   3.945   3.468
 1691SOL    HW1 5972   4.803   4.034   3.512
 1691SOL    HW2 5973   4.817   3.873   3.537
 1692SOL     OW 5974   6.471   6.998   1.333
 1692SOL    HW1 5975   6.481   0.064   1.362
 1692SOL    HW2 5976   6.454   6.995   1.234
 1693SOL     OW 5977   0.289   2.229   2.414
 1693SOL    HW1 5978   0.304   2.298   2.486
 1693SOL    HW2 5979   0.255   2.145   2.455
 1694SOL     OW 5980   5.030   0.225   4.045
 1694SOL    HW1 5981   5.126   0.198   4.037
 1694SOL    HW2 5982   5.022   0.324   4.033
 1695SOL     OW 5983   2.231   1.129   5.897
 1695SOL    HW1 5984   2.285   1.158   5.976
 1695SOL    HW2 5985   2.208   1.032   5.907
 1696SOL     OW 5986   5.401   4.946   0.482
 1696SOL    HW1 5987   5.440   5.019   0.538
 1696SOL    HW2 5988   5.438   4.952   0.389
 1697SOL     OW 5989   5.765   6.432   2.323
 1697SOL    HW1 5990   5.743   6.444   2.227
 1697SOL    HW2 5991   5.800   6.340   2.338
 1698SOL     OW 5992   4.734   0.969   0.708
 1698SOL    HW1 5993   4.675   0.925   0.641
 1698SOL    HW2 5994   4.683   1.041   0.755
 1699SOL     OW 5995   2.815   1.010   1.956
 1699SOL    HW1 5996   2.749   1.048   2.020
 1699SOL    HW2 5997   2.767   0.967   1.879
 1700SOL     OW 5998   6.169   1.770   3.383
 1700SOL    HW1 5999   6.125   1.806   3.465
 1700SOL    HW2 6000   6.129   1.813   3.302
 1701SOL     OW 6001   5.198   2.753   5.377
 1701SOL    HW1 6002   5.154   2.676   5.330
 1701SOL    HW2 6003   5.156   2.765   5.467
 1702SOL     OW 6004   6.975   2.791   0.936
 1702SOL    HW1 6005   6.945   2.837   1.020
 1702SOL    HW2 6006   0.028   2.737   0.955
 1703SOL     OW 6007   3.981   3.833   3.104
 1703SOL    HW1 6008   3.969   3.857   3.200
 1703SOL    HW2 6009   3.892   3.815   3.062
 1704SOL     OW 6010   0.608   1.433   1.985
 1704SOL    HW1 6011   0.637   1.438   2.081
 1704SOL    HW2 6012   0.670   1.373   1.935
 1705SOL     OW 6013   3.418   1.985   2.072
 1705SOL    HW1 6014   3.324   2.019   2.081
 1705SOL    HW2 6015   3.479   2.062   2.052
 1706SOL     OW 6016   4.525   0.024   1.452
 1706SOL    HW1 6017   4.515   0.108   1.400
 1706SOL    HW2 6018   4.590   0.038   1.526
 1707SOL     OW 6019   4.616   1.509   3.142
 1707SOL    HW1 6020   4.654   1.454   3.068
 1707SOL    HW2 6021   4.632   1.463   3.229
 1708SOL     OW 6022   4.777   5.276   2.258
 1708SOL    HW1 6023   4.699   5.324   2.217
 1708SOL    HW2 6024   4.757   5.178   2.261
 1709SOL     OW 6025   2.816   6.003   1.648
 1709SOL    HW1 6026   2.731   6.049   1.673
 1709SOL    HW2 6027   2.797   5.907   1.627
 1710SOL     OW 6028   5.862   4.484   3.645
 1710SOL    HW1 6029   5.765   4.508   3.642
 1710SOL    HW2 6030   5.907   4.538   3.716
 1711SOL     OW 6031   1.005   4.224   5.182
 1711SOL    HW1 6032   1.013   4.138   5.132
 1711SOL    HW2 6033   0.996   4.300   5.117
 1712SOL     OW 6034   1.316   3.007   6.582
 1712SOL    HW1 6035   1.378   3.030   6.658
 1712SOL    HW2 6036   1.310   3.085   6.520
 1713SOL     OW 6037   3.364   2.096   0.902
 1713SOL    HW1 6038   3.373   1.997   0.910
 1713SOL    HW2 6039   3.274   2.119   0.863
 1714SOL     OW 6040   4.524   1.387   6.187
 1714SOL    HW1 6041   4.460   1.463   6.185
 1714SOL    HW2 6042   4.576   1.389   6.273
 1715SOL     OW 6043   6.854   3.796   2.722
 1715SOL    HW1 6044   6.925   3.796   2.652
 1715SOL    HW2 6045   6.783   3.731   2.697
 1716SOL     OW 6046   5.212   6.847   1.524
 1716SOL    HW1 6047   5.200   6.889   1.614
 1716SOL    HW2 6048   5.152   6.892   1.458
 1717SOL     OW 6049   1.671   6.461   6.565
 1717SOL    HW1 6050   1.584   6.508   6.547
 1717SOL    HW2 6051   1.654   6.364   6.581
 1718SOL     OW 6052   1.770   2.046   1.099
 1718SOL    HW1 6053   1.810   1.959   1.125
 1718SOL    HW2 6054   1.843   2.114   1.087
 1719SOL     OW 6055   2.443   4.147   1.541
 1719SOL    HW1 6056   2.389   4.231   1.537
 1719SOL    HW2 6057   2.394   4.074   1.493
 1720SOL     OW 6058   6.624   0.971   1.425
 1720SOL    HW1 6059   6.642   1.069   1.411
 1720SOL    HW2 6060   6.704   0.928   1.465
 1721SOL     OW 6061   1.053   6.596   2.944
 1721SOL    HW1 6062   0.959   6.628   2.940
 1721SOL    HW2 6063   1.115   6.671   2.919
 1722SOL     OW 6064   4.845   1.517   3.751
 1722SOL    HW1 6065   4.816   1.533   3.656
 1722SOL    HW2 6066   4.927   1.460   3.751
 1723SOL     OW 6067   6.837   2.966   3.284
 1723SOL    HW1 6068   6.907   2.895   3.286
 1723SOL    HW2 6069   6.800   2.974   3.192
 1724SOL     OW 6070   5.739   2.157   1.230
 1724SOL    HW1 6071   5.744   2.237   1.170
 1724SOL    HW2 6072   5.665   2.169   1.296
 1725SOL     OW 6073   2.582   5.054   0.285
 1725SOL    HW1 6074   2.669   5.027   0.245
 1725SOL    HW2 6075   2.590   5.057   0.385
 1726SOL     OW 6076   6.256   4.189   5.238
 1726SOL    HW1 6077   6.205   4.271   5.264
 1726SOL    HW2 6078   6.223   4.111   5.291
 1727SOL     OW 6079   3.688   2.953   4.438
 1727SOL    HW1 6080   3.770   2.978   4.489
 1727SOL    HW2 6081   3.678   2.854   4.437
 1728SOL     OW 6082   5.642   5.445   4.891
 1728SOL    HW1 6083   5.580   5.407   4.959
 1728SOL    HW2 6084   5.619   5.410   4.801
 1729SOL     OW 6085   2.215   3.881   3.467
 1729SOL    HW1 6086   2.247   3.933   3.546
 1729SOL    HW2 6087   2.276   3.899   3.389
 1730SOL     OW 6088   6.571   0.290   4.720
 1730SOL    HW1 6089   6.530   0.362   4.664
 1730SOL    HW2 6090   6.501   0.251   4.780
 1731SOL     OW 6091   0.898   5.444   2.035
 1731SOL    HW1 6092   0.985   5.401   2.009
 1731SOL    HW2 6093   0.865   5.403   2.120
 1732SOL     OW 6094   2.318   4.143   5.946
 1732SOL    HW1 6095   2.233   4.150   5.999
 1732SOL    HW2 6096   2.326   4.223   5.887
 1733SOL     OW 6097   0.987   3.663   2.487
 1733SOL    HW1 6098   0.893   3.695   2.497
 1733SOL    HW2 6099   0.993   3.568   2.517
 1734SOL     OW 6100   4.954   3.057   1.931
 1734SOL    HW1 6101   4.991   3.123   1.996
 1734SOL    HW2 6102   4.860   3.034   1.956
 1735SOL     OW 6103   6.025   5.659   0.953
 1735SOL    HW1 6104   6.089   5.582   0.947
 1735SOL    HW2 6105   6.020   5.705   0.865
 1736SOL     OW 6106   4.474   1.996   0.754
 1736SOL    HW1 6107   4.386   1.982   0.708
 1736SOL    HW2 6108   4.520   2.076   0.716
 1737SOL     OW 6109   3.056   1.372   4.519
 1737SOL    HW1 6110   3.021   1.351   4.427
 1737SOL    HW2 6111   3.116   1.451   4.514
 1738SOL     OW 6112   1.970   1.841   3.963
 1738SOL    HW1 6113   1.915   1.864   4.044
 1738SOL    HW2 6114   1.958   1.912   3.894
 1739SOL     OW 6115   5.039   2.579   5.272
 1739SOL    HW1 6116   4.942   2.556   5.279
 1739SOL    HW2 6117   5.084   2.519   5.205
 1740SOL     OW 6118   0.282   1.864   6.468
 1740SOL    HW1 6119   0.247   1.785   6.417
 1740SOL    HW2 6120   0.353   1.833   6.531
 1741SOL     OW 6121   2.856   0.605   3.767
 1741SOL    HW1 6122   2.863   0.700   3.735
 1741SOL    HW2 6123   2.933   0.552   3.730
 1742SOL     OW 6124   4.660   6.216   6.202
 1742SOL    HW1 6125   4.643   6.314   6.215
 1742SOL    HW2 6126   4.704   6.202   6.113
 1743SOL     OW 6127   1.909   1.878   2.231
 1743SOL    HW1 6128   1.946   1.970   2.232
 1743SOL    HW2 6129   1.812   1.880   2.254
 1744SOL     OW 6130   0.757   0.270   1.213
 1744SOL    HW1 6131   0.785   0.220   1.295
 1744SOL    HW2 6132   0.833   0.272   1.148
 1745SOL     OW 6133   6.727   0.726   4.080
 1745SOL    HW1 6134   6.636   0.690   4.099
 1745SOL    HW2 6135   6.793   0.685   4.143
 1746SOL     OW 6136   2.033   5.305   4.861
 1746SOL    HW1 6137   1.979   5.308   4.777
 1746SOL    HW2 6138   2.005   5.226   4.916
 1747SOL     OW 6139   5.235   0.203   2.662
 1747SOL    HW1 6140   5.182   0.288   2.655
 1747SOL    HW2 6141   5.330   0.220   2.638
 1748SOL     OW 6142   0.355   1.130   3.799
 1748SOL    HW1 6143   0.420   1.088   3.735
 1748SOL    HW2 6144   0.273   1.073   3.806
 1749SOL     OW 6145   2.630   6.410   5.436
 1749SOL    HW1 6146   2.606   6.501   5.470
 1749SOL    HW2 6147   2.640   6.348   5.513
 1750SOL     OW 6148   6.554   0.271   3.197
 1750SOL    HW1 6149   6.571   0.299   3.291
 1750SOL    HW2 6150   6.600   0.334   3.134
 1751SOL     OW 6151   3.643   5.814   4.847
 1751SOL    HW1 6152   3.591   5.794   4.765
 1751SOL    HW2 6153   3.740   5.796   4.831
 1752SOL     OW 6154   0.001   2.227   2.612
 1752SOL    HW1 6155   6.986   2.138   2.597
 1752SOL    HW2 6156   0.008   2.276   2.526
 1753SOL     OW 6157   0.517   2.005   0.627
 1753SOL    HW1 6158   0.530   1.926   0.567
 1753SOL    HW2 6159   0.606   2.036   0.661
 1754SOL     OW 6160   3.492   3.498   1.195
 1754SOL    HW1 6161   3.581   3.502   1.241
 1754SOL    HW2 6162   3.505   3.499   1.096
 1755SOL     OW 6163   5.652   5.308   2.231
 1755SOL    HW1 6164   5.704   5.223   2.223
 1755SOL    HW2 6165   5.657   5.341   2.326
 1756SOL     OW 6166   4.348   4.251   6.440
 1756SOL    HW1 6167   4.413   4.324   6.418
 1756SOL    HW2 6168   4.291   4.233   6.359
 1757SOL     OW 6169   2.420   5.264   4.735
 1757SOL    HW1 6170   2.499   5.203   4.738
 1757SOL    HW2 6171   2.394   5.288   4.829
 1758SOL     OW 6172   2.196   0.417   3.878
 1758SOL    HW1 6173   2.132   0.342   3.862
 1758SOL    HW2 6174   2.289   0.381   3.883
 1759SOL     OW 6175   0.992   4.699   5.507
 1759SOL    HW1 6176   0.950   4.617   5.468
 1759SOL    HW2 6177   1.067   4.729   5.449
 1760SOL     OW 6178   6.546   1.379   1.633
 1760SOL    HW1 6179   6.590   1.453   1.684
 1760SOL    HW2 6180   6.550   1.295   1.687
 1761SOL     OW 6181   0.218   0.498   0.523
 1761SOL    HW1 6182   0.130   0.545   0.518
 1761SOL    HW2 6183   0.225   0.447   0.609
 1762SOL     OW 6184   5.997   1.813   4.876
 1762SOL    HW1 6185   5.958   1.874   4.945
 1762SOL    HW2 6186   6.092   1.840   4.857
 1763SOL     OW 6187   2.056   3.508   4.358
 1763SOL    HW1 6188   1.976   3.484   4.412
 1763SOL    HW2 6189   2.100   3.589   4.398
 1764SOL     OW 6190   1.446   3.985   2.674
 1764SOL    HW1 6191   1.519   3.986   2.605
 1764SOL    HW2 6192   1.395   3.900   2.666
 1765SOL     OW 6193   3.565   1.576   6.698
 1765SOL    HW1 6194   3.584   1.644   6.768
 1765SOL    HW2 6195   3.651   1.541   6.661
 1766SOL     OW 6196   4.918   3.189   3.739
 1766SOL    HW1 6197   4.870   3.144   3.814
 1766SOL    HW2 6198   5.011   3.212   3.767
 1767SOL     OW 6199   6.345   3.644   3.070
 1767SOL    HW1 6200   6.358   3.654   2.972
 1767SOL    HW2 6201   6.412   3.701   3.119
 1768SOL     OW 6202   3.843   1.582   4.935
 1768SOL    HW1 6203   3.873   1.491   4.963
 1768SOL    HW2 6204   3.865   1.596   4.838
 1769SOL     OW 6205   4.197   2.181   4.876
 1769SOL    HW1 6206   4.179   2.252   4.944
 1769SOL    HW2 6207   4.220   2.223   4.788
 1770SOL     OW 6208   0.570   5.034   4.804
 1770SOL    HW1 6209   0.582   4.973   4.725
 1770SOL    HW2 6210   0.539   5.124   4.772
 1771SOL     OW 6211   2.420   4.925   0.057
 1771SOL    HW1 6212   2.453   4.918   0.151
 1771SOL    HW2 6213   2.321   4.912   0.055
 1772SOL     OW 6214   2.845   6.762   3.638
 1772SOL    HW1 6215   2.773   6.830   3.625
 1772SOL    HW2 6216   2.930   6.797   3.600
 1773SOL     OW 6217   2.437   4.634   6.040
 1773SOL    HW1 6218   2.437   4.617   5.942
 1773SOL    HW2 6219   2.491   4.564   6.087
 1774SOL     OW 6220   4.291   0.019   1.620
 1774SOL    HW1 6221   4.376   0.038   1.570
 1774SOL    HW2 6222   4.225   7.007   1.557
 1775SOL     OW 6223   0.878   4.099   4.291
 1775SOL    HW1 6224   0.841   4.111   4.199
 1775SOL    HW2 6225   0.860   4.006   4.323
 1776SOL     OW 6226   3.682   0.276   4.403
 1776SOL    HW1 6227   3.712   0.267   4.498
 1776SOL    HW2 6228   3.715   0.363   4.366
 1777SOL     OW 6229   3.418   5.312   5.835
 1777SOL    HW1 6230   3.347   5.360   5.887
 1777SOL    HW2 6231   3.456   5.239   5.891
 1778SOL     OW 6232   4.782   2.887   6.129
 1778SOL    HW1 6233   4.738   2.968   6.091
 1778SOL    HW2 6234   4.767   2.809   6.068
 1779SOL     OW 6235   4.269   0.938   4.886
 1779SOL    HW1 6236   4.304   0.860   4.834
 1779SOL    HW2 6237   4.281   1.021   4.833
 1780SOL     OW 6238   2.975   2.996   5.826
 1780SOL    HW1 6239   2.958   2.952   5.914
 1780SOL    HW2 6240   2.953   3.093   5.833
 1781SOL     OW 6241   4.353   6.070   3.877
 1781SOL    HW1 6242   4.307   6.101   3.960
 1781SOL    HW2 6243   4.362   5.970   3.879
 1782SOL     OW 6244   3.333   1.800   2.919
 1782SOL    HW1 6245   3.236   1.816   2.936
 1782SOL    HW2 6246   3.386   1.880   2.948
 1783SOL     OW 6247   1.285   4.166   6.528
 1783SOL    HW1 6248   1.193   4.132   6.512
 1783SOL    HW2 6249   1.316   4.137   6.618
 1784SOL     OW 6250   3.876   1.515   5.367
 1784SOL    HW1 6251   3.889   1.420   5.395
 1784SOL    HW2 6252   3.803   1.556   5.421
 1785SOL     OW 6253   6.471   5.378   3.832
 1785SOL    HW1 6254   6.388   5.387   3.777
 1785SOL    HW2 6255   6.487   5.463   3.882
 1786SOL     OW 6256   1.129   2.800   1.473
 1786SOL    HW1 6257   1.159   2.711   1.440
 1786SOL    HW2 6258   1.075   2.788   1.556
 1787SOL     OW 6259   2.483   0.430   5.026
 1787SOL    HW1 6260   2.525   0.508   5.072
 1787SOL    HW2 6261   2.503   0.435   4.928
 1788SOL     OW 6262   3.403   2.748   6.912
 1788SOL    HW1 6263   3.479   2.809   6.889
 1788SOL    HW2 6264   3.317   2.797   6.907
 1789SOL     OW 6265   5.813   2.453   3.087
 1789SOL    HW1 6266   5.716   2.471   3.070
 1789SOL    HW2 6267   5.833   2.471   3.183
 1790SOL     OW 6268   3.703   6.387   4.090
 1790SOL    HW1 6269   3.650   6.443   4.026
 1790SOL    HW2 6270   3.677   6.291   4.077
 1791SOL     OW 6271   6.833   1.208   3.398
 1791SOL    HW1 6272   6.932   1.214   3.385
 1791SOL    HW2 6273   6.811   1.134   3.461
 1792SOL     OW 6274   0.157   3.072   3.919
 1792SOL    HW1 6275   0.171   3.069   3.820
 1792SOL    HW2 6276   0.244   3.061   3.966
 1793SOL     OW 6277   6.497   6.687   3.170
 1793SOL    HW1 6278   6.544   6.616   3.117
 1793SOL    HW2 6279   6.560   6.763   3.186
 1794SOL     OW 6280   6.000   6.230   6.158
 1794SOL    HW1 6281   6.094   6.264   6.160
 1794SOL    HW2 6282   5.937   6.308   6.155
 1795SOL     OW 6283   0.484   3.268   1.511
 1795SOL    HW1 6284   0.534   3.262   1.425
 1795SOL    HW2 6285   0.430   3.185   1.523
 1796SOL     OW 6286   2.560   0.437   4.411
 1796SOL    HW1 6287   2.611   0.491   4.344
 1796SOL    HW2 6288   2.506   0.367   4.364
 1797SOL     OW 6289   1.283   0.380   0.181
 1797SOL    HW1 6290   1.272   0.287   0.216
 1797SOL    HW2 6291   1.351   0.428   0.236
 1798SOL     OW 6292   5.094   2.017   4.680
 1798SOL    HW1 6293   5.102   1.918   4.668
 1798SOL    HW2 6294   5.178   2.061   4.647
 1799SOL     OW 6295   6.547   2.138   5.935
 1799SOL    HW1 6296   6.541   2.040   5.953
 1799SOL    HW2 6297   6.503   2.158   5.847
 1800SOL     OW 6298   3.826   4.930   2.338
 1800SOL    HW1 6299   3.896   4.859   2.336
 1800SOL    HW2 6300   3.824   4.974   2.428
 1801SOL     OW 6301   0.643   0.919   2.387
 1801SOL    HW1 6302   0.724   0.869   2.418
 1801SOL    HW2 6303   0.564   0.858   2.383
 1802SOL     OW 6304   5.302   5.673   2.396
 1802SOL    HW1 6305   5.314   5.596   2.459
 1802SOL    HW2 6306   5.272   5.753   2.447
 1803SOL     OW 6307   0.259   6.182   6.907
 1803SOL    HW1 6308   0.300   6.170   6.997
 1803SOL    HW2 6309   0.276   6.275   6.874
 1804SOL     OW 6310   2.330   3.781   5.582
 1804SOL    HW1 6311   2.388   3.802   5.503
 1804SOL    HW2 6312   2.387   3.759   5.661
 1805SOL     OW 6313   6.392   3.928   5.702
 1805SOL    HW1 6314   6.396   3.829   5.717
 1805SOL    HW2 6315   6.304   3.952   5.660
 1806SOL     OW 6316   1.285   1.485   0.477
 1806SOL    HW1 6317   1.285   1.520   0.383
 1806SOL    HW2 6318   1.231   1.401   0.481
 1807SOL     OW 6319   5.080   2.320   5.961
 1807SOL    HW1 6320   5.011   2.353   6.026
 1807SOL    HW2 6321   5.034   2.286   5.878
 1808SOL     OW 6322   0.382   3.529   5.963
 1808SOL    HW1 6323   0.402   3.489   6.053
 1808SOL    HW2 6324   0.415   3.623   5.961
 1809SOL     OW 6325   2.065   2.549   4.632
 1809SOL    HW1 6326   2.095   2.534   4.726
 1809SOL    HW2 6327   2.076   2.464   4.579
 1810SOL     OW 6328   2.986   0.345   3.943
 1810SOL    HW1 6329   2.992   0.342   3.843
 1810SOL    HW2 6330   3.030   0.428   3.977
 1811SOL     OW 6331   4.624   4.496   3.540
 1811SOL    HW1 6332   4.699   4.489   3.474
 1811SOL    HW2 6333   4.661   4.486   3.633
 1812SOL     OW 6334   4.260   6.712   5.353
 1812SOL    HW1 6335   4.179   6.729   5.410
 1812SOL    HW2 6336   4.233   6.703   5.258
 1813SOL     OW 6337   6.132   5.130   0.684
 1813SOL    HW1 6338   6.168   5.204   0.626
 1813SOL    HW2 6339   6.060   5.166   0.743
 1814SOL     OW 6340   6.701   1.533   0.368
 1814SOL    HW1 6341   6.663   1.580   0.448
 1814SOL    HW2 6342   6.710   1.598   0.293
 1815SOL     OW 6343   6.119   2.449   2.002
 1815SOL    HW1 6344   6.111   2.520   1.932
 1815SOL    HW2 6345   6.197   2.469   2.061
 1816SOL     OW 6346   2.469   3.782   1.045
 1816SOL    HW1 6347   2.399   3.733   1.097
 1816SOL    HW2 6348   2.505   3.857   1.100
 1817SOL     OW 6349   3.287   6.915   3.231
 1817SOL    HW1 6350   3.386   6.919   3.217
 1817SOL    HW2 6351   3.241   6.964   3.157
 1818SOL     OW 6352   1.735   6.477   2.234
 1818SOL    HW1 6353   1.697   6.434   2.152
 1818SOL    HW2 6354   1.664   6.484   2.304
 1819SOL     OW 6355   0.678   5.191   1.780
 1819SOL    HW1 6356   0.638   5.282   1.771
 1819SOL    HW2 6357   0.616   5.133   1.832
 1820SOL     OW 6358   5.058   1.086   1.973
 1820SOL    HW1 6359   4.976   1.131   2.007
 1820SOL    HW2 6360   5.098   1.141   1.899
 1821SOL     OW 6361   2.317   0.868   1.860
 1821SOL    HW1 6362   2.272   0.921   1.931
 1821SOL    HW2 6363   2.293   0.905   1.770
 1822SOL     OW 6364   1.566   2.741   1.835
 1822SOL    HW1 6365   1.478   2.715   1.797
 1822SOL    HW2 6366   1.626   2.775   1.762
 1823SOL     OW 6367   2.676   5.754   3.136
 1823SOL    HW1 6368   2.675   5.719   3.230
 1823SOL    HW2 6369   2.611   5.830   3.128
 1824SOL     OW 6370   3.479   3.079   1.484
 1824SOL    HW1 6371   3.510   3.054   1.392
 1824SOL    HW2 6372   3.443   2.998   1.530
 1825SOL     OW 6373   1.333   1.484   3.680
 1825SOL    HW1 6374   1.255   1.517   3.626
 1825SOL    HW2 6375   1.300   1.451   3.768
 1826SOL     OW 6376   2.872   0.052   1.059
 1826SOL    HW1 6377   2.828   0.140   1.039
 1826SOL    HW2 6378   2.957   0.067   1.109
 1827SOL     OW 6379   6.809   6.145   1.649
 1827SOL    HW1 6380   6.851   6.233   1.671
 1827SOL    HW2 6381   6.732   6.159   1.588
 1828SOL     OW 6382   1.339   2.993   0.475
 1828SOL    HW1 6383   1.372   2.978   0.382
 1828SOL    HW2 6384   1.280   3.074   0.477
 1829SOL     OW 6385   3.453   0.261   3.413
 1829SOL    HW1 6386   3.370   0.210   3.433
 1829SOL    HW2 6387   3.501   0.283   3.498
 1830SOL     OW 6388   5.928   6.092   3.886
 1830SOL    HW1 6389   5.868   6.079   3.966
 1830SOL    HW2 6390   6.016   6.128   3.916
 1831SOL     OW 6391   6.030   0.179   1.954
 1831SOL    HW1 6392   6.089   0.203   2.031
 1831SOL    HW2 6393   6.009   0.262   1.902
 1832SOL     OW 6394   5.502   0.992   1.114
 1832SOL    HW1 6395   5.472   0.907   1.070
 1832SOL    HW2 6396   5.428   1.058   1.114
 1833SOL     OW 6397   5.158   0.196   5.970
 1833SOL    HW1 6398   5.084   0.219   6.034
 1833SOL    HW2 6399   5.222   0.133   6.014
 1834SOL     OW 6400   2.725   3.876   0.401
 1834SOL    HW1 6401   2.729   3.943   0.327
 1834SOL    HW2 6402   2.758   3.918   0.486
 1835SOL     OW 6403   0.848   3.623   1.882
 1835SOL    HW1 6404   0.856   3.579   1.971
 1835SOL    HW2 6405   0.751   3.629   1.857
 1836SOL     OW 6406   4.939   1.946   0.729
 1836SOL    HW1 6407   4.865   1.985   0.783
 1836SOL    HW2 6408   4.969   1.860   0.770
 1837SOL     OW 6409   1.008   1.653   4.377
 1837SOL    HW1 6410   0.919   1.693   4.358
 1837SOL    HW2 6411   1.050   1.700   4.455
 1838SOL     OW 6412   0.239   1.502   4.113
 1838SOL    HW1 6413   0.277   1.586   4.151
 1838SOL    HW2 6414   0.224   1.513   4.014
 1839SOL     OW 6415   5.305   2.774   4.919
 1839SOL    HW1 6416   5.242   2.712   4.872
 1839SOL    HW2 6417   5.262   2.863   4.930
 1840SOL     OW 6418   3.716   5.661   1.700
 1840SOL    HW1 6419   3.786   5.733   1.698
 1840SOL    HW2 6420   3.677   5.650   1.608
 1841SOL     OW 6421   2.315   1.500   3.888
 1841SOL    HW1 6422   2.245   1.555   3.842
 1841SOL    HW2 6423   2.272   1.421   3.932
 1842SOL     OW 6424   1.316   5.410   0.326
 1842SOL    HW1 6425   1.365   5.465   0.257
 1842SOL    HW2 6426   1.289   5.323   0.286
 1843SOL     OW 6427   6.673   2.145   3.994
 1843SOL    HW1 6428   6.632   2.085   3.926
 1843SOL    HW2 6429   6.702   2.230   3.950
 1844SOL     OW 6430   3.456   0.156   5.192
 1844SOL    HW1 6431   3.448   0.142   5.291
 1844SOL    HW2 6432   3.411   0.080   5.144
 1845SOL     OW 6433   1.762   6.693   4.892
 1845SOL    HW1 6434   1.734   6.616   4.949
 1845SOL    HW2 6435   1.788   6.660   4.801
 1846SOL     OW 6436   4.202   2.024   0.104
 1846SOL    HW1 6437   4.129   2.014   0.037
 1846SOL    HW2 6438   4.214   2.120   0.126
 1847SOL     OW 6439   1.289   0.398   6.290
 1847SOL    HW1 6440   1.378   0.442   6.278
 1847SOL    HW2 6441   1.251   0.423   6.380
 1848SOL     OW 6442   1.146   6.872   2.440
 1848SOL    HW1 6443   1.096   6.955   2.413
 1848SOL    HW2 6444   1.209   6.894   2.515
 1849SOL     OW 6445   3.564   2.223   0.988
 1849SOL    HW1 6446   3.494   2.158   0.959
 1849SOL    HW2 6447   3.525   2.315   0.990
 1850SOL     OW 6448   0.700   3.137   2.612
 1850SOL    HW1 6449   0.767   3.190   2.663
 1850SOL    HW2 6450   0.613   3.136   2.662
 1851SOL     OW 6451   0.291   2.567   1.466
 1851SOL    HW1 6452   0.328   2.570   1.373
 1851SOL    HW2 6453   0.202   2.613   1.468
 1852SOL     OW 6454   5.810   3.574   2.271
 1852SOL    HW1 6455   5.775   3.641   2.337
 1852SOL    HW2 6456   5.748   3.568   2.193
 1853SOL     OW 6457   0.138   3.455   3.042
 1853SOL    HW1 6458   0.230   3.476   3.009
 1853SOL    HW2 6459   0.139   3.365   3.086
 1854SOL     OW 6460   2.755   6.119   3.605
 1854SOL    HW1 6461   2.668   6.079   3.632
 1854SOL    HW2 6462   2.740   6.186   3.532
 1855SOL     OW 6463   5.289   3.712   6.298
 1855SOL    HW1 6464   5.305   3.616   6.321
 1855SOL    HW2 6465   5.277   3.765   6.382
 1856SOL     OW 6466   5.965   3.523   5.880
 1856SOL    HW1 6467   5.908   3.573   5.814
 1856SOL    HW2 6468   5.920   3.522   5.969
 1857SOL     OW 6469   3.911   1.227   5.461
 1857SOL    HW1 6470   4.009   1.213   5.479
 1857SOL    HW2 6471   3.858   1.154   5.502
 1858SOL     OW 6472   6.155   3.611   3.847
 1858SOL    HW1 6473   6.134   3.690   3.789
 1858SOL    HW2 6474   6.070   3.569   3.879
 1859SOL     OW 6475   4.708   1.825   3.383
 1859SOL    HW1 6476   4.622   1.797   3.425
 1859SOL    HW2 6477   4.698   1.828   3.284
 1860SOL     OW 6478   6.522   0.406   4.260
 1860SOL    HW1 6479   6.617   0.406   4.292
 1860SOL    HW2 6480   6.463   0.445   4.330
 1861SOL     OW 6481   5.580   0.406   1.710
 1861SOL    HW1 6482   5.589   0.337   1.782
 1861SOL    HW2 6483   5.624   0.491   1.739
 1862SOL     OW 6484   2.367   0.604   5.921
 1862SOL    HW1 6485   2.407   0.598   6.013
 1862SOL    HW2 6486   2.320   0.518   5.900
 1863SOL     OW 6487   1.478   1.963   1.600
 1863SOL    HW1 6488   1.571   1.998   1.598
 1863SOL    HW2 6489   1.443   1.954   1.506
 1864SOL     OW 6490   0.818   6.921   5.805
 1864SOL    HW1 6491   0.840   7.012   5.840
 1864SOL    HW2 6492   0.889   6.891   5.741
 1865SOL     OW 6493   3.541   6.560   6.362
 1865SOL    HW1 6494   3.513   6.507   6.442
 1865SOL    HW2 6495   3.459   6.597   6.317
 1866SOL     OW 6496   4.012   4.889   3.599
 1866SOL    HW1 6497   3.981   4.843   3.516
 1866SOL    HW2 6498   4.098   4.937   3.581
 1867SOL     OW 6499   0.432   3.867   6.945
 1867SOL    HW1 6500   0.516   3.867   6.892
 1867SOL    HW2 6501   0.453   3.852   0.012
 1868SOL     OW 6502   4.578   4.296   0.161
 1868SOL    HW1 6503   4.531   4.357   0.225
 1868SOL    HW2 6504   4.537   4.205   0.167
 1869SOL     OW 6505   6.182   2.584   5.750
 1869SOL    HW1 6506   6.259   2.629   5.794
 1869SOL    HW2 6507   6.173   2.617   5.656
 1870SOL     OW 6508   2.079   2.868   5.760
 1870SOL    HW1 6509   2.146   2.794   5.762
 1870SOL    HW2 6510   1.999   2.839   5.709
 1871SOL     OW 6511   0.669   0.622   0.611
 1871SOL    HW1 6512   0.743   0.591   0.670
 1871SOL    HW2 6513   0.584   0.626   0.663
 1872SOL     OW 6514   3.417   2.311   6.445
 1872SOL    HW1 6515   3.480   2.235   6.427
 1872SOL    HW2 6516   3.374   2.298   6.534
 1873SOL     OW 6517   4.968   1.814   5.579
 1873SOL    HW1 6518   5.024   1.753   5.634
 1873SOL    HW2 6519   4.966   1.905   5.622
 1874SOL     OW 6520   3.618   1.235   1.215
 1874SOL    HW1 6521   3.717   1.243   1.221
 1874SOL    HW2 6522   3.582   1.306   1.154
 1875SOL     OW 6523   0.482   1.108   0.190
 1875SOL    HW1 6524   0.462   1.172   0.115
 1875SOL    HW2 6525   0.492   1.016   0.153
 1876SOL     OW 6526   3.849   6.394   6.056
 1876SOL    HW1 6527   3.869   6.490   6.075
 1876SOL    HW2 6528   3.927   6.352   6.011
 1877SOL     OW 6529   0.360   0.010   2.485
 1877SOL    HW1 6530   0.387   0.012   2.389
 1877SOL    HW2 6531   0.285   6.975   2.498
 1878SOL     OW 6532   7.010   2.369   3.740
 1878SOL    HW1 6533   6.954   2.402   3.664
 1878SOL    HW2 6534   0.069   2.416   3.738
 1879SOL     OW 6535   1.537   4.298   4.326
 1879SOL    HW1 6536   1.441   4.291   4.299
 1879SOL    HW2 6537   1.544   4.352   4.410
 1880SOL     OW 6538   6.774   1.336   4.222
 1880SOL    HW1 6539   6.686   1.381   4.234
 1880SOL    HW2 6540   6.760   1.246   4.179
 1881SOL     OW 6541   5.960   2.223   3.224
 1881SOL    HW1 6542   5.862   2.213   3.205
 1881SOL    HW2 6543   5.976   2.308   3.274
 1882SOL     OW 6544   1.351   3.969   6.311
 1882SOL    HW1 6545   1.373   4.044   6.373
 1882SOL    HW2 6546   1.435   3.926   6.279
 1883SOL     OW 6547   0.044   2.038   3.518
 1883SOL    HW1 6548   0.008   2.119   3.564
 1883SOL    HW2 6549   7.000   1.969   3.512
 1884SOL     OW 6550   6.874   2.545   0.777
 1884SOL    HW1 6551   6.898   2.631   0.822
 1884SOL    HW2 6552   6.792   2.507   0.821
 1885SOL     OW 6553   1.949   2.039   6.686
 1885SOL    HW1 6554   1.863   2.003   6.722
 1885SOL    HW2 6555   1.988   2.104   6.751
 1886SOL     OW 6556   1.842   1.082   1.947
 1886SOL    HW1 6557   1.893   1.007   1.988
 1886SOL    HW2 6558   1.767   1.109   2.008
 1887SOL     OW 6559   0.928   6.220   4.608
 1887SOL    HW1 6560   0.845   6.188   4.654
 1887SOL    HW2 6561   0.904   6.294   4.545
 1888SOL     OW 6562   2.743   2.052   0.433
 1888SOL    HW1 6563   2.733   2.093   0.523
 1888SOL    HW2 6564   2.801   1.971   0.439
 1889SOL     OW 6565   0.420   3.129   5.620
 1889SOL    HW1 6566   0.437   3.144   5.523
 1889SOL    HW2 6567   0.425   3.216   5.669
 1890SOL     OW 6568   1.863   6.104   4.458
 1890SOL    HW1 6569   1.848   6.006   4.464
 1890SOL    HW2 6570   1.810   6.151   4.529
 1891SOL     OW 6571   5.561   2.668   2.235
 1891SOL    HW1 6572   5.503   2.681   2.155
 1891SOL    HW2 6573   5.629   2.597   2.216
 1892SOL     OW 6574   2.273   0.303   2.845
 1892SOL    HW1 6575   2.321   0.385   2.876
 1892SOL    HW2 6576   2.298   0.226   2.903
 1893SOL     OW 6577   3.023   3.167   0.140
 1893SOL    HW1 6578   2.946   3.215   0.182
 1893SOL    HW2 6579   3.107   3.189   0.188
 1894SOL     OW 6580   3.597   4.145   4.237
 1894SOL    HW1 6581   3.540   4.174   4.160
 1894SOL    HW2 6582   3.587   4.210   4.312
 1895SOL     OW 6583   4.350   0.597   1.472
 1895SOL    HW1 6584   4.376   0.514   1.523
 1895SOL    HW2 6585   4.433   0.644   1.441
 1896SOL     OW 6586   5.108   0.516   1.302
 1896SOL    HW1 6587   5.020   0.470   1.310
 1896SOL    HW2 6588   5.178   0.450   1.274
 1897SOL     OW 6589   2.529   5.676   1.368
 1897SOL    HW1 6590   2.551   5.769   1.399
 1897SOL    HW2 6591   2.462   5.635   1.429
 1898SOL     OW 6592   2.217   5.491   3.249
 1898SOL    HW1 6593   2.146   5.561   3.262
 1898SOL    HW2 6594   2.260   5.471   3.337
 1899SOL     OW 6595   0.670   1.135   1.764
 1899SOL    HW1 6596   0.590   1.100   1.714
 1899SOL    HW2 6597   0.652   1.132   1.862
 1900SOL     OW 6598   1.876   0.395   6.442
 1900SOL    HW1 6599   1.825   0.449   6.509
 1900SOL    HW2 6600   1.938   0.333   6.490
 1901SOL     OW 6601   1.612   2.434   1.112
 1901SOL    HW1 6602   1.677   2.380   1.165
 1901SOL    HW2 6603   1.563   2.496   1.172
 1902SOL     OW 6604   2.070   0.901   5.340
 1902SOL    HW1 6605   2.108   0.869   5.253
 1902SOL    HW2 6606   2.028   0.990   5.327
 1903SOL     OW 6607   0.421   3.519   2.936
 1903SOL    HW1 6608   0.379   3.601   2.898
 1903SOL    HW2 6609   0.512   3.541   2.969
 1904SOL     OW 6610   5.580   5.709   3.589
 1904SOL    HW1 6611   5.489   5.693   3.552
 1904SOL    HW2 6612   5.644   5.727   3.514
 1905SOL     OW 6613   1.062   6.890   3.305
 1905SOL    HW1 6614   1.103   6.921   3.391
 1905SOL    HW2 6615   1.133   6.880   3.236
 1906SOL     OW 6616   2.135   0.131   4.773
 1906SOL    HW1 6617   2.156   0.183   4.691
 1906SOL    HW2 6618   2.148   0.188   4.854
 1907SOL     OW 6619   3.663   1.591   1.837
 1907SOL    HW1 6620   3.637   1.545   1.922
 1907SOL    HW2 6621   3.581   1.605   1.780
 1908SOL     OW 6622   3.231   6.809   5.454
 1908SOL    HW1 6623   3.250   6.810   5.553
 1908SOL    HW2 6624   3.253   6.719   5.417
 1909SOL     OW 6625   0.603   3.877   2.983
 1909SOL    HW1 6626   0.534   3.846   2.918
 1909SOL    HW2 6627   0.600   3.977   2.990
 1910SOL     OW 6628   0.244   4.705   6.593
 1910SOL    HW1 6629   0.316   4.640   6.620
 1910SOL    HW2 6630   0.257   4.791   6.643
 1911SOL     OW 6631   0.082   3.741   5.098
 1911SOL    HW1 6632   0.105   3.654   5.054
 1911SOL    HW2 6633   0.101   3.736   5.196
 1912SOL     OW 6634   3.008   5.594   0.282
 1912SOL    HW1 6635   3.035   5.683   0.246
 1912SOL    HW2 6636   2.908   5.587   0.284
 1913SOL     OW 6637   2.282   0.198   5.012
 1913SOL    HW1 6638   2.338   0.125   4.972
 1913SOL    HW2 6639   2.327   0.286   4.994
 1914SOL     OW 6640   3.667   2.877   6.381
 1914SOL    HW1 6641   3.702   2.795   6.336
 1914SOL    HW2 6642   3.620   2.852   6.465
 1915SOL     OW 6643   3.864   2.223   5.242
 1915SOL    HW1 6644   3.824   2.136   5.214
 1915SOL    HW2 6645   3.805   2.266   5.311
 1916SOL     OW 6646   3.907   5.549   1.521
 1916SOL    HW1 6647   3.934   5.454   1.540
 1916SOL    HW2 6648   3.979   5.611   1.552
 1917SOL     OW 6649   2.347   3.084   6.497
 1917SOL    HW1 6650   2.378   3.023   6.569
 1917SOL    HW2 6651   2.291   3.157   6.536
 1918SOL     OW 6652   1.443   1.254   4.675
 1918SOL    HW1 6653   1.379   1.331   4.674
 1918SOL    HW2 6654   1.512   1.267   4.604
 1919SOL     OW 6655   1.557   1.293   1.917
 1919SOL    HW1 6656   1.613   1.295   2.000
 1919SOL    HW2 6657   1.483   1.227   1.928
 1920SOL     OW 6658   0.435   4.182   3.037
 1920SOL    HW1 6659   0.513   4.224   3.083
 1920SOL    HW2 6660   0.398   4.108   3.094
 1921SOL     OW 6661   1.596   3.467   6.610
 1921SOL    HW1 6662   1.561   3.522   6.533
 1921SOL    HW2 6663   1.676   3.513   6.650
 1922SOL     OW 6664   2.644   3.070   1.720
 1922SOL    HW1 6665   2.707   3.134   1.763
 1922SOL    HW2 6666   2.613   3.106   1.632
 1923SOL     OW 6667   3.896   1.372   6.185
 1923SOL    HW1 6668   3.804   1.365   6.223
 1923SOL    HW2 6669   3.916   1.290   6.131
 1924SOL     OW 6670   4.764   6.394   0.125
 1924SOL    HW1 6671   4.681   6.450   0.117
 1924SOL    HW2 6672   4.839   6.441   0.077
 1925SOL     OW 6673   1.816   5.014   0.616
 1925SOL    HW1 6674   1.729   4.999   0.570
 1925SOL    HW2 6675   1.815   4.969   0.705
 1926SOL     OW 6676   3.198   6.821   2.932
 1926SOL    HW1 6677   3.205   6.874   2.848
 1926SOL    HW2 6678   3.102   6.799   2.949
 1927SOL     OW 6679   2.503   4.653   6.990
 1927SOL    HW1 6680   2.574   4.714   6.956
 1927SOL    HW2 6681   2.440   4.630   6.916
 1928SOL     OW 6682   6.250   4.068   4.822
 1928SOL    HW1 6683   6.172   4.125   4.847
 1928SOL    HW2 6684   6.334   4.121   4.830
 1929SOL     OW 6685   2.519   0.343   1.458
 1929SOL    HW1 6686   2.436   0.319   1.407
 1929SOL    HW2 6687   2.560   0.425   1.420
 1930SOL     OW 6688   4.917   3.802   6.633
 1930SOL    HW1 6689   4.863   3.798   6.717
 1930SOL    HW2 6690   4.974   3.884   6.634
 1931SOL     OW 6691   0.881   2.331   1.452
 1931SOL    HW1 6692   0.898   2.268   1.377
 1931SOL    HW2 6693   0.859   2.421   1.416
 1932SOL     OW 6694   4.719   2.498   3.019
 1932SOL    HW1 6695   4.770   2.417   2.990
 1932SOL    HW2 6696   4.766   2.581   2.989
 1933SOL     OW 6697   1.411   3.293   0.481
 1933SOL    HW1 6698   1.485   3.242   0.438
 1933SOL    HW2 6699   1.412   3.388   0.450
 1934SOL     OW 6700   6.824   0.783   4.877
 1934SOL    HW1 6701   6.915   0.762   4.912
 1934SOL    HW2 6702   6.782   0.855   4.932
 1935SOL     OW 6703   4.595   4.801   3.479
 1935SOL    HW1 6704   4.566   4.706   3.492
 1935SOL    HW2 6705   4.596   4.849   3.567
 1936SOL     OW 6706   5.288   4.584   4.054
 1936SOL    HW1 6707   5.235   4.577   4.139
 1936SOL    HW2 6708   5.253   4.660   4.000
 1937SOL     OW 6709   3.937   5.878   0.015
 1937SOL    HW1 6710   3.927   5.827   0.100
 1937SOL    HW2 6711   3.997   5.956   0.030
 1938SOL     OW 6712   1.190   1.723   1.850
 1938SOL    HW1 6713   1.121   1.796   1.841
 1938SOL    HW2 6714   1.161   1.644   1.797
 1939SOL     OW 6715   6.704   6.517   4.595
 1939SOL    HW1 6716   6.782   6.575   4.568
 1939SOL    HW2 6717   6.727   6.468   4.679
 1940SOL     OW 6718   6.745   5.075   0.748
 1940SOL    HW1 6719   6.732   4.977   0.762
 1940SOL    HW2 6720   6.754   5.093   0.650
 1941SOL     OW 6721   1.325   2.675   4.381
 1941SOL    HW1 6722   1.404   2.618   4.397
 1941SOL    HW2 6723   1.354   2.765   4.348
 1942SOL     OW 6724   5.419   2.767   2.433
 1942SOL    HW1 6725   5.413   2.865   2.410
 1942SOL    HW2 6726   5.461   2.718   2.357
 1943SOL     OW 6727   1.851   6.459   3.424
 1943SOL    HW1 6728   1.800   6.464   3.338
 1943SOL    HW2 6729   1.820   6.532   3.485
 1944SOL     OW 6730   5.792   3.827   0.083
 1944SOL    HW1 6731   5.844   3.819   0.168
 1944SOL    HW2 6732   5.699   3.795   0.098
 1945SOL     OW 6733   3.553   5.296   7.002
 1945SOL    HW1 6734   3.535   5.293   0.071
 1945SOL    HW2 6735   3.627   5.361   6.984
 1946SOL     OW 6736   5.561   0.085   0.893
 1946SOL    HW1 6737   5.602   0.167   0.933
 1946SOL    HW2 6738   5.489   0.111   0.830
 1947SOL     OW 6739   5.099   6.091   4.918
 1947SOL    HW1 6740   5.197   6.077   4.903
 1947SOL    HW2 6741   5.072   6.179   4.880
 1948SOL     OW 6742   6.162   5.339   3.179
 1948SOL    HW1 6743   6.129   5.383   3.096
 1948SOL    HW2 6744   6.232   5.271   3.155
 1949SOL     OW 6745   3.544   3.395   6.994
 1949SOL    HW1 6746   3.491   3.401   6.909
 1949SOL    HW2 6747   3.489   3.430   0.040
 1950SOL     OW 6748   3.188   3.062   2.324
 1950SOL    HW1 6749   3.261   3.112   2.279
 1950SOL    HW2 6750   3.221   2.971   2.351
 1951SOL     OW 6751   6.793   4.667   6.449
 1951SOL    HW1 6752   6.745   4.584   6.422
 1951SOL    HW2 6753   6.848   4.649   6.530
 1952SOL     OW 6754   5.738   4.411   1.076
 1952SOL    HW1 6755   5.711   4.490   1.131
 1952SOL    HW2 6756   5.658   4.377   1.025
 1953SOL     OW 6757   6.732   1.940   5.663
 1953SOL    HW1 6758   6.768   1.908   5.575
 1953SOL    HW2 6759   6.793   1.909   5.736
 1954SOL     OW 6760   6.118   0.034   1.228
 1954SOL    HW1 6761   6.032   7.022   1.256
 1954SOL    HW2 6762   6.175   0.052   1.308
 1955SOL     OW 6763   0.495   0.342   2.507
 1955SOL    HW1 6764   0.504   0.325   2.605
 1955SOL    HW2 6765   0.404   0.380   2.488
 1956SOL     OW 6766   4.693   0.619   1.593
 1956SOL    HW1 6767   4.783   0.658   1.613
 1956SOL    HW2 6768   4.669   0.639   1.498
 1957SOL     OW 6769   5.001   4.862   4.074
 1957SOL    HW1 6770   5.090   4.844   4.030
 1957SOL    HW2 6771   4.929   4.862   4.005
 1958SOL     OW 6772   4.680   1.627   1.761
 1958SOL    HW1 6773   4.662   1.717   1.721
 1958SOL    HW2 6774   4.617   1.560   1.722
 1959SOL     OW 6775   0.592   6.803   3.788
 1959SOL    HW1 6776   0.543   6.885   3.760
 1959SOL    HW2 6777   0.644   6.821   3.872
 1960SOL     OW 6778   0.252   4.051   2.527
 1960SOL    HW1 6779   0.307   4.064   2.609
 1960SOL    HW2 6780   0.309   4.015   2.453
 1961SOL     OW 6781   6.164   4.343   4.518
 1961SOL    HW1 6782   6.146   4.383   4.608
 1961SOL    HW2 6783   6.261   4.354   4.495
 1962SOL     OW 6784   1.465   0.027   2.067
 1962SOL    HW1 6785   1.449   0.046   2.164
 1962SOL    HW2 6786   1.473   6.958   2.054
 1963SOL     OW 6787   1.153   1.213   1.768
 1963SOL    HW1 6788   1.081   1.143   1.761
 1963SOL    HW2 6789   1.208   1.197   1.850
 1964SOL     OW 6790   3.746   5.220   1.190
 1964SOL    HW1 6791   3.655   5.184   1.169
 1964SOL    HW2 6792   3.790   5.161   1.257
 1965SOL     OW 6793   2.011   2.169   4.224
 1965SOL    HW1 6794   2.072   2.195   4.149
 1965SOL    HW2 6795   1.927   2.223   4.218
 1966SOL     OW 6796   0.955   5.870   1.468
 1966SOL    HW1 6797   0.885   5.798   1.460
 1966SOL    HW2 6798   1.020   5.861   1.393
 1967SOL     OW 6799   6.352   2.822   4.270
 1967SOL    HW1 6800   6.263   2.809   4.225
 1967SOL    HW2 6801   6.339   2.822   4.369
 1968SOL     OW 6802   2.038   0.473   5.543
 1968SOL    HW1 6803   2.064   0.517   5.630
 1968SOL    HW2 6804   1.939   0.478   5.533
 1969SOL     OW 6805   2.896   1.313   1.444
 1969SOL    HW1 6806   2.973   1.253   1.466
 1969SOL    HW2 6807   2.900   1.339   1.348
 1970SOL     OW 6808   0.627   0.417   4.945
 1970SOL    HW1 6809   0.540   0.410   4.994
 1970SOL    HW2 6810   0.627   0.501   4.890
 1971SOL     OW 6811   0.282   1.232   5.884
 1971SOL    HW1 6812   0.270   1.205   5.980
 1971SOL    HW2 6813   0.207   1.291   5.856
 1972SOL     OW 6814   5.739   2.467   1.127
 1972SOL    HW1 6815   5.712   2.559   1.154
 1972SOL    HW2 6816   5.660   2.418   1.091
 1973SOL     OW 6817   2.711   4.471   1.671
 1973SOL    HW1 6818   2.792   4.482   1.729
 1973SOL    HW2 6819   2.669   4.560   1.654
 1974SOL     OW 6820   4.672   6.957   4.933
 1974SOL    HW1 6821   4.678   0.024   4.959
 1974SOL    HW2 6822   4.744   6.905   4.979
 1975SOL     OW 6823   2.420   1.940   4.193
 1975SOL    HW1 6824   2.390   1.898   4.107
 1975SOL    HW2 6825   2.466   2.027   4.174
 1976SOL     OW 6826   5.655   6.095   0.801
 1976SOL    HW1 6827   5.612   6.035   0.869
 1976SOL    HW2 6828   5.754   6.080   0.802
 1977SOL     OW 6829   1.647   3.223   4.998
 1977SOL    HW1 6830   1.686   3.263   4.916
 1977SOL    HW2 6831   1.686   3.131   5.012
 1978SOL     OW 6832   2.087   5.871   2.916
 1978SOL    HW1 6833   2.010   5.875   2.851
 1978SOL    HW2 6834   2.051   5.874   3.009
 1979SOL     OW 6835   5.283   5.113   0.169
 1979SOL    HW1 6836   5.218   5.095   0.244
 1979SOL    HW2 6837   5.376   5.100   0.203
 1980SOL     OW 6838   4.140   0.340   3.788
 1980SOL    HW1 6839   4.072   0.279   3.749
 1980SOL    HW2 6840   4.221   0.342   3.730
 1981SOL     OW 6841   5.594   2.962   2.621
 1981SOL    HW1 6842   5.616   2.875   2.576
 1981SOL    HW2 6843   5.615   2.954   2.719
 1982SOL     OW 6844   6.972   3.744   3.969
 1982SOL    HW1 6845   6.962   3.705   4.060
 1982SOL    HW2 6846   6.930   3.835   3.967
 1983SOL     OW 6847   2.084   0.800   1.466
 1983SOL    HW1 6848   1.985   0.801   1.480
 1983SOL    HW2 6849   2.129   0.851   1.540
 1984SOL     OW 6850   4.470   2.476   4.935
 1984SOL    HW1 6851   4.512   2.544   4.995
 1984SOL    HW2 6852   4.375   2.462   4.963
 1985SOL     OW 6853   0.105   6.114   1.894
 1985SOL    HW1 6854   0.013   6.077   1.878
 1985SOL    HW2 6855   0.099   6.195   1.951
 1986SOL     OW 6856   2.981   0.716   6.329
 1986SOL    HW1 6857   3.037   0.791   6.296
 1986SOL    HW2 6858   2.897   0.710   6.274
 1987SOL     OW 6859   2.571   1.482   3.879
 1987SOL    HW1 6860   2.592   1.499   3.976
 1987SOL    HW2 6861   2.472   1.483   3.866
 1988SOL     OW 6862   0.740   2.657   1.002
 1988SOL    HW1 6863   0.688   2.700   1.076
 1988SOL    HW2 6864   0.815   2.717   0.974
 1989SOL     OW 6865   2.037   5.826   4.886
 1989SOL    HW1 6866   1.972   5.769   4.936
 1989SOL    HW2 6867   2.129   5.808   4.921
 1990SOL     OW 6868   3.339   5.526   0.100
 1990SOL    HW1 6869   3.427   5.523   0.053
 1990SOL    HW2 6870   3.344   5.470   0.183
 1991SOL     OW 6871   1.582   5.967   0.312
 1991SOL    HW1 6872   1.645   6.044   0.324
 1991SOL    HW2 6873   1.534   5.977   0.225
 1992SOL     OW 6874   7.009   0.634   0.529
 1992SOL    HW1 6875   6.987   0.728   0.502
 1992SOL    HW2 6876   6.981   0.619   0.624
 1993SOL     OW 6877   3.379   1.525   5.268
 1993SOL    HW1 6878   3.317   1.448   5.282
 1993SOL    HW2 6879   3.333   1.610   5.295
 1994SOL     OW 6880   6.163   2.381   1.661
 1994SOL    HW1 6881   6.157   2.287   1.693
 1994SOL    HW2 6882   6.096   2.437   1.710
 1995SOL     OW 6883   5.615   3.295   3.992
 1995SOL    HW1 6884   5.611   3.365   4.063
 1995SOL    HW2 6885   5.694   3.313   3.933
 1996SOL     OW 6886   2.534   1.945   1.239
 1996SOL    HW1 6887   2.583   1.993   1.311
 1996SOL    HW2 6888   2.491   1.863   1.276
 1997SOL     OW 6889   3.790   1.428   3.887
 1997SOL    HW1 6890   3.810   1.451   3.982
 1997SOL    HW2 6891   3.874   1.432   3.834
 1998SOL     OW 6892   1.799   4.104   0.977
 1998SOL    HW1 6893   1.858   4.175   1.014
 1998SOL    HW2 6894   1.791   4.114   0.878
 1999SOL     OW 6895   0.983   0.227   5.603
 1999SOL    HW1 6896   0.924   0.260   5.530
 1999SOL    HW2 6897   1.076   0.214   5.568
 2000SOL     OW 6898   3.852   2.919   5.745
 2000SOL    HW1 6899   3.909   2.971   5.809
 2000SOL    HW2 6900   3.910   2.880   5.673
 2001SOL     OW 6901   2.214   1.379   0.955
 2001SOL    HW1 6902   2.188   1.325   0.875
 2001SOL    HW2 6903   2.314   1.383   0.962
 2002SOL     OW 6904   0.564   4.999   0.853
 2002SOL    HW1 6905   0.503   5.074   0.829
 2002SOL    HW2 6906   0.513   4.929   0.903
 2003SOL     OW 6907   6.720   4.977   2.206
 2003SOL    HW1 6908   6.636   4.981   2.260
 2003SOL    HW2 6909   6.702   4.930   2.119
 2004SOL     OW 6910   4.669   0.568   4.852
 2004SOL    HW1 6911   4.655   0.632   4.776
 2004SOL    HW2 6912   4.708   0.617   4.930
 2005SOL     OW 6913   0.117   4.627   0.215
 2005SOL    HW1 6914   0.184   4.692   0.179
 2005SOL    HW2 6915   0.143   4.534   0.188
 2006SOL     OW 6916   5.636   6.908   4.214
 2006SOL    HW1 6917   5.702   6.851   4.262
 2006SOL    HW2 6918   5.628   6.878   4.119
 2007SOL     OW 6919   5.336   4.484   0.942
 2007SOL    HW1 6920   5.319   4.550   1.016
 2007SOL    HW2 6921   5.327   4.531   0.854
 2008SOL     OW 6922   2.122   3.466   3.280
 2008SOL    HW1 6923   2.182   3.428   3.351
 2008SOL    HW2 6924   2.030   3.477   3.317
 2009SOL     OW 6925   4.946   6.294   2.452
 2009SOL    HW1 6926   4.936   6.328   2.546
 2009SOL    HW2 6927   4.971   6.369   2.392
 2010SOL     OW 6928   2.317   1.715   2.162
 2010SOL    HW1 6929   2.354   1.761   2.082
 2010SOL    HW2 6930   2.225   1.680   2.142
 2011SOL     OW 6931   0.515   0.936   5.037
 2011SOL    HW1 6932   0.613   0.952   5.026
 2011SOL    HW2 6933   0.464   1.017   5.008
 2012SOL     OW 6934   1.587   3.828   2.194
 2012SOL    HW1 6935   1.522   3.874   2.255
 2012SOL    HW2 6936   1.584   3.871   2.104
 2013SOL     OW 6937   6.352   3.188   3.813
 2013SOL    HW1 6938   6.349   3.155   3.907
 2013SOL    HW2 6939   6.432   3.150   3.767
 2014SOL     OW 6940   3.113   0.109   3.036
 2014SOL    HW1 6941   3.037   0.145   3.090
 2014SOL    HW2 6942   3.088   0.111   2.939
 2015SOL     OW 6943   2.888   6.633   0.471
 2015SOL    HW1 6944   2.956   6.696   0.434
 2015SOL    HW2 6945   2.805   6.637   0.415
 2016SOL     OW 6946   1.390   5.586   5.109
 2016SOL    HW1 6947   1.327   5.638   5.051
 2016SOL    HW2 6948   1.417   5.643   5.187
 2017SOL     OW 6949   4.495   0.237   3.227
 2017SOL    HW1 6950   4.585   0.197   3.205
 2017SOL    HW2 6951   4.439   0.168   3.274
 2018SOL     OW 6952   6.372   2.694   3.620
 2018SOL    HW1 6953   6.404   2.630   3.550
 2018SOL    HW2 6954   6.439   2.768   3.631
 2019SOL     OW 6955   6.060   4.274   6.282
 2019SOL    HW1 6956   6.071   4.356   6.338
 2019SOL    HW2 6957   5.972   4.277   6.235
 2020SOL     OW 6958   1.746   6.385   5.674
 2020SOL    HW1 6959   1.694   6.427   5.748
 2020SOL    HW2 6960   1.827   6.340   5.711
 2021SOL     OW 6961   6.400   6.432   4.303
 2021SOL    HW1 6962   6.425   6.349   4.352
 2021SOL    HW2 6963   6.397   6.509   4.367
 2022SOL     OW 6964   1.594   4.523   4.461
 2022SOL    HW1 6965   1.591   4.547   4.365
 2022SOL    HW2 6966   1.689   4.515   4.491
 2023SOL     OW 6967   0.784   0.440   0.123
 2023SOL    HW1 6968   0.882   0.450   0.108
 2023SOL    HW2 6969   0.735   0.485   0.049
 2024SOL     OW 6970   0.124   5.806   3.771
 2024SOL    HW1 6971   0.189   5.878   3.795
 2024SOL    HW2 6972   0.036   5.826   3.812
 2025SOL     OW 6973   3.569   0.915   4.284
 2025SOL    HW1 6974   3.622   0.831   4.268
 2025SOL    HW2 6975   3.597   0.985   4.219
 2026SOL     OW 6976   6.743   2.254   6.630
 2026SOL    HW1 6977   6.798   2.190   6.576
 2026SOL    HW2 6978   6.680   2.203   6.688
 2027SOL     OW 6979   0.676   0.014   1.602
 2027SOL    HW1 6980   0.676   6.985   1.683
 2027SOL    HW2 6981   0.624   6.999   1.529
 2028SOL     OW 6982   3.355   5.364   3.664
 2028SOL    HW1 6983   3.271   5.330   3.706
 2028SOL    HW2 6984   3.434   5.315   3.701
 2029SOL     OW 6985   6.421   2.280   6.817
 2029SOL    HW1 6986   6.438   2.288   6.915
 2029SOL    HW2 6987   6.422   2.370   6.775
 2030SOL     OW 6988   3.683   0.114   2.602
 2030SOL    HW1 6989   3.734   0.195   2.627
 2030SOL    HW2 6990   3.651   0.067   2.684
 2031SOL     OW 6991   7.015   6.545   2.473
 2031SOL    HW1 6992   7.029   6.584   2.564
 2031SOL    HW2 6993   0.068   6.560   2.418
 2032SOL     OW 6994   3.725   1.149   1.652
 2032SOL    HW1 6995   3.658   1.167   1.581
 2032SOL    HW2 6996   3.685   1.169   1.742
 2033SOL     OW 6997   2.276   1.141   1.132
 2033SOL    HW1 6998   2.317   1.113   1.046
 2033SOL    HW2 6999   2.293   1.071   1.202
 2034SOL     OW 7000   1.604   4.888   5.678
 2034SOL    HW1 7001   1.598   4.789   5.688
 2034SOL    HW2 7002   1.695   4.919   5.705
 2035SOL     OW 7003   6.441   6.549   2.554
 2035SOL    HW1 7004   6.436   6.542   2.654
 2035SOL    HW2 7005   6.481   6.637   2.529
 2036SOL     OW 7006   1.422   3.861   3.400
 2036SOL    HW1 7007   1.386   3.793   3.463
 2036SOL    HW2 7008   1.521   3.866   3.408
 2037SOL     OW 7009   6.208   2.782   6.441
 2037SOL    HW1 7010   6.268   2.850   6.398
 2037SOL    HW2 7011   6.255   2.693   6.444
 2038SOL     OW 7012   2.532   1.643   0.680
 2038SOL    HW1 7013   2.506   1.739   0.695
 2038SOL    HW2 7014   2.625   1.628   0.713
 2039SOL     OW 7015   0.330   6.706   3.017
 2039SOL    HW1 7016   0.267   6.628   3.012
 2039SOL    HW2 7017   0.424   6.673   3.015
 2040SOL     OW 7018   2.315   2.134   0.269
 2040SOL    HW1 7019   2.339   2.075   0.346
 2040SOL    HW2 7020   2.397   2.173   0.228
 2041SOL     OW 7021   1.350   0.359   5.329
 2041SOL    HW1 7022   1.430   0.304   5.305
 2041SOL    HW2 7023   1.269   0.301   5.333
 2042SOL     OW 7024   4.946   0.319   6.155
 2042SOL    HW1 7025   4.955   0.255   6.231
 2042SOL    HW2 7026   4.900   0.402   6.186
 2043SOL     OW 7027   6.313   2.764   2.767
 2043SOL    HW1 7028   6.291   2.667   2.772
 2043SOL    HW2 7029   6.228   2.818   2.772
 2044SOL     OW 7030   6.147   0.599   0.836
 2044SOL    HW1 7031   6.210   0.557   0.900
 2044SOL    HW2 7032   6.061   0.620   0.882
 2045SOL     OW 7033   1.335   5.291   4.540
 2045SOL    HW1 7034   1.237   5.285   4.523
 2045SOL    HW2 7035   1.354   5.268   4.635
 2046SOL     OW 7036   6.140   2.237   5.400
 2046SOL    HW1 7037   6.145   2.281   5.490
 2046SOL    HW2 7038   6.075   2.286   5.343
 2047SOL     OW 7039   6.466   2.564   0.920
 2047SOL    HW1 7040   6.407   2.644   0.908
 2047SOL    HW2 7041   6.411   2.487   0.954
 2048SOL     OW 7042   0.303   0.550   4.830
 2048SOL    HW1 7043   0.212   0.511   4.820
 2048SOL    HW2 7044   0.342   0.567   4.739
 2049SOL     OW 7045   5.214   1.423   4.077
 2049SOL    HW1 7046   5.296   1.468   4.111
 2049SOL    HW2 7047   5.143   1.425   4.147
 2050SOL     OW 7048   6.859   2.624   4.398
 2050SOL    HW1 7049   6.912   2.649   4.317
 2050SOL    HW2 7050   6.769   2.666   4.394
 2051SOL     OW 7051   1.959   5.998   6.932
 2051SOL    HW1 7052   1.961   5.973   7.029
 2051SOL    HW2 7053   1.897   6.075   6.919
 2052SOL     OW 7054   1.566   3.054   0.654
 2052SOL    HW1 7055   1.595   2.964   0.686
 2052SOL    HW2 7056   1.517   3.044   0.568
 2053SOL     OW 7057   1.088   5.394   4.943
 2053SOL    HW1 7058   1.022   5.332   4.986
 2053SOL    HW2 7059   1.067   5.488   4.969
 2054SOL     OW 7060   3.099   3.981   3.193
 2054SOL    HW1 7061   3.098   3.946   3.287
 2054SOL    HW2 7062   3.130   4.076   3.194
 2055SOL     OW 7063   6.416   2.979   5.089
 2055SOL    HW1 7064   6.402   3.074   5.063
 2055SOL    HW2 7065   6.508   2.950   5.062
 2056SOL     OW 7066   4.395   5.070   1.485
 2056SOL    HW1 7067   4.342   5.137   1.538
 2056SOL    HW2 7068   4.332   5.005   1.441
 2057SOL     OW 7069   4.836   3.379   5.334
 2057SOL    HW1 7070   4.871   3.453   5.278
 2057SOL    HW2 7071   4.737   3.388   5.343
 2058SOL     OW 7072   0.797   6.476   2.347
 2058SOL    HW1 7073   0.699   6.484   2.368
 2058SOL    HW2 7074   0.850   6.480   2.431
 2059SOL     OW 7075   2.497   6.810   5.743
 2059SOL    HW1 7076   2.472   6.902   5.712
 2059SOL    HW2 7077   2.415   6.761   5.773
 2060SOL     OW 7078   0.119   3.464   1.926
 2060SOL    HW1 7079   0.067   3.380   1.934
 2060SOL    HW2 7080   0.057   3.540   1.907
 2061SOL     OW 7081   1.908   2.157   2.489
 2061SOL    HW1 7082   1.877   2.121   2.577
 2061SOL    HW2 7083   1.841   2.134   2.418
 2062SOL     OW 7084   6.788   5.747   5.201
 2062SOL    HW1 7085   6.875   5.704   5.224
 2062SOL    HW2 7086   6.744   5.697   5.126
 2063SOL     OW 7087   1.195   6.591   4.999
 2063SOL    HW1 7088   1.203   6.623   5.093
 2063SOL    HW2 7089   1.154   6.500   4.998
 2064SOL     OW 7090   0.426   3.201   4.372
 2064SOL    HW1 7091   0.485   3.131   4.333
 2064SOL    HW2 7092   0.430   3.283   4.315
 2065SOL     OW 7093   5.564   3.460   5.775
 2065SOL    HW1 7094   5.499   3.399   5.729
 2065SOL    HW2 7095   5.526   3.487   5.864
 2066SOL     OW 7096   6.527   4.182   5.630
 2066SOL    HW1 7097   6.467   4.116   5.674
 2066SOL    HW2 7098   6.563   4.246   5.699
 2067SOL     OW 7099   6.532   5.185   0.921
 2067SOL    HW1 7100   6.599   5.120   0.885
 2067SOL    HW2 7101   6.474   5.140   0.989
 2068SOL     OW 7102   3.915   1.118   4.536
 2068SOL    HW1 7103   3.948   1.076   4.621
 2068SOL    HW2 7104   3.830   1.074   4.509
 2069SOL     OW 7105   0.259   2.397   3.950
 2069SOL    HW1 7106   0.314   2.460   4.007
 2069SOL    HW2 7107   0.200   2.342   4.009
 2070SOL     OW 7108   1.223   2.964   0.982
 2070SOL    HW1 7109   1.281   2.886   1.009
 2070SOL    HW2 7110   1.228   2.976   0.883
 2071SOL     OW 7111   5.794   1.724   6.435
 2071SOL    HW1 7112   5.727   1.728   6.509
 2071SOL    HW2 7113   5.844   1.810   6.429
 2072SOL     OW 7114   4.281   5.162   5.110
 2072SOL    HW1 7115   4.227   5.114   5.042
 2072SOL    HW2 7116   4.279   5.111   5.196
 2073SOL     OW 7117   3.549   6.195   5.462
 2073SOL    HW1 7118   3.525   6.101   5.438
 2073SOL    HW2 7119   3.647   6.200   5.485
 2074SOL     OW 7120   1.830   2.451   6.480
 2074SOL    HW1 7121   1.875   2.506   6.551
 2074SOL    HW2 7122   1.865   2.478   6.390
 2075SOL     OW 7123   6.500   2.395   3.174
 2075SOL    HW1 7124   6.597   2.371   3.178
 2075SOL    HW2 7125   6.482   2.445   3.089
 2076SOL     OW 7126   5.803   0.582   5.592
 2076SOL    HW1 7127   5.879   0.646   5.579
 2076SOL    HW2 7128   5.837   0.488   5.581
 2077SOL     OW 7129   6.427   1.814   2.126
 2077SOL    HW1 7130   6.402   1.868   2.206
 2077SOL    HW2 7131   6.512   1.850   2.086
 2078SOL     OW 7132   1.424   4.874   5.947
 2078SOL    HW1 7133   1.510   4.825   5.937
 2078SOL    HW2 7134   1.431   4.963   5.903
 2079SOL     OW 7135   5.986   0.840   2.624
 2079SOL    HW1 7136   6.002   0.863   2.528
 2079SOL    HW2 7137   6.073   0.821   2.669
 2080SOL     OW 7138   3.462   1.889   4.835
 2080SOL    HW1 7139   3.406   1.889   4.917
 2080SOL    HW2 7140   3.434   1.813   4.776
 2081SOL     OW 7141   0.953   6.625   3.799
 2081SOL    HW1 7142   0.863   6.654   3.767
 2081SOL    HW2 7143   0.958   6.636   3.898
 2082SOL     OW 7144   0.665   6.373   3.151
 2082SOL    HW1 7145   0.706   6.326   3.074
 2082SOL    HW2 7146   0.583   6.324   3.181
 2083SOL     OW 7147   1.023   5.967   4.517
 2083SOL    HW1 7148   1.114   5.952   4.478
 2083SOL    HW2 7149   1.006   6.066   4.524
 2084SOL     OW 7150   0.990   2.714   1.697
 2084SOL    HW1 7151   1.001   2.630   1.749
 2084SOL    HW2 7152   0.909   2.763   1.729
 2085SOL     OW 7153   5.000   6.572   0.738
 2085SOL    HW1 7154   5.087   6.593   0.695
 2085SOL    HW2 7155   4.964   6.487   0.701
 2086SOL     OW 7156   4.077   5.624   6.705
 2086SOL    HW1 7157   4.002   5.582   6.654
 2086SOL    HW2 7158   4.106   5.563   6.779
 2087SOL     OW 7159   4.553   1.750   0.303
 2087SOL    HW1 7160   4.568   1.804   0.386
 2087SOL    HW2 7161   4.523   1.658   0.328
 2088SOL     OW 7162   0.984   5.804   5.565
 2088SOL    HW1 7163   0.997   5.750   5.647
 2088SOL    HW2 7164   0.977   5.743   5.486
 2089SOL     OW 7165   4.366   2.123   5.229
 2089SOL    HW1 7166   4.410   2.034   5.213
 2089SOL    HW2 7167   4.271   2.109   5.257
 2090SOL     OW 7168   5.096   2.801   5.619
 2090SOL    HW1 7169   5.156   2.728   5.651
 2090SOL    HW2 7170   5.004   2.787   5.655
 2091SOL     OW 7171   6.617   5.963   0.736
 2091SOL    HW1 7172   6.625   6.059   0.708
 2091SOL    HW2 7173   6.623   5.957   0.835
 2092SOL     OW 7174   5.527   3.778   1.136
 2092SOL    HW1 7175   5.463   3.817   1.202
 2092SOL    HW2 7176   5.592   3.848   1.107
 2093SOL     OW 7177   3.420   1.979   2.439
 2093SOL    HW1 7178   3.371   1.896   2.415
 2093SOL    HW2 7179   3.358   2.057   2.434
 2094SOL     OW 7180   5.343   2.357   0.720
 2094SOL    HW1 7181   5.423   2.416   0.725
 2094SOL    HW2 7182   5.272   2.401   0.664
 2095SOL     OW 7183   6.212   6.071   3.561
 2095SOL    HW1 7184   6.227   6.170   3.558
 2095SOL    HW2 7185   6.279   6.026   3.501
 2096SOL     OW 7186   4.559   5.692   2.677
 2096SOL    HW1 7187   4.608   5.632   2.740
 2096SOL    HW2 7188   4.461   5.683   2.693
 2097SOL     OW 7189   2.607   3.529   6.941
 2097SOL    HW1 7190   2.549   3.502   7.018
 2097SOL    HW2 7191   2.614   3.628   6.937
 2098SOL     OW 7192   4.089   5.663   3.397
 2098SOL    HW1 7193   4.028   5.731   3.437
 2098SOL    HW2 7194   4.159   5.709   3.343
 2099SOL     OW 7195   4.071   1.741   6.813
 2099SOL    HW1 7196   4.080   1.644   6.835
 2099SOL    HW2 7197   4.011   1.752   6.733
 2100SOL     OW 7198   5.026   1.528   0.658
 2100SOL    HW1 7199   5.072   1.597   0.713
 2100SOL    HW2 7200   4.945   1.496   0.706
 2101SOL     OW 7201   6.977   6.301   0.991
 2101SOL    HW1 7202   6.986   6.258   0.901
 2101SOL    HW2 7203   6.905   6.371   0.988
 2102SOL     OW 7204   4.976   3.590   1.217
 2102SOL    HW1 7205   5.024   3.539   1.147
 2102SOL    HW2 7206   4.882   3.557   1.225
 2103SOL     OW 7207   2.991   3.722   0.590
 2103SOL    HW1 7208   3.077   3.677   0.615
 2103SOL    HW2 7209   2.935   3.736   0.672
 2104SOL     OW 7210   1.282   4.967   1.814
 2104SOL    HW1 7211   1.251   5.048   1.762
 2104SOL    HW2 7212   1.351   4.995   1.880
 2105SOL     OW 7213   3.774   4.695   6.763
 2105SOL    HW1 7214   3.768   4.598   6.743
 2105SOL    HW2 7215   3.860   4.714   6.810
 2106SOL     OW 7216   5.369   3.575   1.020
 2106SOL    HW1 7217   5.443   3.619   1.072
 2106SOL    HW2 7218   5.297   3.546   1.082
 2107SOL     OW 7219   6.173   3.038   5.807
 2107SOL    HW1 7220   6.250   2.975   5.813
 2107SOL    HW2 7221   6.194   3.112   5.743
 2108SOL     OW 7222   5.592   6.264   5.680
 2108SOL    HW1 7223   5.587   6.223   5.771
 2108SOL    HW2 7224   5.607   6.362   5.688
 2109SOL     OW 7225   3.205   5.829   2.075
 2109SOL    HW1 7226   3.239   5.848   1.983
 2109SOL    HW2 7227   3.176   5.914   2.118
 2110SOL     OW 7228   3.697   0.769   5.777
 2110SOL    HW1 7229   3.623   0.819   5.731
 2110SOL    HW2 7230   3.669   0.674   5.791
 2111SOL     OW 7231   1.237   2.103   5.682
 2111SOL    HW1 7232   1.221   2.100   5.583
 2111SOL    HW2 7233   1.151   2.085   5.729
 2112SOL     OW 7234   5.890   2.437   6.588
 2112SOL    HW1 7235   5.929   2.433   6.496
 2112SOL    HW2 7236   5.790   2.444   6.581
 2113SOL     OW 7237   1.814   0.031   4.650
 2113SOL    HW1 7238   1.900   7.026   4.687
 2113SOL    HW2 7239   1.737   7.014   4.694
 2114SOL     OW 7240   2.192   2.793   6.818
 2114SOL    HW1 7241   2.103   2.821   6.854
 2114SOL    HW2 7242   2.238   2.736   6.886
 2115SOL     OW 7243   1.164   4.610   1.451
 2115SOL    HW1 7244   1.260   4.611   1.421
 2115SOL    HW2 7245   1.155   4.664   1.535
 2116SOL     OW 7246   0.959   2.864   1.248
 2116SOL    HW1 7247   0.985   2.819   1.163
 2116SOL    HW2 7248   1.021   2.836   1.321
 2117SOL     OW 7249   5.233   3.063   1.874
 2117SOL    HW1 7250   5.146   3.033   1.912
 2117SOL    HW2 7251   5.308   3.034   1.934
 2118SOL     OW 7252   6.095   3.676   2.223
 2118SOL    HW1 7253   6.162   3.684   2.297
 2118SOL    HW2 7254   6.006   3.651   2.262
 2119SOL     OW 7255   1.544   1.660   0.263
 2119SOL    HW1 7256   1.448   1.684   0.250
 2119SOL    HW2 7257   1.578   1.701   0.348
 2120SOL     OW 7258   6.394   2.372   2.615
 2120SOL    HW1 7259   6.462   2.364   2.688
 2120SOL    HW2 7260   6.388   2.286   2.565
 2121SOL     OW 7261   1.989   2.317   6.219
 2121SOL    HW1 7262   2.040   2.245   6.265
 2121SOL    HW2 7263   1.912   2.277   6.170
 2122SOL     OW 7264   6.057   6.933   6.319
 2122SOL    HW1 7265   6.134   6.967   6.373
 2122SOL    HW2 7266   6.080   6.843   6.282
 2123SOL     OW 7267   6.658   6.115   2.429
 2123SOL    HW1 7268   6.579   6.090   2.485
 2123SOL    HW2 7269   6.691   6.206   2.456
 2124SOL     OW 7270   2.883   1.438   5.568
 2124SOL    HW1 7271   2.848   1.474   5.482
 2124SOL    HW2 7272   2.835   1.481   5.644
 2125SOL     OW 7273   1.471   5.911   2.526
 2125SOL    HW1 7274   1.411   5.987   2.501
 2125SOL    HW2 7275   1.546   5.945   2.584
 2126SOL     OW 7276   4.139   2.843   6.903
 2126SOL    HW1 7277   4.169   2.845   6.998
 2126SOL    HW2 7278   4.131   2.936   6.868
 2127SOL     OW 7279   0.473   1.982   5.625
 2127SOL    HW1 7280   0.484   1.883   5.621
 2127SOL    HW2 7281   0.459   2.017   5.532
 2128SOL     OW 7282   6.213   3.295   0.749
 2128SOL    HW1 7283   6.276   3.227   0.787
 2128SOL    HW2 7284   6.119   3.270   0.773
 2129SOL     OW 7285   5.110   4.583   4.299
 2129SOL    HW1 7286   5.028   4.609   4.350
 2129SOL    HW2 7287   5.139   4.492   4.327
 2130SOL     OW 7288   2.496   1.469   1.377
 2130SOL    HW1 7289   2.418   1.412   1.354
 2130SOL    HW2 7290   2.529   1.446   1.469
 2131SOL     OW 7291   5.177   2.070   0.639
 2131SOL    HW1 7292   5.091   2.047   0.685
 2131SOL    HW2 7293   5.180   2.024   0.550
 2132SOL     OW 7294   3.323   1.371   6.934
 2132SOL    HW1 7295   3.294   1.393   6.841
 2132SOL    HW2 7296   3.346   1.455   6.982
 2133SOL     OW 7297   2.491   2.315   1.367
 2133SOL    HW1 7298   2.499   2.239   1.432
 2133SOL    HW2 7299   2.416   2.297   1.303
 2134SOL     OW 7300   1.334   1.023   4.573
 2134SOL    HW1 7301   1.392   1.100   4.602
 2134SOL    HW2 7302   1.361   0.993   4.482
 2135SOL     OW 7303   0.485   2.139   4.197
 2135SOL    HW1 7304   0.531   2.050   4.192
 2135SOL    HW2 7305   0.532   2.204   4.137
 2136SOL     OW 7306   0.983   3.543   4.663
 2136SOL    HW1 7307   1.051   3.544   4.589
 2136SOL    HW2 7308   0.950   3.636   4.678
 2137SOL     OW 7309   0.749   0.103   4.767
 2137SOL    HW1 7310   0.770   0.200   4.773
 2137SOL    HW2 7311   0.674   0.081   4.830
 2138SOL     OW 7312   5.654   2.751   1.692
 2138SOL    HW1 7313   5.700   2.774   1.778
 2138SOL    HW2 7314   5.650   2.832   1.634
 2139SOL     OW 7315   3.964   0.759   3.766
 2139SOL    HW1 7316   4.019   0.707   3.831
 2139SOL    HW2 7317   3.922   0.837   3.813
 2140SOL     OW 7318   3.070   6.121   2.896
 2140SOL    HW1 7319   3.112   6.126   2.806
 2140SOL    HW2 7320   2.970   6.112   2.886
 2141SOL     OW 7321   6.632   2.922   1.544
 2141SOL    HW1 7322   6.610   2.855   1.615
 2141SOL    HW2 7323   6.731   2.934   1.539
 2142SOL     OW 7324   1.142   1.709   3.300
 2142SOL    HW1 7325   1.239   1.719   3.280
 2142SOL    HW2 7326   1.092   1.692   3.215
 2143SOL     OW 7327   3.734   6.165   0.613
 2143SOL    HW1 7328   3.690   6.252   0.636
 2143SOL    HW2 7329   3.682   6.120   0.541
 2144SOL     OW 7330   1.713   0.462   3.443
 2144SOL    HW1 7331   1.736   0.556   3.419
 2144SOL    HW2 7332   1.741   0.401   3.369
 2145SOL     OW 7333   3.574   5.559   3.878
 2145SOL    HW1 7334   3.639   5.566   3.802
 2145SOL    HW2 7335   3.485   5.593   3.847
 2146SOL     OW 7336   3.422   4.089   2.489
 2146SOL    HW1 7337   3.428   4.097   2.588
 2146SOL    HW2 7338   3.326   4.087   2.462
 2147SOL     OW 7339   0.334   1.255   6.970
 2147SOL    HW1 7340   0.246   1.241   7.015
 2147SOL    HW2 7341   0.327   1.229   6.874
 2148SOL     OW 7342   4.907   3.421   4.123
 2148SOL    HW1 7343   4.840   3.444   4.052
 2148SOL    HW2 7344   4.994   3.398   4.080
 2149SOL     OW 7345   3.912   0.546   1.932
 2149SOL    HW1 7346   3.882   0.524   1.840
 2149SOL    HW2 7347   3.847   0.509   1.998
 2150SOL     OW 7348   3.214   2.124   2.807
 2150SOL    HW1 7349   3.163   2.049   2.766
 2150SOL    HW2 7350   3.287   2.153   2.745
 2151SOL     OW 7351   2.939   2.003   5.118
 2151SOL    HW1 7352   2.852   2.051   5.106
 2151SOL    HW2 7353   2.999   2.058   5.176
 2152SOL     OW 7354   5.246   6.628   1.775
 2152SOL    HW1 7355   5.197   6.608   1.691
 2152SOL    HW2 7356   5.344   6.620   1.760
 2153SOL     OW 7357   4.365   0.917   4.302
 2153SOL    HW1 7358   4.356   0.820   4.282
 2153SOL    HW2 7359   4.312   0.940   4.384
 2154SOL     OW 7360   3.246   5.960   4.699
 2154SOL    HW1 7361   3.156   5.956   4.743
 2154SOL    HW2 7362   3.312   6.004   4.761
 2155SOL     OW 7363   1.683   5.152   6.981
 2155SOL    HW1 7364   1.627   5.174   6.901
 2155SOL    HW2 7365   1.775   5.126   6.951
 2156SOL     OW 7366   2.780   0.274   1.912
 2156SOL    HW1 7367   2.863   0.322   1.884
 2156SOL    HW2 7368   2.706   0.340   1.925
 2157SOL     OW 7369   6.523   0.830   4.411
 2157SOL    HW1 7370   6.530   0.803   4.315
 2157SOL    HW2 7371   6.448   0.895   4.422
 2158SOL     OW 7372   3.089   6.522   0.188
 2158SOL    HW1 7373   3.020   6.543   0.119
 2158SOL    HW2 7374   3.062   6.441   0.239
 2159SOL     OW 7375   1.236   6.201   5.054
 2159SOL    HW1 7376   1.243   6.135   4.979
 2159SOL    HW2 7377   1.162   6.266   5.035
 2160SOL     OW 7378   4.601   4.101   1.436
 2160SOL    HW1 7379   4.631   4.072   1.527
 2160SOL    HW2 7380   4.501   4.092   1.429
 2161SOL     OW 7381   4.885   3.721   3.604
 2161SOL    HW1 7382   4.955   3.737   3.674
 2161SOL    HW2 7383   4.878   3.623   3.585
 2162SOL     OW 7384   1.796   0.725   0.344
 2162SOL    HW1 7385   1.777   0.799   0.409
 2162SOL    HW2 7386   1.890   0.693   0.355
 2163SOL     OW 7387   0.872   6.492   6.660
 2163SOL    HW1 7388   0.841   6.560   6.727
 2163SOL    HW2 7389   0.969   6.504   6.642
 2164SOL     OW 7390   1.830   1.044   6.256
 2164SOL    HW1 7391   1.789   1.112   6.194
 2164SOL    HW2 7392   1.803   1.065   6.350
 2165SOL     OW 7393   1.794   1.106   2.312
 2165SOL    HW1 7394   1.796   1.176   2.241
 2165SOL    HW2 7395   1.876   1.113   2.369
 2166SOL     OW 7396   2.054   2.502   5.921
 2166SOL    HW1 7397   2.148   2.520   5.890
 2166SOL    HW2 7398   2.051   2.412   5.965
 2167SOL     OW 7399   2.924   0.338   2.258
 2167SOL    HW1 7400   2.897   0.434   2.254
 2167SOL    HW2 7401   2.850   0.280   2.222
 2168SOL     OW 7402   6.162   2.895   5.184
 2168SOL    HW1 7403   6.241   2.944   5.149
 2168SOL    HW2 7404   6.079   2.945   5.162
 2169SOL     OW 7405   5.241   2.614   5.718
 2169SOL    HW1 7406   5.264   2.542   5.783
 2169SOL    HW2 7407   5.318   2.630   5.656
 2170SOL     OW 7408   5.555   4.537   5.178
 2170SOL    HW1 7409   5.536   4.531   5.276
 2170SOL    HW2 7410   5.487   4.484   5.128
 2171SOL     OW 7411   6.566   2.304   0.051
 2171SOL    HW1 7412   6.540   2.399   0.071
 2171SOL    HW2 7413   6.571   2.253   0.136
 2172SOL     OW 7414   3.232   1.342   0.533
 2172SOL    HW1 7415   3.134   1.360   0.539
 2172SOL    HW2 7416   3.261   1.348   0.437
 2173SOL     OW 7417   3.905   0.209   5.574
 2173SOL    HW1 7418   3.918   0.131   5.634
 2173SOL    HW2 7419   3.911   0.179   5.479
 2174SOL     OW 7420   6.413   4.540   6.050
 2174SOL    HW1 7421   6.493   4.533   5.990
 2174SOL    HW2 7422   6.357   4.457   6.039
 2175SOL     OW 7423   3.443   1.457   3.352
 2175SOL    HW1 7424   3.361   1.416   3.311
 2175SOL    HW2 7425   3.459   1.416   3.442
 2176SOL     OW 7426   1.302   2.067   1.815
 2176SOL    HW1 7427   1.374   2.034   1.754
 2176SOL    HW2 7428   1.226   2.002   1.815
 2177SOL     OW 7429   6.656   0.674   2.305
 2177SOL    HW1 7430   6.603   0.645   2.384
 2177SOL    HW2 7431   6.665   0.598   2.241
 2178SOL     OW 7432   1.167   3.994   0.446
 2178SOL    HW1 7433   1.102   3.994   0.522
 2178SOL    HW2 7434   1.163   3.905   0.400
 2179SOL     OW 7435   2.069   5.781   3.908
 2179SOL    HW1 7436   2.065   5.765   4.006
 2179SOL    HW2 7437   2.154   5.744   3.871
 2180SOL     OW 7438   2.938   3.344   3.021
 2180SOL    HW1 7439   3.007   3.331   3.092
 2180SOL    HW2 7440   2.917   3.442   3.012
 2181SOL     OW 7441   4.731   4.271   5.816
 2181SOL    HW1 7442   4.735   4.185   5.765
 2181SOL    HW2 7443   4.696   4.254   5.908
 2182SOL     OW 7444   0.061   3.408   6.473
 2182SOL    HW1 7445   0.092   3.482   6.413
 2182SOL    HW2 7446   7.025   3.350   6.425
 2183SOL     OW 7447   3.436   2.729   0.791
 2183SOL    HW1 7448   3.401   2.784   0.867
 2183SOL    HW2 7449   3.534   2.749   0.779
 2184SOL     OW 7450   3.736   0.234   5.937
 2184SOL    HW1 7451   3.694   0.317   5.901
 2184SOL    HW2 7452   3.695   0.154   5.892
 2185SOL     OW 7453   1.865   1.859   0.524
 2185SOL    HW1 7454   1.815   1.903   0.449
 2185SOL    HW2 7455   1.870   1.923   0.601
 2186SOL     OW 7456   0.032   4.495   2.135
 2186SOL    HW1 7457   0.040   4.546   2.220
 2186SOL    HW2 7458   6.969   4.505   2.098
 2187SOL     OW 7459   0.400   1.377   1.697
 2187SOL    HW1 7460   0.395   1.400   1.600
 2187SOL    HW2 7461   0.411   1.278   1.707
 2188SOL     OW 7462   4.739   5.881   3.764
 2188SOL    HW1 7463   4.743   5.942   3.686
 2188SOL    HW2 7464   4.685   5.800   3.741
 2189SOL     OW 7465   1.330   6.751   5.790
 2189SOL    HW1 7466   1.335   6.766   5.692
 2189SOL    HW2 7467   1.344   6.654   5.810
 2190SOL     OW 7468   5.833   3.173   1.840
 2190SOL    HW1 7469   5.907   3.140   1.899
 2190SOL    HW2 7470   5.834   3.122   1.754
 2191SOL     OW 7471   3.325   2.033   6.001
 2191SOL    HW1 7472   3.291   1.994   5.915
 2191SOL    HW2 7473   3.248   2.055   6.060
 2192SOL     OW 7474   4.329   6.409   5.215
 2192SOL    HW1 7475   4.416   6.439   5.176
 2192SOL    HW2 7476   4.255   6.432   5.153
 2193SOL     OW 7477   0.311   5.287   5.950
 2193SOL    HW1 7478   0.379   5.247   5.888
 2193SOL    HW2 7479   0.323   5.249   6.041
 2194SOL     OW 7480   1.841   5.869   0.535
 2194SOL    HW1 7481   1.854   5.940   0.466
 2194SOL    HW2 7482   1.743   5.850   0.544
 2195SOL     OW 7483   0.016   6.599   1.968
 2195SOL    HW1 7484   0.023   6.693   1.936
 2195SOL    HW2 7485   0.093   6.546   1.935
 2196SOL     OW 7486   2.582   0.462   5.511
 2196SOL    HW1 7487   2.510   0.507   5.459
 2196SOL    HW2 7488   2.556   0.459   5.608
 2197SOL     OW 7489   4.880   4.014   1.893
 2197SOL    HW1 7490   4.931   3.929   1.877
 2197SOL    HW2 7491   4.799   4.016   1.834
 2198SOL     OW 7492   6.802   3.582   6.918
 2198SOL    HW1 7493   6.859   3.560   6.839
 2198SOL    HW2 7494   6.784   3.498   6.970
 2199SOL     OW 7495   5.343   0.250   0.811
 2199SOL    HW1 7496   5.257   0.271   0.858
 2199SOL    HW2 7497   5.341   0.289   0.719
 2200SOL     OW 7498   4.386   0.461   4.658
 2200SOL    HW1 7499   4.318   0.403   4.614
 2200SOL    HW2 7500   4.477   0.420   4.648
 2201SOL     OW 7501   5.805   3.841   2.090
 2201SOL    HW1 7502   5.774   3.749   2.065
 2201SOL    HW2 7503   5.798   3.901   2.010
 2202SOL     OW 7504   3.423   5.061   4.399
 2202SOL    HW1 7505   3.451   5.035   4.491
 2202SOL    HW2 7506   3.403   5.159   4.397
 2203SOL     OW 7507   3.402   2.070   3.028
 2203SOL    HW1 7508   3.498   2.093   3.009
 2203SOL    HW2 7509   3.344   2.108   2.956
 2204SOL     OW 7510   3.594   1.100   6.803
 2204SOL    HW1 7511   3.510   1.050   6.825
 2204SOL    HW2 7512   3.584   1.195   6.832
 2205SOL     OW 7513   1.866   0.743   6.787
 2205SOL    HW1 7514   1.847   0.832   6.828
 2205SOL    HW2 7515   1.893   0.678   6.859
 2206SOL     OW 7516   3.186   3.640   5.657
 2206SOL    HW1 7517   3.185   3.733   5.695
 2206SOL    HW2 7518   3.213   3.576   5.729
 2207SOL     OW 7519   0.821   4.228   6.347
 2207SOL    HW1 7520   0.745   4.164   6.354
 2207SOL    HW2 7521   0.906   4.178   6.330
 2208SOL     OW 7522   1.424   4.127   2.222
 2208SOL    HW1 7523   1.439   4.225   2.227
 2208SOL    HW2 7524   1.448   4.094   2.130
 2209SOL     OW 7525   1.706   5.907   6.100
 2209SOL    HW1 7526   1.706   5.831   6.165
 2209SOL    HW2 7527   1.800   5.933   6.080
 2210SOL     OW 7528   0.486   5.250   3.115
 2210SOL    HW1 7529   0.536   5.199   3.185
 2210SOL    HW2 7530   0.401   5.202   3.094
 2211SOL     OW 7531   5.955   1.848   5.516
 2211SOL    HW1 7532   5.941   1.897   5.602
 2211SOL    HW2 7533   6.007   1.904   5.453
 2212SOL     OW 7534   0.276   6.401   6.015
 2212SOL    HW1 7535   0.302   6.491   5.981
 2212SOL    HW2 7536   0.257   6.340   5.938
 2213SOL     OW 7537   4.449   2.460   4.187
 2213SOL    HW1 7538   4.409   2.439   4.277
 2213SOL    HW2 7539   4.384   2.436   4.115
 2214SOL     OW 7540   4.671   0.605   5.713
 2214SOL    HW1 7541   4.729   0.686   5.723
 2214SOL    HW2 7542   4.599   0.624   5.646
 2215SOL     OW 7543   0.165   1.570   5.920
 2215SOL    HW1 7544   0.208   1.653   5.955
 2215SOL    HW2 7545   0.172   1.569   5.820
 2216SOL     OW 7546   1.431   0.539   1.064
 2216SOL    HW1 7547   1.440   0.607   1.136
 2216SOL    HW2 7548   1.373   0.574   0.991
 2217SOL     OW 7549   3.956   0.278   0.472
 2217SOL    HW1 7550   3.914   0.357   0.516
 2217SOL    HW2 7551   4.049   0.302   0.444
 2218SOL     OW 7552   1.163   6.056   6.765
 2218SOL    HW1 7553   1.254   6.032   6.729
 2218SOL    HW2 7554   1.164   6.151   6.797
 2219SOL     OW 7555   1.490   3.778   2.915
 2219SOL    HW1 7556   1.498   3.803   3.012
 2219SOL    HW2 7557   1.580   3.753   2.879
 2220SOL     OW 7558   0.145   1.475   4.963
 2220SOL    HW1 7559   0.141   1.447   4.866
 2220SOL    HW2 7560   0.155   1.394   5.020
 2221SOL     OW 7561   6.662   1.985   1.037
 2221SOL    HW1 7562   6.696   2.076   1.062
 2221SOL    HW2 7563   6.564   1.980   1.053
 2222SOL     OW 7564   4.041   0.463   1.377
 2222SOL    HW1 7565   3.982   0.540   1.400
 2222SOL    HW2 7566   4.105   0.491   1.304
 2223SOL     OW 7567   6.282   5.377   3.625
 2223SOL    HW1 7568   6.228   5.343   3.548
 2223SOL    HW2 7569   6.279   5.477   3.626
 2224SOL     OW 7570   1.683   4.560   1.571
 2224SOL    HW1 7571   1.726   4.472   1.553
 2224SOL    HW2 7572   1.712   4.626   1.502
 2225SOL     OW 7573   5.994   4.910   2.136
 2225SOL    HW1 7574   6.092   4.897   2.121
 2225SOL    HW2 7575   5.950   4.822   2.150
 2226SOL     OW 7576   3.840   3.253   1.282
 2226SOL    HW1 7577   3.813   3.322   1.350
 2226SOL    HW2 7578   3.830   3.291   1.190
 2227SOL     OW 7579   6.409   4.136   5.905
 2227SOL    HW1 7580   6.389   4.053   5.853
 2227SOL    HW2 7581   6.331   4.158   5.963
 2228SOL     OW 7582   2.799   4.954   0.147
 2228SOL    HW1 7583   2.859   4.959   0.067
 2228SOL    HW2 7584   2.851   4.923   0.226
 2229SOL     OW 7585   4.638   1.486   4.150
 2229SOL    HW1 7586   4.676   1.394   4.161
 2229SOL    HW2 7587   4.703   1.553   4.186
 2230SOL     OW 7588   1.566   5.189   3.727
 2230SOL    HW1 7589   1.564   5.285   3.702
 2230SOL    HW2 7590   1.659   5.154   3.719
 2231SOL     OW 7591   1.901   1.554   2.599
 2231SOL    HW1 7592   1.973   1.613   2.635
 2231SOL    HW2 7593   1.941   1.470   2.563
 2232SOL     OW 7594   0.620   3.153   3.294
 2232SOL    HW1 7595   0.699   3.102   3.259
 2232SOL    HW2 7596   0.605   3.234   3.238
 2233SOL     OW 7597   3.642   4.899   0.090
 2233SOL    HW1 7598   3.643   4.927   7.023
 2233SOL    HW2 7599   3.549   4.909   0.126
 2234SOL     OW 7600   3.995   2.372   0.607
 2234SOL    HW1 7601   4.077   2.353   0.661
 2234SOL    HW2 7602   3.941   2.442   0.654
 2235SOL     OW 7603   1.224   6.888   6.586
 2235SOL    HW1 7604   1.238   6.963   6.521
 2235SOL    HW2 7605   1.293   6.817   6.570
 2236SOL     OW 7606   0.751   4.038   0.810
 2236SOL    HW1 7607   0.773   3.948   0.848
 2236SOL    HW2 7608   0.788   4.109   0.870
 2237SOL     OW 7609   6.715   3.566   4.300
 2237SOL    HW1 7610   6.626   3.611   4.305
 2237SOL    HW2 7611   6.702   3.470   4.272
 2238SOL     OW 7612   6.953   5.781   1.886
 2238SOL    HW1 7613   0.001   5.785   1.949
 2238SOL    HW2 7614   6.968   5.845   1.810
 2239SOL     OW 7615   4.332   4.738   3.651
 2239SOL    HW1 7616   4.242   4.726   3.694
 2239SOL    HW2 7617   4.404   4.725   3.719
 2240SOL     OW 7618   6.738   5.403   3.306
 2240SOL    HW1 7619   6.640   5.405   3.323
 2240SOL    HW2 7620   6.760   5.325   3.247
 2241SOL     OW 7621   0.173   6.639   2.289
 2241SOL    HW1 7622   0.196   6.703   2.362
 2241SOL    HW2 7623   0.252   6.629   2.228
 2242SOL     OW 7624   5.360   1.651   2.714
 2242SOL    HW1 7625   5.355   1.646   2.814
 2242SOL    HW2 7626   5.361   1.559   2.676
 2243SOL     OW 7627   2.749   6.141   4.971
 2243SOL    HW1 7628   2.659   6.185   4.968
 2243SOL    HW2 7629   2.739   6.045   4.996
 2244SOL     OW 7630   4.122   1.138   3.926
 2244SOL    HW1 7631   4.095   1.210   3.990
 2244SOL    HW2 7632   4.202   1.090   3.961
 2245SOL     OW 7633   6.667   1.934   2.008
 2245SOL    HW1 7634   6.672   2.030   1.981
 2245SOL    HW2 7635   6.733   1.881   1.954
 2246SOL     OW 7636   1.568   2.876   5.273
 2246SOL    HW1 7637   1.616   2.962   5.252
 2246SOL    HW2 7638   1.494   2.894   5.338
 2247SOL     OW 7639   2.941   2.088   5.491
 2247SOL    HW1 7640   2.965   2.114   5.398
 2247SOL    HW2 7641   2.952   2.167   5.551
 2248SOL     OW 7642   5.005   4.248   5.259
 2248SOL    HW1 7643   5.059   4.257   5.176
 2248SOL    HW2 7644   4.929   4.313   5.257
 2249SOL     OW 7645   5.346   6.040   2.871
 2249SOL    HW1 7646   5.393   6.113   2.821
 2249SOL    HW2 7647   5.249   6.043   2.850
 2250SOL     OW 7648   5.344   3.734   1.557
 2250SOL    HW1 7649   5.414   3.699   1.620
 2250SOL    HW2 7650   5.317   3.662   1.494
 2251SOL     OW 7651   6.153   1.592   0.455
 2251SOL    HW1 7652   6.205   1.507   0.469
 2251SOL    HW2 7653   6.193   1.644   0.379
 2252SOL     OW 7654   5.940   3.087   5.112
 2252SOL    HW1 7655   5.920   3.150   5.037
 2252SOL    HW2 7656   5.923   3.133   5.199
 2253SOL     OW 7657   1.943   3.284   6.445
 2253SOL    HW1 7658   2.000   3.231   6.383
 2253SOL    HW2 7659   1.855   3.238   6.459
 2254SOL     OW 7660   2.224   3.396   5.855
 2254SOL    HW1 7661   2.209   3.335   5.933
 2254SOL    HW2 7662   2.264   3.344   5.779
 2255SOL     OW 7663   6.161   2.789   2.064
 2255SOL    HW1 7664   6.258   2.786   2.085
 2255SOL    HW2 7665   6.144   2.736   1.981
 2256SOL     OW 7666   3.075   4.826   1.905
 2256SOL    HW1 7667   2.995   4.814   1.846
 2256SOL    HW2 7668   3.049   4.808   2.000
 2257SOL     OW 7669   1.542   3.296   4.541
 2257SOL    HW1 7670   1.636   3.325   4.526
 2257SOL    HW2 7671   1.536   3.196   4.536
 2258SOL     OW 7672   1.729   4.547   5.042
 2258SOL    HW1 7673   1.762   4.453   5.035
 2258SOL    HW2 7674   1.758   4.587   5.129
 2259SOL     OW 7675   5.815   4.539   6.489
 2259SOL    HW1 7676   5.802   4.448   6.529
 2259SOL    HW2 7677   5.907   4.545   6.449
 2260SOL     OW 7678   3.859   4.951   2.654
 2260SOL    HW1 7679   3.862   5.051   2.659
 2260SOL    HW2 7680   3.852   4.912   2.746
 2261SOL     OW 7681   5.276   6.769   0.897
 2261SOL    HW1 7682   5.360   6.803   0.856
 2261SOL    HW2 7683   5.261   6.674   0.868
 2262SOL     OW 7684   5.403   1.563   4.250
 2262SOL    HW1 7685   5.399   1.659   4.223
 2262SOL    HW2 7686   5.399   1.557   4.350
 2263SOL     OW 7687   2.303   5.437   6.181
 2263SOL    HW1 7688   2.273   5.343   6.197
 2263SOL    HW2 7689   2.388   5.437   6.128
 2264SOL     OW 7690   2.929   3.635   2.703
 2264SOL    HW1 7691   2.939   3.564   2.634
 2264SOL    HW2 7692   2.953   3.598   2.793
 2265SOL     OW 7693   0.177   1.404   2.709
 2265SOL    HW1 7694   0.239   1.480   2.726
 2265SOL    HW2 7695   0.218   1.319   2.744
 2266SOL     OW 7696   6.290   1.279   0.702
 2266SOL    HW1 7697   6.246   1.192   0.724
 2266SOL    HW2 7698   6.373   1.289   0.756
 2267SOL     OW 7699   5.744   2.564   4.736
 2267SOL    HW1 7700   5.808   2.641   4.732
 2267SOL    HW2 7701   5.788   2.487   4.784
 2268SOL     OW 7702   6.586   6.237   0.559
 2268SOL    HW1 7703   6.664   6.185   0.527
 2268SOL    HW2 7704   6.612   6.333   0.572
 2269SOL     OW 7705   6.221   5.772   5.545
 2269SOL    HW1 7706   6.273   5.829   5.481
 2269SOL    HW2 7707   6.146   5.825   5.583
 2270SOL     OW 7708   3.505   4.004   1.718
 2270SOL    HW1 7709   3.475   4.058   1.640
 2270SOL    HW2 7710   3.554   4.063   1.782
 2271SOL     OW 7711   6.196   4.247   1.649
 2271SOL    HW1 7712   6.293   4.255   1.672
 2271SOL    HW2 7713   6.175   4.308   1.572
 2272SOL     OW 7714   5.524   2.220   4.910
 2272SOL    HW1 7715   5.622   2.222   4.887
 2272SOL    HW2 7716   5.471   2.242   4.829
 2273SOL     OW 7717   0.865   0.817   3.140
 2273SOL    HW1 7718   0.839   0.765   3.221
 2273SOL    HW2 7719   0.827   0.909   3.145
 2274SOL     OW 7720   1.720   3.567   4.935
 2274SOL    HW1 7721   1.651   3.640   4.930
 2274SOL    HW2 7722   1.766   3.571   5.024
 2275SOL     OW 7723   4.743   6.313   4.893
 2275SOL    HW1 7724   4.725   6.216   4.875
 2275SOL    HW2 7725   4.751   6.362   4.807
 2276SOL     OW 7726   3.668   4.652   0.853
 2276SOL    HW1 7727   3.667   4.680   0.949
 2276SOL    HW2 7728   3.646   4.730   0.795
 2277SOL     OW 7729   3.357   3.374   5.172
 2277SOL    HW1 7730   3.307   3.312   5.233
 2277SOL    HW2 7731   3.423   3.322   5.118
 2278SOL     OW 7732   4.726   6.123   2.443
 2278SOL    HW1 7733   4.807   6.176   2.419
 2278SOL    HW2 7734   4.752   6.047   2.503
 2279SOL     OW 7735   5.300   4.042   4.439
 2279SOL    HW1 7736   5.313   4.117   4.375
 2279SOL    HW2 7737   5.242   3.972   4.396
 2280SOL     OW 7738   6.349   6.307   5.161
 2280SOL    HW1 7739   6.325   6.323   5.257
 2280SOL    HW2 7740   6.299   6.227   5.127
 2281SOL     OW 7741   3.527   2.092   1.780
 2281SOL    HW1 7742   3.577   2.151   1.844
 2281SOL    HW2 7743   3.501   2.008   1.827
 2282SOL     OW 7744   4.549   5.853   4.537
 2282SOL    HW1 7745   4.632   5.871   4.486
 2282SOL    HW2 7746   4.551   5.904   4.623
 2283SOL     OW 7747   6.496   3.820   3.212
 2283SOL    HW1 7748   6.582   3.794   3.256
 2283SOL    HW2 7749   6.514   3.892   3.144
 2284SOL     OW 7750   2.363   2.248   2.084
 2284SOL    HW1 7751   2.297   2.301   2.030
 2284SOL    HW2 7752   2.359   2.278   2.179
 2285SOL     OW 7753   1.506   3.899   0.732
 2285SOL    HW1 7754   1.604   3.893   0.718
 2285SOL    HW2 7755   1.467   3.966   0.668
 2286SOL     OW 7756   6.629   5.596   5.051
 2286SOL    HW1 7757   6.569   5.651   4.993
 2286SOL    HW2 7758   6.574   5.539   5.112
 2287SOL     OW 7759   2.010   3.077   1.459
 2287SOL    HW1 7760   1.945   3.013   1.419
 2287SOL    HW2 7761   2.087   3.091   1.396
 2288SOL     OW 7762   1.014   5.939   3.649
 2288SOL    HW1 7763   0.957   5.874   3.599
 2288SOL    HW2 7764   0.972   6.030   3.645
 2289SOL     OW 7765   5.668   2.229   2.008
 2289SOL    HW1 7766   5.666   2.320   2.050
 2289SOL    HW2 7767   5.579   2.185   2.021
 2290SOL     OW 7768   3.373   3.295   3.168
 2290SOL    HW1 7769   3.341   3.290   3.073
 2290SOL    HW2 7770   3.449   3.231   3.181
 2291SOL     OW 7771   2.158   2.002   1.393
 2291SOL    HW1 7772   2.204   1.915   1.377
 2291SOL    HW2 7773   2.225   2.075   1.401
 2292SOL     OW 7774   5.175   2.858   3.710
 2292SOL    HW1 7775   5.266   2.894   3.729
 2292SOL    HW2 7776   5.181   2.788   3.639
 2293SOL     OW 7777   5.443   1.425   1.075
 2293SOL    HW1 7778   5.345   1.405   1.068
 2293SOL    HW2 7779   5.495   1.349   1.036
 2294SOL     OW 7780   2.657   2.169   5.597
 2294SOL    HW1 7781   2.641   2.101   5.526
 2294SOL    HW2 7782   2.750   2.205   5.589
 2295SOL     OW 7783   6.690   0.481   1.631
 2295SOL    HW1 7784   6.694   0.463   1.533
 2295SOL    HW2 7785   6.595   0.480   1.662
 2296SOL     OW 7786   2.453   4.959   3.407
 2296SOL    HW1 7787   2.426   4.954   3.311
 2296SOL    HW2 7788   2.544   5.000   3.414
 2297SOL     OW 7789   5.527   4.649   6.005
 2297SOL    HW1 7790   5.558   4.700   6.085
 2297SOL    HW2 7791   5.490   4.561   6.034
 2298SOL     OW 7792   3.878   3.588   3.991
 2298SOL    HW1 7793   3.887   3.672   3.938
 2298SOL    HW2 7794   3.847   3.610   4.084
 2299SOL     OW 7795   5.003   3.564   4.847
 2299SOL    HW1 7796   4.962   3.598   4.762
 2299SOL    HW2 7797   4.933   3.556   4.917
 2300SOL     OW 7798   3.320   6.779   3.457
 2300SOL    HW1 7799   3.313   6.822   3.367
 2300SOL    HW2 7800   3.286   6.685   3.450
 2301SOL     OW 7801   3.416   2.928   4.477
 2301SOL    HW1 7802   3.415   2.893   4.570
 2301SOL    HW2 7803   3.506   2.965   4.456
 2302SOL     OW 7804   4.015   0.976   0.084
 2302SOL    HW1 7805   4.018   0.876   0.087
 2302SOL    HW2 7806   3.929   1.006   0.044
 2303SOL     OW 7807   2.277   2.681   1.082
 2303SOL    HW1 7808   2.338   2.715   1.011
 2303SOL    HW2 7809   2.187   2.725   1.073
 2304SOL     OW 7810   6.904   5.928   3.850
 2304SOL    HW1 7811   6.910   6.021   3.883
 2304SOL    HW2 7812   6.820   5.917   3.796
 2305SOL     OW 7813   1.464   0.947   4.003
 2305SOL    HW1 7814   1.529   0.963   4.078
 2305SOL    HW2 7815   1.501   0.878   3.942
 2306SOL     OW 7816   1.805   5.053   2.718
 2306SOL    HW1 7817   1.900   5.053   2.688
 2306SOL    HW2 7818   1.752   4.988   2.663
 2307SOL     OW 7819   1.252   2.799   5.192
 2307SOL    HW1 7820   1.188   2.736   5.149
 2307SOL    HW2 7821   1.346   2.774   5.168
 2308SOL     OW 7822   2.132   5.102   1.554
 2308SOL    HW1 7823   2.142   5.072   1.459
 2308SOL    HW2 7824   2.051   5.059   1.594
 2309SOL     OW 7825   1.452   0.356   4.280
 2309SOL    HW1 7826   1.408   0.357   4.370
 2309SOL    HW2 7827   1.393   0.309   4.215
 2310SOL     OW 7828   5.082   6.791   2.061
 2310SOL    HW1 7829   5.063   6.762   2.155
 2310SOL    HW2 7830   5.163   6.850   2.059
 2311SOL     OW 7831   2.252   6.119   0.602
 2311SOL    HW1 7832   2.233   6.022   0.610
 2311SOL    HW2 7833   2.351   6.133   0.593
 2312SOL     OW 7834   3.849   5.874   3.012
 2312SOL    HW1 7835   3.819   5.954   2.960
 2312SOL    HW2 7836   3.779   5.849   3.078
 2313SOL     OW 7837   5.103   4.996   2.334
 2313SOL    HW1 7838   5.071   5.077   2.384
 2313SOL    HW2 7839   5.024   4.946   2.298
 2314SOL     OW 7840   3.160   5.656   3.307
 2314SOL    HW1 7841   3.198   5.746   3.284
 2314SOL    HW2 7842   3.234   5.594   3.333
 2315SOL     OW 7843   4.812   2.972   6.394
 2315SOL    HW1 7844   4.776   2.931   6.310
 2315SOL    HW2 7845   4.872   3.048   6.371
 2316SOL     OW 7846   4.839   2.746   3.550
 2316SOL    HW1 7847   4.786   2.738   3.635
 2316SOL    HW2 7848   4.839   2.658   3.503
 2317SOL     OW 7849   0.953   4.751   2.132
 2317SOL    HW1 7850   1.031   4.812   2.118
 2317SOL    HW2 7851   0.873   4.804   2.159
 2318SOL     OW 7852   0.577   1.891   3.560
 2318SOL    HW1 7853   0.624   1.814   3.603
 2318SOL    HW2 7854   0.479   1.875   3.561
 2319SOL     OW 7855   2.124   3.963   4.468
 2319SOL    HW1 7856   2.135   3.869   4.501
 2319SOL    HW2 7857   2.033   3.973   4.426
 2320SOL     OW 7858   7.019   2.578   4.153
 2320SOL    HW1 7859   0.009   2.675   4.142
 2320SOL    HW2 7860   6.923   2.560   4.133
 2321SOL     OW 7861   2.713   0.026   4.621
 2321SOL    HW1 7862   2.805   7.015   4.613
 2321SOL    HW2 7863   2.716   0.122   4.594
 2322SOL     OW 7864   1.281   1.815   5.641
 2322SOL    HW1 7865   1.273   1.903   5.688
 2322SOL    HW2 7866   1.204   1.756   5.667
 2323SOL     OW 7867   4.394   5.651   3.471
 2323SOL    HW1 7868   4.327   5.584   3.440
 2323SOL    HW2 7869   4.370   5.741   3.436
 2324SOL     OW 7870   0.980   6.198   2.438
 2324SOL    HW1 7871   0.979   6.292   2.473
 2324SOL    HW2 7872   0.926   6.139   2.498
 2325SOL     OW 7873   1.050   3.717   1.601
 2325SOL    HW1 7874   0.964   3.667   1.601
 2325SOL    HW2 7875   1.061   3.766   1.687
 2326SOL     OW 7876   1.574   4.517   6.287
 2326SOL    HW1 7877   1.550   4.459   6.208
 2326SOL    HW2 7878   1.556   4.467   6.371
 2327SOL     OW 7879   4.758   2.689   4.643
 2327SOL    HW1 7880   4.835   2.752   4.635
 2327SOL    HW2 7881   4.753   2.633   4.560
 2328SOL     OW 7882   5.088   1.331   2.786
 2328SOL    HW1 7883   5.163   1.371   2.734
 2328SOL    HW2 7884   5.093   1.231   2.780
 2329SOL     OW 7885   1.109   5.190   4.084
 2329SOL    HW1 7886   1.186   5.191   4.148
 2329SOL    HW2 7887   1.122   5.115   4.019
 2330SOL     OW 7888   0.572   4.856   1.671
 2330SOL    HW1 7889   0.643   4.862   1.742
 2330SOL    HW2 7890   0.489   4.901   1.703
 2331SOL     OW 7891   0.210   3.998   5.412
 2331SOL    HW1 7892   0.162   3.915   5.384
 2331SOL    HW2 7893   0.281   4.019   5.345
 2332SOL     OW 7894   5.045   3.008   6.153
 2332SOL    HW1 7895   4.958   2.976   6.116
 2332SOL    HW2 7896   5.116   3.003   6.083
 2333SOL     OW 7897   0.903   5.117   3.050
 2333SOL    HW1 7898   0.857   5.030   3.033
 2333SOL    HW2 7899   0.862   5.188   2.992
 2334SOL     OW 7900   3.284   6.786   7.024
 2334SOL    HW1 7901   3.319   6.876   6.998
 2334SOL    HW2 7902   3.322   6.760   0.084
 2335SOL     OW 7903   5.778   0.407   3.277
 2335SOL    HW1 7904   5.688   0.364   3.266
 2335SOL    HW2 7905   5.771   0.480   3.346
 2336SOL     OW 7906   4.835   1.003   6.069
 2336SOL    HW1 7907   4.812   1.027   5.975
 2336SOL    HW2 7908   4.835   1.085   6.125
 2337SOL     OW 7909   5.545   0.326   3.188
 2337SOL    HW1 7910   5.571   0.369   3.102
 2337SOL    HW2 7911   5.551   0.226   3.179
 2338SOL     OW 7912   0.068   6.251   0.379
 2338SOL    HW1 7913   0.167   6.237   0.386
 2338SOL    HW2 7914   0.049   6.325   0.315
 2339SOL     OW 7915   3.496   4.724   6.281
 2339SOL    HW1 7916   3.410   4.674   6.292
 2339SOL    HW2 7917   3.540   4.732   6.371
 2340SOL     OW 7918   3.267   6.060   5.323
 2340SOL    HW1 7919   3.352   6.009   5.310
 2340SOL    HW2 7920   3.284   6.138   5.383
 2341SOL     OW 7921   5.923   4.843   0.763
 2341SOL    HW1 7922   6.009   4.854   0.715
 2341SOL    HW2 7923   5.909   4.747   0.786
 2342SOL     OW 7924   6.960   6.949   5.096
 2342SOL    HW1 7925   6.932   0.010   5.062
 2342SOL    HW2 7926   6.928   6.879   5.032
 2343SOL     OW 7927   1.334   6.450   1.014
 2343SOL    HW1 7928   1.324   6.470   0.916
 2343SOL    HW2 7929   1.431   6.442   1.037
 2344SOL     OW 7930   2.731   1.757   3.060
 2344SOL    HW1 7931   2.657   1.822   3.079
 2344SOL    HW2 7932   2.768   1.775   2.968
 2345SOL     OW 7933   1.303   0.883   4.958
 2345SOL    HW1 7934   1.280   0.786   4.950
 2345SOL    HW2 7935   1.393   0.900   4.918
 2346SOL     OW 7936   4.895   3.283   5.577
 2346SOL    HW1 7937   4.849   3.333   5.504
 2346SOL    HW2 7938   4.948   3.207   5.538
 2347SOL     OW 7939   1.619   3.739   1.843
 2347SOL    HW1 7940   1.584   3.823   1.802
 2347SOL    HW2 7941   1.688   3.761   1.912
 2348SOL     OW 7942   2.557   6.456   3.705
 2348SOL    HW1 7943   2.532   6.538   3.758
 2348SOL    HW2 7944   2.639   6.475   3.651
 2349SOL     OW 7945   6.819   6.845   6.212
 2349SOL    HW1 7946   6.893   6.797   6.165
 2349SOL    HW2 7947   6.763   6.780   6.263
 2350SOL     OW 7948   3.041   0.683   5.179
 2350SOL    HW1 7949   3.110   0.745   5.215
 2350SOL    HW2 7950   3.050   0.594   5.223
 2351SOL     OW 7951   2.725   4.974   3.503
 2351SOL    HW1 7952   2.786   4.895   3.503
 2351SOL    HW2 7953   2.753   5.037   3.430
 2352SOL     OW 7954   6.434   4.198   2.819
 2352SOL    HW1 7955   6.468   4.197   2.725
 2352SOL    HW2 7956   6.424   4.293   2.850
 2353SOL     OW 7957   2.797   4.050   5.785
 2353SOL    HW1 7958   2.721   4.091   5.835
 2353SOL    HW2 7959   2.803   4.091   5.694
 2354SOL     OW 7960   3.966   2.353   0.312
 2354SOL    HW1 7961   3.882   2.390   0.272
 2354SOL    HW2 7962   3.999   2.415   0.383
 2355SOL     OW 7963   0.725   6.708   1.029
 2355SOL    HW1 7964   0.767   6.726   0.940
 2355SOL    HW2 7965   0.739   6.612   1.054
 2356SOL     OW 7966   2.314   5.034   2.492
 2356SOL    HW1 7967   2.362   4.950   2.464
 2356SOL    HW2 7968   2.344   5.110   2.436
 2357SOL     OW 7969   5.218   4.500   2.979
 2357SOL    HW1 7970   5.231   4.421   2.920
 2357SOL    HW2 7971   5.214   4.469   3.075
 2358SOL     OW 7972   3.451   0.123   4.431
 2358SOL    HW1 7973   3.538   0.169   4.415
 2358SOL    HW2 7974   3.427   0.069   4.350
 2359SOL     OW 7975   2.711   1.488   5.831
 2359SOL    HW1 7976   2.731   1.496   5.928
 2359SOL    HW2 7977   2.636   1.549   5.806
 2360SOL     OW 7978   3.927   4.627   0.617
 2360SOL    HW1 7979   3.833   4.596   0.601
 2360SOL    HW2 7980   3.974   4.635   0.529
 2361SOL     OW 7981   3.237   6.625   3.185
 2361SOL    HW1 7982   3.278   6.716   3.184
 2361SOL    HW2 7983   3.170   6.618   3.112
 2362SOL     OW 7984   4.253   6.037   4.795
 2362SOL    HW1 7985   4.201   6.046   4.710
 2362SOL    HW2 7986   4.347   6.066   4.780
 2363SOL     OW 7987   3.986   2.447   6.595
 2363SOL    HW1 7988   4.079   2.429   6.627
 2363SOL    HW2 7989   3.931   2.482   6.670
 2364SOL     OW 7990   5.239   1.896   2.053
 2364SOL    HW1 7991   5.187   1.817   2.020
 2364SOL    HW2 7992   5.290   1.870   2.136
 2365SOL     OW 7993   4.892   3.765   4.368
 2365SOL    HW1 7994   4.901   3.758   4.269
 2365SOL    HW2 7995   4.797   3.786   4.392
 2366SOL     OW 7996   1.791   4.164   5.335
 2366SOL    HW1 7997   1.722   4.164   5.262
 2366SOL    HW2 7998   1.827   4.071   5.346
 2367SOL     OW 7999   0.969   3.609   5.685
 2367SOL    HW1 8000   0.896   3.599   5.752
 2367SOL    HW2 8001   1.049   3.556   5.714
 2368SOL     OW 8002   4.740   0.841   4.281
 2368SOL    HW1 8003   4.826   0.800   4.252
 2368SOL    HW2 8004   4.682   0.770   4.322
 2369SOL     OW 8005   3.759   1.672   3.356
 2369SOL    HW1 8006   3.859   1.673   3.355
 2369SOL    HW2 8007   3.725   1.720   3.275
 2370SOL     OW 8008   4.557   2.624   0.957
 2370SOL    HW1 8009   4.584   2.539   1.003
 2370SOL    HW2 8010   4.501   2.679   1.019
 2371SOL     OW 8011   0.771   6.817   2.701
 2371SOL    HW1 8012   0.719   6.737   2.731
 2371SOL    HW2 8013   0.710   6.896   2.695
 2372SOL     OW 8014   6.434   1.677   5.853
 2372SOL    HW1 8015   6.453   1.756   5.911
 2372SOL    HW2 8016   6.369   1.703   5.781
 2373SOL     OW 8017   6.167   1.014   6.338
 2373SOL    HW1 8018   6.100   1.025   6.411
 2373SOL    HW2 8019   6.238   1.083   6.347
 2374SOL     OW 8020   6.098   5.790   3.470
 2374SOL    HW1 8021   6.190   5.820   3.497
 2374SOL    HW2 8022   6.101   5.751   3.378
 2375SOL     OW 8023   0.724   0.311   3.831
 2375SOL    HW1 8024   0.737   0.319   3.929
 2375SOL    HW2 8025   0.767   0.227   3.798
 2376SOL     OW 8026   0.225   2.308   3.233
 2376SOL    HW1 8027   0.319   2.301   3.199
 2376SOL    HW2 8028   0.225   2.359   3.319
 2377SOL     OW 8029   3.269   4.576   6.325
 2377SOL    HW1 8030   3.198   4.520   6.282
 2377SOL    HW2 8031   3.325   4.519   6.385
 2378SOL     OW 8032   5.831   2.007   0.658
 2378SOL    HW1 8033   5.916   1.955   0.656
 2378SOL    HW2 8034   5.835   2.072   0.734
 2379SOL     OW 8035   0.033   4.751   0.539
 2379SOL    HW1 8036   7.023   4.809   0.611
 2379SOL    HW2 8037   0.133   4.762   0.539
 2380SOL     OW 8038   6.077   2.992   5.466
 2380SOL    HW1 8039   6.022   3.018   5.545
 2380SOL    HW2 8040   6.113   3.074   5.422
 2381SOL     OW 8041   2.126   4.640   5.250
 2381SOL    HW1 8042   2.101   4.556   5.298
 2381SOL    HW2 8043   2.222   4.663   5.269
 2382SOL     OW 8044   1.909   5.999   2.724
 2382SOL    HW1 8045   1.909   5.961   2.631
 2382SOL    HW2 8046   1.817   6.030   2.747
 2383SOL     OW 8047   5.747   5.976   5.745
 2383SOL    HW1 8048   5.737   6.000   5.842
 2383SOL    HW2 8049   5.662   5.996   5.697
 2384SOL     OW 8050   0.487   1.981   1.448
 2384SOL    HW1 8051   0.550   2.055   1.472
 2384SOL    HW2 8052   0.440   1.948   1.530
 2385SOL     OW 8053   0.815   2.001   0.146
 2385SOL    HW1 8054   0.745   1.930   0.140
 2385SOL    HW2 8055   0.800   2.055   0.229
 2386SOL     OW 8056   3.347   5.329   4.385
 2386SOL    HW1 8057   3.370   5.402   4.449
 2386SOL    HW2 8058   3.253   5.342   4.353
 2387SOL     OW 8059   0.277   2.853   4.185
 2387SOL    HW1 8060   0.279   2.907   4.269
 2387SOL    HW2 8061   0.345   2.890   4.121
 2388SOL     OW 8062   0.386   2.287   6.109
 2388SOL    HW1 8063   0.435   2.316   6.027
 2388SOL    HW2 8064   0.311   2.351   6.127
 2389SOL     OW 8065   5.346   5.202   4.510
 2389SOL    HW1 8066   5.371   5.145   4.589
 2389SOL    HW2 8067   5.306   5.145   4.439
 2390SOL     OW 8068   4.221   3.657   6.353
 2390SOL    HW1 8069   4.146   3.719   6.376
 2390SOL    HW2 8070   4.214   3.575   6.410
 2391SOL     OW 8071   3.481   2.964   6.603
 2391SOL    HW1 8072   3.517   2.942   6.694
 2391SOL    HW2 8073   3.408   3.032   6.613
 2392SOL     OW 8074   3.258   4.452   5.734
 2392SOL    HW1 8075   3.310   4.440   5.819
 2392SOL    HW2 8076   3.197   4.531   5.743
 2393SOL     OW 8077   4.039   5.300   1.612
 2393SOL    HW1 8078   4.133   5.311   1.581
 2393SOL    HW2 8079   4.037   5.288   1.711
 2394SOL     OW 8080   0.005   4.435   3.874
 2394SOL    HW1 8081   0.013   4.352   3.928
 2394SOL    HW2 8082   0.087   4.490   3.884
 2395SOL     OW 8083   0.896   2.967   6.463
 2395SOL    HW1 8084   0.843   3.052   6.464
 2395SOL    HW2 8085   0.879   2.916   6.547
 2396SOL     OW 8086   5.389   0.965   6.061
 2396SOL    HW1 8087   5.393   0.870   6.089
 2396SOL    HW2 8088   5.441   0.977   5.976
 2397SOL     OW 8089   0.377   4.902   6.099
 2397SOL    HW1 8090   0.353   4.821   6.046
 2397SOL    HW2 8091   0.392   4.876   6.194
 2398SOL     OW 8092   2.584   5.680   3.688
 2398SOL    HW1 8093   2.564   5.595   3.639
 2398SOL    HW2 8094   2.500   5.717   3.727
 2399SOL     OW 8095   3.133   2.228   3.902
 2399SOL    HW1 8096   3.100   2.158   3.964
 2399SOL    HW2 8097   3.210   2.276   3.944
 2400SOL     OW 8098   2.219   3.604   0.255
 2400SOL    HW1 8099   2.242   3.520   0.305
 2400SOL    HW2 8100   2.213   3.680   0.319
 2401SOL     OW 8101   3.819   6.845   4.122
 2401SOL    HW1 8102   3.856   6.905   4.194
 2401SOL    HW2 8103   3.889   6.778   4.097
 2402SOL     OW 8104   0.606   2.449   3.038
 2402SOL    HW1 8105   0.590   2.514   3.113
 2402SOL    HW2 8106   0.698   2.464   3.001
 2403SOL     OW 8107   4.096   3.318   1.399
 2403SOL    HW1 8108   4.029   3.294   1.329
 2403SOL    HW2 8109   4.184   3.338   1.356
 2404SOL     OW 8110   5.852   1.258   1.308
 2404SOL    HW1 8111   5.787   1.329   1.283
 2404SOL    HW2 8112   5.837   1.178   1.249
 2405SOL     OW 8113   2.627   5.007   5.743
 2405SOL    HW1 8114   2.612   4.922   5.693
 2405SOL    HW2 8115   2.621   5.084   5.679
 2406SOL     OW 8116   1.828   6.904   3.336
 2406SOL    HW1 8117   1.914   6.951   3.354
 2406SOL    HW2 8118   1.777   6.953   3.266
 2407SOL     OW 8119   4.672   2.079   3.165
 2407SOL    HW1 8120   4.605   2.034   3.105
 2407SOL    HW2 8121   4.624   2.135   3.232
 2408SOL     OW 8122   2.640   5.506   3.008
 2408SOL    HW1 8123   2.678   5.524   2.917
 2408SOL    HW2 8124   2.637   5.591   3.060
 2409SOL     OW 8125   3.006   2.840   0.834
 2409SOL    HW1 8126   2.911   2.870   0.822
 2409SOL    HW2 8127   3.063   2.881   0.763
 2410SOL     OW 8128   6.309   3.743   6.005
 2410SOL    HW1 8129   6.377   3.706   5.942
 2410SOL    HW2 8130   6.259   3.668   6.047
 2411SOL     OW 8131   2.971   3.977   5.978
 2411SOL    HW1 8132   2.921   3.913   6.036
 2411SOL    HW2 8133   2.908   4.018   5.912
 2412SOL     OW 8134   2.635   3.109   6.932
 2412SOL    HW1 8135   2.711   3.055   6.969
 2412SOL    HW2 8136   2.572   3.133   7.005
 2413SOL     OW 8137   6.254   3.427   6.511
 2413SOL    HW1 8138   6.224   3.516   6.476
 2413SOL    HW2 8139   6.207   3.354   6.461
 2414SOL     OW 8140   5.561   1.995   3.840
 2414SOL    HW1 8141   5.655   1.981   3.812
 2414SOL    HW2 8142   5.548   2.091   3.867
 2415SOL     OW 8143   2.193   6.899   0.024
 2415SOL    HW1 8144   2.127   6.863   6.987
 2415SOL    HW2 8145   2.260   6.827   0.046
 2416SOL     OW 8146   0.925   3.144   3.457
 2416SOL    HW1 8147   0.886   3.218   3.510
 2416SOL    HW2 8148   1.024   3.138   3.475
 2417SOL     OW 8149   4.589   2.658   6.842
 2417SOL    HW1 8150   4.579   2.560   6.825
 2417SOL    HW2 8151   4.676   2.675   6.887
 2418SOL     OW 8152   4.102   4.297   5.441
 2418SOL    HW1 8153   4.149   4.221   5.396
 2418SOL    HW2 8154   4.158   4.380   5.433
 2419SOL     OW 8155   2.225   6.943   4.454
 2419SOL    HW1 8156   2.171   6.888   4.518
 2419SOL    HW2 8157   2.168   6.965   4.374
 2420SOL     OW 8158   3.482   5.609   2.031
 2420SOL    HW1 8159   3.416   5.640   1.963
 2420SOL    HW2 8160   3.562   5.571   1.985
 2421SOL     OW 8161   3.882   6.772   3.806
 2421SOL    HW1 8162   3.899   6.774   3.708
 2421SOL    HW2 8163   3.790   6.738   3.823
 2422SOL     OW 8164   4.142   0.316   1.125
 2422SOL    HW1 8165   4.235   0.296   1.095
 2422SOL    HW2 8166   4.140   0.325   1.224
 2423SOL     OW 8167   1.820   5.875   1.641
 2423SOL    HW1 8168   1.792   5.969   1.658
 2423SOL    HW2 8169   1.919   5.871   1.624
 2424SOL     OW 8170   5.455   6.169   6.593
 2424SOL    HW1 8171   5.367   6.215   6.608
 2424SOL    HW2 8172   5.438   6.077   6.558
 2425SOL     OW 8173   4.798   5.361   5.697
 2425SOL    HW1 8174   4.863   5.397   5.765
 2425SOL    HW2 8175   4.846   5.344   5.611
 2426SOL     OW 8176   1.106   5.787   4.745
 2426SOL    HW1 8177   1.090   5.832   4.657
 2426SOL    HW2 8178   1.029   5.805   4.806
 2427SOL     OW 8179   4.857   6.328   6.627
 2427SOL    HW1 8180   4.832   6.265   6.554
 2427SOL    HW2 8181   4.900   6.409   6.588
 2428SOL     OW 8182   0.200   1.310   3.162
 2428SOL    HW1 8183   0.167   1.405   3.159
 2428SOL    HW2 8184   0.123   1.249   3.179
 2429SOL     OW 8185   5.239   4.771   2.220
 2429SOL    HW1 8186   5.185   4.844   2.262
 2429SOL    HW2 8187   5.225   4.686   2.270
 2430SOL     OW 8188   5.841   2.462   0.703
 2430SOL    HW1 8189   5.873   2.474   0.609
 2430SOL    HW2 8190   5.820   2.366   0.720
 2431SOL     OW 8191   5.778   1.592   1.963
 2431SOL    HW1 8192   5.802   1.666   2.027
 2431SOL    HW2 8193   5.693   1.549   1.993
 2432SOL     OW 8194   3.402   5.440   1.771
 2432SOL    HW1 8195   3.420   5.349   1.809
 2432SOL    HW2 8196   3.356   5.429   1.683
 2433SOL     OW 8197   0.533   5.671   0.290
 2433SOL    HW1 8198   0.479   5.634   0.366
 2433SOL    HW2 8199   0.625   5.693   0.323
 2434SOL     OW 8200   4.406   1.820   2.305
 2434SOL    HW1 8201   4.365   1.781   2.388
 2434SOL    HW2 8202   4.349   1.894   2.271
 2435SOL     OW 8203   5.821   5.600   0.408
 2435SOL    HW1 8204   5.774   5.635   0.327
 2435SOL    HW2 8205   5.776   5.635   0.491
 2436SOL     OW 8206   1.762   1.457   1.820
 2436SOL    HW1 8207   1.722   1.382   1.872
 2436SOL    HW2 8208   1.719   1.543   1.849
 2437SOL     OW 8209   5.894   5.858   2.201
 2437SOL    HW1 8210   5.865   5.886   2.293
 2437SOL    HW2 8211   5.815   5.824   2.150
 2438SOL     OW 8212   3.873   1.920   4.551
 2438SOL    HW1 8213   3.808   1.995   4.568
 2438SOL    HW2 8214   3.848   1.842   4.608
 2439SOL     OW 8215   0.247   5.335   6.766
 2439SOL    HW1 8216   0.197   5.285   6.837
 2439SOL    HW2 8217   0.224   5.432   6.771
 2440SOL     OW 8218   3.977   7.007   5.360
 2440SOL    HW1 8219   3.904   0.046   5.353
 2440SOL    HW2 8220   4.040   7.018   5.283
 2441SOL     OW 8221   5.568   1.068   0.281
 2441SOL    HW1 8222   5.665   1.045   0.287
 2441SOL    HW2 8223   5.513   0.988   0.307
 2442SOL     OW 8224   5.829   4.414   2.970
 2442SOL    HW1 8225   5.815   4.317   2.950
 2442SOL    HW2 8226   5.870   4.424   3.061
 2443SOL     OW 8227   2.232   0.821   6.262
 2443SOL    HW1 8228   2.240   0.829   6.162
 2443SOL    HW2 8229   2.141   0.848   6.290
 2444SOL     OW 8230   3.826   4.794   0.286
 2444SOL    HW1 8231   3.764   4.841   0.350
 2444SOL    HW2 8232   3.793   4.808   0.192
 2445SOL     OW 8233   6.262   1.226   2.295
 2445SOL    HW1 8234   6.228   1.273   2.214
 2445SOL    HW2 8235   6.325   1.153   2.267
 2446SOL     OW 8236   1.087   2.685   2.949
 2446SOL    HW1 8237   1.066   2.738   3.031
 2446SOL    HW2 8238   1.082   2.745   2.869
 2447SOL     OW 8239   2.027   1.117   1.055
 2447SOL    HW1 8240   1.987   1.166   1.133
 2447SOL    HW2 8241   2.126   1.127   1.056
 2448SOL     OW 8242   6.154   1.764   4.077
 2448SOL    HW1 8243   6.134   1.702   4.153
 2448SOL    HW2 8244   6.241   1.738   4.035
 2449SOL     OW 8245   1.446   3.414   1.919
 2449SOL    HW1 8246   1.349   3.416   1.945
 2449SOL    HW2 8247   1.495   3.484   1.970
 2450SOL     OW 8248   2.873   5.144   6.723
 2450SOL    HW1 8249   2.896   5.074   6.792
 2450SOL    HW2 8250   2.905   5.233   6.754
 2451SOL     OW 8251   0.949   6.990   3.790
 2451SOL    HW1 8252   0.888   6.935   3.846
 2451SOL    HW2 8253   1.038   6.997   3.834
 2452SOL     OW 8254   2.368   1.871   3.838
 2452SOL    HW1 8255   2.296   1.804   3.858
 2452SOL    HW2 8256   2.325   1.958   3.813
 2453SOL     OW 8257   6.802   3.030   0.856
 2453SOL    HW1 8258   6.831   2.978   0.936
 2453SOL    HW2 8259   6.820   2.976   0.773
 2454SOL     OW 8260   2.364   6.050   6.325
 2454SOL    HW1 8261   2.439   6.062   6.260
 2454SOL    HW2 8262   2.333   5.955   6.325
 2455SOL     OW 8263   4.407   1.164   0.567
 2455SOL    HW1 8264   4.308   1.161   0.568
 2455SOL    HW2 8265   4.443   1.075   0.538
 2456SOL     OW 8266   0.804   2.736   6.273
 2456SOL    HW1 8267   0.730   2.803   6.273
 2456SOL    HW2 8268   0.863   2.751   6.352
 2457SOL     OW 8269   6.330   0.870   5.341
 2457SOL    HW1 8270   6.362   0.910   5.427
 2457SOL    HW2 8271   6.231   0.884   5.332
 2458SOL     OW 8272   1.153   7.002   3.981
 2458SOL    HW1 8273   1.241   6.956   3.972
 2458SOL    HW2 8274   1.144   0.011   4.073
 2459SOL     OW 8275   3.001   5.912   6.119
 2459SOL    HW1 8276   2.953   5.968   6.052
 2459SOL    HW2 8277   2.964   5.819   6.118
 2460SOL     OW 8278   1.507   1.346   0.525
 2460SOL    HW1 8279   1.428   1.404   0.504
 2460SOL    HW2 8280   1.509   1.268   0.463
 2461SOL     OW 8281   5.140   0.490   3.964
 2461SOL    HW1 8282   5.193   0.534   4.037
 2461SOL    HW2 8283   5.182   0.511   3.876
 2462SOL     OW 8284   2.148   4.918   0.082
 2462SOL    HW1 8285   2.085   4.971   0.139
 2462SOL    HW2 8286   2.139   4.821   0.105
 2463SOL     OW 8287   6.450   1.922   0.344
 2463SOL    HW1 8288   6.377   1.871   0.298
 2463SOL    HW2 8289   6.539   1.891   0.310
 2464SOL     OW 8290   1.373   3.075   3.365
 2464SOL    HW1 8291   1.386   3.171   3.339
 2464SOL    HW2 8292   1.455   3.041   3.410
 2465SOL     OW 8293   6.904   6.296   6.175
 2465SOL    HW1 8294   6.838   6.239   6.226
 2465SOL    HW2 8295   6.940   6.244   6.098
 2466SOL     OW 8296   1.649   1.392   2.785
 2466SOL    HW1 8297   1.581   1.319   2.799
 2466SOL    HW2 8298   1.633   1.435   2.696
 2467SOL     OW 8299   4.675   2.038   5.708
 2467SOL    HW1 8300   4.677   1.994   5.798
 2467SOL    HW2 8301   4.761   2.022   5.661
 2468SOL     OW 8302   4.321   6.846   0.565
 2468SOL    HW1 8303   4.371   6.899   0.633
 2468SOL    HW2 8304   4.259   6.906   0.514
 2469SOL     OW 8305   3.806   3.191   5.173
 2469SOL    HW1 8306   3.829   3.201   5.269
 2469SOL    HW2 8307   3.774   3.280   5.137
 2470SOL     OW 8308   3.693   4.733   5.972
 2470SOL    HW1 8309   3.659   4.798   6.040
 2470SOL    HW2 8310   3.736   4.656   6.019
 2471SOL     OW 8311   3.130   6.745   0.372
 2471SOL    HW1 8312   3.171   6.833   0.350
 2471SOL    HW2 8313   3.067   6.719   0.299
 2472SOL     OW 8314   4.418   2.259   3.633
 2472SOL    HW1 8315   4.508   2.217   3.618
 2472SOL    HW2 8316   4.349   2.210   3.580
 2473SOL     OW 8317   1.341   4.103   5.494
 2473SOL    HW1 8318   1.418   4.159   5.525
 2473SOL    HW2 8319   1.368   4.054   5.412
 2474SOL     OW 8320   0.983   6.057   0.964
 2474SOL    HW1 8321   0.967   6.120   1.040
 2474SOL    HW2 8322   1.064   6.087   0.913
 2475SOL     OW 8323   4.184   0.850   2.325
 2475SOL    HW1 8324   4.215   0.944   2.337
 2475SOL    HW2 8325   4.253   0.787   2.362
 2476SOL     OW 8326   5.650   0.273   2.206
 2476SOL    HW1 8327   5.593   0.238   2.281
 2476SOL    HW2 8328   5.746   0.271   2.234
 2477SOL     OW 8329   4.201   1.033   3.500
 2477SOL    HW1 8330   4.261   1.035   3.419
 2477SOL    HW2 8331   4.144   1.115   3.501
 2478SOL     OW 8332   6.213   1.341   1.801
 2478SOL    HW1 8333   6.221   1.264   1.738
 2478SOL    HW2 8334   6.117   1.371   1.805
 2479SOL     OW 8335   0.895   3.494   2.124
 2479SOL    HW1 8336   0.882   3.395   2.111
 2479SOL    HW2 8337   0.988   3.519   2.097
 2480SOL     OW 8338   4.686   3.321   0.817
 2480SOL    HW1 8339   4.647   3.289   0.904
 2480SOL    HW2 8340   4.722   3.244   0.766
 2481SOL     OW 8341   3.651   6.816   0.961
 2481SOL    HW1 8342   3.653   6.835   0.863
 2481SOL    HW2 8343   3.695   6.728   0.979
 2482SOL     OW 8344   5.219   3.436   6.437
 2482SOL    HW1 8345   5.273   3.438   6.521
 2482SOL    HW2 8346   5.124   3.459   6.459
 2483SOL     OW 8347   2.086   2.145   6.927
 2483SOL    HW1 8348   2.110   2.237   6.957
 2483SOL    HW2 8349   2.138   2.078   6.980
 2484SOL     OW 8350   3.439   0.761   0.067
 2484SOL    HW1 8351   3.414   0.789   0.160
 2484SOL    HW2 8352   3.509   0.690   0.071
 2485SOL     OW 8353   5.711   3.040   1.317
 2485SOL    HW1 8354   5.789   3.007   1.262
 2485SOL    HW2 8355   5.626   3.020   1.269
 2486SOL     OW 8356   1.548   4.938   5.190
 2486SOL    HW1 8357   1.543   4.847   5.150
 2486SOL    HW2 8358   1.541   4.931   5.290
 2487SOL     OW 8359   4.441   6.488   0.387
 2487SOL    HW1 8360   4.534   6.507   0.420
 2487SOL    HW2 8361   4.406   6.406   0.432
 2488SOL     OW 8362   0.826   4.208   2.148
 2488SOL    HW1 8363   0.747   4.191   2.089
 2488SOL    HW2 8364   0.870   4.294   2.122
 2489SOL     OW 8365   0.840   6.435   4.183
 2489SOL    HW1 8366   0.847   6.336   4.195
 2489SOL    HW2 8367   0.783   6.456   4.104
 2490SOL     OW 8368   0.221   5.068   1.222
 2490SOL    HW1 8369   0.282   5.136   1.262
 2490SOL    HW2 8370   0.135   5.111   1.196
 2491SOL     OW 8371   3.322   4.310   0.153
 2491SOL    HW1 8372   3.277   4.260   0.227
 2491SOL    HW2 8373   3.413   4.340   0.183
 2492SOL     OW 8374   4.876   3.637   0.898
 2492SOL    HW1 8375   4.849   3.672   0.988
 2492SOL    HW2 8376   4.902   3.541   0.906
 2493SOL     OW 8377   6.362   6.993   1.927
 2493SOL    HW1 8378   6.457   6.973   1.951
 2493SOL    HW2 8379   6.309   7.007   2.011
 2494SOL     OW 8380   5.500   4.320   3.255
 2494SOL    HW1 8381   5.505   4.227   3.290
 2494SOL    HW2 8382   5.410   4.337   3.216
 2495SOL     OW 8383   5.215   6.176   3.710
 2495SOL    HW1 8384   5.237   6.091   3.758
 2495SOL    HW2 8385   5.116   6.182   3.695
 2496SOL     OW 8386   0.387   2.714   6.514
 2496SOL    HW1 8387   0.346   2.624   6.496
 2496SOL    HW2 8388   0.418   2.754   6.428
 2497SOL     OW 8389   0.286   6.998   0.440
 2497SOL    HW1 8390   0.190   7.020   0.461
 2497SOL    HW2 8391   0.346   0.012   0.507
 2498SOL     OW 8392   2.807   1.597   5.334
 2498SOL    HW1 8393   2.847   1.599   5.242
 2498SOL    HW2 8394   2.858   1.659   5.393
 2499SOL     OW 8395   6.116   2.940   2.778
 2499SOL    HW1 8396   6.122   3.029   2.734
 2499SOL    HW2 8397   6.107   2.952   2.877
 2500SOL     OW 8398   3.849   4.105   0.044
 2500SOL    HW1 8399   3.805   4.040   7.011
 2500SOL    HW2 8400   3.924   4.150   7.025
 2501SOL     OW 8401   5.398   5.702   0.747
 2501SOL    HW1 8402   5.343   5.782   0.772
 2501SOL    HW2 8403   5.446   5.668   0.828
 2502SOL     OW 8404   0.970   0.397   4.196
 2502SOL    HW1 8405   0.873   0.375   4.185
 2502SOL    HW2 8406   1.009   0.423   4.107
 2503SOL     OW 8407   2.525   6.570   5.023
 2503SOL    HW1 8408   2.506   6.621   4.939
 2503SOL    HW2 8409   2.532   6.473   5.002
 2504SOL     OW 8410   4.011   5.169   3.976
 2504SOL    HW1 8411   3.947   5.102   4.014
 2504SOL    HW2 8412   4.095   5.170   4.031
 2505SOL     OW 8413   0.156   6.912   3.111
 2505SOL    HW1 8414   0.193   6.842   3.050
 2505SOL    HW2 8415   0.166   7.002   3.069
 2506SOL     OW 8416   6.567   4.025   6.118
 2506SOL    HW1 8417   6.528   4.043   6.028
 2506SOL    HW2 8418   6.564   4.108   6.173
 2507SOL     OW 8419   6.552   2.914   0.114
 2507SOL    HW1 8420   6.604   2.833   0.087
 2507SOL    HW2 8421   6.562   2.929   0.212
 2508SOL     OW 8422   3.124   1.585   3.321
 2508SOL    HW1 8423   3.105   1.497   3.363
 2508SOL    HW2 8424   3.083   1.589   3.229
 2509SOL     OW 8425   0.222   3.870   0.992
 2509SOL    HW1 8426   0.160   3.903   0.921
 2509SOL    HW2 8427   0.168   3.830   1.067
 2510SOL     OW 8428   2.948   5.150   1.311
 2510SOL    HW1 8429   2.928   5.238   1.267
 2510SOL    HW2 8430   2.863   5.106   1.338
 2511SOL     OW 8431   4.038   1.909   3.982
 2511SOL    HW1 8432   4.111   1.972   4.009
 2511SOL    HW2 8433   3.950   1.942   4.018
 2512SOL     OW 8434   4.476   3.497   5.586
 2512SOL    HW1 8435   4.403   3.566   5.591
 2512SOL    HW2 8436   4.470   3.437   5.665
 2513SOL     OW 8437   1.781   3.945   5.021
 2513SOL    HW1 8438   1.824   3.904   5.101
 2513SOL    HW2 8439   1.852   3.975   4.957
 2514SOL     OW 8440   0.324   4.125   5.011
 2514SOL    HW1 8441   0.292   4.035   4.981
 2514SOL    HW2 8442   0.381   4.114   5.092
 2515SOL     OW 8443   1.242   6.896   0.719
 2515SOL    HW1 8444   1.339   6.898   0.744
 2515SOL    HW2 8445   1.193   6.838   0.785
 2516SOL     OW 8446   5.609   2.103   2.929
 2516SOL    HW1 8447   5.590   2.198   2.904
 2516SOL    HW2 8448   5.620   2.049   2.845
 2517SOL     OW 8449   0.437   6.865   6.049
 2517SOL    HW1 8450   0.449   6.806   5.969
 2517SOL    HW2 8451   0.444   6.961   6.022
 2518SOL     OW 8452   1.550   4.744   0.119
 2518SOL    HW1 8453   1.647   4.743   0.144
 2518SOL    HW2 8454   1.533   4.676   0.048
 2519SOL     OW 8455   3.950   6.032   1.914
 2519SOL    HW1 8456   3.941   5.976   1.996
 2519SOL    HW2 8457   3.890   6.112   1.921
 2520SOL     OW 8458   3.426   1.848   0.874
 2520SOL    HW1 8459   3.526   1.844   0.879
 2520SOL    HW2 8460   3.393   1.776   0.814
 2521SOL     OW 8461   2.800   0.653   5.528
 2521SOL    HW1 8462   2.800   0.708   5.444
 2521SOL    HW2 8463   2.728   0.584   5.523
 2522SOL     OW 8464   0.941   2.626   5.368
 2522SOL    HW1 8465   1.032   2.591   5.390
 2522SOL    HW2 8466   0.901   2.571   5.294
 2523SOL     OW 8467   0.192   3.125   1.110
 2523SOL    HW1 8468   0.210   3.036   1.152
 2523SOL    HW2 8469   0.196   3.117   1.011
 2524SOL     OW 8470   0.764   6.440   4.912
 2524SOL    HW1 8471   0.687   6.416   4.853
 2524SOL    HW2 8472   0.730   6.464   5.003
 2525SOL     OW 8473   1.175   2.519   5.414
 2525SOL    HW1 8474   1.144   2.453   5.481
 2525SOL    HW2 8475   1.245   2.478   5.355
 2526SOL     OW 8476   1.326   4.643   6.205
 2526SOL    HW1 8477   1.388   4.575   6.245
 2526SOL    HW2 8478   1.355   4.734   6.232
 2527SOL     OW 8479   5.178   6.281   5.721
 2527SOL    HW1 8480   5.175   6.183   5.742
 2527SOL    HW2 8481   5.266   6.304   5.680
 2528SOL     OW 8482   6.283   5.053   7.007
 2528SOL    HW1 8483   6.368   5.042   0.030
 2528SOL    HW2 8484   6.205   5.035   0.037
 2529SOL     OW 8485   6.794   5.811   6.322
 2529SOL    HW1 8486   6.740   5.835   6.402
 2529SOL    HW2 8487   6.752   5.852   6.240
 2530SOL     OW 8488   2.671   6.376   4.632
 2530SOL    HW1 8489   2.599   6.318   4.594
 2530SOL    HW2 8490   2.631   6.464   4.660
 2531SOL     OW 8491   5.349   5.821   5.013
 2531SOL    HW1 8492   5.388   5.759   4.944
 2531SOL    HW2 8493   5.376   5.915   4.992
 2532SOL     OW 8494   0.809   5.316   0.893
 2532SOL    HW1 8495   0.804   5.226   0.937
 2532SOL    HW2 8496   0.716   5.347   0.872
 2533SOL     OW 8497   3.218   6.649   4.260
 2533SOL    HW1 8498   3.284   6.587   4.218
 2533SOL    HW2 8499   3.178   6.605   4.341
 2534SOL     OW 8500   4.168   0.646   2.881
 2534SOL    HW1 8501   4.072   0.671   2.866
 2534SOL    HW2 8502   4.205   0.605   2.798
 2535SOL     OW 8503   3.524   2.592   5.470
 2535SOL    HW1 8504   3.586   2.656   5.426
 2535SOL    HW2 8505   3.430   2.614   5.446
 2536SOL     OW 8506   1.274   1.557   4.851
 2536SOL    HW1 8507   1.262   1.519   4.759
 2536SOL    HW2 8508   1.231   1.647   4.855
 2537SOL     OW 8509   3.574   0.324   6.176
 2537SOL    HW1 8510   3.657   0.377   6.155
 2537SOL    HW2 8511   3.571   0.304   6.274
 2538SOL     OW 8512   0.863   4.543   2.761
 2538SOL    HW1 8513   0.906   4.628   2.791
 2538SOL    HW2 8514   0.918   4.465   2.792
 2539SOL     OW 8515   6.095   1.023   4.619
 2539SOL    HW1 8516   6.100   0.924   4.632
 2539SOL    HW2 8517   6.067   1.067   4.705
 2540SOL     OW 8518   3.987   1.918   2.748
 2540SOL    HW1 8519   4.003   1.850   2.819
 2540SOL    HW2 8520   3.893   1.911   2.716
 2541SOL     OW 8521   2.723   0.196   5.025
 2541SOL    HW1 8522   2.807   0.143   5.017
 2541SOL    HW2 8523   2.743   0.286   5.063
 2542SOL     OW 8524   3.201   1.904   5.781
 2542SOL    HW1 8525   3.136   1.829   5.767
 2542SOL    HW2 8526   3.159   1.991   5.754
 2543SOL     OW 8527   1.412   0.834   3.038
 2543SOL    HW1 8528   1.416   0.765   3.111
 2543SOL    HW2 8529   1.330   0.890   3.050
 2544SOL     OW 8530   0.407   6.782   0.953
 2544SOL    HW1 8531   0.491   6.752   0.997
 2544SOL    HW2 8532   0.375   6.710   0.891
 2545SOL     OW 8533   1.015   0.189   2.329
 2545SOL    HW1 8534   1.031   0.114   2.265
 2545SOL    HW2 8535   0.976   0.267   2.279
 2546SOL     OW 8536   0.230   0.851   1.915
 2546SOL    HW1 8537   0.184   0.762   1.913
 2546SOL    HW2 8538   0.283   0.860   1.999
 2547SOL     OW 8539   6.646   5.086   0.488
 2547SOL    HW1 8540   6.611   5.167   0.441
 2547SOL    HW2 8541   6.570   5.035   0.528
 2548SOL     OW 8542   1.321   6.469   5.641
 2548SOL    HW1 8543   1.257   6.425   5.577
 2548SOL    HW2 8544   1.300   6.439   5.734
 2549SOL     OW 8545   2.175   0.267   1.025
 2549SOL    HW1 8546   2.128   0.183   1.000
 2549SOL    HW2 8547   2.178   0.328   0.945
 2550SOL     OW 8548   6.845   0.287   6.750
 2550SOL    HW1 8549   6.774   0.251   6.689
 2550SOL    HW2 8550   6.807   0.298   6.842
 2551SOL     OW 8551   2.813   5.317   0.552
 2551SOL    HW1 8552   2.825   5.414   0.535
 2551SOL    HW2 8553   2.898   5.268   0.532
 2552SOL     OW 8554   1.382   6.034   4.893
 2552SOL    HW1 8555   1.357   5.945   4.930
 2552SOL    HW2 8556   1.479   6.051   4.910
 2553SOL     OW 8557   4.863   3.371   5.891
 2553SOL    HW1 8558   4.780   3.426   5.894
 2553SOL    HW2 8559   4.882   3.345   5.797
 2554SOL     OW 8560   1.934   6.789   0.220
 2554SOL    HW1 8561   1.896   6.805   0.129
 2554SOL    HW2 8562   1.869   6.737   0.275
 2555SOL     OW 8563   5.686   0.162   5.213
 2555SOL    HW1 8564   5.605   0.185   5.266
 2555SOL    HW2 8565   5.731   0.246   5.182
 2556SOL     OW 8566   4.180   5.530   0.286
 2556SOL    HW1 8567   4.245   5.555   0.358
 2556SOL    HW2 8568   4.112   5.603   0.276
 2557SOL     OW 8569   2.142   4.437   6.692
 2557SOL    HW1 8570   2.081   4.360   6.705
 2557SOL    HW2 8571   2.095   4.509   6.640
 2558SOL     OW 8572   5.361   1.485   4.890
 2558SOL    HW1 8573   5.331   1.478   4.985
 2558SOL    HW2 8574   5.402   1.399   4.861
 2559SOL     OW 8575   0.610   3.770   4.164
 2559SOL    HW1 8576   0.630   3.820   4.080
 2559SOL    HW2 8577   0.514   3.781   4.187
 2560SOL     OW 8578   5.891   3.461   4.251
 2560SOL    HW1 8579   5.793   3.479   4.251
 2560SOL    HW2 8580   5.940   3.548   4.248
 2561SOL     OW 8581   3.031   5.936   5.232
 2561SOL    HW1 8582   3.009   5.957   5.137
 2561SOL    HW2 8583   3.099   6.001   5.265
 2562SOL     OW 8584   2.368   5.565   1.578
 2562SOL    HW1 8585   2.381   5.499   1.653
 2562SOL    HW2 8586   2.293   5.533   1.519
 2563SOL     OW 8587   3.719   2.202   0.408
 2563SOL    HW1 8588   3.638   2.261   0.411
 2563SOL    HW2 8589   3.797   2.252   0.445
 2564SOL     OW 8590   2.231   5.687   6.030
 2564SOL    HW1 8591   2.138   5.661   6.004
 2564SOL    HW2 8592   2.272   5.614   6.085
 2565SOL     OW 8593   1.435   0.656   0.127
 2565SOL    HW1 8594   1.382   0.723   0.179
 2565SOL    HW2 8595   1.402   0.654   0.033
 2566SOL     OW 8596   2.725   6.818   0.973
 2566SOL    HW1 8597   2.771   6.754   0.912
 2566SOL    HW2 8598   2.787   6.893   0.996
 2567SOL     OW 8599   0.671   1.150   0.833
 2567SOL    HW1 8600   0.697   1.063   0.874
 2567SOL    HW2 8601   0.744   1.217   0.848
 2568SOL     OW 8602   4.257   0.252   6.411
 2568SOL    HW1 8603   4.179   0.300   6.450
 2568SOL    HW2 8604   4.237   0.227   6.316
 2569SOL     OW 8605   3.022   1.479   1.925
 2569SOL    HW1 8606   3.074   1.487   2.010
 2569SOL    HW2 8607   3.005   1.570   1.887
 2570SOL     OW 8608   5.406   0.186   6.606
 2570SOL    HW1 8609   5.409   0.203   6.704
 2570SOL    HW2 8610   5.499   0.190   6.568
 2571SOL     OW 8611   2.485   4.453   5.453
 2571SOL    HW1 8612   2.423   4.530   5.438
 2571SOL    HW2 8613   2.565   4.485   5.504
 2572SOL     OW 8614   2.457   5.542   0.739
 2572SOL    HW1 8615   2.500   5.497   0.818
 2572SOL    HW2 8616   2.485   5.495   0.655
 2573SOL     OW 8617   6.939   2.298   1.680
 2573SOL    HW1 8618   6.974   2.221   1.733
 2573SOL    HW2 8619   7.011   2.331   1.618
 2574SOL     OW 8620   6.087   4.019   0.401
 2574SOL    HW1 8621   6.074   3.989   0.496
 2574SOL    HW2 8622   6.184   4.041   0.387
 2575SOL     OW 8623   5.326   5.283   1.103
 2575SOL    HW1 8624   5.391   5.359   1.105
 2575SOL    HW2 8625   5.234   5.319   1.091
 2576SOL     OW 8626   4.433   6.727   4.796
 2576SOL    HW1 8627   4.446   6.643   4.742
 2576SOL    HW2 8628   4.467   6.805   4.744
 2577SOL     OW 8629   4.483   6.456   1.977
 2577SOL    HW1 8630   4.428   6.518   2.033
 2577SOL    HW2 8631   4.578   6.487   1.977
 2578SOL     OW 8632   4.942   1.845   5.303
 2578SOL    HW1 8633   4.914   1.770   5.243
 2578SOL    HW2 8634   4.920   1.823   5.398
 2579SOL     OW 8635   1.604   6.594   2.913
 2579SOL    HW1 8636   1.574   6.528   2.843
 2579SOL    HW2 8637   1.703   6.588   2.924
 2580SOL     OW 8638   3.238   3.841   6.049
 2580SOL    HW1 8639   3.288   3.924   6.074
 2580SOL    HW2 8640   3.140   3.855   6.063
 2581SOL     OW 8641   1.577   5.162   1.600
 2581SOL    HW1 8642   1.533   5.076   1.573
 2581SOL    HW2 8643   1.580   5.224   1.522
 2582SOL     OW 8644   0.429   4.001   1.609
 2582SOL    HW1 8645   0.512   3.946   1.614
 2582SOL    HW2 8646   0.356   3.948   1.566
 2583SOL     OW 8647   1.451   1.448   6.691
 2583SOL    HW1 8648   1.517   1.522   6.708
 2583SOL    HW2 8649   1.361   1.487   6.673
 2584SOL     OW 8650   4.383   4.856   6.282
 2584SOL    HW1 8651   4.340   4.775   6.321
 2584SOL    HW2 8652   4.372   4.856   6.183
 2585SOL     OW 8653   4.394   3.222   0.581
 2585SOL    HW1 8654   4.413   3.141   0.636
 2585SOL    HW2 8655   4.297   3.245   0.589
 2586SOL     OW 8656   3.900   1.050   3.787
 2586SOL    HW1 8657   3.853   1.137   3.774
 2586SOL    HW2 8658   3.979   1.064   3.848
 2587SOL     OW 8659   7.022   0.657   3.103
 2587SOL    HW1 8660   6.925   0.679   3.093
 2587SOL    HW2 8661   0.041   0.734   3.145
 2588SOL     OW 8662   4.956   1.761   6.627
 2588SOL    HW1 8663   4.981   1.851   6.591
 2588SOL    HW2 8664   4.934   1.700   6.551
 2589SOL     OW 8665   0.984   6.549   5.382
 2589SOL    HW1 8666   1.064   6.564   5.325
 2589SOL    HW2 8667   0.901   6.560   5.327
 2590SOL     OW 8668   3.410   4.682   0.141
 2590SOL    HW1 8669   3.391   4.778   0.118
 2590SOL    HW2 8670   3.345   4.651   0.210
 2591SOL     OW 8671   0.095   4.791   3.040
 2591SOL    HW1 8672   0.100   4.844   2.955
 2591SOL    HW2 8673   0.100   4.853   3.118
 2592SOL     OW 8674   3.163   5.731   0.039
 2592SOL    HW1 8675   3.209   5.643   0.051
 2592SOL    HW2 8676   3.132   5.739   6.974
 2593SOL     OW 8677   4.099   5.324   0.115
 2593SOL    HW1 8678   4.000   5.333   0.113
 2593SOL    HW2 8679   4.137   5.384   0.186
 2594SOL     OW 8680   1.695   4.256   5.794
 2594SOL    HW1 8681   1.721   4.339   5.843
 2594SOL    HW2 8682   1.723   4.176   5.848
 2595SOL     OW 8683   6.971   0.495   3.856
 2595SOL    HW1 8684   6.913   0.423   3.816
 2595SOL    HW2 8685   0.016   0.516   3.793
 2596SOL     OW 8686   3.146   2.206   1.851
 2596SOL    HW1 8687   3.231   2.242   1.811
 2596SOL    HW2 8688   3.078   2.279   1.856
 2597SOL     OW 8689   0.492   4.834   5.750
 2597SOL    HW1 8690   0.589   4.822   5.727
 2597SOL    HW2 8691   0.460   4.920   5.711
 2598SOL     OW 8692   6.496   1.602   3.037
 2598SOL    HW1 8693   6.492   1.528   2.970
 2598SOL    HW2 8694   6.483   1.565   3.129
 2599SOL     OW 8695   1.337   5.859   0.978
 2599SOL    HW1 8696   1.420   5.839   0.926
 2599SOL    HW2 8697   1.333   5.957   0.998
 2600SOL     OW 8698   5.825   3.106   4.633
 2600SOL    HW1 8699   5.748   3.109   4.569
 2600SOL    HW2 8700   5.886   3.183   4.615
 2601SOL     OW 8701   1.729   1.490   2.297
 2601SOL    HW1 8702   1.732   1.545   2.380
 2601SOL    HW2 8703   1.674   1.537   2.228
 2602SOL     OW 8704   0.894   5.029   4.642
 2602SOL    HW1 8705   0.974   5.017   4.700
 2602SOL    HW2 8706   0.883   4.951   4.581
 2603SOL     OW 8707   3.200   0.665   3.506
 2603SOL    HW1 8708   3.273   0.607   3.470
 2603SOL    HW2 8709   3.230   0.761   3.504
 2604SOL     OW 8710   4.693   2.335   2.658
 2604SOL    HW1 8711   4.697   2.418   2.714
 2604SOL    HW2 8712   4.717   2.358   2.564
 2605SOL     OW 8713   1.683   3.012   3.150
 2605SOL    HW1 8714   1.755   2.944   3.137
 2605SOL    HW2 8715   1.648   3.005   3.244
 2606SOL     OW 8716   5.688   4.628   1.511
 2606SOL    HW1 8717   5.610   4.643   1.573
 2606SOL    HW2 8718   5.701   4.530   1.498
 2607SOL     OW 8719   1.216   1.431   2.347
 2607SOL    HW1 8720   1.311   1.408   2.328
 2607SOL    HW2 8721   1.161   1.418   2.264
 2608SOL     OW 8722   3.800   5.290   0.603
 2608SOL    HW1 8723   3.846   5.233   0.671
 2608SOL    HW2 8724   3.869   5.334   0.544
 2609SOL     OW 8725   6.653   1.065   2.556
 2609SOL    HW1 8726   6.572   1.114   2.589
 2609SOL    HW2 8727   6.635   1.030   2.464
 2610SOL     OW 8728   0.770   3.837   4.364
 2610SOL    HW1 8729   0.703   3.869   4.432
 2610SOL    HW2 8730   0.722   3.807   4.282
 2611SOL     OW 8731   4.399   6.135   0.858
 2611SOL    HW1 8732   4.438   6.094   0.940
 2611SOL    HW2 8733   4.366   6.227   0.880
 2612SOL     OW 8734   6.134   6.438   4.499
 2612SOL    HW1 8735   6.156   6.481   4.587
 2612SOL    HW2 8736   6.202   6.368   4.479
 2613SOL     OW 8737   1.884   5.479   6.247
 2613SOL    HW1 8738   1.901   5.439   6.157
 2613SOL    HW2 8739   1.786   5.499   6.257
 2614SOL     OW 8740   6.600   2.137   0.240
 2614SOL    HW1 8741   6.535   2.087   0.298
 2614SOL    HW2 8742   6.693   2.115   0.269
 2615SOL     OW 8743   0.436   3.336   2.441
 2615SOL    HW1 8744   0.392   3.295   2.361
 2615SOL    HW2 8745   0.437   3.269   2.516
 2616SOL     OW 8746   2.531   2.771   6.063
 2616SOL    HW1 8747   2.436   2.776   6.093
 2616SOL    HW2 8748   2.589   2.823   6.127
 2617SOL     OW 8749   4.350   0.597   0.383
 2617SOL    HW1 8750   4.337   0.682   0.333
 2617SOL    HW2 8751   4.444   0.565   0.370
 2618SOL     OW 8752   6.776   0.282   3.817
 2618SOL    HW1 8753   6.864   0.244   3.845
 2618SOL    HW2 8754   6.704   0.214   3.833
 2619SOL     OW 8755   5.323   1.980   1.732
 2619SOL    HW1 8756   5.248   1.932   1.687
 2619SOL    HW2 8757   5.400   1.989   1.668
 2620SOL     OW 8758   0.035   6.695   3.511
 2620SOL    HW1 8759   0.070   6.785   3.486
 2620SOL    HW2 8760   0.089   6.658   3.587
 2621SOL     OW 8761   0.849   5.412   2.469
 2621SOL    HW1 8762   0.900   5.366   2.541
 2621SOL    HW2 8763   0.811   5.497   2.505
 2622SOL     OW 8764   2.056   3.951   6.272
 2622SOL    HW1 8765   2.147   3.992   6.268
 2622SOL    HW2 8766   2.033   3.911   6.183
 2623SOL     OW 8767   0.903   0.762   5.669
 2623SOL    HW1 8768   0.829   0.697   5.651
 2623SOL    HW2 8769   0.883   0.812   5.753
 2624SOL     OW 8770   0.379   1.812   4.863
 2624SOL    HW1 8771   0.356   1.761   4.946
 2624SOL    HW2 8772   0.319   1.783   4.789
 2625SOL     OW 8773   2.493   3.741   5.784
 2625SOL    HW1 8774   2.579   3.775   5.746
 2625SOL    HW2 8775   2.494   3.641   5.783
 2626SOL     OW 8776   6.830   0.285   6.294
 2626SOL    HW1 8777   6.781   0.266   6.379
 2626SOL    HW2 8778   6.909   0.224   6.286
 2627SOL     OW 8779   1.460   0.840   6.197
 2627SOL    HW1 8780   1.483   0.817   6.292
 2627SOL    HW2 8781   1.523   0.792   6.135
 2628SOL     OW 8782   2.028   4.112   5.714
 2628SOL    HW1 8783   2.126   4.100   5.703
 2628SOL    HW2 8784   1.982   4.024   5.705
 2629SOL     OW 8785   3.507   3.452   1.990
 2629SOL    HW1 8786   3.557   3.458   1.903
 2629SOL    HW2 8787   3.420   3.405   1.976
 2630SOL     OW 8788   3.461   1.353   2.752
 2630SOL    HW1 8789   3.445   1.284   2.823
 2630SOL    HW2 8790   3.504   1.310   2.673
 2631SOL     OW 8791   5.104   0.927   6.748
 2631SOL    HW1 8792   5.197   0.963   6.744
 2631SOL    HW2 8793   5.039   1.002   6.733
 2632SOL     OW 8794   5.551   3.272   0.583
 2632SOL    HW1 8795   5.499   3.195   0.545
 2632SOL    HW2 8796   5.551   3.267   0.683
 2633SOL     OW 8797   6.937   1.789   4.832
 2633SOL    HW1 8798   6.854   1.756   4.787
 2633SOL    HW2 8799   6.958   1.730   4.911
 2634SOL     OW 8800   0.943   5.519   3.582
 2634SOL    HW1 8801   0.947   5.486   3.677
 2634SOL    HW2 8802   1.033   5.506   3.539
 2635SOL     OW 8803   6.895   6.119   4.564
 2635SOL    HW1 8804   6.815   6.072   4.526
 2635SOL    HW2 8805   6.964   6.052   4.591
 2636SOL     OW 8806   3.965   0.314   6.595
 2636SOL    HW1 8807   3.949   0.386   6.662
 2636SOL    HW2 8808   4.000   0.232   6.641
 2637SOL     OW 8809   6.021   1.680   3.802
 2637SOL    HW1 8810   6.047   1.737   3.725
 2637SOL    HW2 8811   6.085   1.694   3.878
 2638SOL     OW 8812   6.958   6.706   4.790
 2638SOL    HW1 8813   7.025   6.649   4.836
 2638SOL    HW2 8814   6.881   6.724   4.851
 2639SOL     OW 8815   6.714   6.222   0.239
 2639SOL    HW1 8816   6.712   6.171   0.154
 2639SOL    HW2 8817   6.803   6.209   0.284
 2640SOL     OW 8818   6.767   6.563   5.360
 2640SOL    HW1 8819   6.778   6.661   5.378
 2640SOL    HW2 8820   6.684   6.549   5.305
 2641SOL     OW 8821   5.423   2.378   1.814
 2641SOL    HW1 8822   5.325   2.397   1.812
 2641SOL    HW2 8823   5.440   2.299   1.873
 2642SOL     OW 8824   6.184   0.451   3.854
 2642SOL    HW1 8825   6.146   0.366   3.888
 2642SOL    HW2 8826   6.269   0.471   3.901
 2643SOL     OW 8827   1.369   3.707   3.698
 2643SOL    HW1 8828   1.438   3.700   3.770
 2643SOL    HW2 8829   1.284   3.740   3.738
 2644SOL     OW 8830   4.745   4.952   4.838
 2644SOL    HW1 8831   4.697   4.998   4.913
 2644SOL    HW2 8832   4.681   4.893   4.789
 2645SOL     OW 8833   4.511   5.485   3.636
 2645SOL    HW1 8834   4.493   5.395   3.596
 2645SOL    HW2 8835   4.475   5.556   3.576
 2646SOL     OW 8836   6.876   2.075   0.361
 2646SOL    HW1 8837   6.826   2.017   0.425
 2646SOL    HW2 8838   6.969   2.041   0.350
 2647SOL     OW 8839   6.010   6.785   1.728
 2647SOL    HW1 8840   5.991   6.775   1.631
 2647SOL    HW2 8841   6.083   6.851   1.742
 2648SOL     OW 8842   7.012   6.369   4.524
 2648SOL    HW1 8843   6.945   6.294   4.527
 2648SOL    HW2 8844   6.965   6.457   4.528
 2649SOL     OW 8845   6.116   3.176   1.251
 2649SOL    HW1 8846   6.154   3.248   1.308
 2649SOL    HW2 8847   6.034   3.210   1.205
 2650SOL     OW 8848   1.759   4.705   4.273
 2650SOL    HW1 8849   1.791   4.661   4.357
 2650SOL    HW2 8850   1.755   4.804   4.287
 2651SOL     OW 8851   2.887   1.428   1.177
 2651SOL    HW1 8852   2.966   1.476   1.139
 2651SOL    HW2 8853   2.805   1.483   1.163
 2652SOL     OW 8854   4.417   3.363   5.813
 2652SOL    HW1 8855   4.503   3.407   5.840
 2652SOL    HW2 8856   4.358   3.354   5.894
 2653SOL     OW 8857   4.640   5.919   5.845
 2653SOL    HW1 8858   4.574   5.986   5.809
 2653SOL    HW2 8859   4.602   5.827   5.835
 2654SOL     OW 8860   4.883   6.629   1.185
 2654SOL    HW1 8861   4.864   6.637   1.087
 2654SOL    HW2 8862   4.849   6.710   1.232
 2655SOL     OW 8863   4.786   5.588   3.610
 2655SOL    HW1 8864   4.717   5.516   3.611
 2655SOL    HW2 8865   4.839   5.585   3.694
 2656SOL     OW 8866   3.685   5.755   4.403
 2656SOL    HW1 8867   3.647   5.684   4.343
 2656SOL    HW2 8868   3.616   5.780   4.471
 2657SOL     OW 8869   1.523   3.901   0.354
 2657SOL    HW1 8870   1.451   3.907   0.285
 2657SOL    HW2 8871   1.495   3.952   0.435
 2658SOL     OW 8872   4.750   4.608   0.300
 2658SOL    HW1 8873   4.804   4.616   0.216
 2658SOL    HW2 8874   4.653   4.625   0.279
 2659SOL     OW 8875   4.584   3.125   5.378
 2659SOL    HW1 8876   4.563   3.111   5.475
 2659SOL    HW2 8877   4.566   3.221   5.353
 2660SOL     OW 8878   0.734   0.604   1.799
 2660SOL    HW1 8879   0.644   0.647   1.803
 2660SOL    HW2 8880   0.789   0.648   1.728
 2661SOL     OW 8881   2.045   6.440   1.634
 2661SOL    HW1 8882   2.011   6.361   1.584
 2661SOL    HW2 8883   2.093   6.501   1.571
 2662SOL     OW 8884   3.043   0.138   4.133
 2662SOL    HW1 8885   3.107   0.071   4.094
 2662SOL    HW2 8886   3.032   0.214   4.070
 2663SOL     OW 8887   4.557   4.655   6.516
 2663SOL    HW1 8888   4.502   4.590   6.463
 2663SOL    HW2 8889   4.598   4.722   6.455
 2664SOL     OW 8890   4.234   3.207   5.660
 2664SOL    HW1 8891   4.154   3.265   5.643
 2664SOL    HW2 8892   4.309   3.263   5.694
 2665SOL     OW 8893   2.418   3.542   5.331
 2665SOL    HW1 8894   2.501   3.572   5.379
 2665SOL    HW2 8895   2.379   3.619   5.281
 2666SOL     OW 8896   1.449   4.610   1.441
 2666SOL    HW1 8897   1.476   4.572   1.353
 2666SOL    HW2 8898   1.507   4.572   1.513
 2667SOL     OW 8899   1.183   5.769   3.922
 2667SOL    HW1 8900   1.211   5.802   3.832
 2667SOL    HW2 8901   1.264   5.736   3.971
 2668SOL     OW 8902   6.378   2.745   4.843
 2668SOL    HW1 8903   6.396   2.808   4.919
 2668SOL    HW2 8904   6.434   2.663   4.853
 2669SOL     OW 8905   3.195   5.258   6.478
 2669SOL    HW1 8906   3.257   5.332   6.502
 2669SOL    HW2 8907   3.101   5.293   6.475
 2670SOL     OW 8908   5.782   2.838   4.754
 2670SOL    HW1 8909   5.789   2.926   4.707
 2670SOL    HW2 8910   5.772   2.855   4.853
 2671SOL     OW 8911   4.788   5.205   6.307
 2671SOL    HW1 8912   4.805   5.151   6.389
 2671SOL    HW2 8913   4.809   5.301   6.326
 2672SOL     OW 8914   2.973   6.525   1.608
 2672SOL    HW1 8915   3.043   6.596   1.613
 2672SOL    HW2 8916   2.998   6.448   1.667
 2673SOL     OW 8917   6.156   2.095   2.160
 2673SOL    HW1 8918   6.180   2.002   2.186
 2673SOL    HW2 8919   6.158   2.154   2.241
 2674SOL     OW 8920   1.018   4.581   3.808
 2674SOL    HW1 8921   1.040   4.600   3.904
 2674SOL    HW2 8922   1.014   4.482   3.794
 2675SOL     OW 8923   6.850   6.572   3.992
 2675SOL    HW1 8924   6.764   6.577   4.044
 2675SOL    HW2 8925   6.900   6.489   4.018
 2676SOL     OW 8926   3.281   3.321   1.943
 2676SOL    HW1 8927   3.200   3.262   1.952
 2676SOL    HW2 8928   3.254   3.407   1.899
 2677SOL     OW 8929   2.388   4.887   1.423
 2677SOL    HW1 8930   2.420   4.817   1.487
 2677SOL    HW2 8931   2.351   4.843   1.341
 2678SOL     OW 8932   0.090   2.184   2.203
 2678SOL    HW1 8933   0.161   2.201   2.271
 2678SOL    HW2 8934   0.014   2.247   2.218
 2679SOL     OW 8935   1.665   4.616   2.443
 2679SOL    HW1 8936   1.700   4.687   2.382
 2679SOL    HW2 8937   1.569   4.598   2.421
 2680SOL     OW 8938   1.098   2.442   0.486
 2680SOL    HW1 8939   1.144   2.368   0.535
 2680SOL    HW2 8940   1.006   2.412   0.460
 2681SOL     OW 8941   1.058   2.238   4.811
 2681SOL    HW1 8942   1.124   2.273   4.746
 2681SOL    HW2 8943   0.967   2.272   4.788
 2682SOL     OW 8944   5.041   4.118   3.374
 2682SOL    HW1 8945   4.964   4.064   3.407
 2682SOL    HW2 8946   5.073   4.081   3.287
 2683SOL     OW 8947   2.403   4.896   2.166
 2683SOL    HW1 8948   2.387   4.798   2.161
 2683SOL    HW2 8949   2.421   4.922   2.261
 2684SOL     OW 8950   4.762   6.990   1.936
 2684SOL    HW1 8951   4.861   6.982   1.936
 2684SOL    HW2 8952   4.725   6.942   1.856
 2685SOL     OW 8953   6.203   5.269   5.754
 2685SOL    HW1 8954   6.124   5.327   5.775
 2685SOL    HW2 8955   6.248   5.303   5.672
 2686SOL     OW 8956   1.058   1.695   5.737
 2686SOL    HW1 8957   0.963   1.724   5.740
 2686SOL    HW2 8958   1.064   1.596   5.744
 2687SOL     OW 8959   3.730   5.764   0.454
 2687SOL    HW1 8960   3.682   5.676   0.465
 2687SOL    HW2 8961   3.663   5.838   0.454
 2688SOL     OW 8962   2.476   2.429   0.610
 2688SOL    HW1 8963   2.458   2.345   0.663
 2688SOL    HW2 8964   2.550   2.480   0.654
 2689SOL     OW 8965   6.935   3.930   2.301
 2689SOL    HW1 8966   6.995   3.936   2.221
 2689SOL    HW2 8967   6.933   4.019   2.348
 2690SOL     OW 8968   3.155   3.351   6.549
 2690SOL    HW1 8969   3.136   3.412   6.626
 2690SOL    HW2 8970   3.192   3.404   6.473
 2691SOL     OW 8971   0.196   4.616   3.914
 2691SOL    HW1 8972   0.241   4.628   4.002
 2691SOL    HW2 8973   0.152   4.702   3.886
 2692SOL     OW 8974   2.234   6.875   2.977
 2692SOL    HW1 8975   2.216   6.884   2.879
 2692SOL    HW2 8976   2.293   6.795   2.993
 2693SOL     OW 8977   2.217   4.892   4.087
 2693SOL    HW1 8978   2.233   4.985   4.055
 2693SOL    HW2 8979   2.120   4.871   4.080
 2694SOL     OW 8980   3.634   6.472   3.563
 2694SOL    HW1 8981   3.575   6.503   3.637
 2694SOL    HW2 8982   3.649   6.546   3.498
 2695SOL     OW 8983   5.944   0.235   2.858
 2695SOL    HW1 8984   5.975   0.255   2.765
 2695SOL    HW2 8985   5.919   0.321   2.903
 2696SOL     OW 8986   4.470   4.022   5.607
 2696SOL    HW1 8987   4.436   3.931   5.629
 2696SOL    HW2 8988   4.420   4.090   5.661
 2697SOL     OW 8989   3.879   1.693   2.520
 2697SOL    HW1 8990   3.824   1.759   2.571
 2697SOL    HW2 8991   3.834   1.604   2.523
 2698SOL     OW 8992   1.617   4.793   6.690
 2698SOL    HW1 8993   1.544   4.860   6.703
 2698SOL    HW2 8994   1.705   4.840   6.683
 2699SOL     OW 8995   3.077   6.126   0.718
 2699SOL    HW1 8996   3.143   6.103   0.790
 2699SOL    HW2 8997   3.046   6.043   0.673
 2700SOL     OW 8998   2.662   1.569   1.162
 2700SOL    HW1 8999   2.597   1.553   1.237
 2700SOL    HW2 9000   2.663   1.666   1.139
 2701SOL     OW 9001   5.314   2.163   5.499
 2701SOL    HW1 9002   5.299   2.090   5.432
 2701SOL    HW2 9003   5.337   2.248   5.451
 2702SOL     OW 9004   1.028   2.266   3.072
 2702SOL    HW1 9005   0.980   2.352   3.054
 2702SOL    HW2 9006   1.028   2.209   2.990
 2703SOL     OW 9007   1.301   5.747   1.550
 2703SOL    HW1 9008   1.231   5.702   1.606
 2703SOL    HW2 9009   1.364   5.797   1.610
 2704SOL     OW 9010   6.480   6.001   1.641
 2704SOL    HW1 9011   6.473   6.027   1.738
 2704SOL    HW2 9012   6.391   5.970   1.608
 2705SOL     OW 9013   6.756   0.505   5.334
 2705SOL    HW1 9014   6.801   0.484   5.247
 2705SOL    HW2 9015   6.689   0.578   5.320
 2706SOL     OW 9016   6.740   4.459   3.477
 2706SOL    HW1 9017   6.751   4.441   3.379
 2706SOL    HW2 9018   6.694   4.547   3.490
 2707SOL     OW 9019   4.082   0.305   4.238
 2707SOL    HW1 9020   4.106   0.239   4.309
 2707SOL    HW2 9021   4.119   0.275   4.150
 2708SOL     OW 9022   6.278   2.796   1.361
 2708SOL    HW1 9023   6.264   2.704   1.325
 2708SOL    HW2 9024   6.341   2.846   1.301
 2709SOL     OW 9025   5.106   0.047   6.612
 2709SOL    HW1 9026   5.093   0.118   6.543
 2709SOL    HW2 9027   5.025   7.018   6.615
 2710SOL     OW 9028   1.642   2.489   3.918
 2710SOL    HW1 9029   1.581   2.541   3.977
 2710SOL    HW2 9030   1.683   2.414   3.970
 2711SOL     OW 9031   3.426   0.523   3.428
 2711SOL    HW1 9032   3.426   0.427   3.402
 2711SOL    HW2 9033   3.518   0.562   3.417
 2712SOL     OW 9034   2.034   5.924   2.043
 2712SOL    HW1 9035   2.119   5.969   2.016
 2712SOL    HW2 9036   2.055   5.844   2.099
 2713SOL     OW 9037   3.696   3.908   6.585
 2713SOL    HW1 9038   3.688   3.945   6.678
 2713SOL    HW2 9039   3.612   3.860   6.560
 2714SOL     OW 9040   3.432   3.419   6.750
 2714SOL    HW1 9041   3.341   3.439   6.715
 2714SOL    HW2 9042   3.487   3.380   6.677
 2715SOL     OW 9043   5.634   2.174   0.897
 2715SOL    HW1 9044   5.570   2.126   0.837
 2715SOL    HW2 9045   5.588   2.253   0.938
 2716SOL     OW 9046   5.197   3.240   3.765
 2716SOL    HW1 9047   5.209   3.203   3.673
 2716SOL    HW2 9048   5.269   3.205   3.824
 2717SOL     OW 9049   0.714   0.044   2.006
 2717SOL    HW1 9050   0.782   7.027   2.062
 2717SOL    HW2 9051   0.688   7.014   1.930
 2718SOL     OW 9052   0.289   0.797   5.280
 2718SOL    HW1 9053   0.386   0.818   5.295
 2718SOL    HW2 9054   0.267   0.809   5.183
 2719SOL     OW 9055   1.036   4.360   1.500
 2719SOL    HW1 9056   1.019   4.455   1.474
 2719SOL    HW2 9057   1.110   4.323   1.443
 2720SOL     OW 9058   1.359   0.367   3.144
 2720SOL    HW1 9059   1.307   0.450   3.123
 2720SOL    HW2 9060   1.336   0.336   3.236
 2721SOL     OW 9061   3.461   6.361   3.219
 2721SOL    HW1 9062   3.396   6.434   3.197
 2721SOL    HW2 9063   3.448   6.333   3.314
 2722SOL     OW 9064   5.039   5.224   6.508
 2722SOL    HW1 9065   5.110   5.165   6.546
 2722SOL    HW2 9066   4.950   5.192   6.539
 2723SOL     OW 9067   2.108   5.936   6.722
 2723SOL    HW1 9068   2.052   5.960   6.801
 2723SOL    HW2 9069   2.151   5.847   6.737
 2724SOL     OW 9070   1.714   6.211   6.856
 2724SOL    HW1 9071   1.649   6.279   6.891
 2724SOL    HW2 9072   1.765   6.251   6.779
 2725SOL     OW 9073   5.559   4.276   4.793
 2725SOL    HW1 9074   5.502   4.348   4.754
 2725SOL    HW2 9075   5.649   4.278   4.750
 2726SOL     OW 9076   0.405   2.300   1.894
 2726SOL    HW1 9077   0.315   2.338   1.915
 2726SOL    HW2 9078   0.407   2.203   1.916
 2727SOL     OW 9079   1.347   3.451   4.102
 2727SOL    HW1 9080   1.323   3.528   4.161
 2727SOL    HW2 9081   1.442   3.459   4.073
 2728SOL     OW 9082   5.180   5.925   6.222
 2728SOL    HW1 9083   5.218   5.857   6.158
 2728SOL    HW2 9084   5.198   6.017   6.187
 2729SOL     OW 9085   6.630   6.530   0.160
 2729SOL    HW1 9086   6.616   6.444   0.112
 2729SOL    HW2 9087   6.644   6.512   0.258
 2730SOL     OW 9088   1.104   6.441   2.063
 2730SOL    HW1 9089   1.194   6.429   2.106
 2730SOL    HW2 9090   1.047   6.362   2.082
 2731SOL     OW 9091   3.138   3.750   3.054
 2731SOL    HW1 9092   3.220   3.700   3.084
 2731SOL    HW2 9093   3.127   3.832   3.110
 2732SOL     OW 9094   5.786   1.960   1.057
 2732SOL    HW1 9095   5.778   2.027   1.131
 2732SOL    HW2 9096   5.721   1.984   0.984
 2733SOL     OW 9097   6.699   1.403   4.888
 2733SOL    HW1 9098   6.677   1.313   4.850
 2733SOL    HW2 9099   6.709   1.469   4.813
 2734SOL     OW 9100   3.393   5.785   1.433
 2734SOL    HW1 9101   3.482   5.740   1.440
 2734SOL    HW2 9102   3.321   5.720   1.460
 2735SOL     OW 9103   1.192   2.214   2.019
 2735SOL    HW1 9104   1.240   2.154   1.955
 2735SOL    HW2 9105   1.257   2.279   2.059
 2736SOL     OW 9106   5.887   6.385   4.616
 2736SOL    HW1 9107   5.908   6.328   4.695
 2736SOL    HW2 9108   5.972   6.406   4.567
 2737SOL     OW 9109   2.947   3.518   5.602
 2737SOL    HW1 9110   2.984   3.454   5.534
 2737SOL    HW2 9111   3.013   3.591   5.618
 2738SOL     OW 9112   5.865   6.193   2.358
 2738SOL    HW1 9113   5.961   6.194   2.329
 2738SOL    HW2 9114   5.836   6.099   2.372
 2739SOL     OW 9115   0.954   4.610   0.788
 2739SOL    HW1 9116   1.045   4.585   0.821
 2739SOL    HW2 9117   0.905   4.528   0.761
 2740SOL     OW 9118   6.636   5.356   2.124
 2740SOL    HW1 9119   6.728   5.319   2.135
 2740SOL    HW2 9120   6.640   5.441   2.071
 2741SOL     OW 9121   0.122   1.655   5.289
 2741SOL    HW1 9122   0.060   1.686   5.217
 2741SOL    HW2 9123   0.071   1.604   5.358
 2742SOL     OW 9124   1.613   5.349   0.576
 2742SOL    HW1 9125   1.650   5.334   0.668
 2742SOL    HW2 9126   1.557   5.432   0.576
 2743SOL     OW 9127   0.023   4.961   2.179
 2743SOL    HW1 9128   6.998   4.916   2.250
 2743SOL    HW2 9129   0.022   4.905   2.096
 2744SOL     OW 9130   4.358   3.342   1.268
 2744SOL    HW1 9131   4.390   3.279   1.197
 2744SOL    HW2 9132   4.415   3.333   1.349
 2745SOL     OW 9133   6.619   1.503   5.124
 2745SOL    HW1 9134   6.653   1.455   5.044
 2745SOL    HW2 9135   6.550   1.447   5.170
 2746SOL     OW 9136   1.126   2.281   4.262
 2746SOL    HW1 9137   1.155   2.187   4.282
 2746SOL    HW2 9138   1.027   2.282   4.243
 2747SOL     OW 9139   4.909   5.726   0.079
 2747SOL    HW1 9140   5.008   5.711   0.072
 2747SOL    HW2 9141   4.887   5.817   0.043
 2748SOL     OW 9142   4.377   0.871   1.941
 2748SOL    HW1 9143   4.409   0.953   1.987
 2748SOL    HW2 9144   4.444   0.844   1.872
 2749SOL     OW 9145   6.725   4.395   1.147
 2749SOL    HW1 9146   6.761   4.444   1.227
 2749SOL    HW2 9147   6.689   4.461   1.081
 2750SOL     OW 9148   2.100   4.300   2.299
 2750SOL    HW1 9149   2.056   4.388   2.319
 2750SOL    HW2 9150   2.110   4.248   2.384
 2751SOL     OW 9151   0.966   2.285   1.727
 2751SOL    HW1 9152   0.946   2.315   1.634
 2751SOL    HW2 9153   0.889   2.233   1.763
 2752SOL     OW 9154   3.151   4.475   6.005
 2752SOL    HW1 9155   3.102   4.558   6.031
 2752SOL    HW2 9156   3.090   4.396   6.016
 2753SOL     OW 9157   7.018   6.155   5.167
 2753SOL    HW1 9158   6.985   6.171   5.074
 2753SOL    HW2 9159   6.951   6.100   5.217
 2754SOL     OW 9160   0.155   0.202   0.257
 2754SOL    HW1 9161   0.110   0.146   0.327
 2754SOL    HW2 9162   0.246   0.227   0.287
 2755SOL     OW 9163   4.021   6.915   2.713
 2755SOL    HW1 9164   4.051   6.822   2.689
 2755SOL    HW2 9165   4.098   6.978   2.703
 2756SOL     OW 9166   4.401   5.821   6.959
 2756SOL    HW1 9167   4.367   5.727   6.958
 2756SOL    HW2 9168   4.397   5.858   6.866
 2757SOL     OW 9169   2.491   6.547   0.322
 2757SOL    HW1 9170   2.462   6.642   0.317
 2757SOL    HW2 9171   2.495   6.518   0.417
 2758SOL     OW 9172   4.598   0.308   4.294
 2758SOL    HW1 9173   4.541   0.293   4.213
 2758SOL    HW2 9174   4.689   0.269   4.278
 2759SOL     OW 9175   5.694   6.779   5.715
 2759SOL    HW1 9176   5.764   6.761   5.647
 2759SOL    HW2 9177   5.716   6.863   5.764
 2760SOL     OW 9178   0.695   5.709   1.497
 2760SOL    HW1 9179   0.623   5.641   1.511
 2760SOL    HW2 9180   0.695   5.773   1.574
 2761SOL     OW 9181   2.125   4.420   3.861
 2761SOL    HW1 9182   2.080   4.452   3.944
 2761SOL    HW2 9183   2.224   4.414   3.876
 2762SOL     OW 9184   1.312   1.017   5.441
 2762SOL    HW1 9185   1.258   1.081   5.386
 2762SOL    HW2 9186   1.314   0.928   5.396
 2763SOL     OW 9187   5.280   1.241   3.847
 2763SOL    HW1 9188   5.351   1.171   3.854
 2763SOL    HW2 9189   5.286   1.304   3.924
 2764SOL     OW 9190   6.357   0.814   1.095
 2764SOL    HW1 9191   6.318   0.746   1.156
 2764SOL    HW2 9192   6.289   0.886   1.078
 2765SOL     OW 9193   5.651   0.051   0.445
 2765SOL    HW1 9194   5.690   0.071   0.535
 2765SOL    HW2 9195   5.641   6.981   0.434
 2766SOL     OW 9196   4.746   2.569   0.365
 2766SOL    HW1 9197   4.716   2.641   0.428
 2766SOL    HW2 9198   4.722   2.594   0.271
 2767SOL     OW 9199   6.589   5.129   0.070
 2767SOL    HW1 9200   6.667   5.078   0.033
 2767SOL    HW2 9201   6.545   5.074   0.142
 2768SOL     OW 9202   5.114   0.740   0.166
 2768SOL    HW1 9203   5.058   0.715   0.246
 2768SOL    HW2 9204   5.073   0.819   0.120
 2769SOL     OW 9205   0.365   4.148   3.723
 2769SOL    HW1 9206   0.339   4.053   3.743
 2769SOL    HW2 9207   0.312   4.181   3.645
 2770SOL     OW 9208   2.790   5.436   6.029
 2770SOL    HW1 9209   2.841   5.399   5.952
 2770SOL    HW2 9210   2.774   5.365   6.097
 2771SOL     OW 9211   6.390   0.852   2.459
 2771SOL    HW1 9212   6.418   0.944   2.484
 2771SOL    HW2 9213   6.457   0.786   2.493
 2772SOL     OW 9214   4.511   1.080   0.801
 2772SOL    HW1 9215   4.461   1.115   0.880
 2772SOL    HW2 9216   4.485   1.132   0.719
 2773SOL     OW 9217   5.671   2.808   5.501
 2773SOL    HW1 9218   5.681   2.814   5.401
 2773SOL    HW2 9219   5.675   2.900   5.540
 2774SOL     OW 9220   6.254   3.799   3.354
 2774SOL    HW1 9221   6.237   3.703   3.376
 2774SOL    HW2 9222   6.339   3.806   3.302
 2775SOL     OW 9223   0.105   5.228   6.552
 2775SOL    HW1 9224   0.108   5.290   6.473
 2775SOL    HW2 9225   0.162   5.266   6.625
 2776SOL     OW 9226   5.654   5.228   5.938
 2776SOL    HW1 9227   5.675   5.180   5.852
 2776SOL    HW2 9228   5.711   5.309   5.945
 2777SOL     OW 9229   2.589   1.065   2.117
 2777SOL    HW1 9230   2.589   1.107   2.208
 2777SOL    HW2 9231   2.520   0.993   2.113
 2778SOL     OW 9232   1.236   0.380   5.088
 2778SOL    HW1 9233   1.155   0.327   5.114
 2778SOL    HW2 9234   1.305   0.373   5.161
 2779SOL     OW 9235   4.823   6.678   0.915
 2779SOL    HW1 9236   4.911   6.669   0.869
 2779SOL    HW2 9237   4.779   6.763   0.886
 2780SOL     OW 9238   6.821   6.291   6.666
 2780SOL    HW1 9239   6.869   6.203   6.675
 2780SOL    HW2 9240   6.857   6.340   6.586
 2781SOL     OW 9241   5.946   5.731   1.473
 2781SOL    HW1 9242   5.894   5.795   1.416
 2781SOL    HW2 9243   6.035   5.713   1.431
 2782SOL     OW 9244   3.534   2.030   5.711
 2782SOL    HW1 9245   3.493   1.951   5.756
 2782SOL    HW2 9246   3.461   2.092   5.679
 2783SOL     OW 9247   5.708   3.454   4.546
 2783SOL    HW1 9248   5.782   3.514   4.574
 2783SOL    HW2 9249   5.632   3.509   4.511
 2784SOL     OW 9250   3.243   2.216   1.278
 2784SOL    HW1 9251   3.239   2.312   1.251
 2784SOL    HW2 9252   3.339   2.189   1.288
 2785SOL     OW 9253   5.556   1.816   0.844
 2785SOL    HW1 9254   5.613   1.798   0.764
 2785SOL    HW2 9255   5.521   1.910   0.840
 2786SOL     OW 9256   4.110   5.273   1.906
 2786SOL    HW1 9257   4.039   5.255   1.974
 2786SOL    HW2 9258   4.174   5.341   1.942
 2787SOL     OW 9259   3.030   2.195   6.936
 2787SOL    HW1 9260   3.001   2.110   6.980
 2787SOL    HW2 9261   3.130   2.197   6.931
 2788SOL     OW 9262   2.316   4.873   6.079
 2788SOL    HW1 9263   2.351   4.779   6.079
 2788SOL    HW2 9264   2.325   4.911   6.171
 2789SOL     OW 9265   1.822   2.439   3.484
 2789SOL    HW1 9266   1.780   2.352   3.507
 2789SOL    HW2 9267   1.920   2.435   3.503
 2790SOL     OW 9268   2.949   5.601   2.454
 2790SOL    HW1 9269   2.968   5.630   2.548
 2790SOL    HW2 9270   2.886   5.667   2.412
 2791SOL     OW 9271   1.223   4.187   4.047
 2791SOL    HW1 9272   1.146   4.157   3.991
 2791SOL    HW2 9273   1.278   4.253   3.996
 2792SOL     OW 9274   0.883   6.944   4.580
 2792SOL    HW1 9275   0.947   6.890   4.635
 2792SOL    HW2 9276   0.852   7.022   4.634
 2793SOL     OW 9277   4.976   3.485   3.370
 2793SOL    HW1 9278   5.066   3.450   3.344
 2793SOL    HW2 9279   4.955   3.566   3.315
 2794SOL     OW 9280   0.137   2.636   1.155
 2794SOL    HW1 9281   0.206   2.564   1.148
 2794SOL    HW2 9282   0.047   2.596   1.170
 2795SOL     OW 9283   1.950   3.063   0.803
 2795SOL    HW1 9284   1.995   3.128   0.865
 2795SOL    HW2 9285   1.871   3.108   0.761
 2796SOL     OW 9286   6.102   4.785   2.564
 2796SOL    HW1 9287   6.078   4.769   2.660
 2796SOL    HW2 9288   6.200   4.769   2.552
 2797SOL     OW 9289   4.670   5.134   4.315
 2797SOL    HW1 9290   4.769   5.132   4.301
 2797SOL    HW2 9291   4.632   5.216   4.272
 2798SOL     OW 9292   0.931   4.698   1.268
 2798SOL    HW1 9293   0.925   4.674   1.172
 2798SOL    HW2 9294   1.002   4.642   1.312
 2799SOL     OW 9295   6.913   6.692   0.388
 2799SOL    HW1 9296   6.882   6.770   0.334
 2799SOL    HW2 9297   6.983   6.722   0.453
 2800SOL     OW 9298   4.634   4.898   0.338
 2800SOL    HW1 9299   4.731   4.885   0.356
 2800SOL    HW2 9300   4.600   4.825   0.278
 2801SOL     OW 9301   5.236   5.390   4.959
 2801SOL    HW1 9302   5.175   5.396   5.038
 2801SOL    HW2 9303   5.324   5.352   4.988
 2802SOL     OW 9304   4.858   2.490   6.263
 2802SOL    HW1 9305   4.891   2.555   6.331
 2802SOL    HW2 9306   4.882   2.521   6.171
 2803SOL     OW 9307   3.426   5.732   6.433
 2803SOL    HW1 9308   3.511   5.756   6.480
 2803SOL    HW2 9309   3.404   5.802   6.366
 2804SOL     OW 9310   6.579   4.760   5.178
 2804SOL    HW1 9311   6.663   4.761   5.232
 2804SOL    HW2 9312   6.600   4.730   5.085
 2805SOL     OW 9313   5.063   2.907   2.250
 2805SOL    HW1 9314   4.966   2.921   2.269
 2805SOL    HW2 9315   5.115   2.987   2.280
 2806SOL     OW 9316   0.007   5.121   4.599
 2806SOL    HW1 9317   6.944   5.095   4.573
 2806SOL    HW2 9318   0.067   5.041   4.590
 2807SOL     OW 9319   5.274   5.356   3.688
 2807SOL    HW1 9320   5.253   5.426   3.620
 2807SOL    HW2 9321   5.275   5.266   3.644
 2808SOL     OW 9322   5.218   3.075   2.621
 2808SOL    HW1 9323   5.212   3.037   2.713
 2808SOL    HW2 9324   5.305   3.124   2.611
 2809SOL     OW 9325   5.851   2.850   1.928
 2809SOL    HW1 9326   5.782   2.868   1.998
 2809SOL    HW2 9327   5.914   2.927   1.922
 2810SOL     OW 9328   2.947   5.727   3.606
 2810SOL    HW1 9329   2.980   5.811   3.650
 2810SOL    HW2 9330   2.993   5.648   3.647
 2811SOL     OW 9331   1.011   1.248   3.237
 2811SOL    HW1 9332   1.082   1.266   3.305
 2811SOL    HW2 9333   1.033   1.296   3.152
 2812SOL     OW 9334   5.424   3.384   0.319
 2812SOL    HW1 9335   5.420   3.430   0.230
 2812SOL    HW2 9336   5.520   3.370   0.345
 2813SOL     OW 9337   6.350   0.510   6.088
 2813SOL    HW1 9338   6.386   0.540   6.176
 2813SOL    HW2 9339   6.275   0.570   6.061
 2814SOL     OW 9340   4.933   3.176   6.838
 2814SOL    HW1 9341   4.875   3.162   6.757
 2814SOL    HW2 9342   4.897   3.122   6.914
 2815SOL     OW 9343   6.406   1.266   5.403
 2815SOL    HW1 9344   6.380   1.359   5.378
 2815SOL    HW2 9345   6.393   1.253   5.501
 2816SOL     OW 9346   6.658   5.791   3.504
 2816SOL    HW1 9347   6.684   5.746   3.590
 2816SOL    HW2 9348   6.569   5.757   3.474
 2817SOL     OW 9349   2.702   0.176   1.280
 2817SOL    HW1 9350   2.707   0.076   1.276
 2817SOL    HW2 9351   2.623   0.208   1.227
 2818SOL     OW 9352   0.399   0.417   0.091
 2818SOL    HW1 9353   0.321   0.379   0.041
 2818SOL    HW2 9354   0.382   0.411   0.189
 2819SOL     OW 9355   0.708   1.119   1.396
 2819SOL    HW1 9356   0.692   1.147   1.301
 2819SOL    HW2 9357   0.799   1.148   1.425
 2820SOL     OW 9358   1.599   1.900   3.032
 2820SOL    HW1 9359   1.534   1.976   3.026
 2820SOL    HW2 9360   1.573   1.829   2.967
 2821SOL     OW 9361   4.151   3.051   0.152
 2821SOL    HW1 9362   4.135   3.149   0.141
 2821SOL    HW2 9363   4.246   3.030   0.130
 2822SOL     OW 9364   4.579   2.376   6.819
 2822SOL    HW1 9365   4.554   2.303   6.882
 2822SOL    HW2 9366   4.654   2.346   6.761
 2823SOL     OW 9367   3.561   5.994   0.426
 2823SOL    HW1 9368   3.546   5.924   0.357
 2823SOL    HW2 9369   3.565   6.084   0.383
 2824SOL     OW 9370   2.877   1.026   3.928
 2824SOL    HW1 9371   2.866   1.118   3.966
 2824SOL    HW2 9372   2.888   0.961   4.004
 2825SOL     OW 9373   6.548   0.417   6.825
 2825SOL    HW1 9374   6.569   0.320   6.818
 2825SOL    HW2 9375   6.523   0.439   6.920
 2826SOL     OW 9376   4.865   1.955   0.123
 2826SOL    HW1 9377   4.855   2.027   0.054
 2826SOL    HW2 9378   4.808   1.877   0.098
 2827SOL     OW 9379   6.377   0.782   5.654
 2827SOL    HW1 9380   6.321   0.843   5.711
 2827SOL    HW2 9381   6.434   0.726   5.713
 2828SOL     OW 9382   2.954   1.352   0.445
 2828SOL    HW1 9383   2.949   1.443   0.403
 2828SOL    HW2 9384   2.886   1.292   0.401
 2829SOL     OW 9385   3.609   3.578   5.864
 2829SOL    HW1 9386   3.684   3.512   5.869
 2829SOL    HW2 9387   3.608   3.620   5.774
 2830SOL     OW 9388   1.065   3.194   6.051
 2830SOL    HW1 9389   1.007   3.141   6.112
 2830SOL    HW2 9390   1.008   3.251   5.992
 2831SOL     OW 9391   0.785   5.804   3.553
 2831SOL    HW1 9392   0.803   5.706   3.546
 2831SOL    HW2 9393   0.736   5.823   3.638
 2832SOL     OW 9394   1.078   0.533   2.480
 2832SOL    HW1 9395   1.085   0.611   2.541
 2832SOL    HW2 9396   1.170   0.505   2.451
 2833SOL     OW 9397   4.363   2.391   2.336
 2833SOL    HW1 9398   4.301   2.339   2.277
 2833SOL    HW2 9399   4.319   2.410   2.423
 2834SOL     OW 9400   2.392   6.094   5.556
 2834SOL    HW1 9401   2.313   6.154   5.548
 2834SOL    HW2 9402   2.418   6.061   5.466
 2835SOL     OW 9403   6.618   0.521   2.071
 2835SOL    HW1 9404   6.541   0.468   2.035
 2835SOL    HW2 9405   6.698   0.506   2.013
 2836SOL     OW 9406   6.026   0.195   2.606
 2836SOL    HW1 9407   5.967   0.229   2.533
 2836SOL    HW2 9408   6.053   0.101   2.586
 2837SOL     OW 9409   5.472   4.014   3.307
 2837SOL    HW1 9410   5.564   3.976   3.316
 2837SOL    HW2 9411   5.451   4.071   3.386
 2838SOL     OW 9412   2.180   4.844   0.651
 2838SOL    HW1 9413   2.127   4.799   0.722
 2838SOL    HW2 9414   2.180   4.943   0.666
 2839SOL     OW 9415   6.362   1.590   1.782
 2839SOL    HW1 9416   6.442   1.597   1.841
 2839SOL    HW2 9417   6.313   1.506   1.802
 2840SOL     OW 9418   1.757   0.730   3.343
 2840SOL    HW1 9419   1.836   0.779   3.307
 2840SOL    HW2 9420   1.698   0.795   3.393
 2841SOL     OW 9421   0.516   0.901   6.276
 2841SOL    HW1 9422   0.486   0.972   6.340
 2841SOL    HW2 9423   0.609   0.873   6.299
 2842SOL     OW 9424   0.069   3.763   4.499
 2842SOL    HW1 9425   0.147   3.820   4.472
 2842SOL    HW2 9426   0.071   3.749   4.598
 2843SOL     OW 9427   2.872   1.286   2.948
 2843SOL    HW1 9428   2.849   1.246   3.036
 2843SOL    HW2 9429   2.945   1.353   2.959
 2844SOL     OW 9430   0.371   5.574   0.796
 2844SOL    HW1 9431   0.352   5.618   0.884
 2844SOL    HW2 9432   0.290   5.525   0.765
 2845SOL     OW 9433   0.045   2.856   1.637
 2845SOL    HW1 9434   0.137   2.890   1.658
 2845SOL    HW2 9435   0.048   2.757   1.623
 2846SOL     OW 9436   4.360   1.329   6.922
 2846SOL    HW1 9437   4.323   1.402   6.864
 2846SOL    HW2 9438   4.286   1.287   6.975
 2847SOL     OW 9439   5.147   3.995   3.800
 2847SOL    HW1 9440   5.057   4.009   3.841
 2847SOL    HW2 9441   5.161   3.897   3.785
 2848SOL     OW 9442   1.429   3.342   5.828
 2848SOL    HW1 9443   1.466   3.422   5.781
 2848SOL    HW2 9444   1.470   3.334   5.919
 2849SOL     OW 9445   3.377   0.124   0.721
 2849SOL    HW1 9446   3.316   0.082   0.788
 2849SOL    HW2 9447   3.471   0.123   0.756
 2850SOL     OW 9448   3.143   0.223   2.180
 2850SOL    HW1 9449   3.182   0.313   2.163
 2850SOL    HW2 9450   3.052   0.233   2.220
 2851SOL     OW 9451   0.022   2.115   5.575
 2851SOL    HW1 9452   0.118   2.105   5.600
 2851SOL    HW2 9453   0.001   2.056   5.497
 2852SOL     OW 9454   5.878   4.582   0.119
 2852SOL    HW1 9455   5.837   4.668   0.151
 2852SOL    HW2 9456   5.977   4.595   0.107
 2853SOL     OW 9457   2.017   2.947   6.974
 2853SOL    HW1 9458   2.091   2.958   0.011
 2853SOL    HW2 9459   1.932   2.981   7.013
 2854SOL     OW 9460   3.887   0.859   5.232
 2854SOL    HW1 9461   3.967   0.914   5.212
 2854SOL    HW2 9462   3.903   0.805   5.315
 2855SOL     OW 9463   2.772   0.947   6.732
 2855SOL    HW1 9464   2.807   1.038   6.754
 2855SOL    HW2 9465   2.842   0.878   6.752
 2856SOL     OW 9466   1.890   2.720   5.990
 2856SOL    HW1 9467   1.949   2.796   6.016
 2856SOL    HW2 9468   1.944   2.647   5.949
 2857SOL     OW 9469   3.215   1.475   2.164
 2857SOL    HW1 9470   3.212   1.567   2.203
 2857SOL    HW2 9471   3.205   1.407   2.237
 2858SOL     OW 9472   5.211   4.249   2.780
 2858SOL    HW1 9473   5.271   4.309   2.728
 2858SOL    HW2 9474   5.116   4.266   2.755
 2859SOL     OW 9475   5.130   1.843   0.145
 2859SOL    HW1 9476   5.053   1.907   0.146
 2859SOL    HW2 9477   5.138   1.802   0.054
 2860SOL     OW 9478   3.721   2.029   1.126
 2860SOL    HW1 9479   3.684   2.105   1.074
 2860SOL    HW2 9480   3.801   1.992   1.079
 2861SOL     OW 9481   4.192   4.135   6.254
 2861SOL    HW1 9482   4.194   4.085   6.167
 2861SOL    HW2 9483   4.098   4.140   6.287
 2862SOL     OW 9484   5.539   1.914   3.444
 2862SOL    HW1 9485   5.591   1.989   3.485
 2862SOL    HW2 9486   5.461   1.951   3.393
 2863SOL     OW 9487   4.737   1.703   0.073
 2863SOL    HW1 9488   4.676   1.739   0.143
 2863SOL    HW2 9489   4.786   1.624   0.108
 2864SOL     OW 9490   4.159   1.210   1.182
 2864SOL    HW1 9491   4.208   1.150   1.244
 2864SOL    HW2 9492   4.066   1.225   1.216
 2865SOL     OW 9493   5.177   4.262   6.170
 2865SOL    HW1 9494   5.240   4.205   6.223
 2865SOL    HW2 9495   5.084   4.227   6.181
 2866SOL     OW 9496   6.358   6.294   6.788
 2866SOL    HW1 9497   6.384   6.209   6.742
 2866SOL    HW2 9498   6.440   6.349   6.804
 2867SOL     OW 9499   5.671   3.709   2.481
 2867SOL    HW1 9500   5.602   3.763   2.432
 2867SOL    HW2 9501   5.700   3.758   2.563
 2868SOL     OW 9502   0.113   2.407   5.404
 2868SOL    HW1 9503   0.131   2.500   5.438
 2868SOL    HW2 9504   0.076   2.351   5.478
 2869SOL     OW 9505   6.747   1.029   3.578
 2869SOL    HW1 9506   6.780   0.935   3.589
 2869SOL    HW2 9507   6.736   1.071   3.669
 2870SOL     OW 9508   0.279   1.403   4.488
 2870SOL    HW1 9509   0.223   1.447   4.558
 2870SOL    HW2 9510   0.221   1.348   4.428
 2871SOL     OW 9511   0.482   2.151   6.908
 2871SOL    HW1 9512   0.581   2.149   6.927
 2871SOL    HW2 9513   0.446   2.058   6.911
 2872SOL     OW 9514   3.155   1.291   3.045
 2872SOL    HW1 9515   3.241   1.251   3.012
 2872SOL    HW2 9516   3.166   1.389   3.057
 2873SOL     OW 9517   6.839   4.882   2.637
 2873SOL    HW1 9518   6.803   4.795   2.669
 2873SOL    HW2 9519   6.780   4.957   2.668
 2874SOL     OW 9520   3.458   6.258   3.476
 2874SOL    HW1 9521   3.541   6.297   3.517
 2874SOL    HW2 9522   3.384   6.260   3.544
 2875SOL     OW 9523   4.992   6.930   0.689
 2875SOL    HW1 9524   5.062   6.933   0.760
 2875SOL    HW2 9525   4.905   6.903   0.729
 2876SOL     OW 9526   0.847   0.164   1.455
 2876SOL    HW1 9527   0.765   0.109   1.473
 2876SOL    HW2 9528   0.898   0.178   1.540
 2877SOL     OW 9529   3.528   3.007   5.276
 2877SOL    HW1 9530   3.592   2.933   5.294
 2877SOL    HW2 9531   3.548   3.084   5.337
 2878SOL     OW 9532   4.300   5.459   4.406
 2878SOL    HW1 9533   4.349   5.508   4.478
 2878SOL    HW2 9534   4.287   5.363   4.433
 2879SOL     OW 9535   4.941   4.700   0.774
 2879SOL    HW1 9536   5.003   4.693   0.696
 2879SOL    HW2 9537   4.847   4.701   0.742
 2880SOL     OW 9538   5.948   6.757   1.453
 2880SOL    HW1 9539   5.892   6.832   1.417
 2880SOL    HW2 9540   6.041   6.764   1.418
 2881SOL     OW 9541   5.364   6.072   6.991
 2881SOL    HW1 9542   5.448   6.066   0.016
 2881SOL    HW2 9543   5.360   6.160   6.945
 2882SOL     OW 9544   0.518   4.420   2.355
 2882SOL    HW1 9545   0.473   4.336   2.327
 2882SOL    HW2 9546   0.543   4.473   2.274
 2883SOL     OW 9547   6.009   6.433   3.552
 2883SOL    HW1 9548   6.096   6.411   3.508
 2883SOL    HW2 9549   5.936   6.380   3.509
 2884SOL     OW 9550   0.734   5.555   3.137
 2884SOL    HW1 9551   0.830   5.583   3.142
 2884SOL    HW2 9552   0.722   5.468   3.185
 2885SOL     OW 9553   0.713   3.492   2.366
 2885SOL    HW1 9554   0.780   3.488   2.293
 2885SOL    HW2 9555   0.708   3.404   2.413
 2886SOL     OW 9556   2.732   3.813   5.684
 2886SOL    HW1 9557   2.752   3.892   5.743
 2886SOL    HW2 9558   2.814   3.787   5.634
 2887SOL     OW 9559   1.280   0.081   4.596
 2887SOL    HW1 9560   1.312   0.164   4.549
 2887SOL    HW2 9561   1.202   0.104   4.654
 2888SOL     OW 9562   0.660   4.421   0.339
 2888SOL    HW1 9563   0.712   4.498   0.376
 2888SOL    HW2 9564   0.634   4.360   0.413
 2889SOL     OW 9565   2.173   6.608   2.026
 2889SOL    HW1 9566   2.243   6.568   1.968
 2889SOL    HW2 9567   2.210   6.689   2.071
 2890SOL     OW 9568   2.629   6.780   0.652
 2890SOL    HW1 9569   2.572   6.697   0.647
 2890SOL    HW2 9570   2.723   6.758   0.625
 2891SOL     OW 9571   1.750   4.031   3.285
 2891SOL    HW1 9572   1.775   4.122   3.251
 2891SOL    HW2 9573   1.686   4.041   3.361
 2892SOL     OW 9574   5.327   3.315   6.997
 2892SOL    HW1 9575   5.407   3.372   7.014
 2892SOL    HW2 9576   5.258   3.366   6.945
 2893SOL     OW 9577   0.140   6.576   4.900
 2893SOL    HW1 9578   0.186   6.665   4.899
 2893SOL    HW2 9579   0.203   6.507   4.937
 2894SOL     OW 9580   2.826   3.312   0.264
 2894SOL    HW1 9581   2.736   3.272   0.248
 2894SOL    HW2 9582   2.819   3.412   0.264
 2895SOL     OW 9583   4.242   2.929   6.033
 2895SOL    HW1 9584   4.304   2.862   6.072
 2895SOL    HW2 9585   4.230   2.911   5.935
 2896SOL     OW 9586   4.030   5.179   6.770
 2896SOL    HW1 9587   4.050   5.130   6.686
 2896SOL    HW2 9588   3.963   5.128   6.824
 2897SOL     OW 9589   3.503   5.170   3.290
 2897SOL    HW1 9590   3.431   5.212   3.346
 2897SOL    HW2 9591   3.463   5.097   3.235
 2898SOL     OW 9592   4.109   6.074   4.055
 2898SOL    HW1 9593   4.027   6.108   4.010
 2898SOL    HW2 9594   4.096   5.977   4.077
 2899SOL     OW 9595   0.834   1.676   0.574
 2899SOL    HW1 9596   0.857   1.675   0.672
 2899SOL    HW2 9597   0.897   1.737   0.526
 2900SOL     OW 9598   2.181   4.950   5.612
 2900SOL    HW1 9599   2.103   4.992   5.566
 2900SOL    HW2 9600   2.165   4.949   5.711
 2901SOL     OW 9601   2.101   6.766   3.789
 2901SOL    HW1 9602   2.119   6.734   3.882
 2901SOL    HW2 9603   2.159   6.717   3.724
 2902SOL     OW 9604   4.826   6.442   1.425
 2902SOL    HW1 9605   4.827   6.484   1.335
 2902SOL    HW2 9606   4.848   6.344   1.417
 2903SOL     OW 9607   2.841   0.703   0.642
 2903SOL    HW1 9608   2.807   0.694   0.549
 2903SOL    HW2 9609   2.764   0.694   0.706
 2904SOL     OW 9610   2.252   3.765   5.206
 2904SOL    HW1 9611   2.199   3.757   5.290
 2904SOL    HW2 9612   2.287   3.858   5.197
 2905SOL     OW 9613   1.412   2.359   3.527
 2905SOL    HW1 9614   1.398   2.428   3.599
 2905SOL    HW2 9615   1.500   2.314   3.540
 2906SOL     OW 9616   5.008   5.536   2.494
 2906SOL    HW1 9617   4.915   5.511   2.468
 2906SOL    HW2 9618   5.060   5.562   2.413
 2907SOL     OW 9619   0.464   1.559   4.361
 2907SOL    HW1 9620   0.391   1.515   4.414
 2907SOL    HW2 9621   0.429   1.643   4.320
 2908SOL     OW 9622   4.738   6.736   4.312
 2908SOL    HW1 9623   4.688   6.793   4.247
 2908SOL    HW2 9624   4.765   6.651   4.268
 2909SOL     OW 9625   0.424   6.377   3.669
 2909SOL    HW1 9626   0.366   6.370   3.588
 2909SOL    HW2 9627   0.496   6.445   3.653
 2910SOL     OW 9628   5.033   6.320   4.757
 2910SOL    HW1 9629   4.937   6.339   4.741
 2910SOL    HW2 9630   5.089   6.394   4.718
 2911SOL     OW 9631   1.969   5.579   3.538
 2911SOL    HW1 9632   2.047   5.621   3.585
 2911SOL    HW2 9633   1.922   5.518   3.602
 2912SOL     OW 9634   4.418   6.747   6.460
 2912SOL    HW1 9635   4.445   6.812   6.389
 2912SOL    HW2 9636   4.319   6.731   6.454
 2913SOL     OW 9637   2.236   4.540   3.031
 2913SOL    HW1 9638   2.164   4.610   3.027
 2913SOL    HW2 9639   2.293   4.547   2.949
 2914SOL     OW 9640   5.861   6.583   5.930
 2914SOL    HW1 9641   5.841   6.497   5.977
 2914SOL    HW2 9642   5.912   6.563   5.846
 2915SOL     OW 9643   5.337   1.458   5.167
 2915SOL    HW1 9644   5.379   1.376   5.206
 2915SOL    HW2 9645   5.363   1.538   5.222
 2916SOL     OW 9646   6.719   6.168   6.345
 2916SOL    HW1 9647   6.728   6.091   6.408
 2916SOL    HW2 9648   6.622   6.183   6.324
 2917SOL     OW 9649   4.020   6.445   2.138
 2917SOL    HW1 9650   4.073   6.375   2.091
 2917SOL    HW2 9651   4.077   6.526   2.152
 2918SOL     OW 9652   6.776   4.034   3.905
 2918SOL    HW1 9653   6.786   4.081   3.992
 2918SOL    HW2 9654   6.853   4.056   3.845
 2919SOL     OW 9655   6.899   0.825   1.241
 2919SOL    HW1 9656   6.855   0.838   1.330
 2919SOL    HW2 9657   6.920   0.915   1.201
 2920SOL     OW 9658   2.860   1.870   2.043
 2920SOL    HW1 9659   2.896   1.871   2.136
 2920SOL    HW2 9660   2.852   1.964   2.009
 2921SOL     OW 9661   1.180   0.545   3.127
 2921SOL    HW1 9662   1.182   0.627   3.184
 2921SOL    HW2 9663   1.142   0.568   3.037
 2922SOL     OW 9664   4.992   7.028   0.256
 2922SOL    HW1 9665   4.949   6.979   0.180
 2922SOL    HW2 9666   5.058   0.065   0.220
 2923SOL     OW 9667   6.756   4.981   1.920
 2923SOL    HW1 9668   6.755   4.882   1.908
 2923SOL    HW2 9669   6.692   5.023   1.857
 2924SOL     OW 9670   0.699   1.802   6.869
 2924SOL    HW1 9671   0.784   1.769   6.912
 2924SOL    HW2 9672   0.720   1.880   6.810
 2925SOL     OW 9673   4.718   0.939   3.332
 2925SOL    HW1 9674   4.620   0.954   3.321
 2925SOL    HW2 9675   4.758   1.014   3.384
 2926SOL     OW 9676   7.002   1.178   4.674
 2926SOL    HW1 9677   6.936   1.181   4.599
 2926SOL    HW2 9678   0.037   1.103   4.661
 2927SOL     OW 9679   1.273   1.580   2.956
 2927SOL    HW1 9680   1.184   1.598   2.998
 2927SOL    HW2 9681   1.336   1.547   3.026
 2928SOL     OW 9682   0.087   2.436   5.813
 2928SOL    HW1 9683   7.021   2.449   5.785
 2928SOL    HW2 9684   0.147   2.486   5.750
 2929SOL     OW 9685   0.573   1.137   6.482
 2929SOL    HW1 9686   0.480   1.155   6.514
 2929SOL    HW2 9687   0.610   1.219   6.437
 2930SOL     OW 9688   4.137   6.397   4.955
 2930SOL    HW1 9689   4.154   6.305   4.991
 2930SOL    HW2 9690   4.101   6.390   4.861
 2931SOL     OW 9691   5.472   5.185   0.591
 2931SOL    HW1 9692   5.493   5.258   0.656
 2931SOL    HW2 9693   5.470   5.221   0.498
 2932SOL     OW 9694   1.222   5.512   1.393
 2932SOL    HW1 9695   1.303   5.541   1.341
 2932SOL    HW2 9696   1.188   5.589   1.446
 2933SOL     OW 9697   6.107   4.226   3.089
 2933SOL    HW1 9698   6.142   4.205   2.997
 2933SOL    HW2 9699   6.167   4.184   3.157
 2934SOL     OW 9700   4.551   1.340   0.285
 2934SOL    HW1 9701   4.543   1.397   0.367
 2934SOL    HW2 9702   4.496   1.379   0.212
 2935SOL     OW 9703   6.205   3.392   1.416
 2935SOL    HW1 9704   6.289   3.383   1.471
 2935SOL    HW2 9705   6.196   3.485   1.383
 2936SOL     OW 9706   4.158   5.013   2.102
 2936SOL    HW1 9707   4.165   4.914   2.093
 2936SOL    HW2 9708   4.066   5.043   2.075
 2937SOL     OW 9709   3.813   5.137   0.372
 2937SOL    HW1 9710   3.752   5.071   0.414
 2937SOL    HW2 9711   3.829   5.213   0.436
 2938SOL     OW 9712   5.206   4.966   5.819
 2938SOL    HW1 9713   5.164   4.942   5.731
 2938SOL    HW2 9714   5.198   5.064   5.834
 2939SOL     OW 9715   0.422   0.368   3.986
 2939SOL    HW1 9716   0.347   0.398   4.045
 2939SOL    HW2 9717   0.386   0.306   3.916
 2940SOL     OW 9718   6.048   6.547   6.349
 2940SOL    HW1 9719   6.147   6.540   6.335
 2940SOL    HW2 9720   6.029   6.617   6.419
 2941SOL     OW 9721   2.461   2.671   4.154
 2941SOL    HW1 9722   2.421   2.719   4.076
 2941SOL    HW2 9723   2.412   2.694   4.237
 2942SOL     OW 9724   3.129   2.306   1.531
 2942SOL    HW1 9725   3.204   2.310   1.597
 2942SOL    HW2 9726   3.148   2.235   1.463
 2943SOL     OW 9727   5.819   4.478   2.675
 2943SOL    HW1 9728   5.771   4.564   2.657
 2943SOL    HW2 9729   5.853   4.478   2.769
 2944SOL     OW 9730   2.306   5.814   5.275
 2944SOL    HW1 9731   2.299   5.910   5.246
 2944SOL    HW2 9732   2.398   5.797   5.308
 2945SOL     OW 9733   3.635   3.947   3.927
 2945SOL    HW1 9734   3.728   3.981   3.917
 2945SOL    HW2 9735   3.581   4.010   3.984
 2946SOL     OW 9736   1.265   5.590   6.948
 2946SOL    HW1 9737   1.257   5.655   7.024
 2946SOL    HW2 9738   1.302   5.504   6.982
 2947SOL     OW 9739   0.673   3.521   6.541
 2947SOL    HW1 9740   0.660   3.485   6.448
 2947SOL    HW2 9741   0.749   3.473   6.585
 2948SOL     OW 9742   6.654   4.670   5.900
 2948SOL    HW1 9743   6.677   4.673   5.997
 2948SOL    HW2 9744   6.606   4.754   5.874
 2949SOL     OW 9745   2.936   5.787   1.242
 2949SOL    HW1 9746   3.033   5.763   1.245
 2949SOL    HW2 9747   2.923   5.878   1.281
 2950SOL     OW 9748   4.857   4.094   4.674
 2950SOL    HW1 9749   4.793   4.128   4.605
 2950SOL    HW2 9750   4.819   4.110   4.765
 2951SOL     OW 9751   6.006   2.403   1.125
 2951SOL    HW1 9752   5.919   2.415   1.172
 2951SOL    HW2 9753   6.003   2.446   1.035
 2952SOL     OW 9754   0.703   5.843   5.355
 2952SOL    HW1 9755   0.775   5.773   5.358
 2952SOL    HW2 9756   0.739   5.929   5.391
 2953SOL     OW 9757   4.887   3.430   3.620
 2953SOL    HW1 9758   4.896   3.439   3.521
 2953SOL    HW2 9759   4.895   3.334   3.646
 2954SOL     OW 9760   0.510   5.428   1.763
 2954SOL    HW1 9761   0.526   5.465   1.671
 2954SOL    HW2 9762   0.415   5.401   1.772
 2955SOL     OW 9763   0.956   4.141   1.375
 2955SOL    HW1 9764   0.959   4.222   1.433
 2955SOL    HW2 9765   1.033   4.080   1.399
 2956SOL     OW 9766   6.132   6.434   3.160
 2956SOL    HW1 9767   6.194   6.494   3.210
 2956SOL    HW2 9768   6.058   6.403   3.220
 2957SOL     OW 9769   6.482   3.018   1.929
 2957SOL    HW1 9770   6.541   3.091   1.895
 2957SOL    HW2 9771   6.404   3.006   1.868
 2958SOL     OW 9772   2.406   4.366   4.531
 2958SOL    HW1 9773   2.382   4.380   4.627
 2958SOL    HW2 9774   2.446   4.451   4.494
 2959SOL     OW 9775   4.660   4.703   0.683
 2959SOL    HW1 9776   4.614   4.767   0.622
 2959SOL    HW2 9777   4.684   4.620   0.633
 2960SOL     OW 9778   3.998   6.879   6.260
 2960SOL    HW1 9779   4.046   6.805   6.214
 2960SOL    HW2 9780   3.946   6.842   6.338
 2961SOL     OW 9781   4.879   2.160   4.582
 2961SOL    HW1 9782   4.956   2.104   4.612
 2961SOL    HW2 9783   4.852   2.222   4.656
 2962SOL     OW 9784   4.391   0.749   3.445
 2962SOL    HW1 9785   4.320   0.817   3.461
 2962SOL    HW2 9786   4.434   0.724   3.531
 2963SOL     OW 9787   1.961   1.354   5.975
 2963SOL    HW1 9788   1.988   1.320   6.065
 2963SOL    HW2 9789   1.880   1.412   5.984
 2964SOL     OW 9790   6.867   0.314   2.514
 2964SOL    HW1 9791   6.927   0.269   2.448
 2964SOL    HW2 9792   6.919   0.382   2.565
 2965SOL     OW 9793   0.097   0.709   4.688
 2965SOL    HW1 9794   0.095   0.708   4.588
 2965SOL    HW2 9795   0.096   0.616   4.723
 2966SOL     OW 9796   5.866   5.480   4.409
 2966SOL    HW1 9797   5.909   5.566   4.438
 2966SOL    HW2 9798   5.839   5.487   4.312
 2967SOL     OW 9799   6.065   1.832   4.511
 2967SOL    HW1 9800   6.052   1.891   4.432
 2967SOL    HW2 9801   6.133   1.873   4.572
 2968SOL     OW 9802   0.889   3.335   6.420
 2968SOL    HW1 9803   0.909   3.414   6.479
 2968SOL    HW2 9804   0.847   3.263   6.474
 2969SOL     OW 9805   6.178   1.299   4.870
 2969SOL    HW1 9806   6.147   1.204   4.867
 2969SOL    HW2 9807   6.185   1.329   4.965
 2970SOL     OW 9808   0.787   3.675   6.160
 2970SOL    HW1 9809   0.745   3.586   6.174
 2970SOL    HW2 9810   0.878   3.676   6.203
 2971SOL     OW 9811   5.899   3.932   6.255
 2971SOL    HW1 9812   5.914   3.833   6.255
 2971SOL    HW2 9813   5.979   3.977   6.214
 2972SOL     OW 9814   6.650   4.893   6.366
 2972SOL    HW1 9815   6.625   4.860   6.275
 2972SOL    HW2 9816   6.711   4.827   6.410
 2973SOL     OW 9817   5.415   1.039   4.126
 2973SOL    HW1 9818   5.441   1.026   4.222
 2973SOL    HW2 9819   5.487   1.089   4.078
 2974SOL     OW 9820   0.712   4.005   2.604
 2974SOL    HW1 9821   0.710   4.089   2.551
 2974SOL    HW2 9822   0.671   4.021   2.694
 2975SOL     OW 9823   0.179   2.377   4.753
 2975SOL    HW1 9824   0.176   2.346   4.658
 2975SOL    HW2 9825   0.258   2.337   4.799
 2976SOL     OW 9826   4.246   1.951   3.142
 2976SOL    HW1 9827   4.170   1.887   3.132
 2976SOL    HW2 9828   4.326   1.901   3.176
 2977SOL     OW 9829   1.892   6.595   4.201
 2977SOL    HW1 9830   1.884   6.510   4.148
 2977SOL    HW2 9831   1.802   6.635   4.213
 2978SOL     OW 9832   4.347   4.717   6.750
 2978SOL    HW1 9833   4.385   4.724   6.657
 2978SOL    HW2 9834   4.393   4.782   6.810
 2979SOL     OW 9835   5.107   6.894   4.138
 2979SOL    HW1 9836   5.173   6.823   4.161
 2979SOL    HW2 9837   5.156   6.980   4.118
 2980SOL     OW 9838   1.292   6.295   3.631
 2980SOL    HW1 9839   1.390   6.311   3.625
 2980SOL    HW2 9840   1.253   6.284   3.540
 2981SOL     OW 9841   1.728   1.507   5.948
 2981SOL    HW1 9842   1.653   1.564   5.981
 2981SOL    HW2 9843   1.748   1.529   5.853
 2982SOL     OW 9844   4.493   5.743   3.006
 2982SOL    HW1 9845   4.461   5.668   3.063
 2982SOL    HW2 9846   4.516   5.822   3.064
 2983SOL     OW 9847   0.688   1.460   3.913
 2983SOL    HW1 9848   0.680   1.470   4.012
 2983SOL    HW2 9849   0.711   1.365   3.891
 2984SOL     OW 9850   5.294   5.522   1.717
 2984SOL    HW1 9851   5.292   5.462   1.637
 2984SOL    HW2 9852   5.223   5.495   1.781
 2985SOL     OW 9853   1.374   2.338   5.339
 2985SOL    HW1 9854   1.453   2.288   5.375
 2985SOL    HW2 9855   1.404   2.400   5.268
 2986SOL     OW 9856   2.381   4.292   6.624
 2986SOL    HW1 9857   2.415   4.252   6.710
 2986SOL    HW2 9858   2.300   4.347   6.643
 2987SOL     OW 9859   5.612   0.890   3.700
 2987SOL    HW1 9860   5.641   0.910   3.606
 2987SOL    HW2 9861   5.524   0.934   3.718
 2988SOL     OW 9862   0.643   6.590   2.812
 2988SOL    HW1 9863   0.660   6.638   2.899
 2988SOL    HW2 9864   0.709   6.516   2.802
 2989SOL     OW 9865   6.487   6.555   0.551
 2989SOL    HW1 9866   6.562   6.531   0.489
 2989SOL    HW2 9867   6.403   6.566   0.499
 2990SOL     OW 9868   4.435   1.677   4.242
 2990SOL    HW1 9869   4.477   1.602   4.191
 2990SOL    HW2 9870   4.347   1.701   4.201
 2991SOL     OW 9871   6.968   4.000   6.407
 2991SOL    HW1 9872   6.906   4.049   6.346
 2991SOL    HW2 9873   0.028   4.046   6.408
 2992SOL     OW 9874   1.871   4.995   5.776
 2992SOL    HW1 9875   1.818   5.076   5.800
 2992SOL    HW2 9876   1.949   4.987   5.838
 2993SOL     OW 9877   0.919   5.233   1.396
 2993SOL    HW1 9878   0.838   5.191   1.437
 2993SOL    HW2 9879   0.935   5.322   1.439
 2994SOL     OW 9880   3.661   6.820   0.292
 2994SOL    HW1 9881   3.754   6.803   0.323
 2994SOL    HW2 9882   3.625   6.902   0.336
 2995SOL     OW 9883   1.897   3.927   6.858
 2995SOL    HW1 9884   1.817   3.940   6.918
 2995SOL    HW2 9885   1.870   3.873   6.778
 2996SOL     OW 9886   2.280   6.910   4.131
 2996SOL    HW1 9887   2.347   6.938   4.199
 2996SOL    HW2 9888   2.295   6.814   4.106
 2997SOL     OW 9889   5.333   0.416   2.437
 2997SOL    HW1 9890   5.371   0.506   2.414
 2997SOL    HW2 9891   5.283   0.380   2.358
 2998SOL     OW 9892   5.529   6.884   4.618
 2998SOL    HW1 9893   5.462   6.906   4.690
 2998SOL    HW2 9894   5.551   6.786   4.622
 2999SOL     OW 9895   3.242   4.920   4.232
 2999SOL    HW1 9896   3.322   4.961   4.275
 2999SOL    HW2 9897   3.229   4.827   4.267
 3000SOL     OW 9898   1.972   4.216   6.734
 3000SOL    HW1 9899   1.977   4.118   6.716
 3000SOL    HW2 9900   1.972   4.266   6.647
 3001SOL     OW 9901   5.569   5.765   6.777
 3001SOL    HW1 9902   5.572   5.857   6.815
 3001SOL    HW2 9903   5.634   5.757   6.702
 3002SOL     OW 9904   3.817   0.019   6.094
 3002SOL    HW1 9905   3.826   0.113   6.064
 3002SOL    HW2 9906   3.908   7.009   6.110
 3003SOL     OW 9907   2.049   0.180   6.573
 3003SOL    HW1 9908   2.054   0.234   6.658
 3003SOL    HW2 9909   2.100   0.095   6.585
 3004SOL     OW 9910   1.243   5.069   3.649
 3004SOL    HW1 9911   1.222   5.031   3.559
 3004SOL    HW2 9912   1.331   5.116   3.646
 3005SOL     OW 9913   2.907   2.494   0.355
 3005SOL    HW1 9914   2.940   2.470   0.264
 3005SOL    HW2 9915   2.824   2.549   0.347
 3006SOL     OW 9916   5.184   2.347   6.708
 3006SOL    HW1 9917   5.274   2.312   6.735
 3006SOL    HW2 9918   5.184   2.365   6.609
 3007SOL     OW 9919   5.616   5.158   1.729
 3007SOL    HW1 9920   5.528   5.148   1.774
 3007SOL    HW2 9921   5.624   5.092   1.654
 3008SOL     OW 9922   3.335   0.610   6.413
 3008SOL    HW1 9923   3.295   0.570   6.330
 3008SOL    HW2 9924   3.306   0.705   6.422
 3009SOL     OW 9925   0.589   0.039   3.107
 3009SOL    HW1 9926   0.667   0.035   3.169
 3009SOL    HW2 9927   0.512   0.083   3.153
 3010SOL     OW 9928   3.238   6.516   3.804
 3010SOL    HW1 9929   3.252   6.592   3.740
 3010SOL    HW2 9930   3.150   6.527   3.850
 3011SOL     OW 9931   5.639   1.398   1.278
 3011SOL    HW1 9932   5.587   1.392   1.193
 3011SOL    HW2 9933   5.626   1.488   1.319
 3012SOL     OW 9934   0.808   3.481   4.877
 3012SOL    HW1 9935   0.842   3.538   4.952
 3012SOL    HW2 9936   0.861   3.502   4.794
 3013SOL     OW 9937   5.104   5.650   4.886
 3013SOL    HW1 9938   5.058   5.706   4.956
 3013SOL    HW2 9939   5.137   5.565   4.927
 3014SOL     OW 9940   4.949   3.575   4.555
 3014SOL    HW1 9941   5.008   3.502   4.523
 3014SOL    HW2 9942   4.929   3.638   4.480
 3015SOL     OW 9943   2.536   2.437   0.343
 3015SOL    HW1 9944   2.522   2.426   0.441
 3015SOL    HW2 9945   2.563   2.350   0.302
 3016SOL     OW 9946   2.747   5.533   3.836
 3016SOL    HW1 9947   2.683   5.583   3.778
 3016SOL    HW2 9948   2.736   5.563   3.931
 3017SOL     OW 9949   1.124   5.321   1.890
 3017SOL    HW1 9950   1.075   5.261   1.827
 3017SOL    HW2 9951   1.222   5.320   1.868
 3018SOL     OW 9952   1.899   6.615   5.504
 3018SOL    HW1 9953   1.926   6.705   5.470
 3018SOL    HW2 9954   1.906   6.548   5.430
 3019SOL     OW 9955   1.782   6.811   0.000
 3019SOL    HW1 9956   1.683   6.800   7.023
 3019SOL    HW2 9957   1.817   6.855   6.946
 3020SOL     OW 9958   4.175   3.726   1.654
 3020SOL    HW1 9959   4.245   3.745   1.585
 3020SOL    HW2 9960   4.215   3.675   1.729
 3021SOL     OW 9961   3.522   0.272   6.692
 3021SOL    HW1 9962   3.555   0.181   6.715
 3021SOL    HW2 9963   3.505   0.323   6.776
 3022SOL     OW 9964   3.895   5.458   4.123
 3022SOL    HW1 9965   3.907   5.472   4.221
 3022SOL    HW2 9966   3.958   5.387   4.092
 3023SOL     OW 9967   4.769   0.163   2.616
 3023SOL    HW1 9968   4.809   0.112   2.540
 3023SOL    HW2 9969   4.705   0.231   2.580
 3024SOL     OW 9970   4.073   6.331   5.919
 3024SOL    HW1 9971   4.093   6.235   5.895
 3024SOL    HW2 9972   4.089   6.389   5.840
 3025SOL     OW 9973   3.952   1.262   0.462
 3025SOL    HW1 9974   3.915   1.234   0.374
 3025SOL    HW2 9975   3.889   1.235   0.535
 3026SOL     OW 9976   1.988   2.077   0.700
 3026SOL    HW1 9977   2.027   2.079   0.608
 3026SOL    HW2 9978   2.048   2.025   0.761
 3027SOL     OW 9979   4.099   0.486   2.164
 3027SOL    HW1 9980   4.154   0.569   2.168
 3027SOL    HW2 9981   4.093   0.454   2.070
 3028SOL     OW 9982   1.919   3.821   5.772
 3028SOL    HW1 9983   1.868   3.842   5.688
 3028SOL    HW2 9984   1.971   3.737   5.759
 3029SOL     OW 9985   0.337   4.213   4.619
 3029SOL    HW1 9986   0.292   4.253   4.699
 3029SOL    HW2 9987   0.436   4.227   4.627
 3030SOL     OW 9988   1.076   2.428   5.805
 3030SOL    HW1 9989   1.056   2.420   5.903
 3030SOL    HW2 9990   1.099   2.339   5.768
 3031SOL     OW 9991   0.367   2.980   0.534
 3031SOL    HW1 9992   0.328   3.013   0.447
 3031SOL    HW2 9993   0.420   3.053   0.577
 3032SOL     OW 9994   4.685   6.664   1.523
 3032SOL    HW1 9995   4.625   6.706   1.455
 3032SOL    HW2 9996   4.726   6.581   1.484
 3033SOL     OW 9997   0.287   2.057   1.666
 3033SOL    HW1 9998   0.240   2.044   1.754
 3033SOL    HW2 9999   0.304   2.154   1.652
 3034SOL     OW10000   1.931   5.868   3.610
 3034SOL    HW110001   2.011   5.829   3.657
 3034SOL    HW210002   1.853   5.807   3.622
 3035SOL     OW10003   6.880   2.789   7.017
 3035SOL    HW110004   6.888   2.699   0.032
 3035SOL    HW210005   6.960   2.844   0.010
 3036SOL     OW10006   1.663   2.903   6.307
 3036SOL    HW110007   1.675   2.889   6.208
 3036SOL    HW210008   1.692   2.996   6.331
 3037SOL     OW10009   0.829   6.145   4.199
 3037SOL    HW110010   0.747   6.096   4.229
 3037SOL    HW210011   0.879   6.089   4.133
 3038SOL     OW10012   5.803   5.662   6.492
 3038SOL    HW110013   5.883   5.618   6.535
 3038SOL    HW210014   5.816   5.761   6.492
 3039SOL     OW10015   0.049   4.102   1.536
 3039SOL    HW110016   0.063   4.004   1.554
 3039SOL    HW210017   7.023   4.112   1.454
 3040SOL     OW10018   4.598   3.603   6.270
 3040SOL    HW110019   4.508   3.632   6.236
 3040SOL    HW210020   4.660   3.682   6.272
 3041SOL     OW10021   2.194   2.963   4.840
 3041SOL    HW110022   2.250   3.004   4.912
 3041SOL    HW210023   2.251   2.905   4.782
 3042SOL     OW10024   5.395   6.616   1.455
 3042SOL    HW110025   5.328   6.690   1.448
 3042SOL    HW210026   5.422   6.604   1.550
 3043SOL     OW10027   1.052   5.658   1.156
 3043SOL    HW110028   1.116   5.584   1.132
 3043SOL    HW210029   1.101   5.732   1.201
 3044SOL     OW10030   3.435   4.503   6.034
 3044SOL    HW110031   3.484   4.505   6.122
 3044SOL    HW210032   3.337   4.505   6.051
 3045SOL     OW10033   4.783   1.114   3.046
 3045SOL    HW110034   4.749   1.020   3.039
 3045SOL    HW210035   4.815   1.132   3.139
 3046SOL     OW10036   2.674   2.022   6.617
 3046SOL    HW110037   2.603   2.043   6.684
 3046SOL    HW210038   2.632   2.012   6.527
 3047SOL     OW10039   5.494   0.153   2.399
 3047SOL    HW110040   5.500   0.059   2.432
 3047SOL    HW210041   5.506   0.216   2.475
 3048SOL     OW10042   3.930   2.297   1.756
 3048SOL    HW110043   3.957   2.386   1.719
 3048SOL    HW210044   3.856   2.310   1.823
 3049SOL     OW10045   1.158   6.582   1.729
 3049SOL    HW110046   1.083   6.606   1.668
 3049SOL    HW210047   1.239   6.636   1.705
 3050SOL     OW10048   3.396   0.887   2.621
 3050SOL    HW110049   3.327   0.831   2.667
 3050SOL    HW210050   3.369   0.902   2.526
 3051SOL     OW10051   2.157   3.943   6.635
 3051SOL    HW110052   2.188   3.886   6.559
 3051SOL    HW210053   2.104   3.887   6.699
 3052SOL     OW10054   4.808   0.269   2.185
 3052SOL    HW110055   4.839   0.363   2.174
 3052SOL    HW210056   4.871   0.221   2.246
 3053SOL     OW10057   0.145   1.557   6.817
 3053SOL    HW110058   0.173   1.566   6.912
 3053SOL    HW210059   0.119   1.463   6.798
 3054SOL     OW10060   6.816   2.302   1.386
 3054SOL    HW110061   6.871   2.227   1.423
 3054SOL    HW210062   6.755   2.336   1.457
 3055SOL     OW10063   5.017   0.107   3.794
 3055SOL    HW110064   5.048   0.012   3.797
 3055SOL    HW210065   4.997   0.139   3.886
 3056SOL     OW10066   6.065   1.987   5.327
 3056SOL    HW110067   5.981   2.025   5.289
 3056SOL    HW210068   6.133   2.060   5.335
 3057SOL     OW10069   4.092   5.945   3.511
 3057SOL    HW110070   4.030   6.007   3.462
 3057SOL    HW210071   4.101   5.975   3.606
 3058SOL     OW10072   0.095   5.419   0.840
 3058SOL    HW110073   0.029   5.411   0.914
 3058SOL    HW210074   0.048   5.412   0.752
 3059SOL     OW10075   2.096   2.320   4.470
 3059SOL    HW110076   2.075   2.260   4.393
 3059SOL    HW210077   2.194   2.314   4.491
 3060SOL     OW10078   0.792   5.634   0.359
 3060SOL    HW110079   0.805   5.596   0.451
 3060SOL    HW210080   0.862   5.704   0.342
 3061SOL     OW10081   5.596   0.670   5.737
 3061SOL    HW110082   5.675   0.637   5.685
 3061SOL    HW210083   5.623   0.747   5.794
 3062SOL     OW10084   1.513   6.487   6.873
 3062SOL    HW110085   1.529   6.563   6.809
 3062SOL    HW210086   1.466   6.521   6.954
 3063SOL     OW10087   2.791   5.483   1.904
 3063SOL    HW110088   2.707   5.446   1.944
 3063SOL    HW210089   2.827   5.418   1.837
 3064SOL     OW10090   5.464   3.584   4.011
 3064SOL    HW110091   5.488   3.560   4.105
 3064SOL    HW210092   5.445   3.681   4.005
 3065SOL     OW10093   2.220   0.481   6.847
 3065SOL    HW110094   2.267   0.457   6.932
 3065SOL    HW210095   2.186   0.575   6.854
 3066SOL     OW10096   5.199   5.022   0.712
 3066SOL    HW110097   5.292   5.037   0.676
 3066SOL    HW210098   5.204   4.968   0.795
 3067SOL     OW10099   3.623   2.110   4.875
 3067SOL    HW110100   3.564   2.029   4.874
 3067SOL    HW210101   3.718   2.083   4.861
 3068SOL     OW10102   5.421   6.504   0.794
 3068SOL    HW110103   5.407   6.442   0.871
 3068SOL    HW210104   5.511   6.548   0.801
 3069SOL     OW10105   6.823   6.431   1.977
 3069SOL    HW110106   6.877   6.515   1.975
 3069SOL    HW210107   6.815   6.395   1.885
 3070SOL     OW10108   0.944   1.082   2.204
 3070SOL    HW110109   1.004   1.150   2.162
 3070SOL    HW210110   0.851   1.116   2.205
 3071SOL     OW10111   5.938   6.035   3.445
 3071SOL    HW110112   5.875   6.089   3.501
 3071SOL    HW210113   6.013   6.002   3.501
 3072SOL     OW10114   1.359   6.472   0.453
 3072SOL    HW110115   1.324   6.433   0.368
 3072SOL    HW210116   1.325   6.566   0.463
 3073SOL     OW10117   6.958   3.488   4.998
 3073SOL    HW110118   6.888   3.496   4.928
 3073SOL    HW210119   6.917   3.501   5.088
 3074SOL     OW10120   5.208   3.173   0.950
 3074SOL    HW110121   5.164   3.105   0.892
 3074SOL    HW210122   5.229   3.255   0.896
 3075SOL     OW10123   2.076   5.954   1.737
 3075SOL    HW110124   2.104   5.858   1.737
 3075SOL    HW210125   2.143   6.008   1.789
 3076SOL     OW10126   0.036   1.087   4.121
 3076SOL    HW110127   6.994   1.038   4.171
 3076SOL    HW210128   0.121   1.084   4.173
 3077SOL     OW10129   4.925   5.156   2.643
 3077SOL    HW110130   4.955   5.205   2.724
 3077SOL    HW210131   4.876   5.073   2.671
 3078SOL     OW10132   1.076   3.211   1.539
 3078SOL    HW110133   1.143   3.148   1.497
 3078SOL    HW210134   1.119   3.258   1.616
 3079SOL     OW10135   2.493   1.921   4.988
 3079SOL    HW110136   2.435   1.842   4.969
 3079SOL    HW210137   2.527   1.959   4.902
 3080SOL     OW10138   4.734   4.159   3.631
 3080SOL    HW110139   4.734   4.228   3.702
 3080SOL    HW210140   4.673   4.188   3.557
 3081SOL     OW10141   0.536   2.724   5.915
 3081SOL    HW110142   0.524   2.660   5.838
 3081SOL    HW210143   0.539   2.818   5.881
 3082SOL     OW10144   3.231   7.008   4.008
 3082SOL    HW110145   3.280   0.040   3.946
 3082SOL    HW210146   3.292   6.979   4.082
 3083SOL     OW10147   4.312   6.326   3.475
 3083SOL    HW110148   4.311   6.304   3.377
 3083SOL    HW210149   4.218   6.334   3.508
 3084SOL     OW10150   5.164   4.207   4.695
 3084SOL    HW110151   5.070   4.194   4.665
 3084SOL    HW210152   5.224   4.215   4.615
 3085SOL     OW10153   0.185   4.766   1.642
 3085SOL    HW110154   0.189   4.675   1.684
 3085SOL    HW210155   0.270   4.784   1.593
 3086SOL     OW10156   3.872   1.932   2.278
 3086SOL    HW110157   3.802   1.978   2.332
 3086SOL    HW210158   3.842   1.926   2.182
 3087SOL     OW10159   1.392   4.888   3.906
 3087SOL    HW110160   1.409   4.863   3.810
 3087SOL    HW210161   1.294   4.879   3.926
 3088SOL     OW10162   2.304   5.077   5.847
 3088SOL    HW110163   2.377   5.144   5.862
 3088SOL    HW210164   2.323   4.994   5.900
 3089SOL     OW10165   1.240   3.237   7.006
 3089SOL    HW110166   1.201   3.199   0.060
 3089SOL    HW210167   1.280   3.326   7.025
 3090SOL     OW10168   2.067   2.078   1.919
 3090SOL    HW110169   1.975   2.043   1.900
 3090SOL    HW210170   2.089   2.150   1.854
 3091SOL     OW10171   1.408   0.133   0.695
 3091SOL    HW110172   1.504   0.128   0.668
 3091SOL    HW210173   1.354   0.072   0.636
 3092SOL     OW10174   4.765   6.359   0.405
 3092SOL    HW110175   4.754   6.349   0.306
 3092SOL    HW210176   4.761   6.270   0.449
 3093SOL     OW10177   5.522   6.114   6.213
 3093SOL    HW110178   5.546   6.036   6.155
 3093SOL    HW210179   5.591   6.124   6.285
 3094SOL     OW10180   2.322   6.494   4.330
 3094SOL    HW110181   2.244   6.490   4.392
 3094SOL    HW210182   2.312   6.422   4.261
 3095SOL     OW10183   2.057   5.611   4.157
 3095SOL    HW110184   2.054   5.511   4.164
 3095SOL    HW210185   2.046   5.651   4.248
 3096SOL     OW10186   0.850   0.362   4.802
 3096SOL    HW110187   0.773   0.366   4.866
 3096SOL    HW210188   0.890   0.453   4.792
 3097SOL     OW10189   0.563   2.237   1.018
 3097SOL    HW110190   0.510   2.162   0.978
 3097SOL    HW210191   0.631   2.269   0.952
 3098SOL     OW10192   2.871   3.579   0.394
 3098SOL    HW110193   2.906   3.643   0.463
 3098SOL    HW210194   2.802   3.519   0.436
 3099SOL     OW10195   0.488   6.247   4.063
 3099SOL    HW110196   0.398   6.262   4.021
 3099SOL    HW210197   0.481   6.260   4.162
 3100SOL     OW10198   6.500   0.127   4.952
 3100SOL    HW110199   6.553   0.118   5.036
 3100SOL    HW210200   6.540   0.068   4.881
 3101SOL     OW10201   5.306   6.153   6.074
 3101SOL    HW110202   5.278   6.247   6.057
 3101SOL    HW210203   5.374   6.151   6.147
 3102SOL     OW10204   0.205   5.147   3.038
 3102SOL    HW110205   0.136   5.149   3.111
 3102SOL    HW210206   0.181   5.213   2.967
 3103SOL     OW10207   3.430   0.715   1.703
 3103SOL    HW110208   3.502   0.785   1.702
 3103SOL    HW210209   3.347   0.753   1.745
 3104SOL     OW10210   5.318   6.767   5.359
 3104SOL    HW110211   5.331   6.826   5.440
 3104SOL    HW210212   5.221   6.747   5.348
 3105SOL     OW10213   6.279   4.927   1.894
 3105SOL    HW110214   6.318   4.835   1.895
 3105SOL    HW210215   6.203   4.931   1.829
 3106SOL     OW10216   5.931   1.693   2.701
 3106SOL    HW110217   5.892   1.602   2.691
 3106SOL    HW210218   5.933   1.719   2.797
 3107SOL     OW10219   4.104   0.996   4.223
 3107SOL    HW110220   4.048   0.927   4.269
 3107SOL    HW210221   4.178   1.025   4.284
 3108SOL     OW10222   1.267   0.352   4.510
 3108SOL    HW110223   1.173   0.321   4.495
 3108SOL    HW210224   1.271   0.451   4.501
 3109SOL     OW10225   5.713   6.419   2.032
 3109SOL    HW110226   5.741   6.348   1.967
 3109SOL    HW210227   5.634   6.386   2.084
 3110SOL     OW10228   1.604   1.723   3.545
 3110SOL    HW110229   1.695   1.755   3.571
 3110SOL    HW210230   1.545   1.720   3.626
 3111SOL     OW10231   6.251   6.022   4.066
 3111SOL    HW110232   6.247   6.067   4.155
 3111SOL    HW210233   6.241   6.089   3.993
 3112SOL     OW10234   5.144   2.721   5.940
 3112SOL    HW110235   5.200   2.668   5.876
 3112SOL    HW210236   5.183   2.812   5.951
 3113SOL     OW10237   1.919   6.356   4.085
 3113SOL    HW110238   1.900   6.326   3.992
 3113SOL    HW210239   1.882   6.289   4.150
 3114SOL     OW10240   4.045   2.011   6.907
 3114SOL    HW110241   4.035   1.920   6.867
 3114SOL    HW210242   3.966   2.067   6.883
 3115SOL     OW10243   4.327   3.443   6.939
 3115SOL    HW110244   4.241   3.428   6.890
 3115SOL    HW210245   4.337   3.541   6.958
 3116SOL     OW10246   0.051   3.345   6.884
 3116SOL    HW110247   7.005   3.337   6.949
 3116SOL    HW210248   0.031   3.289   6.803
 3117SOL     OW10249   4.345   3.738   5.360
 3117SOL    HW110250   4.442   3.712   5.363
 3117SOL    HW210251   4.296   3.694   5.435
 3118SOL     OW10252   0.273   4.450   0.474
 3118SOL    HW110253   0.261   4.458   0.375
 3118SOL    HW210254   0.347   4.510   0.504
 3119SOL     OW10255   2.005   3.441   5.512
 3119SOL    HW110256   1.940   3.517   5.512
 3119SOL    HW210257   2.044   3.430   5.421
 3120SOL     OW10258   2.797   6.810   4.018
 3120SOL    HW110259   2.827   6.824   4.113
 3120SOL    HW210260   2.872   6.770   3.966
 3121SOL     OW10261   0.233   1.703   2.766
 3121SOL    HW110262   0.157   1.765   2.782
 3121SOL    HW210263   0.295   1.744   2.698
 3122SOL     OW10264   2.750   5.929   5.764
 3122SOL    HW110265   2.763   5.958   5.859
 3122SOL    HW210266   2.744   5.829   5.760
 3123SOL     OW10267   3.400   0.807   4.101
 3123SOL    HW110268   3.468   0.842   4.166
 3123SOL    HW210269   3.356   0.726   4.139
 3124SOL     OW10270   3.988   6.493   4.743
 3124SOL    HW110271   3.904   6.544   4.724
 3124SOL    HW210272   4.038   6.477   4.658
 3125SOL     OW10273   6.402   1.914   5.204
 3125SOL    HW110274   6.495   1.890   5.174
 3125SOL    HW210275   6.403   2.003   5.248
 3126SOL     OW10276   4.628   4.838   6.334
 3126SOL    HW110277   4.685   4.876   6.261
 3126SOL    HW210278   4.532   4.856   6.314
 3127SOL     OW10279   0.938   2.295   3.487
 3127SOL    HW110280   0.937   2.260   3.394
 3127SOL    HW210281   0.982   2.228   3.548
 3128SOL     OW10282   1.629   0.168   6.944
 3128SOL    HW110283   1.717   0.156   6.990
 3128SOL    HW210284   1.556   0.163   7.012
 3129SOL     OW10285   0.603   4.358   6.487
 3129SOL    HW110286   0.587   4.283   6.424
 3129SOL    HW210287   0.667   4.329   6.558
 3130SOL     OW10288   1.719   4.427   1.976
 3130SOL    HW110289   1.700   4.524   1.991
 3130SOL    HW210290   1.643   4.386   1.926
 3131SOL     OW10291   0.178   2.473   1.872
 3131SOL    HW110292   0.127   2.393   1.842
 3131SOL    HW210293   0.117   2.552   1.877
 3132SOL     OW10294   4.430   4.610   5.857
 3132SOL    HW110295   4.367   4.588   5.782
 3132SOL    HW210296   4.467   4.526   5.895
 3133SOL     OW10297   2.827   2.329   3.285
 3133SOL    HW110298   2.908   2.340   3.343
 3133SOL    HW210299   2.836   2.245   3.231
 3134SOL     OW10300   4.678   4.839   1.259
 3134SOL    HW110301   4.696   4.741   1.263
 3134SOL    HW210302   4.587   4.856   1.222
 3135SOL     OW10303   5.085   0.882   5.559
 3135SOL    HW110304   5.138   0.799   5.539
 3135SOL    HW210305   5.043   0.915   5.474
 3136SOL     OW10306   5.357   0.972   6.839
 3136SOL    HW110307   5.377   0.892   6.895
 3136SOL    HW210308   5.367   1.055   6.895
 3137SOL     OW10309   6.522   0.875   3.526
 3137SOL    HW110310   6.528   0.819   3.443
 3137SOL    HW210311   6.600   0.937   3.530
 3138SOL     OW10312   6.748   2.362   3.865
 3138SOL    HW110313   6.846   2.370   3.846
 3138SOL    HW210314   6.697   2.420   3.801
 3139SOL     OW10315   4.550   7.019   0.440
 3139SOL    HW110316   4.570   6.935   0.489
 3139SOL    HW210317   4.486   7.001   0.365
 3140SOL     OW10318   5.491   0.031   6.907
 3140SOL    HW110319   5.398   0.068   6.900
 3140SOL    HW210320   5.557   0.106   6.910
 3141SOL     OW10321   0.154   5.900   6.271
 3141SOL    HW110322   0.109   5.956   6.202
 3141SOL    HW210323   0.153   5.804   6.242
 3142SOL     OW10324   4.797   6.379   1.781
 3142SOL    HW110325   4.847   6.463   1.802
 3142SOL    HW210326   4.705   6.401   1.750
 3143SOL     OW10327   0.208   2.537   6.952
 3143SOL    HW110328   0.183   2.462   7.014
 3143SOL    HW210329   0.305   2.532   6.931
 3144SOL     OW10330   3.218   3.732   0.954
 3144SOL    HW110331   3.294   3.734   1.019
 3144SOL    HW210332   3.187   3.638   0.942
 3145SOL     OW10333   1.807   5.078   2.425
 3145SOL    HW110334   1.902   5.046   2.427
 3145SOL    HW210335   1.752   5.024   2.488
 3146SOL     OW10336   1.503   0.123   3.257
 3146SOL    HW110337   1.559   0.203   3.277
 3146SOL    HW210338   1.406   0.149   3.263
 3147SOL     OW10339   3.281   5.048   6.863
 3147SOL    HW110340   3.373   5.071   6.833
 3147SOL    HW210341   3.244   4.974   6.806
 3148SOL     OW10342   4.792   6.046   4.875
 3148SOL    HW110343   4.753   6.034   4.966
 3148SOL    HW210344   4.891   6.059   4.882
 3149SOL     OW10345   3.056   0.469   5.367
 3149SOL    HW110346   2.981   0.402   5.370
 3149SOL    HW210347   3.076   0.500   5.460
 3150SOL     OW10348   6.688   5.842   4.077
 3150SOL    HW110349   6.755   5.865   4.006
 3150SOL    HW210350   6.665   5.745   4.071
 3151SOL     OW10351   3.667   0.877   6.359
 3151SOL    HW110352   3.688   0.848   6.265
 3151SOL    HW210353   3.687   0.802   6.422
 3152SOL     OW10354   1.516   5.452   0.954
 3152SOL    HW110355   1.514   5.354   0.934
 3152SOL    HW210356   1.600   5.492   0.917
 3153SOL     OW10357   6.414   4.683   2.004
 3153SOL    HW110358   6.505   4.689   2.047
 3153SOL    HW210359   6.402   4.592   1.965
 3154SOL     OW10360   6.103   1.503   0.824
 3154SOL    HW110361   6.016   1.497   0.777
 3154SOL    HW210362   6.170   1.443   0.780
 3155SOL     OW10363   6.790   5.401   1.324
 3155SOL    HW110364   6.721   5.337   1.356
 3155SOL    HW210365   6.844   5.433   1.402
 3156SOL     OW10366   3.075   3.146   3.458
 3156SOL    HW110367   3.110   3.161   3.551
 3156SOL    HW210368   2.975   3.140   3.462
 3157SOL     OW10369   1.964   2.829   4.881
 3157SOL    HW110370   2.036   2.879   4.833
 3157SOL    HW210371   2.003   2.781   4.959
 3158SOL     OW10372   4.485   0.381   1.919
 3158SOL    HW110373   4.420   0.315   1.955
 3158SOL    HW210374   4.475   0.468   1.969
 3159SOL     OW10375   5.740   1.258   0.624
 3159SOL    HW110376   5.765   1.355   0.628
 3159SOL    HW210377   5.805   1.205   0.677
 3160SOL     OW10378   6.793   6.009   5.303
 3160SOL    HW110379   6.698   6.036   5.319
 3160SOL    HW210380   6.794   5.919   5.258
 3161SOL     OW10381   1.166   0.928   3.045
 3161SOL    HW110382   1.130   0.886   3.128
 3161SOL    HW210383   1.092   0.941   2.979
 3162SOL     OW10384   1.181   6.127   0.783
 3162SOL    HW110385   1.225   6.045   0.747
 3162SOL    HW210386   1.115   6.161   0.717
 3163SOL     OW10387   3.898   2.431   6.990
 3163SOL    HW110388   3.997   2.447   6.991
 3163SOL    HW210389   3.860   2.460   6.902
 3164SOL     OW10390   4.426   4.729   1.526
 3164SOL    HW110391   4.512   4.686   1.497
 3164SOL    HW210392   4.388   4.678   1.603
 3165SOL     OW10393   1.381   5.986   1.703
 3165SOL    HW110394   1.310   6.035   1.652
 3165SOL    HW210395   1.468   6.034   1.694
 3166SOL     OW10396   4.908   1.553   6.386
 3166SOL    HW110397   4.809   1.540   6.376
 3166SOL    HW210398   4.950   1.465   6.411
 3167SOL     OW10399   0.035   4.432   1.569
 3167SOL    HW110400   6.982   4.374   1.569
 3167SOL    HW210401   0.100   4.397   1.635
 3168SOL     OW10402   5.497   2.875   0.391
 3168SOL    HW110403   5.406   2.891   0.353
 3168SOL    HW210404   5.554   2.956   0.376
 3169SOL     OW10405   1.274   3.072   5.184
 3169SOL    HW110406   1.270   2.972   5.178
 3169SOL    HW210407   1.361   3.100   5.224
 3170SOL     OW10408   4.360   0.724   0.663
 3170SOL    HW110409   4.328   0.651   0.604
 3170SOL    HW210410   4.285   0.790   0.677
 3171SOL     OW10411   0.301   6.348   1.053
 3171SOL    HW110412   0.252   6.269   1.016
 3171SOL    HW210413   0.321   6.412   0.979
 3172SOL     OW10414   0.668   5.423   5.834
 3172SOL    HW110415   0.578   5.383   5.815
 3172SOL    HW210416   0.708   5.456   5.749
 3173SOL     OW10417   2.952   1.822   1.277
 3173SOL    HW110418   3.041   1.785   1.250
 3173SOL    HW210419   2.945   1.822   1.377
 3174SOL     OW10420   2.651   2.847   6.811
 3174SOL    HW110421   2.708   2.875   6.734
 3174SOL    HW210422   2.618   2.929   6.859
 3175SOL     OW10423   0.059   6.461   0.587
 3175SOL    HW110424   0.076   6.382   0.529
 3175SOL    HW210425   0.144   6.510   0.603
 3176SOL     OW10426   1.897   4.744   4.780
 3176SOL    HW110427   1.914   4.781   4.689
 3176SOL    HW210428   1.812   4.781   4.816
 3177SOL     OW10429   4.996   5.112   5.354
 3177SOL    HW110430   4.959   5.091   5.264
 3177SOL    HW210431   5.073   5.052   5.374
 3178SOL     OW10432   6.786   2.927   1.137
 3178SOL    HW110433   6.704   2.974   1.171
 3178SOL    HW210434   6.859   2.935   1.205
 3179SOL     OW10435   2.063   2.738   2.123
 3179SOL    HW110436   2.161   2.721   2.133
 3179SOL    HW210437   2.013   2.652   2.124
 3180SOL     OW10438   4.638   0.398   6.652
 3180SOL    HW110439   4.596   0.437   6.571
 3180SOL    HW210440   4.567   0.354   6.708
 3181SOL     OW10441   0.873   0.636   2.928
 3181SOL    HW110442   0.870   0.710   2.996
 3181SOL    HW210443   0.871   0.676   2.836
 3182SOL     OW10444   1.643   1.031   5.357
 3182SOL    HW110445   1.561   1.015   5.412
 3182SOL    HW210446   1.685   1.117   5.385
 3183SOL     OW10447   4.972   3.696   1.502
 3183SOL    HW110448   5.021   3.618   1.541
 3183SOL    HW210449   4.940   3.673   1.411
 3184SOL     OW10450   2.197   2.460   3.134
 3184SOL    HW110451   2.287   2.467   3.179
 3184SOL    HW210452   2.200   2.507   3.046
 3185SOL     OW10453   5.818   0.985   6.413
 3185SOL    HW110454   5.792   1.058   6.351
 3185SOL    HW210455   5.771   0.997   6.500
 3186SOL     OW10456   3.408   1.191   2.967
 3186SOL    HW110457   3.373   1.100   2.989
 3186SOL    HW210458   3.504   1.196   2.994
 3187SOL     OW10459   4.824   4.259   0.057
 3187SOL    HW110460   4.730   4.273   0.087
 3187SOL    HW210461   4.824   4.209   6.999
 3188SOL     OW10462   3.132   5.832   3.789
 3188SOL    HW110463   3.162   5.848   3.883
 3188SOL    HW210464   3.175   5.748   3.755
 3189SOL     OW10465   2.585   0.835   2.723
 3189SOL    HW110466   2.543   0.910   2.773
 3189SOL    HW210467   2.519   0.798   2.657
 3190SOL     OW10468   0.963   6.569   1.548
 3190SOL    HW110469   0.986   6.612   1.461
 3190SOL    HW210470   0.866   6.546   1.550
 3191SOL     OW10471   3.759   6.858   0.703
 3191SOL    HW110472   3.817   6.939   0.707
 3191SOL    HW210473   3.784   6.803   0.623
 3192SOL     OW10474   0.603   2.375   1.237
 3192SOL    HW110475   0.588   2.325   1.322
 3192SOL    HW210476   0.585   2.315   1.159
 3193SOL     OW10477   4.211   1.920   6.009
 3193SOL    HW110478   4.302   1.960   5.999
 3193SOL    HW210479   4.160   1.971   6.078
 3194SOL     OW10480   1.085   2.879   5.727
 3194SOL    HW110481   1.175   2.864   5.687
 3194SOL    HW210482   1.023   2.806   5.698
 3195SOL     OW10483   1.700   2.496   2.473
 3195SOL    HW110484   1.672   2.401   2.463
 3195SOL    HW210485   1.647   2.539   2.546
 3196SOL     OW10486   6.789   0.563   4.692
 3196SOL    HW110487   6.842   0.637   4.732
 3196SOL    HW210488   6.694   0.593   4.678
 3197SOL     OW10489   1.499   5.597   3.944
 3197SOL    HW110490   1.466   5.512   3.985
 3197SOL    HW210491   1.584   5.625   3.989
 3198SOL     OW10492   6.598   2.059   6.748
 3198SOL    HW110493   6.521   2.122   6.763
 3198SOL    HW210494   6.578   2.000   6.670
 3199SOL     OW10495   4.550   2.550   1.770
 3199SOL    HW110496   4.453   2.574   1.777
 3199SOL    HW210497   4.579   2.506   1.855
 3200SOL     OW10498   0.057   1.396   1.526
 3200SOL    HW110499   0.026   1.464   1.593
 3200SOL    HW210500   0.085   1.313   1.574
 3201SOL     OW10501   5.317   4.831   4.281
 3201SOL    HW110502   5.235   4.783   4.250
 3201SOL    HW210503   5.394   4.806   4.223
 3202SOL     OW10504   1.396   4.614   1.796
 3202SOL    HW110505   1.333   4.689   1.814
 3202SOL    HW210506   1.397   4.594   1.698
 3203SOL     OW10507   5.766   1.078   1.098
 3203SOL    HW110508   5.682   1.027   1.082
 3203SOL    HW210509   5.756   1.171   1.062
 3204SOL     OW10510   5.128   6.158   1.423
 3204SOL    HW110511   5.113   6.227   1.494
 3204SOL    HW210512   5.102   6.068   1.457
 3205SOL     OW10513   0.173   3.981   6.636
 3205SOL    HW110514   0.158   4.058   6.574
 3205SOL    HW210515   0.095   3.971   6.697
 3206SOL     OW10516   6.680   0.052   6.239
 3206SOL    HW110517   6.735   0.106   6.175
 3206SOL    HW210518   6.734   7.004   6.272
 3207SOL     OW10519   0.553   1.049   6.776
 3207SOL    HW110520   0.580   1.110   6.702
 3207SOL    HW210521   0.621   1.054   6.849
 3208SOL     OW10522   4.710   6.147   5.600
 3208SOL    HW110523   4.776   6.079   5.568
 3208SOL    HW210524   4.759   6.226   5.637
 3209SOL     OW10525   2.722   5.840   3.446
 3209SOL    HW110526   2.818   5.868   3.450
 3209SOL    HW210527   2.706   5.765   3.511
 3210SOL     OW10528   0.698   3.261   1.923
 3210SOL    HW110529   0.651   3.174   1.909
 3210SOL    HW210530   0.715   3.304   1.834
 3211SOL     OW10531   2.663   4.180   0.560
 3211SOL    HW110532   2.631   4.136   0.476
 3211SOL    HW210533   2.650   4.119   0.637
 3212SOL     OW10534   3.672   1.264   6.552
 3212SOL    HW110535   3.735   1.331   6.592
 3212SOL    HW210536   3.650   1.195   6.620
 3213SOL     OW10537   6.083   4.861   3.123
 3213SOL    HW110538   6.006   4.920   3.146
 3213SOL    HW210539   6.075   4.775   3.173
 3214SOL     OW10540   4.452   6.187   0.485
 3214SOL    HW110541   4.385   6.247   0.530
 3214SOL    HW210542   4.440   6.192   0.386
 3215SOL     OW10543   6.809   3.451   0.722
 3215SOL    HW110544   6.734   3.518   0.720
 3215SOL    HW210545   6.886   3.486   0.668
 3216SOL     OW10546   5.082   5.692   2.243
 3216SOL    HW110547   5.172   5.692   2.288
 3216SOL    HW210548   5.090   5.648   2.154
 3217SOL     OW10549   1.166   4.808   2.567
 3217SOL    HW110550   1.067   4.818   2.583
 3217SOL    HW210551   1.203   4.743   2.634
 3218SOL     OW10552   4.188   6.192   3.213
 3218SOL    HW110553   4.185   6.145   3.124
 3218SOL    HW210554   4.101   6.179   3.261
 3219SOL     OW10555   0.313   0.501   3.307
 3219SOL    HW110556   0.275   0.419   3.349
 3219SOL    HW210557   0.267   0.582   3.345
 3220SOL     OW10558   6.647   5.114   6.037
 3220SOL    HW110559   6.625   5.180   5.965
 3220SOL    HW210560   6.611   5.148   6.124
 3221SOL     OW10561   3.414   6.025   2.189
 3221SOL    HW110562   3.357   6.071   2.121
 3221SOL    HW210563   3.405   5.926   2.179
 3222SOL     OW10564   4.875   2.039   3.395
 3222SOL    HW110565   4.907   2.081   3.310
 3222SOL    HW210566   4.815   1.962   3.374
 3223SOL     OW10567   1.991   5.343   6.744
 3223SOL    HW110568   2.040   5.258   6.765
 3223SOL    HW210569   2.033   5.419   6.794
 3224SOL     OW10570   4.552   4.609   6.132
 3224SOL    HW110571   4.475   4.580   6.075
 3224SOL    HW210572   4.576   4.704   6.109
 3225SOL     OW10573   4.168   2.238   5.905
 3225SOL    HW110574   4.226   2.174   5.856
 3225SOL    HW210575   4.166   2.215   6.002
 3226SOL     OW10576   2.418   1.611   4.712
 3226SOL    HW110577   2.465   1.558   4.783
 3226SOL    HW210578   2.343   1.663   4.753
 3227SOL     OW10579   2.925   2.153   6.662
 3227SOL    HW110580   2.856   2.082   6.651
 3227SOL    HW210581   2.929   2.181   6.758
 3228SOL     OW10582   5.260   3.495   4.238
 3228SOL    HW110583   5.320   3.420   4.211
 3228SOL    HW210584   5.186   3.460   4.295
 3229SOL     OW10585   3.081   1.367   5.730
 3229SOL    HW110586   3.012   1.374   5.657
 3229SOL    HW210587   3.172   1.381   5.691
 3230SOL     OW10588   0.667   2.541   3.878
 3230SOL    HW110589   0.607   2.602   3.827
 3230SOL    HW210590   0.718   2.483   3.814
 3231SOL     OW10591   4.030   5.621   2.146
 3231SOL    HW110592   4.040   5.613   2.047
 3231SOL    HW210593   4.096   5.687   2.182
 3232SOL     OW10594   4.614   5.450   4.338
 3232SOL    HW110595   4.656   5.454   4.428
 3232SOL    HW210596   4.519   5.419   4.347
 3233SOL     OW10597   1.632   3.878   1.124
 3233SOL    HW110598   1.582   3.926   1.196
 3233SOL    HW210599   1.607   3.917   1.035
 3234SOL     OW10600   0.169   2.251   0.837
 3234SOL    HW110601   0.100   2.320   0.818
 3234SOL    HW210602   0.124   2.162   0.847
 3235SOL     OW10603   5.537   6.112   2.053
 3235SOL    HW110604   5.529   6.200   2.100
 3235SOL    HW210605   5.625   6.108   2.005
 3236SOL     OW10606   1.695   3.238   1.722
 3236SOL    HW110607   1.635   3.311   1.756
 3236SOL    HW210608   1.753   3.274   1.648
 3237SOL     OW10609   5.203   0.475   3.467
 3237SOL    HW110610   5.207   0.390   3.521
 3237SOL    HW210611   5.153   0.544   3.518
 3238SOL     OW10612   0.282   5.625   6.720
 3238SOL    HW110613   0.275   5.614   6.621
 3238SOL    HW210614   0.212   5.689   6.752
 3239SOL     OW10615   6.077   1.454   1.077
 3239SOL    HW110616   6.097   1.473   0.981
 3239SOL    HW210617   6.012   1.522   1.112
 3240SOL     OW10618   0.945   0.011   4.959
 3240SOL    HW110619   0.968   6.976   5.031
 3240SOL    HW210620   0.863   7.009   4.911
 3241SOL     OW10621   4.996   1.387   4.249
 3241SOL    HW110622   4.971   1.328   4.326
 3241SOL    HW210623   4.942   1.471   4.253
 3242SOL     OW10624   3.516   4.727   0.508
 3242SOL    HW110625   3.490   4.750   0.602
 3242SOL    HW210626   3.588   4.658   0.510
 3243SOL     OW10627   5.543   5.097   0.263
 3243SOL    HW110628   5.599   5.063   0.188
 3243SOL    HW210629   5.541   5.197   0.262
 3244SOL     OW10630   5.087   5.466   6.383
 3244SOL    HW110631   5.133   5.533   6.440
 3244SOL    HW210632   5.053   5.391   6.440
 3245SOL     OW10633   4.717   2.693   5.920
 3245SOL    HW110634   4.622   2.724   5.922
 3245SOL    HW210635   4.747   2.684   5.825
 3246SOL     OW10636   6.288   0.690   3.124
 3246SOL    HW110637   6.201   0.739   3.114
 3246SOL    HW210638   6.271   0.592   3.129
 3247SOL     OW10639   6.904   5.255   2.493
 3247SOL    HW110640   6.884   5.266   2.395
 3247SOL    HW210641   6.963   5.176   2.507
 3248SOL     OW10642   5.675   3.594   2.021
 3248SOL    HW110643   5.741   3.538   1.971
 3248SOL    HW210644   5.582   3.571   1.990
 3249SOL     OW10645   4.127   4.315   5.945
 3249SOL    HW110646   4.128   4.227   5.898
 3249SOL    HW210647   4.046   4.367   5.918
 3250SOL     OW10648   5.459   0.019   3.228
 3250SOL    HW110649   5.360   0.008   3.218
 3250SOL    HW210650   5.506   6.986   3.166
 3251SOL     OW10651   4.081   1.208   2.713
 3251SOL    HW110652   4.075   1.110   2.696
 3251SOL    HW210653   4.001   1.238   2.766
 3252SOL     OW10654   3.574   1.180   2.201
 3252SOL    HW110655   3.544   1.095   2.158
 3252SOL    HW210656   3.577   1.253   2.133
 3253SOL     OW10657   4.822   3.011   2.665
 3253SOL    HW110658   4.744   2.954   2.640
 3253SOL    HW210659   4.846   2.995   2.761
 3254SOL     OW10660   3.704   5.079   4.579
 3254SOL    HW110661   3.699   5.100   4.481
 3254SOL    HW210662   3.755   5.151   4.626
 3255SOL     OW10663   4.478   5.282   1.034
 3255SOL    HW110664   4.458   5.267   1.131
 3255SOL    HW210665   4.576   5.295   1.022
 3256SOL     OW10666   5.564   0.307   6.230
 3256SOL    HW110667   5.597   0.368   6.158
 3256SOL    HW210668   5.579   0.349   6.319
 3257SOL     OW10669   1.240   2.218   1.173
 3257SOL    HW110670   1.198   2.146   1.229
 3257SOL    HW210671   1.178   2.297   1.169
 3258SOL     OW10672   4.208   6.300   2.027
 3258SOL    HW110673   4.212   6.203   2.050
 3258SOL    HW210674   4.300   6.338   2.027
 3259SOL     OW10675   4.324   5.867   4.386
 3259SOL    HW110676   4.347   5.885   4.291
 3259SOL    HW210677   4.407   5.858   4.440
 3260SOL     OW10678   2.026   2.464   0.981
 3260SOL    HW110679   2.048   2.386   0.923
 3260SOL    HW210680   2.094   2.473   1.053
 3261SOL     OW10681   4.002   6.178   0.568
 3261SOL    HW110682   4.017   6.136   0.479
 3261SOL    HW210683   3.905   6.172   0.592
 3262SOL     OW10684   3.777   1.571   2.941
 3262SOL    HW110685   3.697   1.579   3.000
 3262SOL    HW210686   3.768   1.633   2.863
 3263SOL     OW10687   4.938   0.137   3.386
 3263SOL    HW110688   5.004   0.196   3.340
 3263SOL    HW210689   4.932   0.050   3.337
 3264SOL     OW10690   0.524   5.009   6.857
 3264SOL    HW110691   0.497   5.089   6.803
 3264SOL    HW210692   0.522   5.033   6.955
 3265SOL     OW10693   4.117   2.066   6.248
 3265SOL    HW110694   4.033   2.117   6.229
 3265SOL    HW210695   4.119   2.040   6.345
 3266SOL     OW10696   0.208   2.386   0.436
 3266SOL    HW110697   0.135   2.405   0.501
 3266SOL    HW210698   0.257   2.304   0.464
 3267SOL     OW10699   3.797   2.418   1.120
 3267SOL    HW110700   3.763   2.336   1.073
 3267SOL    HW210701   3.730   2.447   1.189
 3268SOL     OW10702   1.216   3.787   6.440
 3268SOL    HW110703   1.296   3.765   6.496
 3268SOL    HW210704   1.234   3.870   6.388
 3269SOL     OW10705   4.504   5.200   1.799
 3269SOL    HW110706   4.476   5.159   1.886
 3269SOL    HW210707   4.532   5.129   1.735
 3270SOL     OW10708   0.811   5.858   4.617
 3270SOL    HW110709   0.898   5.893   4.584
 3270SOL    HW210710   0.738   5.884   4.554
 3271SOL     OW10711   5.263   2.667   3.075
 3271SOL    HW110712   5.316   2.586   3.101
 3271SOL    HW210713   5.246   2.665   2.976
 3272SOL     OW10714   3.626   5.509   0.564
 3272SOL    HW110715   3.675   5.425   0.588
 3272SOL    HW210716   3.600   5.557   0.647
 3273SOL     OW10717   0.695   6.512   1.534
 3273SOL    HW110718   0.683   6.428   1.482
 3273SOL    HW210719   0.664   6.590   1.480
 3274SOL     OW10720   4.198   2.405   6.937
 3274SOL    HW110721   4.236   2.486   6.894
 3274SOL    HW210722   4.222   2.324   6.883
 3275SOL     OW10723   1.370   0.148   6.768
 3275SOL    HW110724   1.295   0.123   6.829
 3275SOL    HW210725   1.455   0.150   6.821
 3276SOL     OW10726   3.450   4.781   6.734
 3276SOL    HW110727   3.367   4.725   6.738
 3276SOL    HW210728   3.465   4.811   6.639
 3277SOL     OW10729   5.894   0.356   6.451
 3277SOL    HW110730   5.946   0.353   6.366
 3277SOL    HW210731   5.810   0.408   6.438
 3278SOL     OW10732   6.660   1.197   5.273
 3278SOL    HW110733   6.731   1.188   5.344
 3278SOL    HW210734   6.571   1.212   5.316
 3279SOL     OW10735   0.340   0.600   1.037
 3279SOL    HW110736   0.407   0.629   0.968
 3279SOL    HW210737   0.260   0.561   0.992
 3280SOL     OW10738   2.197   5.176   6.126
 3280SOL    HW110739   2.238   5.139   6.043
 3280SOL    HW210740   2.187   5.103   6.194
 3281SOL     OW10741   1.995   5.635   1.168
 3281SOL    HW110742   1.907   5.662   1.208
 3281SOL    HW210743   2.008   5.537   1.181
 3282SOL     OW10744   2.537   5.201   4.203
 3282SOL    HW110745   2.479   5.219   4.124
 3282SOL    HW210746   2.632   5.191   4.174
 3283SOL     OW10747   2.932   1.833   2.330
 3283SOL    HW110748   2.932   1.897   2.406
 3283SOL    HW210749   2.865   1.761   2.347
 3284SOL     OW10750   6.413   6.840   6.980
 3284SOL    HW110751   6.390   6.933   7.007
 3284SOL    HW210752   6.509   6.836   6.951
 3285SOL     OW10753   7.016   2.755   3.248
 3285SOL    HW110754   6.949   2.684   3.267
 3285SOL    HW210755   0.068   2.715   3.206
 3286SOL     OW10756   4.028   3.145   3.598
 3286SOL    HW110757   4.026   3.146   3.698
 3286SOL    HW210758   4.122   3.132   3.567
 3287SOL     OW10759   0.987   5.795   0.243
 3287SOL    HW110760   1.037   5.849   0.175
 3287SOL    HW210761   1.050   5.769   0.317
 3288SOL     OW10762   0.479   5.813   7.009
 3288SOL    HW110763   0.541   5.778   6.939
 3288SOL    HW210764   0.398   5.754   7.014
 3289SOL     OW10765   1.518   6.493   5.482
 3289SOL    HW110766   1.608   6.493   5.526
 3289SOL    HW210767   1.447   6.499   5.552
 3290SOL     OW10768   0.665   6.860   1.827
 3290SOL    HW110769   0.571   6.837   1.853
 3290SOL    HW210770   0.726   6.786   1.855
 3291SOL     OW10771   1.144   6.584   6.728
 3291SOL    HW110772   1.102   6.564   6.816
 3291SOL    HW210773   1.210   6.659   6.738
 3292SOL     OW10774   0.690   1.356   6.914
 3292SOL    HW110775   0.785   1.356   6.945
 3292SOL    HW210776   0.629   1.370   6.992
 3293SOL     OW10777   6.745   2.263   3.226
 3293SOL    HW110778   6.796   2.213   3.156
 3293SOL    HW210779   6.674   2.204   3.264
 3294SOL     OW10780   0.046   0.474   6.448
 3294SOL    HW110781   0.061   0.443   6.542
 3294SOL    HW210782   0.013   0.398   6.392
 3295SOL     OW10783   2.452   2.019   0.993
 3295SOL    HW110784   2.469   1.991   1.088
 3295SOL    HW210785   2.500   2.104   0.974
 3296SOL     OW10786   2.375   6.598   1.145
 3296SOL    HW110787   2.328   6.626   1.060
 3296SOL    HW210788   2.308   6.566   1.211
 3297SOL     OW10789   3.014   1.658   4.809
 3297SOL    HW110790   2.939   1.706   4.763
 3297SOL    HW210791   2.987   1.563   4.825
 3298SOL     OW10792   6.360   3.378   2.898
 3298SOL    HW110793   6.402   3.407   2.812
 3298SOL    HW210794   6.335   3.458   2.952
 3299SOL     OW10795   2.114   7.018   3.682
 3299SOL    HW110796   2.094   0.039   3.766
 3299SOL    HW210797   2.110   6.920   3.700
 3300SOL     OW10798   6.748   0.453   6.096
 3300SOL    HW110799   6.715   0.533   6.147
 3300SOL    HW210800   6.766   0.378   6.159
 3301SOL     OW10801   1.644   3.790   3.567
 3301SOL    HW110802   1.581   3.734   3.621
 3301SOL    HW210803   1.731   3.743   3.557
 3302SOL     OW10804   1.139   4.990   4.519
 3302SOL    HW110805   1.084   5.055   4.572
 3302SOL    HW210806   1.200   4.940   4.580
 3303SOL     OW10807   3.080   3.158   2.054
 3303SOL    HW110808   2.997   3.214   2.062
 3303SOL    HW210809   3.082   3.092   2.130
 3304SOL     OW10810   1.222   4.967   3.398
 3304SOL    HW110811   1.307   4.978   3.349
 3304SOL    HW210812   1.167   4.895   3.355
 3305SOL     OW10813   2.593   1.605   2.535
 3305SOL    HW110814   2.658   1.531   2.551
 3305SOL    HW210815   2.546   1.590   2.449
 3306SOL     OW10816   2.063   4.187   3.100
 3306SOL    HW110817   1.974   4.233   3.109
 3306SOL    HW210818   2.095   4.194   3.005
 3307SOL     OW10819   6.897   6.036   6.646
 3307SOL    HW110820   6.846   5.959   6.683
 3307SOL    HW210821   6.955   6.005   6.571
 3308SOL     OW10822   4.539   5.824   0.164
 3308SOL    HW110823   4.478   5.839   0.087
 3308SOL    HW210824   4.588   5.737   0.152
 3309SOL     OW10825   0.534   5.277   2.851
 3309SOL    HW110826   0.604   5.213   2.819
 3309SOL    HW210827   0.528   5.273   2.951
 3310SOL     OW10828   0.139   3.890   2.886
 3310SOL    HW110829   0.045   3.863   2.865
 3310SOL    HW210830   0.144   3.990   2.896
 3311SOL     OW10831   2.373   5.083   0.572
 3311SOL    HW110832   2.295   5.093   0.511
 3311SOL    HW210833   2.439   5.020   0.531
 3312SOL     OW10834   2.814   4.229   6.246
 3312SOL    HW110835   2.755   4.309   6.256
 3312SOL    HW210836   2.808   4.172   6.328
 3313SOL     OW10837   0.991   5.195   3.380
 3313SOL    HW110838   1.059   5.234   3.317
 3313SOL    HW210839   0.971   5.101   3.354
 3314SOL     OW10840   1.723   2.528   4.617
 3314SOL    HW110841   1.733   2.626   4.634
 3314SOL    HW210842   1.810   2.483   4.635
 3315SOL     OW10843   7.018   2.874   4.168
 3315SOL    HW110844   0.076   2.895   4.123
 3315SOL    HW210845   7.016   2.918   4.258
 3316SOL     OW10846   3.739   1.675   5.790
 3316SOL    HW110847   3.671   1.748   5.794
 3316SOL    HW210848   3.736   1.622   5.874
 3317SOL     OW10849   4.674   2.840   1.726
 3317SOL    HW110850   4.644   2.913   1.788
 3317SOL    HW210851   4.632   2.754   1.754
 3318SOL     OW10852   2.546   6.815   6.442
 3318SOL    HW110853   2.529   6.900   6.493
 3318SOL    HW210854   2.640   6.785   6.458
 3319SOL     OW10855   6.858   6.540   3.597
 3319SOL    HW110856   6.774   6.577   3.557
 3319SOL    HW210857   6.930   6.609   3.589
 3320SOL     OW10858   5.597   1.329   5.575
 3320SOL    HW110859   5.689   1.322   5.613
 3320SOL    HW210860   5.530   1.303   5.644
 3321SOL     OW10861   2.961   3.170   2.440
 3321SOL    HW110862   2.875   3.128   2.409
 3321SOL    HW210863   3.038   3.124   2.398
 3322SOL     OW10864   4.563   2.246   1.622
 3322SOL    HW110865   4.622   2.213   1.696
 3322SOL    HW210866   4.605   2.326   1.579
 3323SOL     OW10867   2.392   4.050   0.149
 3323SOL    HW110868   2.385   3.951   0.138
 3323SOL    HW210869   2.305   4.093   0.125
 3324SOL     OW10870   1.397   4.143   0.022
 3324SOL    HW110871   1.465   4.215   0.035
 3324SOL    HW210872   1.312   4.169   0.067
 3325SOL     OW10873   2.561   3.199   0.264
 3325SOL    HW110874   2.479   3.212   0.320
 3325SOL    HW210875   2.591   3.104   0.271
 3326SOL     OW10876   5.513   1.985   1.472
 3326SOL    HW110877   5.580   1.917   1.442
 3326SOL    HW210878   5.560   2.060   1.519
 3327SOL     OW10879   2.308   6.229   1.097
 3327SOL    HW110880   2.311   6.301   1.167
 3327SOL    HW210881   2.216   6.223   1.059
 3328SOL     OW10882   4.811   1.741   1.985
 3328SOL    HW110883   4.744   1.802   2.028
 3328SOL    HW210884   4.765   1.686   1.916
 3329SOL     OW10885   4.544   0.317   5.024
 3329SOL    HW110886   4.468   0.255   5.043
 3329SOL    HW210887   4.512   0.412   5.030
 3330SOL     OW10888   5.966   6.894   2.317
 3330SOL    HW110889   5.955   6.824   2.387
 3330SOL    HW210890   5.881   6.905   2.267
 3331SOL     OW10891   1.386   3.497   2.972
 3331SOL    HW110892   1.450   3.438   3.020
 3331SOL    HW210893   1.425   3.588   2.962
 3332SOL     OW10894   5.872   4.142   0.248
 3332SOL    HW110895   5.931   4.222   0.240
 3332SOL    HW210896   5.928   4.062   0.271
 3333SOL     OW10897   3.195   3.851   6.736
 3333SOL    HW110898   3.140   3.857   6.818
 3333SOL    HW210899   3.255   3.771   6.742
 3334SOL     OW10900   1.591   2.953   2.003
 3334SOL    HW110901   1.669   3.014   1.985
 3334SOL    HW210902   1.570   2.900   1.921
 3335SOL     OW10903   4.077   5.327   5.341
 3335SOL    HW110904   4.110   5.380   5.419
 3335SOL    HW210905   4.153   5.276   5.301
 3336SOL     OW10906   2.245   0.195   4.392
 3336SOL    HW110907   2.280   0.107   4.422
 3336SOL    HW210908   2.307   0.236   4.326
 3337SOL     OW10909   3.427   3.193   2.225
 3337SOL    HW110910   3.413   3.225   2.132
 3337SOL    HW210911   3.525   3.176   2.239
 3338SOL     OW10912   0.647   2.396   1.989
 3338SOL    HW110913   0.711   2.377   1.915
 3338SOL    HW210914   0.557   2.361   1.965
 3339SOL     OW10915   1.962   7.021   5.764
 3339SOL    HW110916   1.998   0.085   5.753
 3339SOL    HW210917   1.872   7.025   5.807
 3340SOL     OW10918   4.886   0.559   4.231
 3340SOL    HW110919   4.955   0.488   4.248
 3340SOL    HW210920   4.931   0.644   4.205
 3341SOL     OW10921   2.439   4.380   3.164
 3341SOL    HW110922   2.447   4.283   3.140
 3341SOL    HW210923   2.362   4.420   3.114
 3342SOL     OW10924   6.744   0.725   3.060
 3342SOL    HW110925   6.726   0.703   2.965
 3342SOL    HW210926   6.712   0.818   3.079
 3343SOL     OW10927   4.962   5.515   6.160
 3343SOL    HW110928   4.995   5.499   6.253
 3343SOL    HW210929   4.864   5.531   6.161
 3344SOL     OW10930   6.350   3.112   3.046
 3344SOL    HW110931   6.412   3.056   2.992
 3344SOL    HW210932   6.348   3.205   3.009
 3345SOL     OW10933   0.702   3.790   6.575
 3345SOL    HW110934   0.619   3.845   6.583
 3345SOL    HW210935   0.679   3.697   6.546
 3346SOL     OW10936   2.170   0.728   7.021
 3346SOL    HW110937   2.241   0.728   0.062
 3346SOL    HW210938   2.091   0.675   0.024
 3347SOL     OW10939   1.421   2.254   5.950
 3347SOL    HW110940   1.394   2.350   5.949
 3347SOL    HW210941   1.429   2.221   5.856
 3348SOL     OW10942   3.879   3.940   5.723
 3348SOL    HW110943   3.826   3.905   5.801
 3348SOL    HW210944   3.874   4.040   5.722
 3349SOL     OW10945   1.963   4.448   3.638
 3349SOL    HW110946   2.026   4.446   3.715
 3349SOL    HW210947   1.947   4.354   3.606
 3350SOL     OW10948   1.096   4.078   5.673
 3350SOL    HW110949   1.157   4.056   5.596
 3350SOL    HW210950   1.048   3.995   5.702
 3351SOL     OW10951   5.646   0.999   1.583
 3351SOL    HW110952   5.599   1.058   1.518
 3351SOL    HW210953   5.736   1.037   1.605
 3352SOL     OW10954   5.306   2.935   0.618
 3352SOL    HW110955   5.302   3.020   0.565
 3352SOL    HW210956   5.294   2.857   0.557
 3353SOL     OW10957   2.187   6.976   0.861
 3353SOL    HW110958   2.142   6.981   0.772
 3353SOL    HW210959   2.208   6.881   0.882
 3354SOL     OW10960   4.131   3.222   5.172
 3354SOL    HW110961   4.045   3.184   5.138
 3354SOL    HW210962   4.151   3.186   5.263
 3355SOL     OW10963   2.453   1.581   5.747
 3355SOL    HW110964   2.389   1.563   5.673
 3355SOL    HW210965   2.425   1.528   5.828
 3356SOL     OW10966   0.816   6.835   6.321
 3356SOL    HW110967   0.902   6.787   6.340
 3356SOL    HW210968   0.806   6.912   6.384
 3357SOL     OW10969   3.555   3.936   1.362
 3357SOL    HW110970   3.581   4.023   1.405
 3357SOL    HW210971   3.584   3.860   1.421
 3358SOL     OW10972   5.813   1.155   3.418
 3358SOL    HW110973   5.751   1.231   3.398
 3358SOL    HW210974   5.847   1.165   3.511
 3359SOL     OW10975   0.286   5.037   3.876
 3359SOL    HW110976   0.328   5.126   3.893
 3359SOL    HW210977   0.331   4.967   3.932
 3360SOL     OW10978   0.970   2.128   6.522
 3360SOL    HW110979   0.953   2.099   6.616
 3360SOL    HW210980   1.068   2.129   6.504
 3361SOL     OW10981   0.724   0.383   4.552
 3361SOL    HW110982   0.631   0.360   4.582
 3361SOL    HW210983   0.789   0.365   4.627
 3362SOL     OW10984   4.141   1.327   3.599
 3362SOL    HW110985   4.222   1.280   3.635
 3362SOL    HW210986   4.096   1.376   3.674
 3363SOL     OW10987   0.002   3.223   2.010
 3363SOL    HW110988   6.937   3.202   1.981
 3363SOL    HW210989   0.000   3.265   2.100
 3364SOL     OW10990   1.289   4.528   2.110
 3364SOL    HW110991   1.197   4.530   2.071
 3364SOL    HW210992   1.335   4.615   2.092
 3365SOL     OW10993   1.982   2.795   4.353
 3365SOL    HW110994   2.011   2.700   4.366
 3365SOL    HW210995   2.059   2.851   4.325
 3366SOL     OW10996   6.431   3.959   3.702
 3366SOL    HW110997   6.474   4.001   3.781
 3366SOL    HW210998   6.462   3.864   3.694
 3367SOL     OW10999   3.307   3.585   3.869
 3367SOL    HW111000   3.223   3.547   3.830
 3367SOL    HW211001   3.383   3.521   3.853
 3368SOL     OW11002   0.941   6.054   6.608
 3368SOL    HW111003   1.026   6.070   6.659
 3368SOL    HW211004   0.917   5.957   6.613
 3369SOL     OW11005   4.657   1.867   1.628
 3369SOL    HW111006   4.581   1.900   1.683
 3369SOL    HW211007   4.726   1.939   1.619
 3370SOL     OW11008   5.897   6.789   1.997
 3370SOL    HW111009   5.974   6.846   2.025
 3370SOL    HW211010   5.921   6.740   1.913
 3371SOL     OW11011   2.152   3.729   1.850
 3371SOL    HW111012   2.150   3.712   1.752
 3371SOL    HW211013   2.190   3.650   1.897
 3372SOL     OW11014   6.543   2.428   0.403
 3372SOL    HW111015   6.512   2.408   0.496
 3372SOL    HW211016   6.631   2.383   0.387
 3373SOL     OW11017   0.794   1.923   2.427
 3373SOL    HW111018   0.724   1.929   2.499
 3373SOL    HW211019   0.798   2.010   2.378
 3374SOL     OW11020   0.805   0.130   3.643
 3374SOL    HW111021   0.874   0.159   3.577
 3374SOL    HW211022   0.844   0.060   3.704
 3375SOL     OW11023   6.980   4.497   0.444
 3375SOL    HW111024   7.008   4.409   0.482
 3375SOL    HW211025   0.002   4.570   0.489
 3376SOL     OW11026   2.935   3.643   5.180
 3376SOL    HW111027   2.919   3.670   5.085
 3376SOL    HW211028   2.896   3.552   5.196
 3377SOL     OW11029   6.742   5.367   4.113
 3377SOL    HW111030   6.727   5.462   4.139
 3377SOL    HW211031   6.800   5.322   4.180
 3378SOL     OW11032   0.322   0.108   6.733
 3378SOL    HW111033   0.271   0.050   6.797
 3378SOL    HW211034   0.311   0.073   6.640
 3379SOL     OW11035   0.900   2.820   4.657
 3379SOL    HW111036   0.882   2.742   4.596
 3379SOL    HW211037   0.995   2.816   4.689
 3380SOL     OW11038   4.100   5.027   5.530
 3380SOL    HW111039   4.103   4.933   5.496
 3380SOL    HW211040   4.192   5.057   5.555
 3381SOL     OW11041   0.467   2.603   1.709
 3381SOL    HW111042   0.553   2.569   1.670
 3381SOL    HW211043   0.396   2.602   1.639
 3382SOL     OW11044   0.202   3.135   0.813
 3382SOL    HW111045   0.193   3.053   0.757
 3382SOL    HW211046   0.113   3.182   0.817
 3383SOL     OW11047   3.360   4.963   0.099
 3383SOL    HW111048   3.332   5.026   0.027
 3383SOL    HW211049   3.328   4.997   0.188
 3384SOL     OW11050   2.794   4.624   1.160
 3384SOL    HW111051   2.821   4.533   1.190
 3384SOL    HW211052   2.823   4.691   1.229
 3385SOL     OW11053   6.852   3.138   3.690
 3385SOL    HW111054   6.913   3.150   3.768
 3385SOL    HW211055   6.773   3.200   3.699
 3386SOL     OW11056   6.456   4.958   0.235
 3386SOL    HW111057   6.479   4.864   0.263
 3386SOL    HW211058   6.403   5.002   0.306
 3387SOL     OW11059   5.004   0.853   2.986
 3387SOL    HW111060   4.912   0.876   3.018
 3387SOL    HW211061   5.054   0.808   3.060
 3388SOL     OW11062   5.000   4.776   1.247
 3388SOL    HW111063   4.956   4.701   1.199
 3388SOL    HW211064   4.977   4.772   1.344
 3389SOL     OW11065   6.486   5.825   6.807
 3389SOL    HW111066   6.468   5.884   6.886
 3389SOL    HW211067   6.402   5.814   6.754
 3390SOL     OW11068   4.121   6.217   6.205
 3390SOL    HW111069   4.048   6.226   6.272
 3390SOL    HW211070   4.089   6.250   6.116
 3391SOL     OW11071   5.367   2.179   3.581
 3391SOL    HW111072   5.333   2.237   3.507
 3391SOL    HW211073   5.458   2.144   3.558
 3392SOL     OW11074   3.100   6.881   4.328
 3392SOL    HW111075   3.006   6.896   4.297
 3392SOL    HW211076   3.130   6.790   4.300
 3393SOL     OW11077   5.185   6.946   0.026
 3393SOL    HW111078   5.281   6.941   0.054
 3393SOL    HW211079   5.166   6.873   6.989
 3394SOL     OW11080   3.560   5.112   0.951
 3394SOL    HW111081   3.461   5.106   0.946
 3394SOL    HW211082   3.590   5.202   0.920
 3395SOL     OW11083   4.776   1.560   3.496
 3395SOL    HW111084   4.772   1.648   3.449
 3395SOL    HW211085   4.697   1.504   3.470
 3396SOL     OW11086   5.104   0.697   3.623
 3396SOL    HW111087   5.180   0.679   3.686
 3396SOL    HW211088   5.029   0.635   3.643
 3397SOL     OW11089   2.512   5.833   5.973
 3397SOL    HW111090   2.550   5.893   6.044
 3397SOL    HW211091   2.533   5.738   5.996
 3398SOL     OW11092   0.534   0.937   5.750
 3398SOL    HW111093   0.529   0.935   5.850
 3398SOL    HW211094   0.484   1.017   5.716
 3399SOL     OW11095   6.782   5.158   3.194
 3399SOL    HW111096   6.781   5.089   3.267
 3399SOL    HW211097   6.847   5.129   3.123
 3400SOL     OW11098   6.244   3.695   6.315
 3400SOL    HW111099   6.333   3.707   6.269
 3400SOL    HW211100   6.212   3.784   6.347
 3401SOL     OW11101   6.489   3.760   6.211
 3401SOL    HW111102   6.533   3.849   6.198
 3401SOL    HW211103   6.474   3.717   6.122
 3402SOL     OW11104   6.885   5.705   0.880
 3402SOL    HW111105   6.893   5.606   0.893
 3402SOL    HW211106   6.871   5.749   0.969
 3403SOL     OW11107   4.702   5.522   6.331
 3403SOL    HW111108   4.651   5.463   6.394
 3403SOL    HW211109   4.638   5.571   6.272
 3404SOL     OW11110   5.226   2.914   6.356
 3404SOL    HW111111   5.221   2.964   6.442
 3404SOL    HW211112   5.162   2.953   6.290
 3405SOL     OW11113   5.750   5.483   5.933
 3405SOL    HW111114   5.825   5.532   5.889
 3405SOL    HW211115   5.760   5.489   6.033
 3406SOL     OW11116   2.145   3.769   2.575
 3406SOL    HW111117   2.154   3.821   2.490
 3406SOL    HW211118   2.171   3.827   2.652
 3407SOL     OW11119   2.443   4.442   0.890
 3407SOL    HW111120   2.494   4.507   0.946
 3407SOL    HW211121   2.349   4.436   0.922
 3408SOL     OW11122   4.791   2.574   4.392
 3408SOL    HW111123   4.726   2.510   4.352
 3408SOL    HW211124   4.867   2.589   4.329
 3409SOL     OW11125   3.391   6.438   0.458
 3409SOL    HW111126   3.409   6.530   0.422
 3409SOL    HW211127   3.317   6.396   0.406
 3410SOL     OW11128   5.628   6.461   2.789
 3410SOL    HW111129   5.665   6.495   2.702
 3410SOL    HW211130   5.701   6.457   2.857
 3411SOL     OW11131   0.467   2.741   0.444
 3411SOL    HW111132   0.444   2.801   0.520
 3411SOL    HW211133   0.383   2.696   0.412
 3412SOL     OW11134   5.345   3.917   1.306
 3412SOL    HW111135   5.374   3.883   1.395
 3412SOL    HW211136   5.268   3.863   1.272
 3413SOL     OW11137   6.302   1.882   6.762
 3413SOL    HW111138   6.309   1.920   6.855
 3413SOL    HW211139   6.248   1.943   6.705
 3414SOL     OW11140   3.549   2.153   6.063
 3414SOL    HW111141   3.597   2.133   6.149
 3414SOL    HW211142   3.470   2.092   6.054
 3415SOL     OW11143   1.769   1.874   4.162
 3415SOL    HW111144   1.819   1.935   4.224
 3415SOL    HW211145   1.680   1.851   4.203
 3416SOL     OW11146   6.407   0.045   0.106
 3416SOL    HW111147   6.345   7.026   0.169
 3416SOL    HW211148   6.389   0.143   0.109
 3417SOL     OW11149   0.189   6.817   2.502
 3417SOL    HW111150   0.216   6.744   2.565
 3417SOL    HW211151   0.100   6.853   2.529
 3418SOL     OW11152   3.728   5.719   3.226
 3418SOL    HW111153   3.713   5.774   3.308
 3418SOL    HW211154   3.776   5.635   3.250
 3419SOL     OW11155   4.171   5.649   6.040
 3419SOL    HW111156   4.105   5.694   6.101
 3419SOL    HW211157   4.133   5.562   6.009
 3420SOL     OW11158   4.826   2.888   3.804
 3420SOL    HW111159   4.893   2.920   3.736
 3420SOL    HW211160   4.854   2.919   3.895
 3421SOL     OW11161   5.345   1.506   3.210
 3421SOL    HW111162   5.302   1.425   3.250
 3421SOL    HW211163   5.306   1.523   3.119
 3422SOL     OW11164   2.242   0.359   0.060
 3422SOL    HW111165   2.212   0.281   0.005
 3422SOL    HW211166   2.162   0.406   0.098
 3423SOL     OW11167   1.034   4.261   5.896
 3423SOL    HW111168   1.101   4.220   5.835
 3423SOL    HW211169   0.970   4.317   5.843
 3424SOL     OW11170   4.149   7.006   1.377
 3424SOL    HW111171   4.168   0.004   1.282
 3424SOL    HW211172   4.057   0.008   1.402
 3425SOL     OW11173   4.598   4.951   1.729
 3425SOL    HW111174   4.528   4.932   1.661
 3425SOL    HW211175   4.618   4.868   1.780
 3426SOL     OW11176   5.216   3.383   0.762
 3426SOL    HW111177   5.250   3.477   0.770
 3426SOL    HW211178   5.196   3.362   0.666
 3427SOL     OW11179   0.769   2.166   2.313
 3427SOL    HW111180   0.698   2.236   2.311
 3427SOL    HW211181   0.815   2.163   2.224
 3428SOL     OW11182   4.973   4.620   5.871
 3428SOL    HW111183   4.933   4.617   5.780
 3428SOL    HW211184   5.062   4.575   5.870
 3429SOL     OW11185   0.696   1.118   1.122
 3429SOL    HW111186   0.789   1.083   1.114
 3429SOL    HW211187   0.631   1.042   1.113
 3430SOL     OW11188   1.831   4.891   6.095
 3430SOL    HW111189   1.794   4.980   6.071
 3430SOL    HW211190   1.921   4.879   6.053
 3431SOL     OW11191   2.027   6.904   2.228
 3431SOL    HW111192   2.116   6.875   2.193
 3431SOL    HW211193   1.957   6.837   2.202
 3432SOL     OW11194   2.553   4.721   6.310
 3432SOL    HW111195   2.472   4.677   6.271
 3432SOL    HW211196   2.613   4.651   6.349
 3433SOL     OW11197   2.029   0.830   6.576
 3433SOL    HW111198   2.092   0.897   6.614
 3433SOL    HW211199   1.982   0.782   6.650
 3434SOL     OW11200   2.801   2.128   1.909
 3434SOL    HW111201   2.818   2.146   1.812
 3434SOL    HW211202   2.833   2.206   1.963
 3435SOL     OW11203   2.338   1.340   0.340
 3435SOL    HW111204   2.434   1.311   0.329
 3435SOL    HW211205   2.334   1.415   0.405
 3436SOL     OW11206   4.132   5.061   0.101
 3436SOL    HW111207   4.060   5.037   0.036
 3436SOL    HW211208   4.123   5.157   0.126
 3437SOL     OW11209   1.665   6.756   5.914
 3437SOL    HW111210   1.642   6.769   5.818
 3437SOL    HW211211   1.664   6.659   5.937
 3438SOL     OW11212   0.429   3.660   1.497
 3438SOL    HW111213   0.412   3.578   1.552
 3438SOL    HW211214   0.503   3.713   1.539
 3439SOL     OW11215   2.476   5.921   3.389
 3439SOL    HW111216   2.568   5.890   3.412
 3439SOL    HW211217   2.450   5.997   3.450
 3440SOL     OW11218   4.005   3.642   4.274
 3440SOL    HW111219   3.999   3.550   4.237
 3440SOL    HW211220   4.047   3.640   4.364
 3441SOL     OW11221   0.137   6.413   6.243
 3441SOL    HW111222   0.077   6.334   6.256
 3441SOL    HW211223   0.184   6.404   6.155
 3442SOL     OW11224   3.226   3.453   0.923
 3442SOL    HW111225   3.258   3.388   0.992
 3442SOL    HW211226   3.267   3.431   0.835
 3443SOL     OW11227   3.219   5.389   2.778
 3443SOL    HW111228   3.245   5.459   2.711
 3443SOL    HW211229   3.270   5.404   2.863
 3444SOL     OW11230   5.475   4.650   1.293
 3444SOL    HW111231   5.490   4.689   1.383
 3444SOL    HW211232   5.559   4.653   1.240
 3445SOL     OW11233   0.112   4.996   4.291
 3445SOL    HW111234   0.193   5.037   4.250
 3445SOL    HW211235   0.136   4.957   4.380
 3446SOL     OW11236   5.542   0.280   1.467
 3446SOL    HW111237   5.545   0.323   1.557
 3446SOL    HW211238   5.536   0.181   1.477
 3447SOL     OW11239   5.450   0.815   0.275
 3447SOL    HW111240   5.523   0.757   0.236
 3447SOL    HW211241   5.362   0.768   0.266
 3448SOL     OW11242   1.970   6.328   5.816
 3448SOL    HW111243   2.015   6.240   5.801
 3448SOL    HW211244   2.023   6.401   5.773
 3449SOL     OW11245   5.425   5.113   5.510
 3449SOL    HW111246   5.424   5.175   5.589
 3449SOL    HW211247   5.513   5.121   5.463
 3450SOL     OW11248   1.527   0.814   6.448
 3450SOL    HW111249   1.499   0.774   6.536
 3450SOL    HW211250   1.590   0.890   6.465
 3451SOL     OW11251   1.570   5.792   0.522
 3451SOL    HW111252   1.573   5.829   0.429
 3451SOL    HW211253   1.511   5.712   0.523
 3452SOL     OW11254   5.694   0.786   6.188
 3452SOL    HW111255   5.780   0.759   6.231
 3452SOL    HW211256   5.649   0.855   6.244
 3453SOL     OW11257   5.181   6.372   6.383
 3453SOL    HW111258   5.112   6.418   6.327
 3453SOL    HW211259   5.268   6.371   6.334
 3454SOL     OW11260   1.499   2.850   3.857
 3454SOL    HW111261   1.538   2.926   3.909
 3454SOL    HW211262   1.417   2.881   3.809
 3455SOL     OW11263   2.263   1.983   4.685
 3455SOL    HW111264   2.316   1.948   4.609
 3455SOL    HW211265   2.280   2.081   4.695
 3456SOL     OW11266   4.445   4.537   1.935
 3456SOL    HW111267   4.468   4.440   1.930
 3456SOL    HW211268   4.466   4.572   2.026
 3457SOL     OW11269   3.891   5.187   4.948
 3457SOL    HW111270   3.876   5.146   5.038
 3457SOL    HW211271   3.909   5.285   4.959
 3458SOL     OW11272   4.560   2.191   2.288
 3458SOL    HW111273   4.492   2.263   2.303
 3458SOL    HW211274   4.652   2.231   2.295
 3459SOL     OW11275   5.308   1.750   3.594
 3459SOL    HW111276   5.380   1.798   3.542
 3459SOL    HW211277   5.343   1.725   3.684
 3460SOL     OW11278   3.268   1.757   5.387
 3460SOL    HW111279   3.277   1.856   5.381
 3460SOL    HW211280   3.214   1.733   5.468
 3461SOL     OW11281   5.416   5.142   6.955
 3461SOL    HW111282   5.379   5.175   6.868
 3461SOL    HW211283   5.347   5.154   7.027
 3462SOL     OW11284   1.472   3.752   6.019
 3462SOL    HW111285   1.445   3.822   5.952
 3462SOL    HW211286   1.566   3.769   6.048
 3463SOL     OW11287   0.697   3.737   0.912
 3463SOL    HW111288   0.609   3.699   0.884
 3463SOL    HW211289   0.767   3.710   0.847
 3464SOL     OW11290   0.443   4.522   6.657
 3464SOL    HW111291   0.485   4.467   6.586
 3464SOL    HW211292   0.493   4.510   6.743
 3465SOL     OW11293   1.902   1.790   1.756
 3465SOL    HW111294   1.999   1.794   1.777
 3465SOL    HW211295   1.889   1.774   1.658
 3466SOL     OW11296   6.757   5.148   5.705
 3466SOL    HW111297   6.797   5.056   5.704
 3466SOL    HW211298   6.812   5.208   5.762
 3467SOL     OW11299   2.370   1.884   6.520
 3467SOL    HW111300   2.362   1.828   6.602
 3467SOL    HW211301   2.336   1.976   6.538
 3468SOL     OW11302   2.916   5.175   2.877
 3468SOL    HW111303   2.849   5.175   2.804
 3468SOL    HW211304   2.926   5.267   2.914
 3469SOL     OW11305   6.161   2.309   4.292
 3469SOL    HW111306   6.221   2.308   4.213
 3469SOL    HW211307   6.082   2.368   4.274
 3470SOL     OW11308   0.574   5.193   1.090
 3470SOL    HW111309   0.511   5.154   1.024
 3470SOL    HW211310   0.610   5.121   1.149
 3471SOL     OW11311   4.312   5.423   5.102
 3471SOL    HW111312   4.324   5.469   5.190
 3471SOL    HW211313   4.307   5.324   5.116
 3472SOL     OW11314   2.235   1.254   3.973
 3472SOL    HW111315   2.317   1.207   3.941
 3472SOL    HW211316   2.208   1.217   4.062
 3473SOL     OW11317   5.518   1.888   6.090
 3473SOL    HW111318   5.497   1.986   6.080
 3473SOL    HW211319   5.493   1.859   6.182
 3474SOL     OW11320   3.157   4.815   1.483
 3474SOL    HW111321   3.217   4.879   1.531
 3474SOL    HW211322   3.133   4.740   1.544
 3475SOL     OW11323   1.193   6.802   3.720
 3475SOL    HW111324   1.101   6.763   3.726
 3475SOL    HW211325   1.260   6.733   3.745
 3476SOL     OW11326   3.676   0.222   4.911
 3476SOL    HW111327   3.703   0.260   4.823
 3476SOL    HW211328   3.747   0.159   4.943
 3477SOL     OW11329   2.959   5.446   0.910
 3477SOL    HW111330   3.044   5.440   0.857
 3477SOL    HW211331   2.882   5.420   0.852
 3478SOL     OW11332   2.107   6.107   5.731
 3478SOL    HW111333   2.135   6.076   5.640
 3478SOL    HW211334   2.145   6.044   5.799
 3479SOL     OW11335   0.581   7.004   2.689
 3479SOL    HW111336   0.553   0.023   2.772
 3479SOL    HW211337   0.508   7.010   2.621
 3480SOL     OW11338   0.049   1.371   4.284
 3480SOL    HW111339   7.001   1.320   4.245
 3480SOL    HW211340   0.101   1.413   4.210
 3481SOL     OW11341   4.182   6.937   5.895
 3481SOL    HW111342   4.259   6.936   5.958
 3481SOL    HW211343   4.108   6.880   5.931
 3482SOL     OW11344   5.634   1.631   1.444
 3482SOL    HW111345   5.704   1.688   1.400
 3482SOL    HW211346   5.670   1.593   1.529
 3483SOL     OW11347   2.477   0.531   0.984
 3483SOL    HW111348   2.465   0.438   1.019
 3483SOL    HW211349   2.446   0.597   1.053
 3484SOL     OW11350   3.121   3.053   2.987
 3484SOL    HW111351   3.144   2.971   2.934
 3484SOL    HW211352   3.031   3.087   2.958
 3485SOL     OW11353   2.314   1.446   4.939
 3485SOL    HW111354   2.397   1.483   4.980
 3485SOL    HW211355   2.254   1.410   5.011
 3486SOL     OW11356   3.590   1.551   2.382
 3486SOL    HW111357   3.513   1.606   2.415
 3486SOL    HW211358   3.631   1.501   2.458
 3487SOL     OW11359   5.734   2.028   6.688
 3487SOL    HW111360   5.694   2.108   6.644
 3487SOL    HW211361   5.690   1.946   6.653
 3488SOL     OW11362   6.624   2.985   3.877
 3488SOL    HW111363   6.589   2.953   3.965
 3488SOL    HW211364   6.662   3.077   3.887
 3489SOL     OW11365   2.925   6.904   0.790
 3489SOL    HW111366   2.992   6.928   0.861
 3489SOL    HW211367   2.951   6.817   0.748
 3490SOL     OW11368   4.864   4.194   0.539
 3490SOL    HW111369   4.946   4.145   0.570
 3490SOL    HW211370   4.785   4.133   0.544
 3491SOL     OW11371   6.874   3.055   5.488
 3491SOL    HW111372   6.874   2.955   5.481
 3491SOL    HW211373   6.935   3.093   5.418
 3492SOL     OW11374   0.874   5.464   6.938
 3492SOL    HW111375   0.929   5.503   6.865
 3492SOL    HW211376   0.803   5.529   6.966
 3493SOL     OW11377   6.151   4.864   0.628
 3493SOL    HW111378   6.172   4.962   0.639
 3493SOL    HW211379   6.219   4.810   0.678
 3494SOL     OW11380   3.890   6.778   0.435
 3494SOL    HW111381   3.972   6.835   0.431
 3494SOL    HW211382   3.906   6.693   0.386
 3495SOL     OW11383   4.274   4.602   1.734
 3495SOL    HW111384   4.258   4.513   1.691
 3495SOL    HW211385   4.341   4.592   1.808
 3496SOL     OW11386   1.370   3.038   1.708
 3496SOL    HW111387   1.322   2.973   1.768
 3496SOL    HW211388   1.353   3.131   1.739
 3497SOL     OW11389   4.240   0.398   3.302
 3497SOL    HW111390   4.189   0.338   3.241
 3497SOL    HW211391   4.320   0.435   3.254
 3498SOL     OW11392   2.748   1.826   1.108
 3498SOL    HW111393   2.821   1.820   1.177
 3498SOL    HW211394   2.699   1.912   1.119
 3499SOL     OW11395   6.793   3.440   4.546
 3499SOL    HW111396   6.750   3.487   4.469
 3499SOL    HW211397   6.824   3.508   4.613
 3500SOL     OW11398   6.723   4.386   6.145
 3500SOL    HW111399   6.659   4.424   6.212
 3500SOL    HW211400   6.817   4.393   6.181
 3501SOL     OW11401   0.397   4.728   5.076
 3501SOL    HW111402   0.473   4.713   5.140
 3501SOL    HW211403   0.366   4.823   5.082
 3502SOL     OW11404   0.404   2.030   1.947
 3502SOL    HW111405   0.431   2.040   2.043
 3502SOL    HW211406   0.352   1.945   1.936
 3503SOL     OW11407   4.735   6.036   5.135
 3503SOL    HW111408   4.727   5.951   5.187
 3503SOL    HW211409   4.734   6.113   5.199
 3504SOL     OW11410   2.618   3.279   1.280
 3504SOL    HW111411   2.585   3.272   1.185
 3504SOL    HW211412   2.658   3.369   1.295
 3505SOL     OW11413   5.100   5.866   5.110
 3505SOL    HW111414   5.095   5.966   5.107
 3505SOL    HW211415   5.186   5.836   5.068
 3506SOL     OW11416   4.076   5.980   4.563
 3506SOL    HW111417   4.124   5.996   4.477
 3506SOL    HW211418   4.028   5.892   4.559
 3507SOL     OW11419   1.222   0.844   6.583
 3507SOL    HW111420   1.298   0.909   6.574
 3507SOL    HW211421   1.158   0.877   6.652
 3508SOL     OW11422   5.002   2.455   0.083
 3508SOL    HW111423   4.982   2.466   7.015
 3508SOL    HW211424   4.995   2.358   0.108
 3509SOL     OW11425   6.172   6.433   6.963
 3509SOL    HW111426   6.227   6.422   0.017
 3509SOL    HW211427   6.197   6.362   6.897
 3510SOL     OW11428   1.744   2.284   2.052
 3510SOL    HW111429   1.680   2.360   2.061
 3510SOL    HW211430   1.764   2.269   1.955
 3511SOL     OW11431   1.431   3.675   6.948
 3511SOL    HW111432   1.447   3.773   6.932
 3511SOL    HW211433   1.518   3.627   6.949
 3512SOL     OW11434   1.169   3.731   0.373
 3512SOL    HW111435   1.127   3.661   0.315
 3512SOL    HW211436   1.215   3.687   0.450
 3513SOL     OW11437   6.785   4.495   0.776
 3513SOL    HW111438   6.731   4.461   0.700
 3513SOL    HW211439   6.816   4.418   0.832
 3514SOL     OW11440   0.275   6.632   1.459
 3514SOL    HW111441   0.207   6.695   1.421
 3514SOL    HW211442   0.343   6.610   1.390
 3515SOL     OW11443   3.541   5.771   2.555
 3515SOL    HW111444   3.457   5.823   2.566
 3515SOL    HW211445   3.554   5.748   2.458
 3516SOL     OW11446   3.114   0.511   0.692
 3516SOL    HW111447   3.028   0.562   0.694
 3516SOL    HW211448   3.113   0.441   0.763
 3517SOL     OW11449   0.658   1.538   0.461
 3517SOL    HW111450   0.643   1.546   0.362
 3517SOL    HW211451   0.726   1.605   0.490
 3518SOL     OW11452   4.997   3.838   6.187
 3518SOL    HW111453   4.932   3.793   6.248
 3518SOL    HW211454   5.031   3.772   6.120
 3519SOL     OW11455   0.801   6.003   6.935
 3519SOL    HW111456   0.852   6.067   6.878
 3519SOL    HW211457   0.860   5.927   6.961
 3520SOL     OW11458   4.180   4.320   1.070
 3520SOL    HW111459   4.174   4.246   1.137
 3520SOL    HW211460   4.102   4.315   1.008
 3521SOL     OW11461   5.585   3.108   1.597
 3521SOL    HW111462   5.670   3.161   1.591
 3521SOL    HW211463   5.555   3.085   1.505
 3522SOL     OW11464   2.935   5.280   1.752
 3522SOL    HW111465   2.990   5.227   1.817
 3522SOL    HW211466   2.988   5.298   1.670
 3523SOL     OW11467   2.995   4.837   5.152
 3523SOL    HW111468   2.956   4.745   5.141
 3523SOL    HW211469   3.006   4.879   5.062
 3524SOL     OW11470   2.609   0.704   0.805
 3524SOL    HW111471   2.526   0.742   0.763
 3524SOL    HW211472   2.585   0.632   0.869
 3525SOL     OW11473   0.230   3.106   1.883
 3525SOL    HW111474   0.180   3.033   1.930
 3525SOL    HW211475   0.186   3.194   1.903
 3526SOL     OW11476   1.177   0.479   3.475
 3526SOL    HW111477   1.158   0.560   3.420
 3526SOL    HW211478   1.111   0.474   3.550
 3527SOL     OW11479   5.255   2.612   6.340
 3527SOL    HW111480   5.216   2.703   6.358
 3527SOL    HW211481   5.290   2.609   6.247
 3528SOL     OW11482   1.143   6.066   2.928
 3528SOL    HW111483   1.102   6.003   2.995
 3528SOL    HW211484   1.070   6.109   2.874
 3529SOL     OW11485   4.158   6.535   5.746
 3529SOL    HW111486   4.096   6.605   5.711
 3529SOL    HW211487   4.214   6.501   5.670
 3530SOL     OW11488   2.888   5.929   2.563
 3530SOL    HW111489   2.856   5.918   2.468
 3530SOL    HW211490   2.812   5.911   2.625
 3531SOL     OW11491   5.282   4.063   0.197
 3531SOL    HW111492   5.276   3.971   0.160
 3531SOL    HW211493   5.193   4.107   0.193
 3532SOL     OW11494   2.407   0.735   0.204
 3532SOL    HW111495   2.436   0.750   0.299
 3532SOL    HW211496   2.465   0.663   0.164
 3533SOL     OW11497   0.820   1.984   3.503
 3533SOL    HW111498   0.849   2.001   3.409
 3533SOL    HW211499   0.720   1.987   3.508
 3534SOL     OW11500   6.239   1.703   5.186
 3534SOL    HW111501   6.155   1.714   5.239
 3534SOL    HW211502   6.297   1.783   5.198
 3535SOL     OW11503   6.622   5.593   6.837
 3535SOL    HW111504   6.571   5.510   6.859
 3535SOL    HW211505   6.571   5.673   6.868
 3536SOL     OW11506   1.594   2.980   3.496
 3536SOL    HW111507   1.591   3.019   3.588
 3536SOL    HW211508   1.687   2.948   3.476
 3537SOL     OW11509   2.741   5.267   0.821
 3537SOL    HW111510   2.719   5.281   0.725
 3537SOL    HW211511   2.675   5.316   0.878
 3538SOL     OW11512   3.071   6.901   3.508
 3538SOL    HW111513   3.074   6.947   3.597
 3538SOL    HW211514   3.156   6.849   3.494
 3539SOL     OW11515   5.858   4.002   5.450
 3539SOL    HW111516   5.914   4.085   5.450
 3539SOL    HW211517   5.838   3.975   5.356
 3540SOL     OW11518   1.957   3.264   6.865
 3540SOL    HW111519   2.022   3.329   6.825
 3540SOL    HW211520   1.920   3.302   6.950
 3541SOL     OW11521   2.753   3.212   0.531
 3541SOL    HW111522   2.772   3.271   0.452
 3541SOL    HW211523   2.830   3.150   0.545
 3542SOL     OW11524   5.893   2.948   6.960
 3542SOL    HW111525   5.982   2.911   6.984
 3542SOL    HW211526   5.832   2.875   6.930
 3543SOL     OW11527   1.140   3.470   3.482
 3543SOL    HW111528   1.104   3.397   3.539
 3543SOL    HW211529   1.227   3.442   3.442
 3544SOL     OW11530   3.271   4.181   6.400
 3544SOL    HW111531   3.237   4.261   6.449
 3544SOL    HW211532   3.227   4.099   6.435
 3545SOL     OW11533   3.270   5.211   0.220
 3545SOL    HW111534   3.187   5.225   0.166
 3545SOL    HW211535   3.247   5.162   0.304
 3546SOL     OW11536   6.832   4.331   3.228
 3546SOL    HW111537   6.855   4.357   3.134
 3546SOL    HW211538   6.915   4.330   3.284
 3547SOL     OW11539   6.662   3.344   4.825
 3547SOL    HW111540   6.686   3.352   4.728
 3547SOL    HW211541   6.644   3.435   4.862
 3548SOL     OW11542   4.617   1.746   6.176
 3548SOL    HW111543   4.523   1.720   6.150
 3548SOL    HW211544   4.633   1.841   6.150
 3549SOL     OW11545   1.818   5.761   6.327
 3549SOL    HW111546   1.826   5.694   6.402
 3549SOL    HW211547   1.842   5.851   6.362
 3550SOL     OW11548   4.779   2.000   5.152
 3550SOL    HW111549   4.817   2.022   5.061
 3550SOL    HW211550   4.850   1.958   5.208
 3551SOL     OW11551   3.687   1.935   5.474
 3551SOL    HW111552   3.622   1.966   5.543
 3551SOL    HW211553   3.676   1.989   5.390
 3552SOL     OW11554   6.717   5.733   1.374
 3552SOL    HW111555   6.769   5.647   1.365
 3552SOL    HW211556   6.707   5.755   1.470
 3553SOL     OW11557   3.265   5.962   6.183
 3553SOL    HW111558   3.285   6.043   6.237
 3553SOL    HW211559   3.166   5.952   6.173
 3554SOL     OW11560   3.972   3.917   1.275
 3554SOL    HW111561   3.943   3.942   1.183
 3554SOL    HW211562   3.915   3.843   1.309
 3555SOL     OW11563   1.687   2.123   4.485
 3555SOL    HW111564   1.625   2.162   4.417
 3555SOL    HW211565   1.645   2.043   4.527
 3556SOL     OW11566   3.915   1.300   5.018
 3556SOL    HW111567   3.888   1.211   4.982
 3556SOL    HW211568   3.860   1.321   5.099
 3557SOL     OW11569   0.419   0.395   2.860
 3557SOL    HW111570   0.352   0.465   2.882
 3557SOL    HW211571   0.510   0.437   2.850
 3558SOL     OW11572   2.198   6.317   0.768
 3558SOL    HW111573   2.148   6.302   0.854
 3558SOL    HW211574   2.209   6.229   0.721
 3559SOL     OW11575   3.037   6.613   4.492
 3559SOL    HW111576   3.017   6.544   4.562
 3559SOL    HW211577   2.960   6.676   4.483
 3560SOL     OW11578   1.614   4.634   4.714
 3560SOL    HW111579   1.586   4.584   4.632
 3560SOL    HW211580   1.679   4.578   4.766
 3561SOL     OW11581   6.059   4.207   4.974
 3561SOL    HW111582   5.963   4.227   4.990
 3561SOL    HW211583   6.106   4.194   5.061
 3562SOL     OW11584   2.600   1.460   4.859
 3562SOL    HW111585   2.648   1.493   4.778
 3562SOL    HW211586   2.571   1.365   4.845
 3563SOL     OW11587   6.302   2.333   5.841
 3563SOL    HW111588   6.291   2.266   5.768
 3563SOL    HW211589   6.252   2.417   5.818
 3564SOL     OW11590   0.567   4.919   2.598
 3564SOL    HW111591   0.601   4.868   2.519
 3564SOL    HW211592   0.602   4.877   2.682
 3565SOL     OW11593   3.402   4.936   3.077
 3565SOL    HW111594   3.385   4.916   2.980
 3565SOL    HW211595   3.318   4.969   3.119
 3566SOL     OW11596   7.001   0.974   5.143
 3566SOL    HW111597   0.025   1.021   5.212
 3566SOL    HW211598   6.973   1.039   5.072
 3567SOL     OW11599   0.477   3.462   6.275
 3567SOL    HW111600   0.557   3.412   6.242
 3567SOL    HW211601   0.410   3.396   6.311
 3568SOL     OW11602   6.739   4.112   5.825
 3568SOL    HW111603   6.720   4.204   5.860
 3568SOL    HW211604   6.653   4.064   5.809
 3569SOL     OW11605   2.428   1.892   5.786
 3569SOL    HW111606   2.339   1.908   5.743
 3569SOL    HW211607   2.424   1.809   5.841
 3570SOL     OW11608   5.556   0.612   5.428
 3570SOL    HW111609   5.480   0.549   5.442
 3570SOL    HW211610   5.609   0.620   5.512
 3571SOL     OW11611   0.107   5.886   0.073
 3571SOL    HW111612   0.177   5.828   0.032
 3571SOL    HW211613   0.087   5.962   0.011
 3572SOL     OW11614   5.527   3.943   4.212
 3572SOL    HW111615   5.500   4.039   4.219
 3572SOL    HW211616   5.476   3.899   4.138
 3573SOL     OW11617   0.993   3.712   4.264
 3573SOL    HW111618   0.977   3.775   4.188
 3573SOL    HW211619   0.941   3.741   4.344
 3574SOL     OW11620   0.463   5.099   0.209
 3574SOL    HW111621   0.502   5.191   0.207
 3574SOL    HW211622   0.532   5.032   0.183
 3575SOL     OW11623   6.544   4.984   3.323
 3575SOL    HW111624   6.611   5.055   3.300
 3575SOL    HW211625   6.495   4.956   3.241
 3576SOL     OW11626   1.475   1.329   5.561
 3576SOL    HW111627   1.514   1.275   5.486
 3576SOL    HW211628   1.521   1.305   5.646
 3577SOL     OW11629   1.326   2.564   6.298
 3577SOL    HW111630   1.267   2.614   6.234
 3577SOL    HW211631   1.389   2.628   6.342
 3578SOL     OW11632   3.986   3.540   6.787
 3578SOL    HW111633   4.009   3.456   6.738
 3578SOL    HW211634   3.960   3.611   6.722
 3579SOL     OW11635   6.560   4.000   4.883
 3579SOL    HW111636   6.532   3.931   4.816
 3579SOL    HW211637   6.521   3.976   4.973
 3580SOL     OW11638   6.117   1.816   1.418
 3580SOL    HW111639   6.060   1.876   1.474
 3580SOL    HW211640   6.096   1.831   1.322
 3581SOL     OW11641   0.024   0.128   3.436
 3581SOL    HW111642   7.027   0.083   3.521
 3581SOL    HW211643   6.974   0.175   3.397
 3582SOL     OW11644   0.652   2.257   6.156
 3582SOL    HW111645   0.676   2.354   6.149
 3582SOL    HW211646   0.554   2.246   6.143
 3583SOL     OW11647   0.577   4.174   6.781
 3583SOL    HW111648   0.587   4.185   6.880
 3583SOL    HW211649   0.666   4.188   6.737
 3584SOL     OW11650   6.345   6.089   6.450
 3584SOL    HW111651   6.367   6.176   6.495
 3584SOL    HW211652   6.392   6.085   6.362
 3585SOL     OW11653   2.971   5.105   5.343
 3585SOL    HW111654   2.885   5.071   5.306
 3585SOL    HW211655   3.002   5.043   5.415
 3586SOL     OW11656   6.386   2.988   5.419
 3586SOL    HW111657   6.322   3.062   5.398
 3586SOL    HW211658   6.417   2.996   5.513
 3587SOL     OW11659   2.723   5.911   0.596
 3587SOL    HW111660   2.798   5.974   0.572
 3587SOL    HW211661   2.742   5.869   0.684
 3588SOL     OW11662   1.380   2.516   5.800
 3588SOL    HW111663   1.423   2.593   5.847
 3588SOL    HW211664   1.281   2.530   5.798
 3589SOL     OW11665   3.458   0.804   4.710
 3589SOL    HW111666   3.399   0.840   4.638
 3589SOL    HW211667   3.541   0.860   4.717
 3590SOL     OW11668   0.235   4.418   6.475
 3590SOL    HW111669   0.250   4.465   6.562
 3590SOL    HW211670   0.226   4.486   6.402
 3591SOL     OW11671   5.405   3.143   6.791
 3591SOL    HW111672   5.384   3.223   6.848
 3591SOL    HW211673   5.485   3.164   6.734
 3592SOL     OW11674   5.215   3.589   3.575
 3592SOL    HW111675   5.207   3.495   3.541
 3592SOL    HW211676   5.239   3.650   3.500
 3593SOL     OW11677   2.231   6.132   4.654
 3593SOL    HW111678   2.252   6.228   4.674
 3593SOL    HW211679   2.163   6.127   4.582
 3594SOL     OW11680   3.961   0.995   2.942
 3594SOL    HW111681   3.980   0.996   2.844
 3594SOL    HW211682   4.045   0.974   2.992
 3595SOL     OW11683   2.214   5.768   5.532
 3595SOL    HW111684   2.281   5.800   5.599
 3595SOL    HW211685   2.232   5.812   5.444
 3596SOL     OW11686   6.505   1.541   2.701
 3596SOL    HW111687   6.417   1.580   2.725
 3596SOL    HW211688   6.495   1.479   2.623
 3597SOL     OW11689   2.855   6.049   4.676
 3597SOL    HW111690   2.895   6.140   4.683
 3597SOL    HW211691   2.756   6.055   4.691
 3598SOL     OW11692   0.991   0.466   5.922
 3598SOL    HW111693   0.998   0.472   6.022
 3598SOL    HW211694   0.927   0.535   5.889
 3599SOL     OW11695   0.964   2.112   5.772
 3599SOL    HW111696   0.909   2.098   5.690
 3599SOL    HW211697   0.911   2.162   5.840
 3600SOL     OW11698   0.168   3.261   0.225
 3600SOL    HW111699   0.193   3.259   0.128
 3600SOL    HW211700   0.087   3.203   0.239
 3601SOL     OW11701   6.935   3.944   0.585
 3601SOL    HW111702   7.017   3.886   0.588
 3601SOL    HW211703   6.867   3.902   0.525
 3602SOL     OW11704   1.984   1.447   1.073
 3602SOL    HW111705   2.072   1.421   1.033
 3602SOL    HW211706   1.973   1.401   1.161
 3603SOL     OW11707   3.662   5.906   3.824
 3603SOL    HW111708   3.746   5.861   3.794
 3603SOL    HW211709   3.638   5.874   3.916
 3604SOL     OW11710   6.635   3.772   3.865
 3604SOL    HW111711   6.703   3.845   3.870
 3604SOL    HW211712   6.576   3.776   3.945
 3605SOL     OW11713   5.971   4.649   5.854
 3605SOL    HW111714   5.921   4.732   5.828
 3605SOL    HW211715   6.059   4.674   5.894
 3606SOL     OW11716   6.579   4.917   5.822
 3606SOL    HW111717   6.529   4.938   5.738
 3606SOL    HW211718   6.550   4.980   5.895
 3607SOL     OW11719   5.233   6.606   0.610
 3607SOL    HW111720   5.297   6.558   0.670
 3607SOL    HW211721   5.283   6.672   0.554
 3608SOL     OW11722   6.467   1.646   2.396
 3608SOL    HW111723   6.471   1.719   2.464
 3608SOL    HW211724   6.388   1.587   2.415
 3609SOL     OW11725   6.872   0.920   4.269
 3609SOL    HW111726   6.891   0.953   4.361
 3609SOL    HW211727   6.868   0.820   4.269
 3610SOL     OW11728   1.047   0.775   5.439
 3610SOL    HW111729   1.119   0.706   5.439
 3610SOL    HW211730   1.002   0.778   5.528
 3611SOL     OW11731   3.489   4.672   5.377
 3611SOL    HW111732   3.397   4.676   5.340
 3611SOL    HW211733   3.537   4.758   5.361
 3612SOL     OW11734   6.794   6.853   5.728
 3612SOL    HW111735   6.756   6.913   5.799
 3612SOL    HW211736   6.879   6.893   5.693
 3613SOL     OW11737   5.602   4.841   0.990
 3613SOL    HW111738   5.674   4.907   0.970
 3613SOL    HW211739   5.519   4.890   1.020
 3614SOL     OW11740   3.939   3.427   3.561
 3614SOL    HW111741   3.893   3.466   3.482
 3614SOL    HW211742   3.960   3.331   3.544
 3615SOL     OW11743   5.877   6.469   6.180
 3615SOL    HW111744   5.941   6.495   6.252
 3615SOL    HW211745   5.795   6.527   6.186
 3616SOL     OW11746   6.791   1.826   6.164
 3616SOL    HW111747   6.843   1.904   6.128
 3616SOL    HW211748   6.773   1.839   6.261
 3617SOL     OW11749   5.317   1.642   6.320
 3617SOL    HW111750   5.355   1.735   6.319
 3617SOL    HW211751   5.235   1.640   6.263
 3618SOL     OW11752   1.265   2.085   5.396
 3618SOL    HW111753   1.307   2.175   5.386
 3618SOL    HW211754   1.332   2.014   5.373
 3619SOL     OW11755   6.356   1.867   3.636
 3619SOL    HW111756   6.323   1.794   3.576
 3619SOL    HW211757   6.423   1.830   3.700
 3620SOL     OW11758   6.248   6.342   6.160
 3620SOL    HW111759   6.266   6.417   6.223
 3620SOL    HW211760   6.260   6.374   6.066
 3621SOL     OW11761   2.368   2.326   5.976
 3621SOL    HW111762   2.467   2.327   5.989
 3621SOL    HW211763   2.345   2.365   5.887
 3622SOL     OW11764   2.220   2.188   3.131
 3622SOL    HW111765   2.181   2.278   3.112
 3622SOL    HW211766   2.147   2.119   3.126
 3623SOL     OW11767   6.135   5.801   4.161
 3623SOL    HW111768   6.179   5.873   4.107
 3623SOL    HW211769   6.203   5.754   4.216
 3624SOL     OW11770   2.614   6.284   2.405
 3624SOL    HW111771   2.696   6.227   2.401
 3624SOL    HW211772   2.624   6.352   2.477
 3625SOL     OW11773   6.203   3.201   7.027
 3625SOL    HW111774   6.152   3.229   6.946
 3625SOL    HW211775   6.276   3.268   0.017
 3626SOL     OW11776   1.465   4.004   5.288
 3626SOL    HW111777   1.490   4.087   5.237
 3626SOL    HW211778   1.546   3.946   5.299
 3627SOL     OW11779   3.813   2.931   3.173
 3627SOL    HW111780   3.831   2.973   3.084
 3627SOL    HW211781   3.731   2.875   3.167
 3628SOL     OW11782   2.406   6.891   1.767
 3628SOL    HW111783   2.494   6.865   1.806
 3628SOL    HW211784   2.417   6.915   1.671
 3629SOL     OW11785   6.229   2.235   4.704
 3629SOL    HW111786   6.210   2.153   4.649
 3629SOL    HW211787   6.317   2.274   4.677
 3630SOL     OW11788   5.736   3.002   3.815
 3630SOL    HW111789   5.672   3.078   3.825
 3630SOL    HW211790   5.828   3.033   3.841
 3631SOL     OW11791   1.824   0.219   4.035
 3631SOL    HW111792   1.743   0.224   3.977
 3631SOL    HW211793   1.799   0.177   4.123
 3632SOL     OW11794   5.157   0.366   0.423
 3632SOL    HW111795   5.250   0.359   0.388
 3632SOL    HW211796   5.093   0.328   0.357
 3633SOL     OW11797   2.843   1.955   5.920
 3633SOL    HW111798   2.910   2.029   5.918
 3633SOL    HW211799   2.751   1.992   5.924
 3634SOL     OW11800   0.864   5.627   5.338
 3634SOL    HW111801   0.951   5.590   5.371
 3634SOL    HW211802   0.848   5.595   5.245
 3635SOL     OW11803   2.417   0.229   5.731
 3635SOL    HW111804   2.413   0.159   5.660
 3635SOL    HW211805   2.503   0.280   5.723
 3636SOL     OW11806   1.089   6.156   5.898
 3636SOL    HW111807   1.078   6.206   5.983
 3636SOL    HW211808   1.007   6.102   5.879
 3637SOL     OW11809   6.757   1.547   1.334
 3637SOL    HW111810   6.718   1.623   1.387
 3637SOL    HW211811   6.721   1.550   1.241
 3638SOL     OW11812   6.957   4.806   4.721
 3638SOL    HW111813   6.957   4.823   4.622
 3638SOL    HW211814   7.011   4.724   4.740
 3639SOL     OW11815   4.336   4.005   1.077
 3639SOL    HW111816   4.400   3.928   1.073
 3639SOL    HW211817   4.372   4.082   1.024
 3640SOL     OW11818   3.651   0.037   6.765
 3640SOL    HW111819   3.690   0.011   6.677
 3640SOL    HW211820   3.679   7.001   6.835
 3641SOL     OW11821   5.035   2.458   4.519
 3641SOL    HW111822   4.943   2.450   4.481
 3641SOL    HW211823   5.067   2.552   4.510
 3642SOL     OW11824   4.598   0.981   6.661
 3642SOL    HW111825   4.692   0.948   6.650
 3642SOL    HW211826   4.596   1.053   6.730
 3643SOL     OW11827   2.357   5.541   4.898
 3643SOL    HW111828   2.303   5.574   4.821
 3643SOL    HW211829   2.322   5.453   4.928
 3644SOL     OW11830   0.290   0.910   1.459
 3644SOL    HW111831   0.253   0.829   1.504
 3644SOL    HW211832   0.302   0.892   1.362
 3645SOL     OW11833   5.872   1.216   3.676
 3645SOL    HW111834   5.935   1.292   3.694
 3645SOL    HW211835   5.877   1.150   3.751
 3646SOL     OW11836   6.690   5.149   6.470
 3646SOL    HW111837   6.704   5.146   6.569
 3646SOL    HW211838   6.683   5.056   6.435
 3647SOL     OW11839   2.496   3.733   0.751
 3647SOL    HW111840   2.397   3.726   0.734
 3647SOL    HW211841   2.514   3.714   0.848
 3648SOL     OW11842   3.390   5.496   2.993
 3648SOL    HW111843   3.480   5.533   2.972
 3648SOL    HW211844   3.331   5.568   3.029
 3649SOL     OW11845   4.724   3.152   1.632
 3649SOL    HW111846   4.701   3.138   1.728
 3649SOL    HW211847   4.737   3.063   1.588
 3650SOL     OW11848   0.186   5.636   0.333
 3650SOL    HW111849   0.267   5.629   0.391
 3650SOL    HW211850   0.215   5.643   0.237
 3651SOL     OW11851   0.512   5.783   3.182
 3651SOL    HW111852   0.426   5.824   3.212
 3651SOL    HW211853   0.501   5.685   3.170
 3652SOL     OW11854   5.571   6.421   3.134
 3652SOL    HW111855   5.663   6.425   3.174
 3652SOL    HW211856   5.560   6.335   3.085
 3653SOL     OW11857   6.709   0.553   3.266
 3653SOL    HW111858   6.728   0.579   3.172
 3653SOL    HW211859   6.633   0.608   3.301
 3654SOL     OW11860   1.666   6.937   0.359
 3654SOL    HW111861   1.704   6.892   0.439
 3654SOL    HW211862   1.689   0.005   0.361
 3655SOL     OW11863   1.201   7.015   3.534
 3655SOL    HW111864   1.291   6.996   3.496
 3655SOL    HW211865   1.176   6.943   3.599
 3656SOL     OW11866   1.595   3.551   2.124
 3656SOL    HW111867   1.580   3.643   2.160
 3656SOL    HW211868   1.692   3.528   2.130
 3657SOL     OW11869   4.984   5.481   5.872
 3657SOL    HW111870   5.026   5.566   5.841
 3657SOL    HW211871   4.977   5.482   5.972
 3658SOL     OW11872   1.282   5.953   3.706
 3658SOL    HW111873   1.186   5.928   3.696
 3658SOL    HW211874   1.303   6.030   3.645
 3659SOL     OW11875   3.137   3.007   5.475
 3659SOL    HW111876   3.171   2.938   5.539
 3659SOL    HW211877   3.082   2.962   5.404
 3660SOL     OW11878   4.770   6.763   2.349
 3660SOL    HW111879   4.684   6.803   2.316
 3660SOL    HW211880   4.758   6.729   2.442
 3661SOL     OW11881   4.647   1.855   6.428
 3661SOL    HW111882   4.596   1.819   6.506
 3661SOL    HW211883   4.637   1.793   6.350
 3662SOL     OW11884   4.568   0.860   3.736
 3662SOL    HW111885   4.534   0.791   3.800
 3662SOL    HW211886   4.497   0.930   3.723
 3663SOL     OW11887   1.857   1.676   0.853
 3663SOL    HW111888   1.783   1.736   0.822
 3663SOL    HW211889   1.832   1.580   0.837
 3664SOL     OW11890   4.840   2.291   1.403
 3664SOL    HW111891   4.771   2.341   1.456
 3664SOL    HW211892   4.856   2.338   1.316
 3665SOL     OW11893   0.617   5.735   5.633
 3665SOL    HW111894   0.683   5.738   5.557
 3665SOL    HW211895   0.612   5.825   5.676
 3666SOL     OW11896   1.930   4.201   2.666
 3666SOL    HW111897   1.839   4.234   2.641
 3666SOL    HW211898   1.963   4.138   2.595
 3667SOL     OW11899   6.464   0.487   0.615
 3667SOL    HW111900   6.486   0.576   0.656
 3667SOL    HW211901   6.478   0.415   0.684
 3668SOL     OW11902   1.543   0.598   2.150
 3668SOL    HW111903   1.587   0.583   2.239
 3668SOL    HW211904   1.444   0.599   2.162
 3669SOL     OW11905   6.010   0.898   4.279
 3669SOL    HW111906   6.095   0.948   4.294
 3669SOL    HW211907   5.979   0.859   4.366
 3670SOL     OW11908   2.523   4.173   0.983
 3670SOL    HW111909   2.506   4.262   0.940
 3670SOL    HW211910   2.558   4.109   0.915
 3671SOL     OW11911   6.200   0.253   4.159
 3671SOL    HW111912   6.225   0.345   4.189
 3671SOL    HW211913   6.276   0.191   4.179
 3672SOL     OW11914   5.356   1.629   1.319
 3672SOL    HW111915   5.291   1.565   1.359
 3672SOL    HW211916   5.441   1.628   1.371
 3673SOL     OW11917   3.617   0.050   5.759
 3673SOL    HW111918   3.536   0.018   5.809
 3673SOL    HW211919   3.606   0.029   5.662
 3674SOL     OW11920   0.268   0.179   5.311
 3674SOL    HW111921   0.220   0.266   5.302
 3674SOL    HW211922   0.248   0.139   5.400
 3675SOL     OW11923   2.140   3.169   5.039
 3675SOL    HW111924   2.115   3.074   5.024
 3675SOL    HW211925   2.237   3.175   5.062
 3676SOL     OW11926   4.505   4.868   4.692
 3676SOL    HW111927   4.528   4.956   4.651
 3676SOL    HW211928   4.414   4.839   4.661
 3677SOL     OW11929   1.163   6.517   3.315
 3677SOL    HW111930   1.089   6.491   3.377
 3677SOL    HW211931   1.144   6.480   3.223
 3678SOL     OW11932   0.969   3.773   3.989
 3678SOL    HW111933   0.986   3.861   3.946
 3678SOL    HW211934   0.946   3.705   3.919
 3679SOL     OW11935   1.583   0.906   3.486
 3679SOL    HW111936   1.588   0.994   3.438
 3679SOL    HW211937   1.490   0.870   3.479
 3680SOL     OW11938   5.513   2.356   3.782
 3680SOL    HW111939   5.478   2.319   3.696
 3680SOL    HW211940   5.443   2.411   3.826
 3681SOL     OW11941   0.595   0.663   5.118
 3681SOL    HW111942   0.567   0.750   5.077
 3681SOL    HW211943   0.695   0.661   5.127
 3682SOL     OW11944   5.884   2.690   6.711
 3682SOL    HW111945   5.883   2.595   6.681
 3682SOL    HW211946   5.874   2.750   6.631
 3683SOL     OW11947   0.012   6.694   4.176
 3683SOL    HW111948   0.084   6.630   4.203
 3683SOL    HW211949   6.960   6.643   4.148
 3684SOL     OW11950   1.814   3.701   0.157
 3684SOL    HW111951   1.781   3.783   0.111
 3684SOL    HW211952   1.736   3.649   0.192
 3685SOL     OW11953   6.536   6.360   6.496
 3685SOL    HW111954   6.619   6.400   6.457
 3685SOL    HW211955   6.561   6.303   6.575
 3686SOL     OW11956   6.285   5.671   3.649
 3686SOL    HW111957   6.187   5.681   3.668
 3686SOL    HW211958   6.337   5.716   3.722
 3687SOL     OW11959   3.845   6.220   5.531
 3687SOL    HW111960   3.819   6.179   5.619
 3687SOL    HW211961   3.881   6.312   5.547
 3688SOL     OW11962   1.033   3.639   6.310
 3688SOL    HW111963   1.089   3.710   6.353
 3688SOL    HW211964   1.074   3.550   6.327
 3689SOL     OW11965   1.418   0.423   6.639
 3689SOL    HW111966   1.463   0.484   6.704
 3689SOL    HW211967   1.357   0.360   6.687
 3690SOL     OW11968   4.188   0.045   6.232
 3690SOL    HW111969   4.152   0.105   6.160
 3690SOL    HW211970   4.114   7.015   6.265
 3691SOL     OW11971   2.486   2.558   0.073
 3691SOL    HW111972   2.501   2.526   0.166
 3691SOL    HW211973   2.408   2.620   0.071
 3692SOL     OW11974   0.866   6.089   5.028
 3692SOL    HW111975   0.788   6.037   4.993
 3692SOL    HW211976   0.842   6.132   5.115
 3693SOL     OW11977   2.156   2.533   2.470
 3693SOL    HW111978   2.252   2.554   2.491
 3693SOL    HW211979   2.152   2.479   2.386
 3694SOL     OW11980   0.996   5.663   3.175
 3694SOL    HW111981   0.992   5.619   3.264
 3694SOL    HW211982   0.997   5.762   3.187
 3695SOL     OW11983   6.429   2.773   2.530
 3695SOL    HW111984   6.379   2.762   2.616
 3695SOL    HW211985   6.417   2.867   2.497
 3696SOL     OW11986   3.309   5.737   5.247
 3696SOL    HW111987   3.357   5.799   5.309
 3696SOL    HW211988   3.211   5.752   5.253
 3697SOL     OW11989   0.198   5.840   3.499
 3697SOL    HW111990   0.293   5.816   3.480
 3697SOL    HW211991   0.177   5.820   3.595
 3698SOL     OW11992   2.811   6.492   4.923
 3698SOL    HW111993   2.716   6.475   4.897
 3698SOL    HW211994   2.816   6.514   5.020
 3699SOL     OW11995   6.730   3.324   3.219
 3699SOL    HW111996   6.789   3.262   3.167
 3699SOL    HW211997   6.693   3.394   3.158
 3700SOL     OW11998   0.013   0.293   4.559
 3700SOL    HW111999   0.062   0.320   4.476
 3700SOL    HW212000   6.962   0.240   4.534
 3701SOL     OW12001   0.622   0.544   3.685
 3701SOL    HW112002   0.672   0.461   3.710
 3701SOL    HW212003   0.564   0.572   3.761
 3702SOL     OW12004   4.652   0.048   2.155
 3702SOL    HW112005   4.665   0.010   2.063
 3702SOL    HW212006   4.707   0.131   2.165
 3703SOL     OW12007   4.655   2.777   6.576
 3703SOL    HW112008   4.675   2.750   6.670
 3703SOL    HW212009   4.687   2.871   6.561
 3704SOL     OW12010   2.828   0.496   1.617
 3704SOL    HW112011   2.797   0.562   1.548
 3704SOL    HW212012   2.826   0.404   1.578
 3705SOL     OW12013   5.472   6.216   3.653
 3705SOL    HW112014   5.510   6.124   3.661
 3705SOL    HW212015   5.375   6.214   3.679
 3706SOL     OW12016   1.131   3.238   4.529
 3706SOL    HW112017   1.175   3.267   4.614
 3706SOL    HW212018   1.039   3.205   4.549
 3707SOL     OW12019   6.061   3.444   5.136
 3707SOL    HW112020   6.023   3.463   5.226
 3707SOL    HW212021   6.012   3.498   5.067
 3708SOL     OW12022   6.380   1.178   6.386
 3708SOL    HW112023   6.423   1.215   6.468
 3708SOL    HW212024   6.430   1.096   6.356
 3709SOL     OW12025   4.016   0.707   0.093
 3709SOL    HW112026   4.066   0.692   0.008
 3709SOL    HW212027   3.964   0.625   0.117
 3710SOL     OW12028   6.710   6.466   0.417
 3710SOL    HW112029   6.760   6.381   0.399
 3710SOL    HW212030   6.775   6.537   0.447
 3711SOL     OW12031   6.955   6.744   2.258
 3711SOL    HW112032   6.889   6.709   2.324
 3711SOL    HW212033   0.015   6.701   2.273
 3712SOL     OW12034   6.838   6.342   7.015
 3712SOL    HW112035   6.900   6.399   0.039
 3712SOL    HW212036   6.887   6.301   6.938
 3713SOL     OW12037   1.376   6.344   4.494
 3713SOL    HW112038   1.295   6.376   4.543
 3713SOL    HW212039   1.410   6.418   4.435
 3714SOL     OW12040   4.900   5.426   5.005
 3714SOL    HW112041   4.852   5.499   4.956
 3714SOL    HW212042   4.883   5.435   5.103
 3715SOL     OW12043   6.241   4.175   3.863
 3715SOL    HW112044   6.188   4.093   3.843
 3715SOL    HW212045   6.320   4.151   3.920
 3716SOL     OW12046   6.036   6.902   5.395
 3716SOL    HW112047   6.087   6.821   5.367
 3716SOL    HW212048   5.943   6.877   5.422
 3717SOL     OW12049   5.766   5.466   6.255
 3717SOL    HW112050   5.851   5.453   6.307
 3717SOL    HW212051   5.732   5.559   6.269
 3718SOL     OW12052   2.288   0.341   5.953
 3718SOL    HW112053   2.343   0.313   5.874
 3718SOL    HW212054   2.335   0.316   6.037
 3719SOL     OW12055   5.715   4.670   1.151
 3719SOL    HW112056   5.792   4.718   1.195
 3719SOL    HW212057   5.685   4.721   1.071
 3720SOL     OW12058   5.968   2.345   5.622
 3720SOL    HW112059   5.986   2.422   5.683
 3720SOL    HW212060   5.880   2.359   5.576
 3721SOL     OW12061   5.152   4.838   0.916
 3721SOL    HW112062   5.088   4.776   0.871
 3721SOL    HW212063   5.165   4.810   1.011
 3722SOL     OW12064   6.401   0.076   2.456
 3722SOL    HW112065   6.318   0.020   2.462
 3722SOL    HW212066   6.415   0.125   2.542
 3723SOL     OW12067   5.958   6.356   1.607
 3723SOL    HW112068   5.958   6.433   1.544
 3723SOL    HW212069   6.006   6.381   1.691
 3724SOL     OW12070   2.035   5.427   6.468
 3724SOL    HW112071   1.990   5.400   6.553
 3724SOL    HW212072   1.968   5.467   6.406
 3725SOL     OW12073   5.321   5.852   0.492
 3725SOL    HW112074   5.390   5.800   0.542
 3725SOL    HW212075   5.366   5.911   0.424
 3726SOL     OW12076   6.403   5.013   0.628
 3726SOL    HW112077   6.410   5.072   0.708
 3726SOL    HW212078   6.380   4.920   0.657
 3727SOL     OW12079   6.853   2.727   6.030
 3727SOL    HW112080   6.829   2.669   5.952
 3727SOL    HW212081   6.771   2.744   6.085
 3728SOL     OW12082   1.348   3.918   0.156
 3728SOL    HW112083   1.252   3.896   0.139
 3728SOL    HW212084   1.376   3.992   0.094
 3729SOL     OW12085   1.739   2.217   3.587
 3729SOL    HW112086   1.820   2.164   3.612
 3729SOL    HW212087   1.657   2.162   3.605
 3730SOL     OW12088   2.657   5.251   6.206
 3730SOL    HW112089   2.627   5.309   6.281
 3730SOL    HW212090   2.578   5.228   6.148
 3731SOL     OW12091   4.468   0.043   0.691
 3731SOL    HW112092   4.543   0.090   0.738
 3731SOL    HW212093   4.488   0.037   0.593
 3732SOL     OW12094   1.377   2.411   6.651
 3732SOL    HW112095   1.466   2.405   6.607
 3732SOL    HW212096   1.367   2.335   6.715
 3733SOL     OW12097   1.358   3.566   1.639
 3733SOL    HW112098   1.311   3.578   1.552
 3733SOL    HW212099   1.325   3.484   1.684
 3734SOL     OW12100   4.258   1.460   1.860
 3734SOL    HW112101   4.297   1.518   1.931
 3734SOL    HW212102   4.185   1.404   1.900
 3735SOL     OW12103   1.812   1.178   3.756
 3735SOL    HW112104   1.811   1.264   3.706
 3735SOL    HW212105   1.854   1.106   3.700
 3736SOL     OW12106   6.545   2.986   1.299
 3736SOL    HW112107   6.504   3.077   1.300
 3736SOL    HW212108   6.565   2.957   1.393
 3737SOL     OW12109   5.316   0.150   2.933
 3737SOL    HW112110   5.280   0.218   2.997
 3737SOL    HW212111   5.283   0.171   2.841
 3738SOL     OW12112   6.747   6.356   2.506
 3738SOL    HW112113   6.709   6.350   2.598
 3738SOL    HW212114   6.822   6.423   2.505
 3739SOL     OW12115   1.910   4.938   1.655
 3739SOL    HW112116   1.854   5.009   1.698
 3739SOL    HW212117   1.891   4.850   1.700
 3740SOL     OW12118   4.421   0.271   0.263
 3740SOL    HW112119   4.479   0.327   0.323
 3740SOL    HW212120   4.326   0.280   0.291
 3741SOL     OW12121   4.475   3.288   1.501
 3741SOL    HW112122   4.573   3.302   1.509
 3741SOL    HW212123   4.445   3.220   1.569
 3742SOL     OW12124   2.285   2.084   6.027
 3742SOL    HW112125   2.336   2.165   5.996
 3742SOL    HW212126   2.202   2.074   5.973
 3743SOL     OW12127   5.763   4.275   0.712
 3743SOL    HW112128   5.699   4.287   0.788
 3743SOL    HW212129   5.726   4.320   0.630
 3744SOL     OW12130   0.720   5.990   2.885
 3744SOL    HW112131   0.627   6.028   2.879
 3744SOL    HW212132   0.715   5.896   2.917
 3745SOL     OW12133   3.625   5.161   2.083
 3745SOL    HW112134   3.554   5.091   2.087
 3745SOL    HW212135   3.715   5.117   2.091
 3746SOL     OW12136   4.958   1.804   2.622
 3746SOL    HW112137   4.916   1.894   2.633
 3746SOL    HW212138   4.902   1.749   2.559
 3747SOL     OW12139   3.290   6.760   5.713
 3747SOL    HW112140   3.352   6.681   5.718
 3747SOL    HW212141   3.338   6.841   5.746
 3748SOL     OW12142   4.962   0.759   1.625
 3748SOL    HW112143   4.961   0.800   1.534
 3748SOL    HW212144   5.057   0.748   1.655
 3749SOL     OW12145   1.648   6.741   4.208
 3749SOL    HW112146   1.649   6.761   4.306
 3749SOL    HW212147   1.654   6.826   4.156
 3750SOL     OW12148   2.278   4.322   0.324
 3750SOL    HW112149   2.272   4.413   0.365
 3750SOL    HW212150   2.325   4.328   0.236
 3751SOL     OW12151   6.312   3.367   2.148
 3751SOL    HW112152   6.412   3.366   2.143
 3751SOL    HW212153   6.275   3.404   2.062
 3752SOL     OW12154   4.889   0.433   5.782
 3752SOL    HW112155   4.938   0.412   5.866
 3752SOL    HW212156   4.835   0.517   5.794
 3753SOL     OW12157   6.182   0.560   5.235
 3753SOL    HW112158   6.226   0.613   5.162
 3753SOL    HW212159   6.083   0.570   5.227
 3754SOL     OW12160   2.793   0.599   2.223
 3754SOL    HW112161   2.769   0.661   2.298
 3754SOL    HW212162   2.831   0.652   2.147
 3755SOL     OW12163   3.636   5.367   4.993
 3755SOL    HW112164   3.586   5.450   4.966
 3755SOL    HW212165   3.714   5.392   5.050
 3756SOL     OW12166   3.347   5.481   6.540
 3756SOL    HW112167   3.346   5.495   6.639
 3756SOL    HW212168   3.366   5.568   6.495
 3757SOL     OW12169   6.378   5.530   1.814
 3757SOL    HW112170   6.475   5.547   1.830
 3757SOL    HW212171   6.333   5.616   1.790
 3758SOL     OW12172   1.639   1.295   4.484
 3758SOL    HW112173   1.652   1.200   4.456
 3758SOL    HW212174   1.711   1.352   4.444
 3759SOL     OW12175   4.430   0.467   5.386
 3759SOL    HW112176   4.529   0.474   5.398
 3759SOL    HW212177   4.390   0.558   5.385
 3760SOL     OW12178   0.811   1.073   3.214
 3760SOL    HW112179   0.735   1.135   3.233
 3760SOL    HW212180   0.897   1.123   3.220
 3761SOL     OW12181   6.757   0.936   4.571
 3761SOL    HW112182   6.811   0.882   4.636
 3761SOL    HW212183   6.675   0.885   4.547
 3762SOL     OW12184   1.490   4.350   1.856
 3762SOL    HW112185   1.482   4.310   1.765
 3762SOL    HW212186   1.436   4.434   1.861
 3763SOL     OW12187   6.475   4.155   0.581
 3763SOL    HW112188   6.529   4.070   0.585
 3763SOL    HW212189   6.392   4.144   0.636
 3764SOL     OW12190   1.886   6.661   2.861
 3764SOL    HW112191   1.962   6.597   2.868
 3764SOL    HW212192   1.918   6.753   2.882
 3765SOL     OW12193   6.264   1.638   1.223
 3765SOL    HW112194   6.192   1.568   1.220
 3765SOL    HW212195   6.279   1.667   1.317
 3766SOL     OW12196   2.018   1.906   4.313
 3766SOL    HW112197   2.073   1.834   4.269
 3766SOL    HW212198   2.059   1.995   4.292
 3767SOL     OW12199   3.337   4.087   6.148
 3767SOL    HW112200   3.315   4.131   6.235
 3767SOL    HW212201   3.380   4.154   6.086
 3768SOL     OW12202   1.133   0.922   4.745
 3768SOL    HW112203   1.191   0.934   4.665
 3768SOL    HW212204   1.189   0.911   4.827
 3769SOL     OW12205   6.002   5.629   5.190
 3769SOL    HW112206   5.975   5.722   5.164
 3769SOL    HW212207   5.920   5.571   5.196
 3770SOL     OW12208   1.157   0.899   6.946
 3770SOL    HW112209   1.098   0.895   7.027
 3770SOL    HW212210   1.100   0.891   6.864
 3771SOL     OW12211   5.796   4.232   6.615
 3771SOL    HW112212   5.751   4.253   6.702
 3771SOL    HW212213   5.843   4.144   6.623
 3772SOL     OW12214   0.881   0.045   0.472
 3772SOL    HW112215   0.814   0.066   0.401
 3772SOL    HW212216   0.902   6.976   0.469
 3773SOL     OW12217   5.692   3.232   5.809
 3773SOL    HW112218   5.709   3.209   5.905
 3773SOL    HW212219   5.660   3.327   5.803
 3774SOL     OW12220   5.558   5.438   1.838
 3774SOL    HW112221   5.488   5.472   1.776
 3774SOL    HW212222   5.514   5.396   1.918
 3775SOL     OW12223   4.110   4.777   3.817
 3775SOL    HW112224   4.065   4.827   3.743
 3775SOL    HW212225   4.104   4.831   3.902
 3776SOL     OW12226   3.507   2.583   6.446
 3776SOL    HW112227   3.452   2.504   6.418
 3776SOL    HW212228   3.540   2.570   6.540
 3777SOL     OW12229   2.551   5.905   3.966
 3777SOL    HW112230   2.576   5.988   4.015
 3777SOL    HW212231   2.634   5.856   3.938
 3778SOL     OW12232   2.480   6.038   3.654
 3778SOL    HW112233   2.396   6.090   3.636
 3778SOL    HW212234   2.465   5.977   3.732
 3779SOL     OW12235   0.418   4.833   1.026
 3779SOL    HW112236   0.373   4.853   1.113
 3779SOL    HW212237   0.397   4.739   0.998
 3780SOL     OW12238   0.445   3.318   3.771
 3780SOL    HW112239   0.364   3.352   3.819
 3780SOL    HW212240   0.527   3.342   3.824
 3781SOL     OW12241   0.700   6.795   4.367
 3781SOL    HW112242   0.702   6.777   4.466
 3781SOL    HW212243   0.791   6.822   4.337
 3782SOL     OW12244   3.737   6.536   2.556
 3782SOL    HW112245   3.647   6.535   2.599
 3782SOL    HW212246   3.778   6.627   2.566
 3783SOL     OW12247   6.507   5.250   4.161
 3783SOL    HW112248   6.588   5.303   4.136
 3783SOL    HW212249   6.530   5.153   4.159
 3784SOL     OW12250   5.191   2.429   2.339
 3784SOL    HW112251   5.107   2.422   2.392
 3784SOL    HW212252   5.184   2.506   2.275
 3785SOL     OW12253   1.090   3.227   5.054
 3785SOL    HW112254   1.182   3.201   5.084
 3785SOL    HW212255   1.044   3.278   5.127
 3786SOL     OW12256   2.144   3.682   3.066
 3786SOL    HW112257   2.094   3.658   2.983
 3786SOL    HW212258   2.150   3.603   3.126
 3787SOL     OW12259   5.590   0.452   2.962
 3787SOL    HW112260   5.688   0.462   2.943
 3787SOL    HW212261   5.538   0.513   2.904
 3788SOL     OW12262   6.097   4.915   4.899
 3788SOL    HW112263   6.029   4.897   4.969
 3788SOL    HW212264   6.109   5.014   4.888
 3789SOL     OW12265   6.854   3.775   2.999
 3789SOL    HW112266   6.826   3.756   2.904
 3789SOL    HW212267   6.865   3.689   3.048
 3790SOL     OW12268   1.050   4.835   6.444
 3790SOL    HW112269   1.140   4.860   6.409
 3790SOL    HW212270   0.979   4.866   6.381
 3791SOL     OW12271   5.151   2.020   6.835
 3791SOL    HW112272   5.065   2.062   6.809
 3791SOL    HW212273   5.135   1.925   6.863
 3792SOL     OW12274   0.883   1.402   4.386
 3792SOL    HW112275   0.878   1.361   4.295
 3792SOL    HW212276   0.940   1.484   4.383
 3793SOL     OW12277   5.610   6.558   1.281
 3793SOL    HW112278   5.530   6.611   1.311
 3793SOL    HW212279   5.647   6.599   1.197
 3794SOL     OW12280   2.042   2.997   1.731
 3794SOL    HW112281   2.114   3.056   1.766
 3794SOL    HW212282   2.032   3.011   1.633
 3795SOL     OW12283   3.216   5.124   1.249
 3795SOL    HW112284   3.254   5.182   1.322
 3795SOL    HW212285   3.117   5.116   1.261
 3796SOL     OW12286   3.935   1.975   0.934
 3796SOL    HW112287   3.936   2.050   0.867
 3796SOL    HW212288   4.028   1.959   0.967
 3797SOL     OW12289   0.781   4.054   3.304
 3797SOL    HW112290   0.810   4.045   3.209
 3797SOL    HW212291   0.705   4.118   3.310
 3798SOL     OW12292   3.430   6.345   2.360
 3798SOL    HW112293   3.450   6.406   2.284
 3798SOL    HW212294   3.419   6.399   2.444
 3799SOL     OW12295   0.142   2.895   3.544
 3799SOL    HW112296   0.132   2.991   3.572
 3799SOL    HW212297   0.090   2.878   3.461
 3800SOL     OW12298   5.463   2.220   4.014
 3800SOL    HW112299   5.503   2.245   4.102
 3800SOL    HW212300   5.501   2.279   3.942
 3801SOL     OW12301   5.578   6.880   1.865
 3801SOL    HW112302   5.665   6.920   1.835
 3801SOL    HW212303   5.594   6.822   1.945
 3802SOL     OW12304   6.984   1.519   2.567
 3802SOL    HW112305   6.925   1.439   2.571
 3802SOL    HW212306   0.038   1.502   2.619
 3803SOL     OW12307   4.138   3.725   3.478
 3803SOL    HW112308   4.227   3.761   3.450
 3803SOL    HW212309   4.147   3.679   3.566
 3804SOL     OW12310   3.860   1.511   4.153
 3804SOL    HW112311   3.848   1.423   4.199
 3804SOL    HW212312   3.834   1.585   4.216
 3805SOL     OW12313   1.645   2.548   2.069
 3805SOL    HW112314   1.620   2.599   2.151
 3805SOL    HW212315   1.607   2.593   1.989
 3806SOL     OW12316   3.298   3.491   5.839
 3806SOL    HW112317   3.289   3.397   5.805
 3806SOL    HW212318   3.394   3.519   5.833
 3807SOL     OW12319   2.079   4.693   3.479
 3807SOL    HW112320   2.038   4.686   3.388
 3807SOL    HW212321   2.050   4.616   3.535
 3808SOL     OW12322   4.438   0.444   6.493
 3808SOL    HW112323   4.386   0.530   6.490
 3808SOL    HW212324   4.374   0.367   6.490
 3809SOL     OW12325   5.701   2.520   1.814
 3809SOL    HW112326   5.674   2.597   1.757
 3809SOL    HW212327   5.620   2.470   1.845
 3810SOL     OW12328   6.511   2.560   3.415
 3810SOL    HW112329   6.531   2.648   3.373
 3810SOL    HW212330   6.486   2.494   3.344
 3811SOL     OW12331   0.220   6.034   4.265
 3811SOL    HW112332   0.139   5.979   4.243
 3811SOL    HW212333   0.284   5.980   4.320
 3812SOL     OW12334   3.417   4.854   5.966
 3812SOL    HW112335   3.464   4.766   5.975
 3812SOL    HW212336   3.443   4.897   5.880
 3813SOL     OW12337   5.894   3.559   0.743
 3813SOL    HW112338   5.860   3.516   0.827
 3813SOL    HW212339   5.888   3.493   0.667
 3814SOL     OW12340   6.896   0.197   4.165
 3814SOL    HW112341   6.950   0.247   4.233
 3814SOL    HW212342   6.809   0.167   4.206
 3815SOL     OW12343   4.272   2.612   1.247
 3815SOL    HW112344   4.181   2.625   1.206
 3815SOL    HW212345   4.262   2.569   1.337
 3816SOL     OW12346   1.000   5.651   5.803
 3816SOL    HW112347   1.060   5.639   5.882
 3816SOL    HW212348   0.905   5.656   5.833
 3817SOL     OW12349   4.946   3.573   2.377
 3817SOL    HW112350   4.974   3.535   2.289
 3817SOL    HW212351   4.923   3.670   2.366
 3818SOL     OW12352   0.027   0.661   1.072
 3818SOL    HW112353   6.984   0.698   1.130
 3818SOL    HW212354   0.083   0.736   1.036
 3819SOL     OW12355   5.845   4.428   2.252
 3819SOL    HW112356   5.838   4.333   2.221
 3819SOL    HW212357   5.924   4.438   2.313
 3820SOL     OW12358   6.683   6.173   3.605
 3820SOL    HW112359   6.711   6.215   3.691
 3820SOL    HW212360   6.765   6.150   3.551
 3821SOL     OW12361   1.335   1.122   1.963
 3821SOL    HW112362   1.368   1.057   1.894
 3821SOL    HW212363   1.301   1.072   2.043
 3822SOL     OW12364   2.295   6.672   6.413
 3822SOL    HW112365   2.374   6.732   6.422
 3822SOL    HW212366   2.317   6.598   6.349
 3823SOL     OW12367   4.151   3.880   6.632
 3823SOL    HW112368   4.084   3.858   6.560
 3823SOL    HW212369   4.136   3.820   6.710
 3824SOL     OW12370   0.976   2.647   0.724
 3824SOL    HW112371   1.068   2.611   0.740
 3824SOL    HW212372   0.922   2.579   0.674
 3825SOL     OW12373   1.191   4.181   0.204
 3825SOL    HW112374   1.220   4.104   0.260
 3825SOL    HW212375   1.095   4.202   0.224
 3826SOL     OW12376   6.802   3.518   1.580
 3826SOL    HW112377   6.843   3.428   1.595
 3826SOL    HW212378   6.707   3.508   1.552
 3827SOL     OW12379   0.897   0.941   1.177
 3827SOL    HW112380   0.956   0.952   1.258
 3827SOL    HW212381   0.812   0.896   1.204
 3828SOL     OW12382   3.611   3.882   4.283
 3828SOL    HW112383   3.602   3.979   4.260
 3828SOL    HW212384   3.631   3.873   4.381
 3829SOL     OW12385   0.498   5.091   1.973
 3829SOL    HW112386   0.559   5.020   2.008
 3829SOL    HW212387   0.442   5.054   1.899
 3830SOL     OW12388   0.455   1.508   5.917
 3830SOL    HW112389   0.521   1.446   5.959
 3830SOL    HW212390   0.372   1.456   5.893
 3831SOL     OW12391   4.365   2.401   2.634
 3831SOL    HW112392   4.308   2.334   2.679
 3831SOL    HW212393   4.402   2.465   2.701
 3832SOL     OW12394   6.926   0.675   2.319
 3832SOL    HW112395   6.965   0.698   2.408
 3832SOL    HW212396   6.827   0.661   2.329
 3833SOL     OW12397   0.926   6.172   6.339
 3833SOL    HW112398   0.956   6.118   6.418
 3833SOL    HW212399   0.849   6.230   6.365
 3834SOL     OW12400   3.937   4.316   0.960
 3834SOL    HW112401   3.852   4.277   0.925
 3834SOL    HW212402   3.950   4.408   0.923
 3835SOL     OW12403   4.068   6.013   5.433
 3835SOL    HW112404   4.002   6.088   5.427
 3835SOL    HW212405   4.139   6.026   5.363
 3836SOL     OW12406   0.125   4.883   5.748
 3836SOL    HW112407   0.077   4.942   5.814
 3836SOL    HW212408   0.171   4.940   5.680
 3837SOL     OW12409   4.354   4.975   5.275
 3837SOL    HW112410   4.278   4.914   5.251
 3837SOL    HW212411   4.346   5.004   5.370
 3838SOL     OW12412   1.161   2.725   3.470
 3838SOL    HW112413   1.257   2.749   3.488
 3838SOL    HW212414   1.142   2.634   3.506
 3839SOL     OW12415   5.092   1.818   2.873
 3839SOL    HW112416   5.171   1.877   2.859
 3839SOL    HW212417   5.044   1.805   2.786
 3840SOL     OW12418   3.008   1.649   6.687
 3840SOL    HW112419   2.970   1.602   6.607
 3840SOL    HW212420   3.023   1.583   6.760
 3841SOL     OW12421   0.964   3.415   4.355
 3841SOL    HW112422   0.975   3.510   4.327
 3841SOL    HW212423   1.041   3.388   4.414
 3842SOL     OW12424   2.242   2.840   3.450
 3842SOL    HW112425   2.274   2.825   3.543
 3842SOL    HW212426   2.303   2.903   3.403
 3843SOL     OW12427   5.290   3.398   2.459
 3843SOL    HW112428   5.302   3.419   2.362
 3843SOL    HW212429   5.196   3.367   2.474
 3844SOL     OW12430   1.467   3.276   6.260
 3844SOL    HW112431   1.504   3.323   6.180
 3844SOL    HW212432   1.380   3.319   6.287
 3845SOL     OW12433   2.465   5.225   6.005
 3845SOL    HW112434   2.533   5.154   5.990
 3845SOL    HW212435   2.473   5.294   5.933
 3846SOL     OW12436   0.854   4.220   3.527
 3846SOL    HW112437   0.948   4.186   3.533
 3846SOL    HW212438   0.807   4.174   3.451
 3847SOL     OW12439   5.242   2.971   4.619
 3847SOL    HW112440   5.240   3.064   4.656
 3847SOL    HW212441   5.299   2.913   4.678
 3848SOL     OW12442   4.887   4.169   2.925
 3848SOL    HW112443   4.947   4.090   2.925
 3848SOL    HW212444   4.929   4.242   2.871
 3849SOL     OW12445   1.432   1.129   6.254
 3849SOL    HW112446   1.429   1.033   6.224
 3849SOL    HW212447   1.342   1.171   6.240
 3850SOL     OW12448   2.955   2.975   1.698
 3850SOL    HW112449   3.019   2.936   1.765
 3850SOL    HW212450   2.907   3.052   1.739
 3851SOL     OW12451   0.355   4.508   3.726
 3851SOL    HW112452   0.315   4.520   3.635
 3851SOL    HW212453   0.297   4.552   3.794
 3852SOL     OW12454   3.710   5.864   3.468
 3852SOL    HW112455   3.699   5.872   3.568
 3852SOL    HW212456   3.681   5.949   3.425
 3853SOL     OW12457   0.792   3.526   3.269
 3853SOL    HW112458   0.815   3.615   3.308
 3853SOL    HW212459   0.773   3.461   3.343
 3854SOL     OW12460   1.259   2.397   2.720
 3854SOL    HW112461   1.317   2.402   2.638
 3854SOL    HW212462   1.303   2.447   2.795
 3855SOL     OW12463   4.332   6.138   6.380
 3855SOL    HW112464   4.265   6.128   6.306
 3855SOL    HW212465   4.423   6.149   6.341
 3856SOL     OW12466   0.277   0.443   6.006
 3856SOL    HW112467   0.273   0.476   6.100
 3856SOL    HW212468   0.368   0.458   5.969
 3857SOL     OW12469   0.762   6.352   6.451
 3857SOL    HW112470   0.805   6.396   6.530
 3857SOL    HW212471   0.667   6.382   6.444
 3858SOL     OW12472   3.068   1.063   5.911
 3858SOL    HW112473   3.046   1.100   5.820
 3858SOL    HW212474   2.983   1.038   5.958
 3859SOL     OW12475   6.616   1.113   1.734
 3859SOL    HW112476   6.628   1.149   1.826
 3859SOL    HW212477   6.589   1.016   1.740
 3860SOL     OW12478   1.428   1.536   4.064
 3860SOL    HW112479   1.448   1.531   4.162
 3860SOL    HW212480   1.348   1.481   4.043
 3861SOL     OW12481   4.376   5.124   4.224
 3861SOL    HW112482   4.422   5.101   4.310
 3861SOL    HW212483   4.339   5.040   4.183
 3862SOL     OW12484   0.420   0.950   4.601
 3862SOL    HW112485   0.505   0.900   4.588
 3862SOL    HW212486   0.425   1.037   4.552
 3863SOL     OW12487   5.965   2.324   7.014
 3863SOL    HW112488   5.940   2.327   0.081
 3863SOL    HW212489   5.897   2.271   6.963
 3864SOL     OW12490   1.727   0.446   5.942
 3864SOL    HW112491   1.764   0.489   6.024
 3864SOL    HW212492   1.719   0.347   5.956
 3865SOL     OW12493   3.902   0.742   1.148
 3865SOL    HW112494   3.876   0.813   1.083
 3865SOL    HW212495   3.840   0.744   1.226
 3866SOL     OW12496   3.707   0.251   0.358
 3866SOL    HW112497   3.804   0.239   0.379
 3866SOL    HW212498   3.668   0.320   0.419
 3867SOL     OW12499   0.610   5.821   3.752
 3867SOL    HW112500   0.590   5.911   3.789
 3867SOL    HW212501   0.576   5.751   3.815
 3868SOL     OW12502   3.199   0.634   0.476
 3868SOL    HW112503   3.138   0.601   0.404
 3868SOL    HW212504   3.166   0.600   0.565
 3869SOL     OW12505   6.171   3.409   4.768
 3869SOL    HW112506   6.204   3.484   4.826
 3869SOL    HW212507   6.239   3.336   4.767
 3870SOL     OW12508   6.630   6.868   0.576
 3870SOL    HW112509   6.623   6.957   0.530
 3870SOL    HW212510   6.560   6.807   0.541
 3871SOL     OW12511   4.050   0.796   3.244
 3871SOL    HW112512   3.980   0.740   3.198
 3871SOL    HW212513   4.044   0.782   3.343
 3872SOL     OW12514   3.044   3.129   3.730
 3872SOL    HW112515   3.048   3.155   3.826
 3872SOL    HW212516   3.027   3.031   3.722
 3873SOL     OW12517   6.218   3.974   1.013
 3873SOL    HW112518   6.118   3.978   1.010
 3873SOL    HW212519   6.252   3.927   0.932
 3874SOL     OW12520   4.378   5.987   0.634
 3874SOL    HW112521   4.376   6.024   0.727
 3874SOL    HW212522   4.400   6.060   0.570
 3875SOL     OW12523   2.122   3.337   2.515
 3875SOL    HW112524   2.127   3.393   2.432
 3875SOL    HW212525   2.206   3.283   2.523
 3876SOL     OW12526   3.323   5.588   0.928
 3876SOL    HW112527   3.364   5.531   0.999
 3876SOL    HW212528   3.258   5.533   0.875
 3877SOL     OW12529   6.203   2.544   1.266
 3877SOL    HW112530   6.299   2.518   1.274
 3877SOL    HW212531   6.156   2.483   1.203
 3878SOL     OW12532   3.779   6.640   4.668
 3878SOL    HW112533   3.698   6.698   4.679
 3878SOL    HW212534   3.802   6.634   4.571
 3879SOL     OW12535   6.015   5.014   0.997
 3879SOL    HW112536   6.033   4.929   0.948
 3879SOL    HW212537   6.002   5.088   0.931
 3880SOL     OW12538   5.574   4.848   4.150
 3880SOL    HW112539   5.574   4.937   4.197
 3880SOL    HW212540   5.616   4.779   4.208
 3881SOL     OW12541   1.355   2.927   2.158
 3881SOL    HW112542   1.338   3.020   2.191
 3881SOL    HW212543   1.439   2.926   2.104
 3882SOL     OW12544   1.026   1.442   6.317
 3882SOL    HW112545   0.972   1.469   6.238
 3882SOL    HW212546   0.968   1.437   6.398
 3883SOL     OW12547   4.832   0.845   2.326
 3883SOL    HW112548   4.867   0.838   2.419
 3883SOL    HW212549   4.903   0.818   2.261
 3884SOL     OW12550   1.147   5.709   2.416
 3884SOL    HW112551   1.094   5.698   2.332
 3884SOL    HW212552   1.225   5.770   2.399
 3885SOL     OW12553   5.578   5.884   2.626
 3885SOL    HW112554   5.485   5.918   2.628
 3885SOL    HW212555   5.582   5.793   2.669
 3886SOL     OW12556   5.704   5.238   5.198
 3886SOL    HW112557   5.781   5.202   5.145
 3886SOL    HW212558   5.706   5.198   5.289
 3887SOL     OW12559   1.058   0.462   0.027
 3887SOL    HW112560   1.071   0.431   6.962
 3887SOL    HW212561   1.126   0.418   0.086
 3888SOL     OW12562   6.758   0.386   4.398
 3888SOL    HW112563   6.701   0.319   4.445
 3888SOL    HW212564   6.835   0.412   4.457
 3889SOL     OW12565   0.224   3.745   0.406
 3889SOL    HW112566   0.240   3.838   0.371
 3889SOL    HW212567   0.171   3.693   0.339
 3890SOL     OW12568   6.089   5.263   3.800
 3890SOL    HW112569   6.051   5.306   3.718
 3890SOL    HW212570   6.189   5.272   3.799
 3891SOL     OW12571   5.438   4.445   4.433
 3891SOL    HW112572   5.433   4.534   4.479
 3891SOL    HW212573   5.533   4.414   4.431
 3892SOL     OW12574   0.086   1.887   1.564
 3892SOL    HW112575   0.112   1.814   1.626
 3892SOL    HW212576   0.154   1.960   1.568
 3893SOL     OW12577   4.548   4.204   0.528
 3893SOL    HW112578   4.556   4.298   0.559
 3893SOL    HW212579   4.452   4.183   0.507
 3894SOL     OW12580   4.512   0.821   0.886
 3894SOL    HW112581   4.528   0.913   0.850
 3894SOL    HW212582   4.468   0.765   0.816
 3895SOL     OW12583   1.673   0.720   5.289
 3895SOL    HW112584   1.620   0.690   5.368
 3895SOL    HW212585   1.689   0.819   5.295
 3896SOL     OW12586   0.289   1.090   5.650
 3896SOL    HW112587   0.216   1.143   5.606
 3896SOL    HW212588   0.295   1.115   5.747
 3897SOL     OW12589   3.644   5.562   2.723
 3897SOL    HW112590   3.603   5.637   2.670
 3897SOL    HW212591   3.649   5.588   2.819
 3898SOL     OW12592   2.667   3.598   5.453
 3898SOL    HW112593   2.746   3.566   5.505
 3898SOL    HW212594   2.689   3.686   5.411
 3899SOL     OW12595   5.255   0.070   4.947
 3899SOL    HW112596   5.240   7.010   4.904
 3899SOL    HW212597   5.247   0.061   5.046
 3900SOL     OW12598   5.308   3.194   4.177
 3900SOL    HW112599   5.210   3.204   4.197
 3900SOL    HW212600   5.320   3.154   4.086
 3901SOL     OW12601   2.406   7.028   5.589
 3901SOL    HW112602   2.466   6.969   5.535
 3901SOL    HW212603   2.316   6.984   5.598
 3902SOL     OW12604   5.365   3.390   1.721
 3902SOL    HW112605   5.344   3.308   1.668
 3902SOL    HW212606   5.442   3.372   1.783
 3903SOL     OW12607   3.580   6.114   6.366
 3903SOL    HW112608   3.481   6.123   6.354
 3903SOL    HW212609   3.626   6.163   6.292
 3904SOL     OW12610   2.523   1.450   5.447
 3904SOL    HW112611   2.555   1.381   5.512
 3904SOL    HW212612   2.584   1.452   5.368
 3905SOL     OW12613   0.253   0.401   6.845
 3905SOL    HW112614   0.232   0.305   6.864
 3905SOL    HW212615   0.180   0.441   6.789
 3906SOL     OW12616   4.788   4.944   6.134
 3906SOL    HW112617   4.877   4.905   6.107
 3906SOL    HW212618   4.799   5.042   6.152
 3907SOL     OW12619   6.121   0.330   4.507
 3907SOL    HW112620   6.022   0.341   4.502
 3907SOL    HW212621   6.149   0.328   4.603
 3908SOL     OW12622   1.523   2.635   0.629
 3908SOL    HW112623   1.575   2.672   0.706
 3908SOL    HW212624   1.498   2.540   0.648
 3909SOL     OW12625   0.298   5.349   5.595
 3909SOL    HW112626   0.219   5.320   5.648
 3909SOL    HW212627   0.290   5.447   5.575
 3910SOL     OW12628   3.459   3.362   1.535
 3910SOL    HW112629   3.369   3.379   1.496
 3910SOL    HW212630   3.489   3.270   1.511
 3911SOL     OW12631   4.664   1.132   6.860
 3911SOL    HW112632   4.667   1.060   6.930
 3911SOL    HW212633   4.605   1.207   6.892
 3912SOL     OW12634   4.587   0.057   5.812
 3912SOL    HW112635   4.562   0.148   5.845
 3912SOL    HW212636   4.554   7.017   5.877
 3913SOL     OW12637   1.848   6.769   6.130
 3913SOL    HW112638   1.792   6.816   6.199
 3913SOL    HW212639   1.801   6.771   6.042
 3914SOL     OW12640   3.944   1.180   0.946
 3914SOL    HW112641   4.022   1.238   0.921
 3914SOL    HW212642   3.920   1.196   1.042
 3915SOL     OW12643   3.869   4.961   2.057
 3915SOL    HW112644   3.860   4.886   1.992
 3915SOL    HW212645   3.841   4.930   2.148
 3916SOL     OW12646   1.574   5.993   3.633
 3916SOL    HW112647   1.639   6.054   3.587
 3916SOL    HW212648   1.587   5.999   3.732
 3917SOL     OW12649   0.264   5.338   0.555
 3917SOL    HW112650   0.171   5.313   0.528
 3917SOL    HW212651   0.325   5.261   0.537
 3918SOL     OW12652   4.715   6.597   2.036
 3918SOL    HW112653   4.696   6.668   2.104
 3918SOL    HW212654   4.772   6.634   1.963
 3919SOL     OW12655   2.288   5.797   6.282
 3919SOL    HW112656   2.279   5.705   6.320
 3919SOL    HW212657   2.260   5.796   6.186
 3920SOL     OW12658   2.802   2.809   0.377
 3920SOL    HW112659   2.893   2.851   0.382
 3920SOL    HW212660   2.785   2.780   0.283
 3921SOL     OW12661   0.059   3.401   1.433
 3921SOL    HW112662   0.113   3.408   1.349
 3921SOL    HW212663   0.053   3.490   1.477
 3922SOL     OW12664   5.785   4.170   2.030
 3922SOL    HW112665   5.712   4.232   2.002
 3922SOL    HW212666   5.755   4.117   2.109
 3923SOL     OW12667   0.158   2.114   6.400
 3923SOL    HW112668   0.194   2.205   6.422
 3923SOL    HW212669   0.227   2.045   6.421
 3924SOL     OW12670   0.780   5.374   3.378
 3924SOL    HW112671   0.803   5.277   3.376
 3924SOL    HW212672   0.849   5.423   3.431
 3925SOL     OW12673   3.313   5.040   0.423
 3925SOL    HW112674   3.281   4.951   0.456
 3925SOL    HW212675   3.369   5.083   0.494
 3926SOL     OW12676   7.020   5.998   3.197
 3926SOL    HW112677   7.014   5.958   3.289
 3926SOL    HW212678   6.933   5.988   3.150
 3927SOL     OW12679   6.449   3.472   3.488
 3927SOL    HW112680   6.367   3.447   3.540
 3927SOL    HW212681   6.439   3.439   3.393
 3928SOL     OW12682   2.951   6.282   5.752
 3928SOL    HW112683   2.872   6.343   5.743
 3928SOL    HW212684   2.938   6.202   5.694
 3929SOL     OW12685   0.041   1.265   5.668
 3929SOL    HW112686   7.017   1.180   5.665
 3929SOL    HW212687   7.009   1.343   5.670
 3930SOL     OW12688   2.135   1.699   3.784
 3930SOL    HW112689   2.114   1.720   3.689
 3930SOL    HW212690   2.052   1.709   3.840
 3931SOL     OW12691   1.632   1.916   2.556
 3931SOL    HW112692   1.556   1.979   2.541
 3931SOL    HW212693   1.707   1.966   2.600
 3932SOL     OW12694   1.305   4.342   2.844
 3932SOL    HW112695   1.359   4.271   2.889
 3932SOL    HW212696   1.285   4.314   2.750
 3933SOL     OW12697   1.740   6.467   0.117
 3933SOL    HW112698   1.789   6.524   0.051
 3933SOL    HW212699   1.716   6.523   0.197
 3934SOL     OW12700   0.185   0.842   0.945
 3934SOL    HW112701   0.276   0.818   0.912
 3934SOL    HW212702   0.189   0.928   0.996
 3935SOL     OW12703   2.218   0.124   6.976
 3935SOL    HW112704   2.263   0.122   6.887
 3935SOL    HW212705   2.214   0.032   7.014
 3936SOL     OW12706   6.648   5.129   5.385
 3936SOL    HW112707   6.655   5.032   5.405
 3936SOL    HW212708   6.728   5.177   5.423
 3937SOL     OW12709   0.018   0.768   2.544
 3937SOL    HW112710   6.980   0.820   2.596
 3937SOL    HW212711   0.090   0.737   2.606
 3938SOL     OW12712   6.970   1.644   3.870
 3938SOL    HW112713   0.026   1.593   3.880
 3938SOL    HW212714   6.990   1.737   3.839
 3939SOL     OW12715   2.486   1.920   2.305
 3939SOL    HW112716   2.397   1.876   2.294
 3939SOL    HW212717   2.517   1.954   2.216
 3940SOL     OW12718   4.438   5.089   2.030
 3940SOL    HW112719   4.346   5.058   2.053
 3940SOL    HW212720   4.465   5.163   2.091
 3941SOL     OW12721   4.894   2.086   6.783
 3941SOL    HW112722   4.888   2.042   6.693
 3941SOL    HW212723   4.824   2.047   6.843
 3942SOL     OW12724   0.316   0.527   6.595
 3942SOL    HW112725   0.315   0.473   6.680
 3942SOL    HW212726   0.238   0.590   6.596
 3943SOL     OW12727   0.700   4.130   2.854
 3943SOL    HW112728   0.791   4.093   2.874
 3943SOL    HW212729   0.702   4.229   2.861
 3944SOL     OW12730   5.185   3.326   5.190
 3944SOL    HW112731   5.155   3.231   5.193
 3944SOL    HW212732   5.188   3.356   5.095
 3945SOL     OW12733   0.874   2.272   2.069
 3945SOL    HW112734   0.785   2.316   2.061
 3945SOL    HW212735   0.943   2.328   2.023
 3946SOL     OW12736   5.681   5.862   6.092
 3946SOL    HW112737   5.743   5.803   6.041
 3946SOL    HW212738   5.634   5.808   6.162
 3947SOL     OW12739   5.993   5.285   0.867
 3947SOL    HW112740   6.076   5.337   0.888
 3947SOL    HW212741   5.922   5.307   0.934
 3948SOL     OW12742   0.659   5.854   1.707
 3948SOL    HW112743   0.561   5.836   1.708
 3948SOL    HW212744   0.684   5.906   1.789
 3949SOL     OW12745   5.912   0.466   3.008
 3949SOL    HW112746   5.911   0.461   3.108
 3949SOL    HW212747   5.890   0.559   2.979
 3950SOL     OW12748   2.377   3.874   1.685
 3950SOL    HW112749   2.337   3.838   1.601
 3950SOL    HW212750   2.331   3.834   1.764
 3951SOL     OW12751   6.104   6.929   0.920
 3951SOL    HW112752   6.075   6.833   0.911
 3951SOL    HW212753   6.051   6.973   0.993
 3952SOL     OW12754   6.219   3.710   2.461
 3952SOL    HW112755   6.199   3.759   2.545
 3952SOL    HW212756   6.315   3.679   2.463
 3953SOL     OW12757   4.148   4.104   1.222
 3953SOL    HW112758   4.072   4.046   1.252
 3953SOL    HW212759   4.209   4.052   1.163
 3954SOL     OW12760   5.477   5.256   5.066
 3954SOL    HW112761   5.402   5.272   5.130
 3954SOL    HW212762   5.563   5.244   5.117
 3955SOL     OW12763   3.056   5.402   6.192
 3955SOL    HW112764   3.032   5.307   6.173
 3955SOL    HW212765   3.099   5.442   6.111
 3956SOL     OW12766   0.070   0.915   2.928
 3956SOL    HW112767   0.028   0.841   2.876
 3956SOL    HW212768   7.027   0.976   2.962
 3957SOL     OW12769   4.546   6.352   3.894
 3957SOL    HW112770   4.640   6.344   3.928
 3957SOL    HW212771   4.515   6.263   3.861
 3958SOL     OW12772   5.640   0.535   6.044
 3958SOL    HW112773   5.726   0.542   5.993
 3958SOL    HW212774   5.616   0.624   6.082
 3959SOL     OW12775   3.956   6.300   0.954
 3959SOL    HW112776   3.967   6.208   0.917
 3959SOL    HW212777   4.000   6.367   0.894
 3960SOL     OW12778   4.351   1.541   6.752
 3960SOL    HW112779   4.370   1.629   6.797
 3960SOL    HW212780   4.382   1.543   6.658
 3961SOL     OW12781   5.468   2.357   2.515
 3961SOL    HW112782   5.386   2.401   2.477
 3961SOL    HW212783   5.543   2.365   2.450
 3962SOL     OW12784   2.597   4.721   6.674
 3962SOL    HW112785   2.661   4.671   6.616
 3962SOL    HW212786   2.646   4.761   6.752
 3963SOL     OW12787   4.795   4.593   4.171
 3963SOL    HW112788   4.837   4.678   4.139
 3963SOL    HW212789   4.847   4.515   4.137
 3964SOL     OW12790   3.763   4.964   3.712
 3964SOL    HW112791   3.846   4.920   3.678
 3964SOL    HW212792   3.700   4.981   3.637
 3965SOL     OW12793   4.615   3.275   6.207
 3965SOL    HW112794   4.658   3.314   6.288
 3965SOL    HW212795   4.548   3.207   6.236
 3966SOL     OW12796   5.251   5.928   0.837
 3966SOL    HW112797   5.244   6.023   0.806
 3966SOL    HW212798   5.160   5.887   0.837
 3967SOL     OW12799   1.534   4.015   1.998
 3967SOL    HW112800   1.515   3.992   1.903
 3967SOL    HW212801   1.632   4.031   2.010
 3968SOL     OW12802   4.885   0.368   1.043
 3968SOL    HW112803   4.884   0.278   0.999
 3968SOL    HW212804   4.858   0.358   1.139
 3969SOL     OW12805   1.606   4.021   2.448
 3969SOL    HW112806   1.690   4.073   2.433
 3969SOL    HW212807   1.539   4.044   2.377
 3970SOL     OW12808   5.698   5.847   3.932
 3970SOL    HW112809   5.710   5.782   3.857
 3970SOL    HW212810   5.703   5.799   4.019
 3971SOL     OW12811   2.452   4.922   1.820
 3971SOL    HW112812   2.394   5.001   1.798
 3971SOL    HW212813   2.532   4.952   1.871
 3972SOL     OW12814   0.863   5.172   0.579
 3972SOL    HW112815   0.956   5.152   0.612
 3972SOL    HW212816   0.804   5.192   0.657
 3973SOL     OW12817   1.144   4.794   5.719
 3973SOL    HW112818   1.095   4.743   5.648
 3973SOL    HW212819   1.100   4.780   5.807
 3974SOL     OW12820   1.410   1.002   4.310
 3974SOL    HW112821   1.358   1.084   4.287
 3974SOL    HW212822   1.505   1.013   4.279
 3975SOL     OW12823   6.044   0.922   5.327
 3975SOL    HW112824   6.063   0.957   5.235
 3975SOL    HW212825   5.985   0.842   5.320
 3976SOL     OW12826   1.467   6.457   1.635
 3976SOL    HW112827   1.387   6.409   1.670
 3976SOL    HW212828   1.450   6.486   1.541
 3977SOL     OW12829   3.010   4.417   5.611
 3977SOL    HW112830   3.103   4.415   5.648
 3977SOL    HW212831   3.015   4.426   5.511
 3978SOL     OW12832   5.435   6.270   5.157
 3978SOL    HW112833   5.344   6.249   5.191
 3978SOL    HW212834   5.486   6.320   5.227
 3979SOL     OW12835   3.060   5.939   0.247
 3979SOL    HW112836   3.139   5.947   0.308
 3979SOL    HW212837   3.092   5.921   0.154
 3980SOL     OW12838   0.414   5.578   0.522
 3980SOL    HW112839   0.447   5.613   0.610
 3980SOL    HW212840   0.369   5.490   0.537
 3981SOL     OW12841   1.906   1.186   0.511
 3981SOL    HW112842   1.855   1.264   0.474
 3981SOL    HW212843   1.994   1.178   0.465
 3982SOL     OW12844   1.865   0.237   4.510
 3982SOL    HW112845   1.788   0.297   4.533
 3982SOL    HW212846   1.853   0.149   4.558
 3983SOL     OW12847   5.370   5.469   4.484
 3983SOL    HW112848   5.363   5.370   4.473
 3983SOL    HW212849   5.304   5.499   4.553
 3984SOL     OW12850   6.932   1.005   2.661
 3984SOL    HW112851   7.001   1.050   2.605
 3984SOL    HW212852   6.844   1.007   2.615
 3985SOL     OW12853   3.667   4.482   6.363
 3985SOL    HW112854   3.704   4.438   6.445
 3985SOL    HW212855   3.615   4.563   6.389
 3986SOL     OW12856   6.438   1.764   3.279
 3986SOL    HW112857   6.362   1.828   3.293
 3986SOL    HW212858   6.502   1.801   3.212
 3987SOL     OW12859   3.003   5.164   3.670
 3987SOL    HW112860   2.992   5.192   3.574
 3987SOL    HW212861   2.921   5.191   3.722
 3988SOL     OW12862   4.169   3.985   0.047
 3988SOL    HW112863   4.187   3.945   6.986
 3988SOL    HW212864   4.240   3.956   0.112
 3989SOL     OW12865   6.854   2.490   6.785
 3989SOL    HW112866   6.894   2.450   6.703
 3989SOL    HW212867   6.836   2.417   6.852
 3990SOL     OW12868   5.262   2.364   3.414
 3990SOL    HW112869   5.167   2.388   3.395
 3990SOL    HW212870   5.310   2.444   3.448
 3991SOL     OW12871   5.701   0.768   2.323
 3991SOL    HW112872   5.770   0.831   2.358
 3991SOL    HW212873   5.641   0.817   2.259
 3992SOL     OW12874   3.836   2.113   0.067
 3992SOL    HW112875   3.781   2.060   0.004
 3992SOL    HW212876   3.803   2.208   0.070
 3993SOL     OW12877   1.057   1.340   2.951
 3993SOL    HW112878   1.133   1.333   2.886
 3993SOL    HW212879   1.047   1.436   2.979
 3994SOL     OW12880   0.779   0.851   6.268
 3994SOL    HW112881   0.831   0.922   6.222
 3994SOL    HW212882   0.827   0.763   6.260
 3995SOL     OW12883   2.066   3.767   5.455
 3995SOL    HW112884   1.993   3.716   5.500
 3995SOL    HW212885   2.152   3.753   5.504
 3996SOL     OW12886   0.976   1.104   3.959
 3996SOL    HW112887   1.075   1.101   3.968
 3996SOL    HW212888   0.943   1.015   3.927
 3997SOL     OW12889   5.084   1.041   3.685
 3997SOL    HW112890   4.987   1.015   3.676
 3997SOL    HW212891   5.092   1.119   3.746
 3998SOL     OW12892   4.393   1.083   3.706
 3998SOL    HW112893   4.315   1.081   3.643
 3998SOL    HW212894   4.380   1.156   3.773
 3999SOL     OW12895   5.997   3.129   3.837
 3999SOL    HW112896   6.068   3.095   3.900
 3999SOL    HW212897   6.039   3.181   3.764
 4000SOL     OW12898   2.907   5.686   2.971
 4000SOL    HW112899   2.824   5.724   3.012
 4000SOL    HW212900   2.987   5.733   3.008
 4001SOL     OW12901   2.511   2.216   4.158
 4001SOL    HW112902   2.569   2.272   4.099
 4001SOL    HW212903   2.545   2.221   4.252
 4002SOL     OW12904   3.001   3.245   0.957
 4002SOL    HW112905   3.051   3.306   1.018
 4002SOL    HW212906   2.936   3.297   0.902
 4003SOL     OW12907   3.051   6.083   3.824
 4003SOL    HW112908   3.049   6.109   3.921
 4003SOL    HW212909   3.081   5.987   3.817
 4004SOL     OW12910   5.356   2.050   4.610
 4004SOL    HW112911   5.399   2.140   4.619
 4004SOL    HW212912   5.357   2.022   4.515
 4005SOL     OW12913   4.388   5.544   0.501
 4005SOL    HW112914   4.371   5.504   0.591
 4005SOL    HW212915   4.486   5.536   0.480
 4006SOL     OW12916   3.427   5.501   3.368
 4006SOL    HW112917   3.493   5.444   3.416
 4006SOL    HW212918   3.447   5.598   3.386
 4007SOL     OW12919   0.637   2.793   1.205
 4007SOL    HW112920   0.683   2.875   1.170
 4007SOL    HW212921   0.623   2.802   1.304
 4008SOL     OW12922   2.835   1.960   3.582
 4008SOL    HW112923   2.917   1.931   3.534
 4008SOL    HW212924   2.842   2.056   3.606
 4009SOL     OW12925   5.271   3.581   1.310
 4009SOL    HW112926   5.203   3.516   1.275
 4009SOL    HW212927   5.349   3.530   1.347
 4010SOL     OW12928   2.446   2.680   1.872
 4010SOL    HW112929   2.537   2.708   1.841
 4010SOL    HW212930   2.382   2.756   1.858
 4011SOL     OW12931   0.463   0.715   2.381
 4011SOL    HW112932   0.410   0.666   2.312
 4011SOL    HW212933   0.551   0.670   2.394
 4012SOL     OW12934   4.118   5.706   1.530
 4012SOL    HW112935   4.166   5.665   1.608
 4012SOL    HW212936   4.170   5.691   1.447
 4013SOL     OW12937   2.520   6.977   6.195
 4013SOL    HW112938   2.469   6.899   6.160
 4013SOL    HW212939   2.513   6.979   6.295
 4014SOL     OW12940   4.469   6.052   2.850
 4014SOL    HW112941   4.404   6.124   2.824
 4014SOL    HW212942   4.461   5.976   2.786
 4015SOL     OW12943   4.968   5.180   6.010
 4015SOL    HW112944   4.970   5.177   6.110
 4015SOL    HW212945   4.903   5.251   5.981
 4016SOL     OW12946   2.620   5.474   6.444
 4016SOL    HW112947   2.642   5.458   6.540
 4016SOL    HW212948   2.528   5.512   6.436
 4017SOL     OW12949   0.502   6.038   1.140
 4017SOL    HW112950   0.416   6.069   1.181
 4017SOL    HW212951   0.503   5.938   1.134
 4018SOL     OW12952   5.191   6.019   3.424
 4018SOL    HW112953   5.154   6.105   3.457
 4018SOL    HW212954   5.160   5.944   3.483
 4019SOL     OW12955   5.983   3.687   2.817
 4019SOL    HW112956   5.917   3.752   2.856
 4019SOL    HW212957   5.935   3.623   2.757
 4020SOL     OW12958   4.991   2.039   5.743
 4020SOL    HW112959   4.938   2.122   5.755
 4020SOL    HW212960   5.082   2.051   5.783
 4021SOL     OW12961   3.602   4.133   6.485
 4021SOL    HW112962   3.629   4.066   6.554
 4021SOL    HW212963   3.564   4.087   6.405
 4022SOL     OW12964   4.221   0.375   6.907
 4022SOL    HW112965   4.202   0.291   6.959
 4022SOL    HW212966   4.266   0.351   6.820
 4023SOL     OW12967   6.246   1.883   4.778
 4023SOL    HW112968   6.304   1.817   4.729
 4023SOL    HW212969   6.301   1.934   4.843
 4024SOL     OW12970   3.500   6.006   3.047
 4024SOL    HW112971   3.535   5.945   2.975
 4024SOL    HW212972   3.455   6.084   3.004
 4025SOL     OW12973   1.096   6.244   3.879
 4025SOL    HW112974   1.108   6.273   3.784
 4025SOL    HW212975   1.179   6.199   3.911
 4026SOL     OW12976   5.949   6.250   4.199
 4026SOL    HW112977   5.865   6.268   4.148
 4026SOL    HW212978   6.004   6.334   4.203
 4027SOL     OW12979   3.691   4.147   1.935
 4027SOL    HW112980   3.777   4.116   1.895
 4027SOL    HW212981   3.649   4.215   1.875
 4028SOL     OW12982   1.290   2.000   3.994
 4028SOL    HW112983   1.196   2.025   4.020
 4028SOL    HW212984   1.287   1.929   3.924
 4029SOL     OW12985   1.917   4.366   6.508
 4029SOL    HW112986   1.970   4.398   6.429
 4029SOL    HW212987   1.883   4.444   6.559
 4030SOL     OW12988   1.424   1.918   5.902
 4030SOL    HW112989   1.364   1.988   5.865
 4030SOL    HW212990   1.462   1.949   5.989
 4031SOL     OW12991   4.743   5.891   3.229
 4031SOL    HW112992   4.840   5.873   3.245
 4031SOL    HW212993   4.688   5.825   3.280
 4032SOL     OW12994   5.931   6.979   2.888
 4032SOL    HW112995   6.025   6.983   2.920
 4032SOL    HW212996   5.899   0.042   2.865
 4033SOL     OW12997   3.588   2.890   3.520
 4033SOL    HW112998   3.682   2.914   3.495
 4033SOL    HW212999   3.535   2.873   3.436
 4034SOL     OW13000   5.462   1.178   5.325
 4034SOL    HW113001   5.561   1.177   5.318
 4034SOL    HW213002   5.434   1.229   5.406
 4035SOL     OW13003   6.659   4.110   1.121
 4035SOL    HW113004   6.725   4.044   1.085
 4035SOL    HW213005   6.692   4.203   1.103
 4036SOL     OW13006   5.696   6.897   2.257
 4036SOL    HW113007   5.676   6.808   2.215
 4036SOL    HW213008   5.645   6.905   2.343
 4037SOL     OW13009   2.079   2.957   0.475
 4037SOL    HW113010   2.146   2.884   0.491
 4037SOL    HW213011   2.106   3.039   0.525
 4038SOL     OW13012   4.861   4.660   1.981
 4038SOL    HW113013   4.800   4.713   1.922
 4038SOL    HW213014   4.846   4.562   1.965
 4039SOL     OW13015   4.781   5.344   1.213
 4039SOL    HW113016   4.771   5.259   1.162
 4039SOL    HW213017   4.876   5.376   1.206
 4040SOL     OW13018   2.831   6.520   0.031
 4040SOL    HW113019   2.740   6.497   0.064
 4040SOL    HW213020   2.824   6.589   6.988
 4041SOL     OW13021   1.603   6.172   2.357
 4041SOL    HW113022   1.604   6.272   2.359
 4041SOL    HW213023   1.623   6.140   2.265
 4042SOL     OW13024   6.158   4.550   2.290
 4042SOL    HW113025   6.117   4.528   2.379
 4042SOL    HW213026   6.163   4.649   2.280
 4043SOL     OW13027   5.806   1.978   3.732
 4043SOL    HW113028   5.867   1.990   3.810
 4043SOL    HW213029   5.847   1.916   3.666
 4044SOL     OW13030   5.998   0.685   4.530
 4044SOL    HW113031   5.906   0.648   4.542
 4044SOL    HW213032   6.057   0.615   4.490
 4045SOL     OW13033   2.630   4.257   5.893
 4045SOL    HW113034   2.569   4.273   5.815
 4045SOL    HW213035   2.688   4.338   5.907
 4046SOL     OW13036   0.630   1.714   3.299
 4046SOL    HW113037   0.719   1.680   3.329
 4046SOL    HW213038   0.580   1.749   3.378
 4047SOL     OW13039   2.715   3.590   0.643
 4047SOL    HW113040   2.618   3.611   0.626
 4047SOL    HW213041   2.754   3.660   0.703
 4048SOL     OW13042   5.803   1.094   1.884
 4048SOL    HW113043   5.887   1.059   1.844
 4048SOL    HW213044   5.724   1.049   1.840
 4049SOL     OW13045   6.632   6.424   6.808
 4049SOL    HW113046   6.672   6.462   6.891
 4049SOL    HW213047   6.704   6.386   6.750
 4050SOL     OW13048   1.616   6.682   6.710
 4050SOL    HW113049   1.665   6.765   6.738
 4050SOL    HW213050   1.680   6.619   6.665
 4051SOL     OW13051   3.054   4.151   0.016
 4051SOL    HW113052   3.030   4.218   6.976
 4051SOL    HW213053   3.031   4.187   0.107
 4052SOL     OW13054   1.400   0.051   0.997
 4052SOL    HW113055   1.419   0.115   0.922
 4052SOL    HW213056   1.301   0.047   1.013
 4053SOL     OW13057   3.197   4.973   3.960
 4053SOL    HW113058   3.209   4.927   4.048
 4053SOL    HW213059   3.286   4.992   3.920
 4054SOL     OW13060   2.648   3.475   0.893
 4054SOL    HW113061   2.692   3.537   0.958
 4054SOL    HW213062   2.693   3.484   0.804
 4055SOL     OW13063   2.942   3.251   5.867
 4055SOL    HW113064   2.872   3.302   5.918
 4055SOL    HW213065   2.969   3.302   5.786
 4056SOL     OW13066   4.479   3.249   6.614
 4056SOL    HW113067   4.566   3.203   6.597
 4056SOL    HW213068   4.491   3.348   6.606
 4057SOL     OW13069   5.270   3.668   0.782
 4057SOL    HW113070   5.315   3.634   0.864
 4057SOL    HW213071   5.337   3.706   0.719
 4058SOL     OW13072   2.415   1.251   4.781
 4058SOL    HW113073   2.413   1.165   4.830
 4058SOL    HW213074   2.358   1.318   4.828
 4059SOL     OW13075   2.403   2.120   3.500
 4059SOL    HW113076   2.409   2.142   3.403
 4059SOL    HW213077   2.475   2.055   3.524
 4060SOL     OW13078   3.489   5.033   4.728
 4060SOL    HW113079   3.505   5.079   4.815
 4060SOL    HW213080   3.567   5.047   4.668
 4061SOL     OW13081   3.608   4.320   1.754
 4061SOL    HW113082   3.512   4.298   1.738
 4061SOL    HW213083   3.617   4.419   1.768
 4062SOL     OW13084   4.596   1.334   3.404
 4062SOL    HW113085   4.551   1.244   3.396
 4062SOL    HW213086   4.679   1.325   3.459
 4063SOL     OW13087   4.349   6.044   6.089
 4063SOL    HW113088   4.406   6.117   6.052
 4063SOL    HW213089   4.258   6.050   6.050
 4064SOL     OW13090   2.217   6.802   2.691
 4064SOL    HW113091   2.255   6.893   2.710
 4064SOL    HW213092   2.156   6.807   2.612
 4065SOL     OW13093   0.465   0.111   0.596
 4065SOL    HW113094   0.477   0.024   0.644
 4065SOL    HW213095   0.550   0.164   0.602
 4066SOL     OW13096   5.449   4.868   1.928
 4066SOL    HW113097   5.522   4.851   1.861
 4066SOL    HW213098   5.411   4.959   1.913
 4067SOL     OW13099   5.296   1.915   3.268
 4067SOL    HW113100   5.243   1.836   3.299
 4067SOL    HW213101   5.233   1.992   3.252
 4068SOL     OW13102   4.799   0.391   5.101
 4068SOL    HW113103   4.791   0.441   5.187
 4068SOL    HW213104   4.709   0.385   5.057
 4069SOL     OW13105   4.669   3.968   0.504
 4069SOL    HW113106   4.611   3.888   0.519
 4069SOL    HW213107   4.614   4.051   0.510
 4070SOL     OW13108   1.856   3.357   2.603
 4070SOL    HW113109   1.906   3.427   2.553
 4070SOL    HW213110   1.830   3.284   2.540
 4071SOL     OW13111   1.387   0.818   5.235
 4071SOL    HW113112   1.480   0.781   5.228
 4071SOL    HW213113   1.361   0.859   5.147
 4072SOL     OW13114   1.582   6.604   4.614
 4072SOL    HW113115   1.547   6.530   4.672
 4072SOL    HW213116   1.508   6.669   4.594
 4073SOL     OW13117   1.657   5.576   5.817
 4073SOL    HW113118   1.712   5.567   5.734
 4073SOL    HW213119   1.631   5.672   5.829
 4074SOL     OW13120   0.091   2.909   2.017
 4074SOL    HW113121   0.019   2.881   2.080
 4074SOL    HW213122   0.151   2.831   2.000
 4075SOL     OW13123   4.579   1.992   2.500
 4075SOL    HW113124   4.572   2.072   2.440
 4075SOL    HW213125   4.519   1.920   2.465
 4076SOL     OW13126   2.179   4.153   5.336
 4076SOL    HW113127   2.192   4.130   5.432
 4076SOL    HW213128   2.250   4.109   5.281
 4077SOL     OW13129   2.792   6.214   0.744
 4077SOL    HW113130   2.880   6.172   0.767
 4077SOL    HW213131   2.798   6.312   0.760
 4078SOL     OW13132   6.245   5.177   1.960
 4078SOL    HW113133   6.278   5.084   1.948
 4078SOL    HW213134   6.244   5.200   2.057
 4079SOL     OW13135   1.459   0.447   3.555
 4079SOL    HW113136   1.550   0.472   3.522
 4079SOL    HW213137   1.393   0.458   3.481
 4080SOL     OW13138   3.243   4.181   0.364
 4080SOL    HW113139   3.282   4.235   0.438
 4080SOL    HW213140   3.193   4.104   0.402
 4081SOL     OW13141   2.125   0.848   5.088
 4081SOL    HW113142   2.039   0.829   5.041
 4081SOL    HW213143   2.202   0.815   5.033
 4082SOL     OW13144   1.533   1.494   6.367
 4082SOL    HW113145   1.484   1.451   6.443
 4082SOL    HW213146   1.615   1.441   6.346
 4083SOL     OW13147   6.057   4.633   3.260
 4083SOL    HW113148   5.965   4.673   3.257
 4083SOL    HW213149   6.084   4.619   3.355
 4084SOL     OW13150   4.835   3.077   3.254
 4084SOL    HW113151   4.821   2.979   3.241
 4084SOL    HW213152   4.821   3.099   3.351
 4085SOL     OW13153   2.566   5.414   0.991
 4085SOL    HW113154   2.613   5.490   1.036
 4085SOL    HW213155   2.570   5.333   1.049
 4086SOL     OW13156   6.860   5.230   0.207
 4086SOL    HW113157   6.883   5.247   0.112
 4086SOL    HW213158   6.760   5.234   0.219
 4087SOL     OW13159   2.941   0.539   2.820
 4087SOL    HW113160   2.923   0.445   2.851
 4087SOL    HW213161   2.859   0.594   2.832
 4088SOL     OW13162   6.367   1.197   5.660
 4088SOL    HW113163   6.270   1.189   5.685
 4088SOL    HW213164   6.420   1.226   5.739
 4089SOL     OW13165   0.057   5.637   4.344
 4089SOL    HW113166   0.132   5.584   4.382
 4089SOL    HW213167   7.028   5.670   4.418
 4090SOL     OW13168   2.092   6.637   5.096
 4090SOL    HW113169   2.110   6.721   5.046
 4090SOL    HW213170   2.165   6.622   5.163
 4091SOL     OW13171   1.107   5.065   0.626
 4091SOL    HW113172   1.098   4.978   0.576
 4091SOL    HW213173   1.180   5.120   0.585
 4092SOL     OW13174   4.875   3.303   4.927
 4092SOL    HW113175   4.816   3.295   4.847
 4092SOL    HW213176   4.855   3.389   4.975
 4093SOL     OW13177   6.243   5.742   1.752
 4093SOL    HW113178   6.217   5.797   1.672
 4093SOL    HW213179   6.176   5.756   1.825
 4094SOL     OW13180   0.616   4.526   6.872
 4094SOL    HW113181   0.570   4.492   6.954
 4094SOL    HW213182   0.621   4.626   6.876
 4095SOL     OW13183   0.491   3.529   6.891
 4095SOL    HW113184   0.456   3.572   6.808
 4095SOL    HW213185   0.425   3.539   6.965
 4096SOL     OW13186   2.196   1.063   6.724
 4096SOL    HW113187   2.108   1.109   6.738
 4096SOL    HW213188   2.261   1.128   6.685
 4097SOL     OW13189   6.130   4.424   5.352
 4097SOL    HW113190   6.224   4.425   5.386
 4097SOL    HW213191   6.110   4.512   5.308
 4098SOL     OW13192   1.972   3.312   1.621
 4098SOL    HW113193   1.992   3.237   1.558
 4098SOL    HW213194   1.964   3.397   1.569
 4099SOL     OW13195   4.215   4.849   0.232
 4099SOL    HW113196   4.178   4.927   0.183
 4099SOL    HW213197   4.141   4.788   0.260
 4100SOL     OW13198   0.933   0.757   3.748
 4100SOL    HW113199   0.908   0.661   3.743
 4100SOL    HW213200   0.853   0.811   3.775
 4101SOL     OW13201   6.308   0.769   6.503
 4101SOL    HW113202   6.318   0.843   6.570
 4101SOL    HW213203   6.232   0.711   6.530
 4102SOL     OW13204   2.051   0.604   0.361
 4102SOL    HW113205   2.133   0.605   0.419
 4102SOL    HW213206   2.041   0.514   0.319
 4103SOL     OW13207   6.934   7.024   2.247
 4103SOL    HW113208   6.914   6.929   2.225
 4103SOL    HW213209   6.851   0.050   2.237
 4104SOL     OW13210   7.024   5.620   2.841
 4104SOL    HW113211   0.053   5.701   2.845
 4104SOL    HW213212   0.029   5.559   2.769
 4105SOL     OW13213   4.812   1.084   1.734
 4105SOL    HW113214   4.870   1.015   1.778
 4105SOL    HW213215   4.855   1.174   1.743
 4106SOL     OW13216   6.754   2.566   4.066
 4106SOL    HW113217   6.674   2.577   4.125
 4106SOL    HW213218   6.737   2.493   4.000
 4107SOL     OW13219   0.449   6.352   6.393
 4107SOL    HW113220   0.387   6.275   6.377
 4107SOL    HW213221   0.398   6.438   6.380
 4108SOL     OW13222   0.966   5.394   3.898
 4108SOL    HW113223   1.003   5.326   3.961
 4108SOL    HW213224   0.978   5.362   3.804
 4109SOL     OW13225   6.027   5.540   4.048
 4109SOL    HW113226   6.064   5.630   4.071
 4109SOL    HW213227   6.098   5.471   4.061
 4110SOL     OW13228   4.580   2.930   6.910
 4110SOL    HW113229   4.550   2.993   6.838
 4110SOL    HW213230   4.580   2.837   6.874
 4111SOL     OW13231   6.330   5.426   6.368
 4111SOL    HW113232   6.323   5.335   6.327
 4111SOL    HW213233   6.387   5.423   6.450
 4112SOL     OW13234   5.040   6.793   4.660
 4112SOL    HW113235   5.024   6.813   4.757
 4112SOL    HW213236   4.982   6.852   4.604
 4113SOL     OW13237   4.392   5.325   4.824
 4113SOL    HW113238   4.360   5.267   4.899
 4113SOL    HW213239   4.332   5.313   4.745
 4114SOL     OW13240   6.030   1.520   3.373
 4114SOL    HW113241   5.933   1.519   3.349
 4114SOL    HW213242   6.068   1.611   3.356
 4115SOL     OW13243   2.852   4.744   3.474
 4115SOL    HW113244   2.782   4.691   3.425
 4115SOL    HW213245   2.829   4.748   3.571
 4116SOL     OW13246   5.398   2.583   3.506
 4116SOL    HW113247   5.362   2.676   3.496
 4116SOL    HW213248   5.498   2.586   3.507
 4117SOL     OW13249   1.380   1.980   2.446
 4117SOL    HW113250   1.346   1.913   2.380
 4117SOL    HW213251   1.345   2.071   2.424
 4118SOL     OW13252   6.233   6.788   6.736
 4118SOL    HW113253   6.227   6.843   6.819
 4118SOL    HW213254   6.313   6.728   6.741
 4119SOL     OW13255   2.946   0.877   3.651
 4119SOL    HW113256   2.924   0.936   3.574
 4119SOL    HW213257   2.981   0.933   3.727
 4120SOL     OW13258   3.930   1.652   6.405
 4120SOL    HW113259   4.003   1.617   6.464
 4120SOL    HW213260   3.971   1.699   6.326
 4121SOL     OW13261   6.657   6.403   2.215
 4121SOL    HW113262   6.722   6.405   2.291
 4121SOL    HW213263   6.707   6.414   2.129
 4122SOL     OW13264   0.084   5.755   4.839
 4122SOL    HW113265   0.105   5.763   4.936
 4122SOL    HW213266   0.095   5.660   4.810
 4123SOL     OW13267   3.926   5.743   4.493
 4123SOL    HW113268   3.988   5.722   4.417
 4123SOL    HW213269   3.832   5.734   4.463
 4124SOL     OW13270   6.757   6.445   0.922
 4124SOL    HW113271   6.715   6.512   0.984
 4124SOL    HW213272   6.771   6.487   0.832
 4125SOL     OW13273   4.844   2.823   3.051
 4125SOL    HW113274   4.881   2.913   3.029
 4125SOL    HW213275   4.775   2.798   2.983
 4126SOL     OW13276   1.616   3.096   2.227
 4126SOL    HW113277   1.603   3.055   2.318
 4126SOL    HW213278   1.606   3.025   2.157
 4127SOL     OW13279   4.247   2.290   4.377
 4127SOL    HW113280   4.206   2.290   4.468
 4127SOL    HW213281   4.183   2.247   4.312
 4128SOL     OW13282   0.530   3.030   1.932
 4128SOL    HW113283   0.537   2.936   1.967
 4128SOL    HW213284   0.434   3.055   1.925
 4129SOL     OW13285   3.232   2.581   0.355
 4129SOL    HW113286   3.169   2.534   0.417
 4129SOL    HW213287   3.194   2.582   0.263
 4130SOL     OW13288   6.377   2.880   0.625
 4130SOL    HW113289   6.285   2.893   0.586
 4130SOL    HW213290   6.418   2.798   0.587
 4131SOL     OW13291   6.262   0.779   2.710
 4131SOL    HW113292   6.299   0.824   2.629
 4131SOL    HW213293   6.336   0.732   2.759
 4132SOL     OW13294   6.151   4.433   3.945
 4132SOL    HW113295   6.121   4.435   4.040
 4132SOL    HW213296   6.203   4.349   3.929
 4133SOL     OW13297   5.057   6.277   0.835
 4133SOL    HW113298   5.071   6.339   0.912
 4133SOL    HW213299   5.146   6.245   0.802
 4134SOL     OW13300   2.179   3.671   0.749
 4134SOL    HW113301   2.235   3.611   0.807
 4134SOL    HW213302   2.083   3.646   0.759
 4135SOL     OW13303   0.546   1.958   2.568
 4135SOL    HW113304   0.452   1.981   2.544
 4135SOL    HW213305   0.549   1.866   2.608
 4136SOL     OW13306   0.764   3.571   1.566
 4136SOL    HW113307   0.744   3.547   1.471
 4136SOL    HW213308   0.704   3.646   1.595
 4137SOL     OW13309   1.470   2.861   7.016
 4137SOL    HW113310   1.441   2.793   0.054
 4137SOL    HW213311   1.454   2.825   6.924
 4138SOL     OW13312   4.030   5.042   1.083
 4138SOL    HW113313   4.105   5.015   1.023
 4138SOL    HW213314   4.062   5.113   1.146
 4139SOL     OW13315   1.492   2.180   4.014
 4139SOL    HW113316   1.418   2.115   3.997
 4139SOL    HW213317   1.454   2.270   4.033
 4140SOL     OW13318   2.941   2.224   3.654
 4140SOL    HW113319   2.996   2.196   3.732
 4140SOL    HW213320   2.891   2.308   3.676
 4141SOL     OW13321   4.859   7.001   6.663
 4141SOL    HW113322   4.806   0.056   6.672
 4141SOL    HW213323   4.803   6.923   6.689
 4142SOL     OW13324   6.836   3.817   1.758
 4142SOL    HW113325   6.800   3.743   1.702
 4142SOL    HW213326   6.772   3.894   1.757
 4143SOL     OW13327   5.616   3.195   0.886
 4143SOL    HW113328   5.649   3.281   0.925
 4143SOL    HW213329   5.539   3.161   0.939
 4144SOL     OW13330   5.173   1.708   0.792
 4144SOL    HW113331   5.235   1.705   0.871
 4144SOL    HW213332   5.221   1.746   0.714
 4145SOL     OW13333   1.011   6.231   0.573
 4145SOL    HW113334   1.017   6.292   0.493
 4145SOL    HW213335   0.952   6.153   0.551
 4146SOL     OW13336   6.103   0.100   3.693
 4146SOL    HW113337   6.121   0.005   3.667
 4146SOL    HW213338   6.183   0.137   3.740
 4147SOL     OW13339   5.747   4.767   6.206
 4147SOL    HW113340   5.708   4.838   6.147
 4147SOL    HW213341   5.730   4.789   6.302
 4148SOL     OW13342   2.755   0.269   5.412
 4148SOL    HW113343   2.691   0.203   5.372
 4148SOL    HW213344   2.705   0.339   5.462
 4149SOL     OW13345   0.827   3.020   1.068
 4149SOL    HW113346   0.867   2.950   1.009
 4149SOL    HW213347   0.858   3.006   1.162
 4150SOL     OW13348   6.412   2.690   5.503
 4150SOL    HW113349   6.468   2.718   5.581
 4150SOL    HW213350   6.429   2.593   5.483
 4151SOL     OW13351   2.004   0.002   5.108
 4151SOL    HW113352   1.964   0.093   5.118
 4151SOL    HW213353   1.941   6.963   5.145
 4152SOL     OW13354   3.781   5.121   1.753
 4152SOL    HW113355   3.796   5.219   1.745
 4152SOL    HW213356   3.829   5.086   1.834
 4153SOL     OW13357   6.579   5.253   1.432
 4153SOL    HW113358   6.487   5.254   1.394
 4153SOL    HW213359   6.576   5.270   1.530
 4154SOL     OW13360   0.149   5.796   3.109
 4154SOL    HW113361   0.128   5.809   3.013
 4154SOL    HW213362   0.101   5.865   3.164
 4155SOL     OW13363   6.521   2.074   1.623
 4155SOL    HW113364   6.567   2.160   1.599
 4155SOL    HW213365   6.468   2.087   1.706
 4156SOL     OW13366   6.362   5.258   4.871
 4156SOL    HW113367   6.273   5.225   4.840
 4156SOL    HW213368   6.350   5.334   4.935
 4157SOL     OW13369   6.232   6.121   2.231
 4157SOL    HW113370   6.318   6.110   2.281
 4157SOL    HW213371   6.193   6.211   2.252
 4158SOL     OW13372   1.813   2.767   1.688
 4158SOL    HW113373   1.871   2.719   1.754
 4158SOL    HW213374   1.813   2.864   1.708
 4159SOL     OW13375   2.888   2.180   2.906
 4159SOL    HW113376   2.839   2.098   2.935
 4159SOL    HW213377   2.980   2.179   2.946
 4160SOL     OW13378   5.661   0.414   6.722
 4160SOL    HW113379   5.569   0.428   6.759
 4160SOL    HW213380   5.706   0.340   6.772
 4161SOL     OW13381   1.971   2.112   1.554
 4161SOL    HW113382   2.042   2.061   1.505
 4161SOL    HW213383   2.012   2.191   1.600
 4162SOL     OW13384   6.307   5.935   0.948
 4162SOL    HW113385   6.279   5.989   1.027
 4162SOL    HW213386   6.339   5.846   0.978
 4163SOL     OW13387   5.739   1.220   2.557
 4163SOL    HW113388   5.731   1.166   2.640
 4163SOL    HW213389   5.664   1.197   2.495
 4164SOL     OW13390   0.294   6.898   5.688
 4164SOL    HW113391   0.258   6.934   5.773
 4164SOL    HW213392   0.388   6.929   5.675
 4165SOL     OW13393   4.484   6.843   5.967
 4165SOL    HW113394   4.579   6.833   5.999
 4165SOL    HW213395   4.446   6.752   5.947
 4166SOL     OW13396   6.177   1.027   1.472
 4166SOL    HW113397   6.208   1.120   1.493
 4166SOL    HW213398   6.256   0.965   1.472
 4167SOL     OW13399   2.444   4.574   5.780
 4167SOL    HW113400   2.382   4.620   5.716
 4167SOL    HW213401   2.534   4.564   5.738
 4168SOL     OW13402   0.367   4.141   0.553
 4168SOL    HW113403   0.364   4.121   0.455
 4168SOL    HW213404   0.402   4.062   0.602
 4169SOL     OW13405   6.098   3.718   5.393
 4169SOL    HW113406   6.195   3.695   5.384
 4169SOL    HW213407   6.079   3.751   5.485
 4170SOL     OW13408   4.801   2.970   5.270
 4170SOL    HW113409   4.853   3.003   5.192
 4170SOL    HW213410   4.714   3.018   5.275
 4171SOL     OW13411   1.265   4.917   0.869
 4171SOL    HW113412   1.294   4.942   0.777
 4171SOL    HW213413   1.199   4.984   0.904
 4172SOL     OW13414   3.033   3.080   0.609
 4172SOL    HW113415   3.097   3.088   0.685
 4172SOL    HW213416   3.071   3.017   0.540
 4173SOL     OW13417   4.783   2.930   5.521
 4173SOL    HW113418   4.728   3.008   5.549
 4173SOL    HW213419   4.788   2.926   5.421
 4174SOL     OW13420   4.692   1.362   2.933
 4174SOL    HW113421   4.718   1.274   2.973
 4174SOL    HW213422   4.755   1.385   2.859
 4175SOL     OW13423   1.318   4.592   5.208
 4175SOL    HW113424   1.366   4.638   5.133
 4175SOL    HW213425   1.384   4.546   5.267
 4176SOL     OW13426   4.435   6.695   0.963
 4176SOL    HW113427   4.523   6.670   0.922
 4176SOL    HW213428   4.432   6.664   1.058
 4177SOL     OW13429   5.392   4.767   4.531
 4177SOL    HW113430   5.356   4.792   4.441
 4177SOL    HW213431   5.367   4.838   4.597
 4178SOL     OW13432   4.842   0.397   2.776
 4178SOL    HW113433   4.800   0.326   2.720
 4178SOL    HW213434   4.774   0.467   2.799
 4179SOL     OW13435   5.666   4.230   3.699
 4179SOL    HW113436   5.661   4.323   3.660
 4179SOL    HW213437   5.752   4.188   3.671
 4180SOL     OW13438   5.031   2.686   0.705
 4180SOL    HW113439   5.053   2.656   0.798
 4180SOL    HW213440   5.115   2.694   0.651
 4181SOL     OW13441   5.268   1.306   6.700
 4181SOL    HW113442   5.207   1.327   6.777
 4181SOL    HW213443   5.275   1.207   6.690
 4182SOL     OW13444   0.340   5.416   3.553
 4182SOL    HW113445   0.316   5.477   3.628
 4182SOL    HW213446   0.423   5.450   3.508
 4183SOL     OW13447   2.623   1.231   0.436
 4183SOL    HW113448   2.669   1.143   0.421
 4183SOL    HW213449   2.581   1.232   0.527
 4184SOL     OW13450   3.717   0.344   2.110
 4184SOL    HW113451   3.666   0.429   2.103
 4184SOL    HW213452   3.724   0.301   2.020
 4185SOL     OW13453   0.404   4.097   2.768
 4185SOL    HW113454   0.379   4.136   2.857
 4185SOL    HW213455   0.494   4.132   2.741
 4186SOL     OW13456   2.581   5.783   6.322
 4186SOL    HW113457   2.486   5.753   6.314
 4186SOL    HW213458   2.610   5.777   6.417
 4187SOL     OW13459   2.818   3.379   6.866
 4187SOL    HW113460   2.910   3.412   6.889
 4187SOL    HW213461   2.750   3.441   6.905
 4188SOL     OW13462   5.212   0.775   5.265
 4188SOL    HW113463   5.208   0.692   5.321
 4188SOL    HW213464   5.246   0.851   5.320
 4189SOL     OW13465   3.539   5.092   4.076
 4189SOL    HW113466   3.467   5.158   4.095
 4189SOL    HW213467   3.525   5.052   3.986
 4190SOL     OW13468   0.665   6.656   0.643
 4190SOL    HW113469   0.759   6.622   0.643
 4190SOL    HW213470   0.662   6.746   0.598
 4191SOL     OW13471   5.200   3.859   5.271
 4191SOL    HW113472   5.116   3.814   5.299
 4191SOL    HW213473   5.251   3.799   5.209
 4192SOL     OW13474   1.502   1.653   2.175
 4192SOL    HW113475   1.434   1.615   2.112
 4192SOL    HW213476   1.586   1.672   2.126
 4193SOL     OW13477   5.631   0.825   0.594
 4193SOL    HW113478   5.596   0.919   0.593
 4193SOL    HW213479   5.728   0.826   0.619
 4194SOL     OW13480   5.052   0.365   4.324
 4194SOL    HW113481   5.106   0.354   4.241
 4194SOL    HW213482   5.076   0.293   4.389
 4195SOL     OW13483   3.972   5.152   1.393
 4195SOL    HW113484   4.059   5.124   1.352
 4195SOL    HW213485   3.990   5.224   1.460
 4196SOL     OW13486   0.085   2.431   3.027
 4196SOL    HW113487   0.157   2.471   2.970
 4196SOL    HW213488   0.122   2.411   3.118
 4197SOL     OW13489   4.359   5.044   5.546
 4197SOL    HW113490   4.392   4.968   5.603
 4197SOL    HW213491   4.426   5.119   5.550
 4198SOL     OW13492   6.917   1.194   1.694
 4198SOL    HW113493   6.823   1.194   1.661
 4198SOL    HW213494   6.932   1.113   1.751
 4199SOL     OW13495   1.006   2.306   5.514
 4199SOL    HW113496   1.019   2.226   5.574
 4199SOL    HW213497   0.909   2.316   5.493
 4200SOL     OW13498   2.823   0.558   5.870
 4200SOL    HW113499   2.869   0.571   5.957
 4200SOL    HW213500   2.887   0.521   5.803
 4201SOL     OW13501   6.592   0.248   3.491
 4201SOL    HW113502   6.497   0.216   3.492
 4201SOL    HW213503   6.596   0.340   3.530
 4202SOL     OW13504   2.675   5.116   6.529
 4202SOL    HW113505   2.703   5.059   6.451
 4202SOL    HW213506   2.749   5.121   6.595
 4203SOL     OW13507   5.358   4.325   0.573
 4203SOL    HW113508   5.343   4.241   0.627
 4203SOL    HW213509   5.288   4.330   0.501
 4204SOL     OW13510   3.935   3.429   4.999
 4204SOL    HW113511   4.010   3.495   4.988
 4204SOL    HW213512   3.857   3.457   4.943
 4205SOL     OW13513   4.266   6.104   5.254
 4205SOL    HW113514   4.309   6.023   5.215
 4205SOL    HW213515   4.224   6.158   5.181
 4206SOL     OW13516   6.635   1.850   4.973
 4206SOL    HW113517   6.579   1.768   4.986
 4206SOL    HW213518   6.600   1.901   4.895
 4207SOL     OW13519   2.075   2.738   1.846
 4207SOL    HW113520   2.095   2.830   1.812
 4207SOL    HW213521   2.079   2.738   1.946
 4208SOL     OW13522   0.130   3.649   5.912
 4208SOL    HW113523   0.122   3.717   5.984
 4208SOL    HW213524   0.213   3.594   5.926
 4209SOL     OW13525   0.132   6.480   2.993
 4209SOL    HW113526   0.105   6.384   2.984
 4209SOL    HW213527   0.103   6.515   3.082
 4210SOL     OW13528   3.800   3.189   2.564
 4210SOL    HW113529   3.728   3.157   2.627
 4210SOL    HW213530   3.889   3.164   2.601
 4211SOL     OW13531   3.231   0.899   5.207
 4211SOL    HW113532   3.265   0.993   5.215
 4211SOL    HW213533   3.246   0.867   5.114
 4212SOL     OW13534   6.342   2.177   3.320
 4212SOL    HW113535   6.316   2.258   3.267
 4212SOL    HW213536   6.436   2.151   3.296
 4213SOL     OW13537   3.064   0.131   2.775
 4213SOL    HW113538   3.155   0.163   2.804
 4213SOL    HW213539   3.048   0.157   2.680
 4214SOL     OW13540   0.431   5.849   5.259
 4214SOL    HW113541   0.526   5.825   5.278
 4214SOL    HW213542   0.395   5.906   5.334
 4215SOL     OW13543   4.857   6.882   5.130
 4215SOL    HW113544   4.870   6.981   5.132
 4215SOL    HW213545   4.772   6.859   5.177
 4216SOL     OW13546   1.292   0.824   2.463
 4216SOL    HW113547   1.380   0.783   2.440
 4216SOL    HW213548   1.252   0.774   2.541
 4217SOL     OW13549   1.253   0.656   2.868
 4217SOL    HW113550   1.313   0.719   2.916
 4217SOL    HW213551   1.308   0.597   2.808
 4218SOL     OW13552   3.391   0.179   1.411
 4218SOL    HW113553   3.485   0.172   1.446
 4218SOL    HW213554   3.341   0.095   1.434
 4219SOL     OW13555   4.144   5.671   4.313
 4219SOL    HW113556   4.202   5.749   4.334
 4219SOL    HW213557   4.174   5.592   4.365
 4220SOL     OW13558   6.223   3.421   1.917
 4220SOL    HW113559   6.237   3.520   1.922
 4220SOL    HW213560   6.255   3.388   1.828
 4221SOL     OW13561   6.162   4.076   5.648
 4221SOL    HW113562   6.101   4.124   5.585
 4221SOL    HW213563   6.129   4.085   5.741
 4222SOL     OW13564   6.654   0.969   3.114
 4222SOL    HW113565   6.706   1.024   3.180
 4222SOL    HW213566   6.630   1.026   3.035
 4223SOL     OW13567   4.135   3.890   0.912
 4223SOL    HW113568   4.202   3.939   0.968
 4223SOL    HW213569   4.061   3.856   0.970
 4224SOL     OW13570   5.574   5.409   4.626
 4224SOL    HW113571   5.491   5.444   4.581
 4224SOL    HW213572   5.654   5.439   4.574
 4225SOL     OW13573   2.107   2.759   5.128
 4225SOL    HW113574   2.166   2.796   5.200
 4225SOL    HW213575   2.049   2.687   5.167
 4226SOL     OW13576   0.837   6.185   3.034
 4226SOL    HW113577   0.861   6.179   3.131
 4226SOL    HW213578   0.826   6.092   2.998
 4227SOL     OW13579   4.028   5.626   1.872
 4227SOL    HW113580   4.106   5.588   1.823
 4227SOL    HW213581   3.990   5.702   1.819
 4228SOL     OW13582   0.053   6.256   5.582
 4228SOL    HW113583   0.029   6.317   5.507
 4228SOL    HW213584   7.003   6.242   5.641
 4229SOL     OW13585   4.964   5.882   5.765
 4229SOL    HW113586   5.054   5.913   5.793
 4229SOL    HW213587   4.906   5.869   5.846
 4230SOL     OW13588   1.712   6.427   3.180
 4230SOL    HW113589   1.706   6.356   3.110
 4230SOL    HW213590   1.760   6.507   3.143
 4231SOL     OW13591   5.259   6.803   5.858
 4231SOL    HW113592   5.181   6.742   5.844
 4231SOL    HW213593   5.302   6.823   5.770
 4232SOL     OW13594   1.206   4.094   3.370
 4232SOL    HW113595   1.160   4.094   3.282
 4232SOL    HW213596   1.202   4.003   3.410
 4233SOL     OW13597   6.930   0.855   5.376
 4233SOL    HW113598   6.946   0.867   5.278
 4233SOL    HW213599   6.838   0.819   5.390
 4234SOL     OW13600   2.291   5.265   5.238
 4234SOL    HW113601   2.271   5.302   5.329
 4234SOL    HW213602   2.262   5.170   5.233
 4235SOL     OW13603   6.680   4.381   5.836
 4235SOL    HW113604   6.695   4.381   5.935
 4235SOL    HW213605   6.642   4.469   5.808
 4236SOL     OW13606   6.224   4.411   2.014
 4236SOL    HW113607   6.138   4.450   1.980
 4236SOL    HW213608   6.207   4.364   2.101
 4237SOL     OW13609   6.147   5.201   4.224
 4237SOL    HW113610   6.070   5.251   4.184
 4237SOL    HW213611   6.205   5.166   4.151
 4238SOL     OW13612   1.325   6.960   2.624
 4238SOL    HW113613   1.298   0.026   2.609
 4238SOL    HW213614   1.423   6.956   2.646
 4239SOL     OW13615   5.086   1.322   3.383
 4239SOL    HW113616   5.026   1.360   3.313
 4239SOL    HW213617   5.115   1.395   3.445
 4240SOL     OW13618   2.156   5.418   0.410
 4240SOL    HW113619   2.193   5.436   0.501
 4240SOL    HW213620   2.067   5.463   0.402
 4241SOL     OW13621   5.841   1.331   0.955
 4241SOL    HW113622   5.923   1.342   1.010
 4241SOL    HW213623   5.797   1.420   0.942
 4242SOL     OW13624   2.885   2.176   4.115
 4242SOL    HW113625   2.832   2.092   4.106
 4242SOL    HW213626   2.976   2.155   4.151
 4243SOL     OW13627   5.712   2.460   3.437
 4243SOL    HW113628   5.709   2.559   3.449
 4243SOL    HW213629   5.779   2.421   3.500
 4244SOL     OW13630   4.314   4.483   1.269
 4244SOL    HW113631   4.254   4.447   1.198
 4244SOL    HW213632   4.290   4.442   1.357
 4245SOL     OW13633   6.302   1.952   6.199
 4245SOL    HW113634   6.305   2.008   6.282
 4245SOL    HW213635   6.287   1.856   6.224
 4246SOL     OW13636   6.574   4.024   3.040
 4246SOL    HW113637   6.672   4.004   3.046
 4246SOL    HW213638   6.556   4.077   2.957
 4247SOL     OW13639   2.251   6.148   3.740
 4247SOL    HW113640   2.161   6.143   3.784
 4247SOL    HW213641   2.321   6.170   3.808
 4248SOL     OW13642   3.006   1.801   4.122
 4248SOL    HW113643   2.909   1.827   4.132
 4248SOL    HW213644   3.013   1.724   4.059
 4249SOL     OW13645   6.579   2.802   5.218
 4249SOL    HW113646   6.529   2.886   5.237
 4249SOL    HW213647   6.589   2.790   5.119
 4250SOL     OW13648   7.011   4.437   2.681
 4250SOL    HW113649   6.914   4.415   2.693
 4250SOL    HW213650   0.018   4.387   2.602
 4251SOL     OW13651   6.134   4.654   1.090
 4251SOL    HW113652   6.066   4.710   1.136
 4251SOL    HW213653   6.089   4.577   1.045
 4252SOL     OW13654   6.011   6.805   5.066
 4252SOL    HW113655   5.929   6.831   5.118
 4252SOL    HW213656   6.055   6.887   5.030
 4253SOL     OW13657   3.372   6.783   0.953
 4253SOL    HW113658   3.464   6.819   0.969
 4253SOL    HW213659   3.378   6.693   0.910
 4254SOL     OW13660   1.160   2.938   2.597
 4254SOL    HW113661   1.128   2.937   2.502
 4254SOL    HW213662   1.100   2.880   2.652
 4255SOL     OW13663   5.590   3.566   3.614
 4255SOL    HW113664   5.650   3.615   3.677
 4255SOL    HW213665   5.495   3.590   3.633
 4256SOL     OW13666   1.570   6.860   0.815
 4256SOL    HW113667   1.553   6.762   0.806
 4256SOL    HW213668   1.598   6.881   0.908
 4257SOL     OW13669   3.426   0.390   4.328
 4257SOL    HW113670   3.406   0.429   4.417
 4257SOL    HW213671   3.518   0.351   4.328
 4258SOL     OW13672   5.619   6.283   1.353
 4258SOL    HW113673   5.532   6.277   1.403
 4258SOL    HW213674   5.624   6.371   1.306
 4259SOL     OW13675   2.808   1.119   0.140
 4259SOL    HW113676   2.809   1.029   0.097
 4259SOL    HW213677   2.900   1.158   0.138
 4260SOL     OW13678   4.848   6.987   6.223
 4260SOL    HW113679   4.764   0.010   6.208
 4260SOL    HW213680   4.903   6.988   6.140
 4261SOL     OW13681   2.506   0.129   1.961
 4261SOL    HW113682   2.604   0.122   1.942
 4261SOL    HW213683   2.458   0.164   1.881
 4262SOL     OW13684   0.096   4.525   5.869
 4262SOL    HW113685   0.045   4.536   5.784
 4262SOL    HW213686   0.134   4.433   5.873
 4263SOL     OW13687   3.227   6.520   3.419
 4263SOL    HW113688   3.140   6.481   3.448
 4263SOL    HW213689   3.223   6.545   3.322
 4264SOL     OW13690   0.014   2.214   2.884
 4264SOL    HW113691   0.016   2.239   2.787
 4264SOL    HW213692   0.031   2.295   2.940
 4265SOL     OW13693   5.617   1.631   1.049
 4265SOL    HW113694   5.600   1.701   0.979
 4265SOL    HW213695   5.542   1.566   1.049
 4266SOL     OW13696   1.968   5.098   0.235
 4266SOL    HW113697   1.974   5.171   0.168
 4266SOL    HW213698   1.911   5.128   0.312
 4267SOL     OW13699   1.772   3.308   4.779
 4267SOL    HW113700   1.867   3.317   4.809
 4267SOL    HW213701   1.723   3.393   4.796
 4268SOL     OW13702   0.946   6.498   6.261
 4268SOL    HW113703   1.007   6.472   6.336
 4268SOL    HW213704   0.855   6.459   6.278
 4269SOL     OW13705   2.037   1.160   1.754
 4269SOL    HW113706   2.084   1.225   1.814
 4269SOL    HW213707   1.959   1.120   1.802
 4270SOL     OW13708   3.710   3.202   4.180
 4270SOL    HW113709   3.666   3.131   4.235
 4270SOL    HW213710   3.687   3.188   4.083
 4271SOL     OW13711   0.321   0.917   6.780
 4271SOL    HW113712   0.412   0.959   6.790
 4271SOL    HW213713   0.278   0.951   6.696
 4272SOL     OW13714   0.646   3.944   4.824
 4272SOL    HW113715   0.623   3.847   4.819
 4272SOL    HW213716   0.651   3.973   4.919
 4273SOL     OW13717   4.389   5.915   5.117
 4273SOL    HW113718   4.464   5.863   5.156
 4273SOL    HW213719   4.385   5.898   5.018
 4274SOL     OW13720   2.026   6.965   2.490
 4274SOL    HW113721   2.023   6.968   2.391
 4274SOL    HW213722   1.976   6.885   2.523
 4275SOL     OW13723   6.440   1.604   4.921
 4275SOL    HW113724   6.494   1.548   4.985
 4275SOL    HW213725   6.348   1.616   4.957
 4276SOL     OW13726   1.412   4.370   3.900
 4276SOL    HW113727   1.399   4.463   3.933
 4276SOL    HW213728   1.508   4.345   3.910
 4277SOL     OW13729   6.300   4.976   4.335
 4277SOL    HW113730   6.263   5.067   4.313
 4277SOL    HW213731   6.339   4.978   4.427
 4278SOL     OW13732   0.371   0.563   4.321
 4278SOL    HW113733   0.467   0.538   4.323
 4278SOL    HW213734   0.353   0.618   4.239
 4279SOL     OW13735   2.953   0.047   5.003
 4279SOL    HW113736   2.973   0.032   5.100
 4279SOL    HW213737   3.024   0.105   4.963
 4280SOL     OW13738   5.570   0.858   5.319
 4280SOL    HW113739   5.574   0.762   5.348
 4280SOL    HW213740   5.626   0.870   5.237
 4281SOL     OW13741   1.572   5.058   4.053
 4281SOL    HW113742   1.655   5.069   3.999
 4281SOL    HW213743   1.509   4.996   4.006
 4282SOL     OW13744   3.547   3.358   6.524
 4282SOL    HW113745   3.581   3.293   6.456
 4282SOL    HW213746   3.507   3.437   6.478
 4283SOL     OW13747   2.446   1.131   3.867
 4283SOL    HW113748   2.510   1.111   3.793
 4283SOL    HW213749   2.472   1.080   3.949
 4284SOL     OW13750   4.501   5.677   1.797
 4284SOL    HW113751   4.589   5.669   1.751
 4284SOL    HW213752   4.515   5.682   1.896
 4285SOL     OW13753   1.148   0.584   5.731
 4285SOL    HW113754   1.102   0.534   5.805
 4285SOL    HW213755   1.143   0.682   5.748
 4286SOL     OW13756   4.936   5.569   6.797
 4286SOL    HW113757   4.966   5.475   6.815
 4286SOL    HW213758   4.905   5.576   6.702
 4287SOL     OW13759   5.761   1.289   6.749
 4287SOL    HW113760   5.729   1.223   6.682
 4287SOL    HW213761   5.744   1.254   6.841
 4288SOL     OW13762   1.034   5.936   3.183
 4288SOL    HW113763   1.003   6.024   3.220
 4288SOL    HW213764   1.129   5.921   3.209
 4289SOL     OW13765   6.591   3.206   0.922
 4289SOL    HW113766   6.684   3.171   0.909
 4289SOL    HW213767   6.525   3.139   0.887
 4290SOL     OW13768   2.784   6.855   2.580
 4290SOL    HW113769   2.826   6.780   2.631
 4290SOL    HW213770   2.839   6.876   2.500
 4291SOL     OW13771   4.382   3.605   1.266
 4291SOL    HW113772   4.372   3.631   1.362
 4291SOL    HW213773   4.358   3.508   1.255
 4292SOL     OW13774   6.350   4.263   6.613
 4292SOL    HW113775   6.318   4.221   6.528
 4292SOL    HW213776   6.275   4.266   6.679
 4293SOL     OW13777   0.750   3.015   0.503
 4293SOL    HW113778   0.737   2.935   0.443
 4293SOL    HW213779   0.680   3.083   0.482
 4294SOL     OW13780   3.473   2.234   0.140
 4294SOL    HW113781   3.501   2.307   0.077
 4294SOL    HW213782   3.428   2.275   0.220
 4295SOL     OW13783   3.731   6.212   4.807
 4295SOL    HW113784   3.737   6.123   4.761
 4295SOL    HW213785   3.815   6.264   4.791
 4296SOL     OW13786   3.871   0.580   0.452
 4296SOL    HW113787   3.951   0.562   0.509
 4296SOL    HW213788   3.791   0.533   0.490
 4297SOL     OW13789   5.463   0.827   6.619
 4297SOL    HW113790   5.415   0.877   6.691
 4297SOL    HW213791   5.510   0.749   6.660
 4298SOL     OW13792   2.953   6.086   6.668
 4298SOL    HW113793   2.889   6.037   6.728
 4298SOL    HW213794   2.902   6.153   6.613
 4299SOL     OW13795   0.697   2.795   0.340
 4299SOL    HW113796   0.622   2.758   0.395
 4299SOL    HW213797   0.688   2.764   0.246
 4300SOL     OW13798   3.737   0.712   0.278
 4300SOL    HW113799   3.723   0.666   0.190
 4300SOL    HW213800   3.770   0.646   0.345
 4301SOL     OW13801   3.269   1.434   0.908
 4301SOL    HW113802   3.332   1.381   0.852
 4301SOL    HW213803   3.209   1.488   0.850
 4302SOL     OW13804   1.140   6.997   5.491
 4302SOL    HW113805   1.214   6.937   5.460
 4302SOL    HW213806   1.120   6.980   5.587
 4303SOL     OW13807   5.832   4.893   3.910
 4303SOL    HW113808   5.758   4.960   3.900
 4303SOL    HW213809   5.895   4.903   3.832
 4304SOL     OW13810   3.032   3.898   3.673
 4304SOL    HW113811   2.961   3.881   3.605
 4304SOL    HW213812   3.122   3.886   3.631
 4305SOL     OW13813   6.311   0.893   4.063
 4305SOL    HW113814   6.267   0.852   3.983
 4305SOL    HW213815   6.292   0.991   4.064
 4306SOL     OW13816   6.250   3.800   6.870
 4306SOL    HW113817   6.295   3.879   6.913
 4306SOL    HW213818   6.276   3.796   6.773
 4307SOL     OW13819   4.875   3.496   6.364
 4307SOL    HW113820   4.912   3.516   6.455
 4307SOL    HW213821   4.793   3.551   6.349
 4308SOL     OW13822   5.571   5.696   6.281
 4308SOL    HW113823   5.497   5.630   6.293
 4308SOL    HW213824   5.634   5.690   6.358
 4309SOL     OW13825   1.293   1.407   6.961
 4309SOL    HW113826   1.307   1.503   6.935
 4309SOL    HW213827   1.362   1.380   7.028
 4310SOL     OW13828   1.744   2.611   3.279
 4310SOL    HW113829   1.649   2.582   3.263
 4310SOL    HW213830   1.789   2.546   3.339
 4311SOL     OW13831   1.689   5.839   3.257
 4311SOL    HW113832   1.766   5.837   3.193
 4311SOL    HW213833   1.609   5.877   3.211
 4312SOL     OW13834   1.173   4.874   0.415
 4312SOL    HW113835   1.229   4.794   0.396
 4312SOL    HW213836   1.100   4.882   0.347
 4313SOL     OW13837   4.832   1.298   1.437
 4313SOL    HW113838   4.821   1.390   1.474
 4313SOL    HW213839   4.778   1.233   1.490
 4314SOL     OW13840   5.638   1.413   4.225
 4314SOL    HW113841   5.692   1.460   4.155
 4314SOL    HW213842   5.550   1.460   4.236
 4315SOL     OW13843   2.780   0.073   1.702
 4315SOL    HW113844   2.732   0.119   1.776
 4315SOL    HW213845   2.809   7.012   1.733
 4316SOL     OW13846   5.051   6.986   1.357
 4316SOL    HW113847   4.997   6.993   1.273
 4316SOL    HW213848   5.023   0.028   1.421
 4317SOL     OW13849   4.432   1.525   4.798
 4317SOL    HW113850   4.524   1.512   4.761
 4317SOL    HW213851   4.401   1.441   4.842
 4318SOL     OW13852   1.144   3.237   3.669
 4318SOL    HW113853   1.221   3.257   3.730
 4318SOL    HW213854   1.146   3.140   3.645
 4319SOL     OW13855   2.357   2.854   0.033
 4319SOL    HW113856   2.340   2.807   0.120
 4319SOL    HW213857   2.328   2.949   0.040
 4320SOL     OW13858   0.630   6.184   2.456
 4320SOL    HW113859   0.619   6.191   2.357
 4320SOL    HW213860   0.605   6.271   2.499
 4321SOL     OW13861   6.735   0.015   4.317
 4321SOL    HW113862   6.811   6.980   4.319
 4321SOL    HW213863   6.720   0.052   4.409
 4322SOL     OW13864   6.131   2.047   6.641
 4322SOL    HW113865   6.120   2.143   6.669
 4322SOL    HW213866   6.078   1.989   6.702
 4323SOL     OW13867   5.048   3.965   1.426
 4323SOL    HW113868   5.066   3.877   1.471
 4323SOL    HW213869   4.955   3.966   1.392
 4324SOL     OW13870   5.649   3.943   6.360
 4324SOL    HW113871   5.729   3.955   6.301
 4324SOL    HW213872   5.600   4.030   6.368
 4325SOL     OW13873   2.016   0.867   0.886
 4325SOL    HW113874   2.008   0.944   0.950
 4325SOL    HW213875   1.926   0.847   0.846
 4326SOL     OW13876   5.599   3.272   4.712
 4326SOL    HW113877   5.634   3.335   4.643
 4326SOL    HW213878   5.657   3.190   4.715
 4327SOL     OW13879   6.036   5.511   2.190
 4327SOL    HW113880   6.107   5.492   2.122
 4327SOL    HW213881   5.947   5.480   2.155
 4328SOL     OW13882   3.907   3.780   6.163
 4328SOL    HW113883   3.872   3.689   6.183
 4328SOL    HW213884   3.874   3.811   6.074
 4329SOL     OW13885   4.163   1.760   6.287
 4329SOL    HW113886   4.142   1.825   6.360
 4329SOL    HW213887   4.199   1.809   6.208
 4330SOL     OW13888   2.871   0.610   4.732
 4330SOL    HW113889   2.911   0.555   4.805
 4330SOL    HW213890   2.944   0.655   4.680
 4331SOL     OW13891   4.862   2.994   1.166
 4331SOL    HW113892   4.948   2.988   1.217
 4331SOL    HW213893   4.871   3.061   1.092
 4332SOL     OW13894   5.439   4.819   2.524
 4332SOL    HW113895   5.497   4.899   2.513
 4332SOL    HW213896   5.343   4.846   2.516
 4333SOL     OW13897   4.306   0.702   5.360
 4333SOL    HW113898   4.339   0.747   5.277
 4333SOL    HW213899   4.325   0.761   5.439
 4334SOL     OW13900   1.808   2.044   2.724
 4334SOL    HW113901   1.762   2.109   2.784
 4334SOL    HW213902   1.818   1.956   2.772
 4335SOL     OW13903   3.368   4.156   3.252
 4335SOL    HW113904   3.348   4.172   3.155
 4335SOL    HW213905   3.467   4.149   3.264
 4336SOL     OW13906   0.880   6.403   6.000
 4336SOL    HW113907   0.905   6.431   6.093
 4336SOL    HW213908   0.962   6.404   5.942
 4337SOL     OW13909   0.605   4.279   0.577
 4337SOL    HW113910   0.510   4.250   0.565
 4337SOL    HW213911   0.662   4.198   0.592
 4338SOL     OW13912   4.809   5.778   4.029
 4338SOL    HW113913   4.722   5.816   3.998
 4338SOL    HW213914   4.859   5.848   4.081
 4339SOL     OW13915   6.645   3.611   5.311
 4339SOL    HW113916   6.564   3.641   5.361
 4339SOL    HW213917   6.630   3.518   5.276
 4340SOL     OW13918   6.029   4.566   1.592
 4340SOL    HW113919   6.032   4.584   1.690
 4340SOL    HW213920   5.949   4.509   1.571
 4341SOL     OW13921   0.745   5.727   2.385
 4341SOL    HW113922   0.686   5.679   2.320
 4341SOL    HW213923   0.693   5.748   2.467
 4342SOL     OW13924   6.387   3.748   3.995
 4342SOL    HW113925   6.343   3.830   4.034
 4342SOL    HW213926   6.320   3.674   3.991
 4343SOL     OW13927   2.185   5.941   5.944
 4343SOL    HW113928   2.262   6.004   5.956
 4343SOL    HW213929   2.209   5.851   5.980
 4344SOL     OW13930   1.600   5.402   3.046
 4344SOL    HW113931   1.568   5.332   2.982
 4344SOL    HW213932   1.700   5.399   3.051
 4345SOL     OW13933   1.965   3.095   5.285
 4345SOL    HW113934   2.054   3.051   5.291
 4345SOL    HW213935   1.976   3.194   5.290
 4346SOL     OW13936   1.837   3.407   2.105
 4346SOL    HW113937   1.866   3.453   2.022
 4346SOL    HW213938   1.890   3.441   2.183
 4347SOL     OW13939   5.809   6.754   2.737
 4347SOL    HW113940   5.866   6.820   2.786
 4347SOL    HW213941   5.727   6.734   2.792
 4348SOL     OW13942   0.096   4.116   3.126
 4348SOL    HW113943   0.004   4.082   3.144
 4348SOL    HW213944   0.104   4.141   3.029
 4349SOL     OW13945   6.723   2.382   2.523
 4349SOL    HW113946   6.738   2.379   2.621
 4349SOL    HW213947   6.639   2.333   2.500
 4350SOL     OW13948   5.168   2.182   3.989
 4350SOL    HW113949   5.164   2.203   3.891
 4350SOL    HW213950   5.261   2.200   4.023
 4351SOL     OW13951   2.135   6.706   1.469
 4351SOL    HW113952   2.212   6.768   1.481
 4351SOL    HW213953   2.050   6.756   1.486
 4352SOL     OW13954   0.369   2.918   2.443
 4352SOL    HW113955   0.392   2.871   2.528
 4352SOL    HW213956   0.441   2.984   2.420
 4353SOL     OW13957   3.218   3.679   6.974
 4353SOL    HW113958   3.288   3.722   0.002
 4353SOL    HW213959   3.137   3.737   6.970
 4354SOL     OW13960   2.293   6.630   5.880
 4354SOL    HW113961   2.287   6.557   5.812
 4354SOL    HW213962   2.203   6.643   5.922
 4355SOL     OW13963   3.449   0.524   2.376
 4355SOL    HW113964   3.463   0.500   2.472
 4355SOL    HW213965   3.354   0.555   2.363
 4356SOL     OW13966   5.023   4.246   1.391
 4356SOL    HW113967   5.078   4.283   1.316
 4356SOL    HW213968   5.049   4.151   1.407
 4357SOL     OW13969   6.040   0.498   0.115
 4357SOL    HW113970   5.974   0.429   0.085
 4357SOL    HW213971   6.009   0.588   0.086
 4358SOL     OW13972   6.780   6.039   7.027
 4358SOL    HW113973   6.785   5.946   6.989
 4358SOL    HW213974   6.844   6.099   6.979
 4359SOL     OW13975   1.771   2.065   6.062
 4359SOL    HW113976   1.825   1.995   6.015
 4359SOL    HW213977   1.775   2.150   6.009
 4360SOL     OW13978   1.226   2.127   3.388
 4360SOL    HW113979   1.273   2.165   3.467
 4360SOL    HW213980   1.273   2.156   3.304
 4361SOL     OW13981   3.055   3.028   1.325
 4361SOL    HW113982   3.028   2.967   1.400
 4361SOL    HW213983   2.983   3.029   1.256
 4362SOL     OW13984   6.620   4.610   3.043
 4362SOL    HW113985   6.559   4.618   3.122
 4362SOL    HW213986   6.698   4.671   3.055
 4363SOL     OW13987   5.417   2.651   6.853
 4363SOL    HW113988   5.359   2.600   6.917
 4363SOL    HW213989   5.367   2.731   6.820
 4364SOL     OW13990   3.622   3.548   5.288
 4364SOL    HW113991   3.569   3.546   5.203
 4364SOL    HW213992   3.561   3.557   5.366
 4365SOL     OW13993   2.145   2.437   1.985
 4365SOL    HW113994   2.149   2.464   1.888
 4365SOL    HW213995   2.054   2.457   2.021
 4366SOL     OW13996   5.869   6.016   0.325
 4366SOL    HW113997   5.813   5.966   0.392
 4366SOL    HW213998   5.861   6.114   0.342
 4367SOL     OW13999   2.163   4.512   4.494
 4367SOL    HW114000   2.182   4.608   4.475
 4367SOL    HW214001   2.248   4.459   4.488
 4368SOL     OW14002   4.041   4.773   1.103
 4368SOL    HW114003   3.969   4.713   1.068
 4368SOL    HW214004   4.010   4.868   1.100
 4369SOL     OW14005   3.550   5.269   3.830
 4369SOL    HW114006   3.562   5.345   3.894
 4369SOL    HW214007   3.640   5.229   3.809
 4370SOL     OW14008   4.730   4.962   2.768
 4370SOL    HW114009   4.635   4.940   2.790
 4370SOL    HW214010   4.745   4.947   2.670
 4371SOL     OW14011   0.492   1.101   1.574
 4371SOL    HW114012   0.421   1.041   1.537
 4371SOL    HW214013   0.560   1.119   1.502
 4372SOL     OW14014   4.338   1.210   3.098
 4372SOL    HW114015   4.297   1.259   3.176
 4372SOL    HW214016   4.327   1.265   3.015
 4373SOL     OW14017   0.301   2.234   6.705
 4373SOL    HW114018   0.371   2.275   6.763
 4373SOL    HW214019   0.341   2.159   6.653
 4374SOL     OW14020   1.048   1.981   2.088
 4374SOL    HW114021   1.127   1.931   2.122
 4374SOL    HW214022   1.074   2.077   2.072
 4375SOL     OW14023   3.802   0.980   3.233
 4375SOL    HW114024   3.819   1.005   3.138
 4375SOL    HW214025   3.878   0.924   3.266
 4376SOL     OW14026   6.190   6.722   2.758
 4376SOL    HW114027   6.135   6.641   2.778
 4376SOL    HW214028   6.281   6.711   2.798
 4377SOL     OW14029   5.387   3.947   6.885
 4377SOL    HW114030   5.480   3.909   6.877
 4377SOL    HW214031   5.392   4.045   6.905
 4378SOL     OW14032   1.921   1.340   2.814
 4378SOL    HW114033   1.822   1.350   2.800
 4378SOL    HW214034   1.968   1.421   2.781
 4379SOL     OW14035   2.072   0.715   2.369
 4379SOL    HW114036   2.148   0.665   2.327
 4379SOL    HW214037   2.086   0.719   2.468
 4380SOL     OW14038   1.823   0.146   2.531
 4380SOL    HW114039   1.896   0.079   2.521
 4380SOL    HW214040   1.735   0.099   2.538
 4381SOL     OW14041   0.249   6.205   5.281
 4381SOL    HW114042   0.259   6.295   5.323
 4381SOL    HW214043   0.163   6.200   5.231
 4382SOL     OW14044   0.966   3.350   5.280
 4382SOL    HW114045   0.890   3.412   5.301
 4382SOL    HW214046   0.966   3.274   5.346
 4383SOL     OW14047   0.760   3.163   6.606
 4383SOL    HW114048   0.854   3.150   6.639
 4383SOL    HW214049   0.706   3.210   6.675
 4384SOL     OW14050   6.425   0.481   4.579
 4384SOL    HW114051   6.431   0.578   4.601
 4384SOL    HW214052   6.343   0.442   4.622
 4385SOL     OW14053   4.576   2.679   5.119
 4385SOL    HW114054   4.520   2.741   5.174
 4385SOL    HW214055   4.589   2.717   5.028
 4386SOL     OW14056   1.809   3.655   5.489
 4386SOL    HW114057   1.735   3.641   5.423
 4386SOL    HW214058   1.776   3.634   5.581
 4387SOL     OW14059   6.592   2.390   1.559
 4387SOL    HW114060   6.656   2.434   1.622
 4387SOL    HW214061   6.499   2.400   1.593
 4388SOL     OW14062   3.929   2.003   5.625
 4388SOL    HW114063   3.885   1.976   5.710
 4388SOL    HW214064   3.862   2.005   5.551
 4389SOL     OW14065   0.038   3.545   1.006
 4389SOL    HW114066   6.978   3.499   1.002
 4389SOL    HW214067   0.084   3.520   1.092
 4390SOL     OW14068   4.509   6.779   1.340
 4390SOL    HW114069   4.474   6.870   1.358
 4390SOL    HW214070   4.442   6.710   1.368
 4391SOL     OW14071   2.611   5.225   6.841
 4391SOL    HW114072   2.688   5.283   6.816
 4391SOL    HW214073   2.551   5.213   6.762
 4392SOL     OW14074   0.905   2.094   5.025
 4392SOL    HW114075   0.973   2.043   5.078
 4392SOL    HW214076   0.930   2.092   4.928
 4393SOL     OW14077   5.943   1.036   1.604
 4393SOL    HW114078   6.029   1.052   1.556
 4393SOL    HW214079   5.924   0.938   1.607
 4394SOL     OW14080   6.893   5.939   2.463
 4394SOL    HW114081   6.894   5.852   2.414
 4394SOL    HW214082   6.799   5.974   2.465
 4395SOL     OW14083   1.775   0.747   1.782
 4395SOL    HW114084   1.845   0.708   1.842
 4395SOL    HW214085   1.692   0.763   1.835
 4396SOL     OW14086   1.657   1.505   3.917
 4396SOL    HW114087   1.572   1.507   3.971
 4396SOL    HW214088   1.641   1.454   3.832
 4397SOL     OW14089   1.520   2.493   4.410
 4397SOL    HW114090   1.595   2.465   4.470
 4397SOL    HW214091   1.488   2.413   4.358
 4398SOL     OW14092   1.573   3.464   6.061
 4398SOL    HW114093   1.573   3.552   6.015
 4398SOL    HW214094   1.666   3.427   6.063
 4399SOL     OW14095   3.663   6.106   2.244
 4399SOL    HW114096   3.565   6.091   2.233
 4399SOL    HW214097   3.705   6.023   2.281
 4400SOL     OW14098   2.471   6.877   4.356
 4400SOL    HW114099   2.504   6.966   4.326
 4400SOL    HW214100   2.388   6.889   4.412
 4401SOL     OW14101   3.033   6.569   5.333
 4401SOL    HW114102   3.073   6.559   5.424
 4401SOL    HW214103   2.936   6.593   5.342
 4402SOL     OW14104   1.683   0.221   2.775
 4402SOL    HW114105   1.741   0.235   2.855
 4402SOL    HW214106   1.739   0.192   2.698
 4403SOL     OW14107   1.015   6.533   6.948
 4403SOL    HW114108   0.958   6.598   6.999
 4403SOL    HW214109   1.010   6.444   6.993
 4404SOL     OW14110   1.123   6.296   5.530
 4404SOL    HW114111   1.106   6.215   5.474
 4404SOL    HW214112   1.051   6.364   5.513
 4405SOL     OW14113   1.715   4.968   1.977
 4405SOL    HW114114   1.773   5.011   1.908
 4405SOL    HW214115   1.693   4.874   1.950
 4406SOL     OW14116   0.142   2.871   0.647
 4406SOL    HW114117   0.225   2.881   0.593
 4406SOL    HW214118   0.164   2.832   0.736
 4407SOL     OW14119   0.128   5.465   1.774
 4407SOL    HW114120   0.122   5.371   1.739
 4407SOL    HW214121   0.177   5.464   1.861
 4408SOL     OW14122   1.866   0.122   0.361
 4408SOL    HW114123   1.908   0.033   0.345
 4408SOL    HW214124   1.927   0.179   0.417
 4409SOL     OW14125   4.257   1.265   1.547
 4409SOL    HW114126   4.327   1.289   1.479
 4409SOL    HW214127   4.283   1.180   1.594
 4410SOL     OW14128   0.473   5.439   0.040
 4410SOL    HW114129   0.498   5.481   6.982
 4410SOL    HW214130   0.553   5.394   0.079
 4411SOL     OW14131   3.614   4.218   5.056
 4411SOL    HW114132   3.657   4.130   5.077
 4411SOL    HW214133   3.648   4.288   5.120
 4412SOL     OW14134   4.695   6.523   4.124
 4412SOL    HW114135   4.735   6.432   4.121
 4412SOL    HW214136   4.726   6.576   4.046
 4413SOL     OW14137   5.443   5.329   3.905
 4413SOL    HW114138   5.482   5.420   3.889
 4413SOL    HW214139   5.384   5.304   3.828
 4414SOL     OW14140   3.239   5.747   1.188
 4414SOL    HW114141   3.289   5.782   1.268
 4414SOL    HW214142   3.302   5.735   1.112
 4415SOL     OW14143   4.786   3.044   0.281
 4415SOL    HW114144   4.854   2.995   0.334
 4415SOL    HW214145   4.780   3.138   0.313
 4416SOL     OW14146   4.524   2.027   4.087
 4416SOL    HW114147   4.585   1.955   4.055
 4416SOL    HW214148   4.563   2.071   4.168
 4417SOL     OW14149   5.568   4.023   3.870
 4417SOL    HW114150   5.617   3.937   3.882
 4417SOL    HW214151   5.609   4.074   3.794
 4418SOL     OW14152   6.034   2.095   2.981
 4418SOL    HW114153   5.958   2.108   2.917
 4418SOL    HW214154   6.028   2.161   3.055
 4419SOL     OW14155   6.402   0.081   5.667
 4419SOL    HW114156   6.451   0.143   5.606
 4419SOL    HW214157   6.317   0.051   5.624
 4420SOL     OW14158   3.787   1.651   2.217
 4420SOL    HW114159   3.812   1.746   2.236
 4420SOL    HW214160   3.701   1.629   2.264
 4421SOL     OW14161   1.975   1.762   5.194
 4421SOL    HW114162   2.047   1.693   5.186
 4421SOL    HW214163   1.966   1.811   5.107
 4422SOL     OW14164   1.047   4.512   6.812
 4422SOL    HW114165   1.035   4.595   6.759
 4422SOL    HW214166   1.044   4.432   6.751
 4423SOL     OW14167   0.244   4.058   5.694
 4423SOL    HW114168   0.171   4.121   5.720
 4423SOL    HW214169   0.244   4.046   5.594
 4424SOL     OW14170   5.284   0.066   4.443
 4424SOL    HW114171   5.334   0.076   4.529
 4424SOL    HW214172   5.311   7.010   4.399
 4425SOL     OW14173   2.439   4.520   0.619
 4425SOL    HW114174   2.420   4.471   0.704
 4425SOL    HW214175   2.463   4.615   0.639
 4426SOL     OW14176   0.664   1.502   4.185
 4426SOL    HW114177   0.674   1.405   4.210
 4426SOL    HW214178   0.602   1.547   4.249
 4427SOL     OW14179   5.642   6.914   3.034
 4427SOL    HW114180   5.602   6.854   2.965
 4427SOL    HW214181   5.632   7.009   3.006
 4428SOL     OW14182   4.346   0.645   4.212
 4428SOL    HW114183   4.442   0.627   4.190
 4428SOL    HW214184   4.293   0.652   4.127
 4429SOL     OW14185   3.319   6.927   2.666
 4429SOL    HW114186   3.311   7.015   2.712
 4429SOL    HW214187   3.286   6.935   2.572
 4430SOL     OW14188   5.065   4.536   4.986
 4430SOL    HW114189   5.082   4.573   5.077
 4430SOL    HW214190   5.102   4.443   4.980
 4431SOL     OW14191   2.904   0.659   3.487
 4431SOL    HW114192   3.002   0.647   3.477
 4431SOL    HW214193   2.884   0.754   3.511
 4432SOL     OW14194   2.772   3.368   6.122
 4432SOL    HW114195   2.789   3.443   6.059
 4432SOL    HW214196   2.674   3.366   6.146
 4433SOL     OW14197   6.674   2.812   4.474
 4433SOL    HW114198   6.700   2.899   4.432
 4433SOL    HW214199   6.600   2.828   4.539
 4434SOL     OW14200   5.575   1.653   2.919
 4434SOL    HW114201   5.577   1.647   3.019
 4434SOL    HW214202   5.621   1.737   2.890
 4435SOL     OW14203   4.247   3.365   0.917
 4435SOL    HW114204   4.216   3.270   0.921
 4435SOL    HW214205   4.221   3.412   1.001
 4436SOL     OW14206   4.342   0.988   1.664
 4436SOL    HW114207   4.295   1.026   1.743
 4436SOL    HW214208   4.431   0.951   1.693
 4437SOL     OW14209   0.969   3.184   2.751
 4437SOL    HW114210   0.906   3.144   2.816
 4437SOL    HW214211   1.038   3.117   2.725
 4438SOL     OW14212   4.804   6.802   6.443
 4438SOL    HW114213   4.811   6.879   6.380
 4438SOL    HW214214   4.758   6.832   6.527
 4439SOL     OW14215   6.963   4.595   1.817
 4439SOL    HW114216   7.012   4.534   1.755
 4439SOL    HW214217   6.914   4.663   1.763
 4440SOL     OW14218   2.677   4.917   0.836
 4440SOL    HW114219   2.591   4.952   0.873
 4440SOL    HW214220   2.754   4.969   0.874
 4441SOL     OW14221   0.205   1.289   1.227
 4441SOL    HW114222   0.123   1.252   1.271
 4441SOL    HW214223   0.186   1.381   1.192
 4442SOL     OW14224   1.294   5.564   4.773
 4442SOL    HW114225   1.238   5.647   4.766
 4442SOL    HW214226   1.237   5.489   4.808
 4443SOL     OW14227   1.545   3.540   5.677
 4443SOL    HW114228   1.574   3.625   5.722
 4443SOL    HW214229   1.476   3.560   5.608
 4444SOL     OW14230   4.111   3.759   6.879
 4444SOL    HW114231   4.194   3.750   6.934
 4444SOL    HW214232   4.069   3.669   6.865
 4445SOL     OW14233   1.199   5.877   0.041
 4445SOL    HW114234   1.137   5.863   6.992
 4445SOL    HW214235   1.227   5.973   0.044
 4446SOL     OW14236   5.713   2.239   0.521
 4446SOL    HW114237   5.772   2.178   0.575
 4446SOL    HW214238   5.768   2.310   0.478
 4447SOL     OW14239   6.441   3.882   5.105
 4447SOL    HW114240   6.347   3.867   5.073
 4447SOL    HW214241   6.444   3.871   5.205
 4448SOL     OW14242   2.469   6.331   0.842
 4448SOL    HW114243   2.370   6.344   0.837
 4448SOL    HW214244   2.500   6.346   0.935
 4449SOL     OW14245   5.210   1.018   6.451
 4449SOL    HW114246   5.215   0.919   6.464
 4449SOL    HW214247   5.115   1.046   6.446
 4450SOL     OW14248   2.795   1.814   6.827
 4450SOL    HW114249   2.867   1.751   6.795
 4450SOL    HW214250   2.710   1.794   6.778
 4451SOL     OW14251   4.664   5.286   4.760
 4451SOL    HW114252   4.731   5.275   4.833
 4451SOL    HW214253   4.573   5.299   4.800
 4452SOL     OW14254   5.715   5.758   4.194
 4452SOL    HW114255   5.654   5.724   4.265
 4452SOL    HW214256   5.778   5.825   4.233
 4453SOL     OW14257   1.230   2.865   1.916
 4453SOL    HW114258   1.282   2.866   2.001
 4453SOL    HW214259   1.177   2.781   1.909
 4454SOL     OW14260   1.662   1.808   0.062
 4454SOL    HW114261   1.711   1.767   7.015
 4454SOL    HW214262   1.635   1.736   0.127
 4455SOL     OW14263   5.408   6.072   5.566
 4455SOL    HW114264   5.434   5.976   5.557
 4455SOL    HW214265   5.487   6.125   5.595
 4456SOL     OW14266   2.399   6.266   2.997
 4456SOL    HW114267   2.358   6.176   2.989
 4456SOL    HW214268   2.407   6.307   2.906
 4457SOL     OW14269   3.541   1.673   3.521
 4457SOL    HW114270   3.483   1.656   3.441
 4457SOL    HW214271   3.636   1.682   3.491
 4458SOL     OW14272   2.267   3.068   1.354
 4458SOL    HW114273   2.260   3.086   1.256
 4458SOL    HW214274   2.339   3.001   1.371
 4459SOL     OW14275   4.016   2.177   4.157
 4459SOL    HW114276   3.941   2.193   4.221
 4459SOL    HW214277   3.978   2.156   4.066
 4460SOL     OW14278   0.649   2.651   0.073
 4460SOL    HW114279   0.716   2.578   0.064
 4460SOL    HW214280   0.656   2.714   7.025
 4461SOL     OW14281   1.701   1.114   1.432
 4461SOL    HW114282   1.720   1.017   1.448
 4461SOL    HW214283   1.691   1.160   1.520
 4462SOL     OW14284   5.911   4.779   1.476
 4462SOL    HW114285   5.963   4.721   1.539
 4462SOL    HW214286   5.815   4.751   1.477
 4463SOL     OW14287   5.038   1.269   1.258
 4463SOL    HW114288   5.036   1.173   1.230
 4463SOL    HW214289   4.963   1.286   1.322
 4464SOL     OW14290   0.623   6.082   0.867
 4464SOL    HW114291   0.563   6.042   0.936
 4464SOL    HW214292   0.702   6.022   0.854
 4465SOL     OW14293   2.682   5.044   0.555
 4465SOL    HW114294   2.721   4.979   0.621
 4465SOL    HW214295   2.722   5.134   0.569
 4466SOL     OW14296   1.230   1.936   2.931
 4466SOL    HW114297   1.263   1.896   2.845
 4466SOL    HW214298   1.287   2.016   2.953
 4467SOL     OW14299   2.456   5.074   3.134
 4467SOL    HW114300   2.490   5.024   3.054
 4467SOL    HW214301   2.359   5.054   3.148
 4468SOL     OW14302   2.245   4.118   0.980
 4468SOL    HW114303   2.330   4.157   1.016
 4468SOL    HW214304   2.266   4.052   0.908
 4469SOL     OW14305   3.075   0.910   1.146
 4469SOL    HW114306   3.174   0.918   1.146
 4469SOL    HW214307   3.045   0.867   1.231
 4470SOL     OW14308   0.959   1.979   2.741
 4470SOL    HW114309   1.031   1.998   2.807
 4470SOL    HW214310   0.964   1.883   2.712
 4471SOL     OW14311   1.108   2.876   6.713
 4471SOL    HW114312   1.173   2.905   6.642
 4471SOL    HW214313   1.142   2.792   6.756
 4472SOL     OW14314   0.359   1.997   1.163
 4472SOL    HW114315   0.395   1.961   1.078
 4472SOL    HW214316   0.433   2.009   1.229
 4473SOL     OW14317   5.540   2.816   4.182
 4473SOL    HW114318   5.461   2.755   4.187
 4473SOL    HW214319   5.509   2.911   4.194
 4474SOL     OW14320   3.185   6.662   1.683
 4474SOL    HW114321   3.264   6.683   1.626
 4474SOL    HW214322   3.202   6.693   1.777
 4475SOL     OW14323   1.488   3.967   1.729
 4475SOL    HW114324   1.540   3.979   1.645
 4475SOL    HW214325   1.392   3.989   1.713
 4476SOL     OW14326   6.376   0.892   3.746
 4476SOL    HW114327   6.402   0.906   3.650
 4476SOL    HW214328   6.299   0.829   3.751
 4477SOL     OW14329   1.444   0.788   5.806
 4477SOL    HW114330   1.391   0.705   5.789
 4477SOL    HW214331   1.514   0.769   5.875
 4478SOL     OW14332   2.607   0.033   2.550
 4478SOL    HW114333   2.617   0.062   2.455
 4478SOL    HW214334   2.677   6.993   2.572
 4479SOL     OW14335   0.683   2.187   1.562
 4479SOL    HW114336   0.760   2.243   1.531
 4479SOL    HW214337   0.678   2.190   1.662
 4480SOL     OW14338   0.063   4.357   5.156
 4480SOL    HW114339   0.031   4.297   5.229
 4480SOL    HW214340   0.032   4.322   5.068
 4481SOL     OW14341   2.092   4.991   5.197
 4481SOL    HW114342   2.021   4.984   5.268
 4481SOL    HW214343   2.059   5.050   5.123
 4482SOL     OW14344   2.503   2.539   5.503
 4482SOL    HW114345   2.508   2.632   5.468
 4482SOL    HW214346   2.583   2.521   5.560
 4483SOL     OW14347   6.981   2.639   1.948
 4483SOL    HW114348   6.909   2.585   1.992
 4483SOL    HW214349   6.941   2.692   1.873
 4484SOL     OW14350   2.742   2.438   6.753
 4484SOL    HW114351   2.693   2.524   6.738
 4484SOL    HW214352   2.762   2.395   6.665
 4485SOL     OW14353   5.494   2.595   5.053
 4485SOL    HW114354   5.430   2.648   4.998
 4485SOL    HW214355   5.483   2.498   5.034
 4486SOL     OW14356   6.118   5.188   4.811
 4486SOL    HW114357   6.085   5.263   4.867
 4486SOL    HW214358   6.042   5.147   4.761
 4487SOL     OW14359   2.836   2.959   0.021
 4487SOL    HW114360   2.863   2.869   7.016
 4487SOL    HW214361   2.909   2.995   0.079
 4488SOL     OW14362   1.208   3.282   4.797
 4488SOL    HW114363   1.156   3.254   4.877
 4488SOL    HW214364   1.299   3.240   4.799
 4489SOL     OW14365   4.884   5.652   4.703
 4489SOL    HW114366   4.834   5.677   4.786
 4489SOL    HW214367   4.969   5.606   4.727
 4490SOL     OW14368   5.471   1.744   1.873
 4490SOL    HW114369   5.560   1.768   1.835
 4490SOL    HW214370   5.410   1.823   1.868
 4491SOL     OW14371   0.264   3.416   3.372
 4491SOL    HW114372   0.165   3.413   3.389
 4491SOL    HW214373   0.309   3.468   3.445
 4492SOL     OW14374   5.968   3.315   1.532
 4492SOL    HW114375   5.983   3.332   1.630
 4492SOL    HW214376   6.049   3.343   1.481
 4493SOL     OW14377   4.753   6.568   5.243
 4493SOL    HW114378   4.818   6.554   5.169
 4493SOL    HW214379   4.752   6.489   5.303
 4494SOL     OW14380   0.938   1.039   6.143
 4494SOL    HW114381   0.940   1.131   6.104
 4494SOL    HW214382   1.025   1.020   6.189
 4495SOL     OW14383   4.747   6.766   3.780
 4495SOL    HW114384   4.701   6.698   3.723
 4495SOL    HW214385   4.752   6.853   3.730
 4496SOL     OW14386   5.316   6.170   0.735
 4496SOL    HW114387   5.302   6.206   0.643
 4496SOL    HW214388   5.402   6.206   0.772
 4497SOL     OW14389   4.521   2.297   6.515
 4497SOL    HW114390   4.442   2.354   6.538
 4497SOL    HW214391   4.604   2.338   6.555
 4498SOL     OW14392   7.020   4.888   6.494
 4498SOL    HW114393   6.933   4.863   6.535
 4498SOL    HW214394   7.025   4.851   6.401
 4499SOL     OW14395   6.412   2.967   3.341
 4499SOL    HW114396   6.380   3.040   3.281
 4499SOL    HW214397   6.492   2.997   3.391
 4500SOL     OW14398   3.927   4.238   6.754
 4500SOL    HW114399   4.024   4.234   6.728
 4500SOL    HW214400   3.889   4.146   6.758
 4501SOL     OW14401   6.451   3.406   3.228
 4501SOL    HW114402   6.413   3.459   3.152
 4501SOL    HW214403   6.551   3.404   3.220
 4502SOL     OW14404   1.098   3.851   0.070
 4502SOL    HW114405   1.054   3.771   0.111
 4502SOL    HW214406   1.148   3.822   7.018
 4503SOL     OW14407   3.791   6.779   1.785
 4503SOL    HW114408   3.879   6.750   1.821
 4503SOL    HW214409   3.742   6.700   1.747
 4504SOL     OW14410   6.498   1.710   4.274
 4504SOL    HW114411   6.453   1.719   4.363
 4504SOL    HW214412   6.494   1.615   4.244
 4505SOL     OW14413   6.530   4.819   1.636
 4505SOL    HW114414   6.547   4.912   1.669
 4505SOL    HW214415   6.585   4.755   1.688
 4506SOL     OW14416   5.077   2.583   3.857
 4506SOL    HW114417   5.106   2.675   3.828
 4506SOL    HW214418   4.994   2.591   3.911
 4507SOL     OW14419   0.283   3.457   3.925
 4507SOL    HW114420   0.208   3.447   3.991
 4507SOL    HW214421   0.323   3.548   3.932
 4508SOL     OW14422   1.004   4.825   0.194
 4508SOL    HW114423   0.980   4.921   0.209
 4508SOL    HW214424   1.085   4.820   0.137
 4509SOL     OW14425   4.992   1.771   3.357
 4509SOL    HW114426   4.981   1.848   3.420
 4509SOL    HW214427   4.954   1.796   3.268
 4510SOL     OW14428   4.687   1.053   4.476
 4510SOL    HW114429   4.717   1.012   4.390
 4510SOL    HW214430   4.765   1.092   4.524
 4511SOL     OW14431   6.244   3.361   0.460
 4511SOL    HW114432   6.259   3.359   0.559
 4511SOL    HW214433   6.307   3.297   0.416
 4512SOL     OW14434   3.222   1.322   6.274
 4512SOL    HW114435   3.238   1.403   6.217
 4512SOL    HW214436   3.282   1.248   6.243
 4513SOL     OW14437   1.318   5.213   6.542
 4513SOL    HW114438   1.411   5.251   6.549
 4513SOL    HW214439   1.275   5.248   6.459
 4514SOL     OW14440   3.225   2.285   6.186
 4514SOL    HW114441   3.188   2.317   6.274
 4514SOL    HW214442   3.321   2.259   6.198
 4515SOL     OW14443   5.893   2.086   5.687
 4515SOL    HW114444   5.923   2.179   5.664
 4515SOL    HW214445   5.793   2.082   5.681
 4516SOL     OW14446   2.681   0.284   6.475
 4516SOL    HW114447   2.682   0.378   6.511
 4516SOL    HW214448   2.745   0.278   6.399
 4517SOL     OW14449   4.664   6.815   6.672
 4517SOL    HW114450   4.651   6.802   6.770
 4517SOL    HW214451   4.583   6.781   6.623
 4518SOL     OW14452   0.562   6.953   1.389
 4518SOL    HW114453   0.514   0.011   1.378
 4518SOL    HW214454   0.511   6.881   1.343
 4519SOL     OW14455   5.051   6.697   0.372
 4519SOL    HW114456   5.127   6.676   0.434
 4519SOL    HW214457   5.085   6.704   0.278
 4520SOL     OW14458   4.010   5.802   6.195
 4520SOL    HW114459   4.048   5.876   6.249
 4520SOL    HW214460   3.916   5.784   6.224
 4521SOL     OW14461   5.123   2.370   5.138
 4521SOL    HW114462   5.164   2.294   5.189
 4521SOL    HW214463   5.084   2.334   5.053
 4522SOL     OW14464   5.585   4.484   3.060
 4522SOL    HW114465   5.673   4.448   3.029
 4522SOL    HW214466   5.542   4.418   3.122
 4523SOL     OW14467   0.913   3.975   6.927
 4523SOL    HW114468   0.986   4.030   6.888
 4523SOL    HW214469   0.952   3.908   6.991
 4524SOL     OW14470   5.950   3.410   2.684
 4524SOL    HW114471   5.853   3.385   2.674
 4524SOL    HW214472   5.991   3.420   2.594
 4525SOL     OW14473   3.710   1.837   6.068
 4525SOL    HW114474   3.690   1.841   6.166
 4525SOL    HW214475   3.710   1.741   6.039
 4526SOL     OW14476   6.737   0.310   0.001
 4526SOL    HW114477   6.677   0.386   0.025
 4526SOL    HW214478   6.830   0.331   0.030
 4527SOL     OW14479   6.173   6.972   2.543
 4527SOL    HW114480   6.107   6.967   2.468
 4527SOL    HW214481   6.143   6.914   2.618
 4528SOL     OW14482   4.021   0.692   6.471
 4528SOL    HW114483   3.959   0.743   6.412
 4528SOL    HW214484   3.993   0.596   6.476
 4529SOL     OW14485   2.138   1.231   5.656
 4529SOL    HW114486   2.039   1.219   5.651
 4529SOL    HW214487   2.172   1.193   5.743
 4530SOL     OW14488   2.247   5.796   3.285
 4530SOL    HW114489   2.324   5.855   3.309
 4530SOL    HW214490   2.281   5.703   3.269
 4531SOL     OW14491   1.202   3.382   6.192
 4531SOL    HW114492   1.218   3.466   6.139
 4531SOL    HW214493   1.161   3.313   6.133
 4532SOL     OW14494   5.773   1.044   2.741
 4532SOL    HW114495   5.856   0.992   2.722
 4532SOL    HW214496   5.774   1.076   2.836
 4533SOL     OW14497   2.095   1.156   3.222
 4533SOL    HW114498   2.052   1.229   3.169
 4533SOL    HW214499   2.048   1.070   3.203
 4534SOL     OW14500   4.773   2.485   5.211
 4534SOL    HW114501   4.728   2.408   5.166
 4534SOL    HW214502   4.725   2.570   5.187
 4535SOL     OW14503   3.876   1.506   2.003
 4535SOL    HW114504   3.824   1.535   2.083
 4535SOL    HW214505   3.836   1.546   1.920
 4536SOL     OW14506   3.366   2.056   4.642
 4536SOL    HW114507   3.399   1.990   4.709
 4536SOL    HW214508   3.292   2.110   4.681
 4537SOL     OW14509   4.255   3.571   1.872
 4537SOL    HW114510   4.347   3.607   1.879
 4537SOL    HW214511   4.230   3.525   1.958
 4538SOL     OW14512   2.722   0.738   2.496
 4538SOL    HW114513   2.676   0.786   2.571
 4538SOL    HW214514   2.808   0.700   2.529
 4539SOL     OW14515   2.273   5.620   4.605
 4539SOL    HW114516   2.364   5.638   4.569
 4539SOL    HW214517   2.240   5.532   4.571
 4540SOL     OW14518   2.476   1.306   0.682
 4540SOL    HW114519   2.471   1.301   0.782
 4540SOL    HW214520   2.501   1.399   0.655
 4541SOL     OW14521   5.688   1.573   0.108
 4541SOL    HW114522   5.771   1.540   0.064
 4541SOL    HW214523   5.694   1.561   0.207
 4542SOL     OW14524   0.103   2.308   1.464
 4542SOL    HW114525   0.191   2.326   1.507
 4542SOL    HW214526   0.118   2.286   1.367
 4543SOL     OW14527   4.814   2.063   1.272
 4543SOL    HW114528   4.885   2.002   1.308
 4543SOL    HW214529   4.819   2.152   1.319
 4544SOL     OW14530   3.658   4.950   0.467
 4544SOL    HW114531   3.724   4.924   0.538
 4544SOL    HW214532   3.592   4.875   0.455
 4545SOL     OW14533   6.938   3.896   5.522
 4545SOL    HW114534   6.856   3.922   5.471
 4545SOL    HW214535   6.937   3.940   5.612
 4546SOL     OW14536   2.791   6.725   4.534
 4546SOL    HW114537   2.833   6.757   4.619
 4546SOL    HW214538   2.716   6.662   4.556
 4547SOL     OW14539   6.502   1.567   0.603
 4547SOL    HW114540   6.460   1.631   0.667
 4547SOL    HW214541   6.430   1.513   0.559
 4548SOL     OW14542   2.445   2.556   3.465
 4548SOL    HW114543   2.502   2.474   3.469
 4548SOL    HW214544   2.440   2.597   3.557
 4549SOL     OW14545   5.108   3.911   2.164
 4549SOL    HW114546   5.013   3.897   2.194
 4549SOL    HW214547   5.109   3.972   2.085
 4550SOL     OW14548   0.988   4.478   3.076
 4550SOL    HW114549   0.997   4.398   3.015
 4550SOL    HW214550   1.050   4.468   3.153
 4551SOL     OW14551   0.874   3.658   5.099
 4551SOL    HW114552   0.962   3.611   5.100
 4551SOL    HW214553   0.869   3.723   5.175
 4552SOL     OW14554   5.496   2.369   1.052
 4552SOL    HW114555   5.478   2.322   1.139
 4552SOL    HW214556   5.461   2.462   1.057
 4553SOL     OW14557   5.395   4.040   6.630
 4553SOL    HW114558   5.408   4.014   6.725
 4553SOL    HW214559   5.467   4.103   6.602
 4554SOL     OW14560   6.914   6.964   1.884
 4554SOL    HW114561   6.840   7.000   1.828
 4554SOL    HW214562   6.877   6.902   1.953
 4555SOL     OW14563   1.183   0.794   6.139
 4555SOL    HW114564   1.181   0.813   6.041
 4555SOL    HW214565   1.277   0.778   6.169
 4556SOL     OW14566   6.373   3.230   4.803
 4556SOL    HW114567   6.463   3.268   4.823
 4556SOL    HW214568   6.382   3.154   4.738
 4557SOL     OW14569   5.221   5.422   4.155
 4557SOL    HW114570   5.320   5.434   4.164
 4557SOL    HW214571   5.174   5.473   4.226
 4558SOL     OW14572   6.515   3.694   4.661
 4558SOL    HW114573   6.457   3.703   4.580
 4558SOL    HW214574   6.608   3.722   4.639
 4559SOL     OW14575   6.990   3.258   2.808
 4559SOL    HW114576   7.017   3.172   2.765
 4559SOL    HW214577   6.980   3.245   2.907
 4560SOL     OW14578   6.089   4.059   2.003
 4560SOL    HW114579   5.989   4.059   2.006
 4560SOL    HW214580   6.125   4.059   2.096
 4561SOL     OW14581   4.111   1.840   3.372
 4561SOL    HW114582   4.029   1.890   3.397
 4561SOL    HW214583   4.181   1.904   3.340
 4562SOL     OW14584   1.439   0.451   0.412
 4562SOL    HW114585   1.434   0.409   0.502
 4562SOL    HW214586   1.532   0.442   0.375
 4563SOL     OW14587   0.010   3.514   0.626
 4563SOL    HW114588   0.068   3.446   0.582
 4563SOL    HW214589   0.033   3.520   0.723
 4564SOL     OW14590   6.510   5.955   1.919
 4564SOL    HW114591   6.566   5.987   1.996
 4564SOL    HW214592   6.416   5.941   1.950
 4565SOL     OW14593   1.278   1.444   4.584
 4565SOL    HW114594   1.189   1.458   4.540
 4565SOL    HW214595   1.351   1.476   4.523
 4566SOL     OW14596   0.172   3.386   1.187
 4566SOL    HW114597   0.259   3.435   1.187
 4566SOL    HW214598   0.187   3.293   1.154
 4567SOL     OW14599   7.014   1.354   6.705
 4567SOL    HW114600   0.016   1.294   6.778
 4567SOL    HW214601   7.004   1.302   6.620
 4568SOL     OW14602   1.575   3.623   5.336
 4568SOL    HW114603   1.575   3.558   5.260
 4568SOL    HW214604   1.489   3.615   5.387
 4569SOL     OW14605   3.139   0.371   3.222
 4569SOL    HW114606   3.140   0.360   3.321
 4569SOL    HW214607   3.184   0.457   3.197
 4570SOL     OW14608   6.094   6.341   2.298
 4570SOL    HW114609   6.034   6.390   2.235
 4570SOL    HW214610   6.121   6.403   2.373
 4571SOL     OW14611   4.359   3.050   6.744
 4571SOL    HW114612   4.317   2.984   6.681
 4571SOL    HW214613   4.401   3.124   6.693
 4572SOL     OW14614   2.336   0.858   6.860
 4572SOL    HW114615   2.265   0.803   6.904
 4572SOL    HW214616   2.294   0.933   6.811
 4573SOL     OW14617   0.040   6.804   0.110
 4573SOL    HW114618   0.097   6.836   0.035
 4573SOL    HW214619   0.098   6.782   0.189
 4574SOL     OW14620   5.420   4.385   0.158
 4574SOL    HW114621   5.368   4.317   0.210
 4574SOL    HW214622   5.517   4.376   0.177
 4575SOL     OW14623   5.680   0.508   5.191
 4575SOL    HW114624   5.644   0.570   5.120
 4575SOL    HW214625   5.645   0.536   5.280
 4576SOL     OW14626   2.742   4.954   5.268
 4576SOL    HW114627   2.722   4.923   5.175
 4576SOL    HW214628   2.754   4.874   5.327
 4577SOL     OW14629   1.729   2.644   3.651
 4577SOL    HW114630   1.776   2.595   3.578
 4577SOL    HW214631   1.636   2.608   3.660
 4578SOL     OW14632   0.902   1.296   4.127
 4578SOL    HW114633   0.912   1.382   4.077
 4578SOL    HW214634   0.907   1.220   4.062
 4579SOL     OW14635   4.697   0.631   2.022
 4579SOL    HW114636   4.755   0.616   2.103
 4579SOL    HW214637   4.615   0.681   2.049
 4580SOL     OW14638   5.806   3.995   0.915
 4580SOL    HW114639   5.726   4.044   0.950
 4580SOL    HW214640   5.776   3.923   0.852
 4581SOL     OW14641   2.913   6.180   2.341
 4581SOL    HW114642   2.987   6.116   2.319
 4581SOL    HW214643   2.953   6.267   2.369
 4582SOL     OW14644   5.096   0.722   3.229
 4582SOL    HW114645   5.134   0.760   3.313
 4582SOL    HW214646   5.109   0.622   3.229
 4583SOL     OW14647   2.754   1.336   6.707
 4583SOL    HW114648   2.835   1.280   6.727
 4583SOL    HW214649   2.779   1.411   6.646
 4584SOL     OW14650   1.578   5.897   5.090
 4584SOL    HW114651   1.532   5.824   5.140
 4584SOL    HW214652   1.604   5.864   4.999
 4585SOL     OW14653   2.061   4.492   3.279
 4585SOL    HW114654   2.047   4.433   3.359
 4585SOL    HW214655   2.127   4.449   3.217
 4586SOL     OW14656   4.453   3.662   0.255
 4586SOL    HW114657   4.407   3.678   0.342
 4586SOL    HW214658   4.526   3.594   0.267
 4587SOL     OW14659   3.506   3.735   4.027
 4587SOL    HW114660   3.446   3.701   3.954
 4587SOL    HW214661   3.583   3.785   3.986
 4588SOL     OW14662   3.335   3.183   5.822
 4588SOL    HW114663   3.419   3.154   5.868
 4588SOL    HW214664   3.281   3.103   5.797
 4589SOL     OW14665   5.274   6.992   2.039
 4589SOL    HW114666   5.367   6.964   2.016
 4589SOL    HW214667   5.277   0.042   2.100
 4590SOL     OW14668   3.893   5.389   1.007
 4590SOL    HW114669   3.953   5.462   1.040
 4590SOL    HW214670   3.869   5.328   1.083
 4591SOL     OW14671   1.747   0.442   5.277
 4591SOL    HW114672   1.682   0.514   5.252
 4591SOL    HW214673   1.784   0.461   5.368
 4592SOL     OW14674   3.701   1.210   3.077
 4592SOL    HW114675   3.723   1.295   3.126
 4592SOL    HW214676   3.643   1.152   3.135
 4593SOL     OW14677   6.052   6.219   2.024
 4593SOL    HW114678   6.111   6.186   2.097
 4593SOL    HW214679   6.043   6.319   2.030
 4594SOL     OW14680   3.841   0.653   3.149
 4594SOL    HW114681   3.781   0.604   3.085
 4594SOL    HW214682   3.789   0.676   3.231
 4595SOL     OW14683   4.559   3.022   5.691
 4595SOL    HW114684   4.610   3.056   5.770
 4595SOL    HW214685   4.489   2.958   5.722
 4596SOL     OW14686   6.517   0.637   2.552
 4596SOL    HW114687   6.428   0.591   2.547
 4596SOL    HW214688   6.574   0.591   2.621
 4597SOL     OW14689   2.905   5.425   6.423
 4597SOL    HW114690   2.950   5.392   6.340
 4597SOL    HW214691   2.807   5.405   6.419
 4598SOL     OW14692   1.547   5.651   1.391
 4598SOL    HW114693   1.574   5.701   1.474
 4598SOL    HW214694   1.470   5.699   1.349
 4599SOL     OW14695   1.317   4.780   1.178
 4599SOL    HW114696   1.331   4.875   1.206
 4599SOL    HW214697   1.219   4.759   1.175
 4600SOL     OW14698   0.222   6.987   5.123
 4600SOL    HW114699   0.123   6.977   5.117
 4600SOL    HW214700   0.244   0.030   5.190
 4601SOL     OW14701   0.655   1.602   5.441
 4601SOL    HW114702   0.711   1.530   5.481
 4601SOL    HW214703   0.647   1.587   5.342
 4602SOL     OW14704   2.642   6.351   0.185
 4602SOL    HW114705   2.601   6.433   0.225
 4602SOL    HW214706   2.597   6.270   0.222
 4603SOL     OW14707   3.201   5.523   0.464
 4603SOL    HW114708   3.134   5.566   0.403
 4603SOL    HW214709   3.285   5.505   0.413
 4604SOL     OW14710   5.045   0.288   6.428
 4604SOL    HW114711   5.143   0.272   6.418
 4604SOL    HW214712   5.026   0.386   6.416
 4605SOL     OW14713   2.541   6.837   1.168
 4605SOL    HW114714   2.474   6.764   1.151
 4605SOL    HW214715   2.599   6.848   1.087
 4606SOL     OW14716   0.273   6.935   2.858
 4606SOL    HW114717   0.353   6.995   2.856
 4606SOL    HW214718   0.300   6.842   2.834
 4607SOL     OW14719   1.643   3.433   3.136
 4607SOL    HW114720   1.719   3.368   3.122
 4607SOL    HW214721   1.657   3.513   3.078
 4608SOL     OW14722   7.015   4.114   3.811
 4608SOL    HW114723   0.007   4.195   3.756
 4608SOL    HW214724   0.070   4.067   3.836
 4609SOL     OW14725   5.017   4.779   0.053
 4609SOL    HW114726   4.977   4.687   0.051
 4609SOL    HW214727   5.072   4.789   0.136
 4610SOL     OW14728   4.338   1.800   6.858
 4610SOL    HW114729   4.242   1.771   6.853
 4610SOL    HW214730   4.365   1.812   6.953
 4611SOL     OW14731   0.404   0.490   6.337
 4611SOL    HW114732   0.366   0.481   6.429
 4611SOL    HW214733   0.361   0.567   6.291
 4612SOL     OW14734   2.672   6.784   1.408
 4612SOL    HW114735   2.636   6.822   1.323
 4612SOL    HW214736   2.627   6.697   1.427
 4613SOL     OW14737   1.401   5.736   2.848
 4613SOL    HW114738   1.372   5.722   2.753
 4613SOL    HW214739   1.326   5.775   2.900
 4614SOL     OW14740   6.214   2.936   3.560
 4614SOL    HW114741   6.285   2.867   3.573
 4614SOL    HW214742   6.208   2.960   3.463
 4615SOL     OW14743   1.523   1.481   1.010
 4615SOL    HW114744   1.524   1.409   0.940
 4615SOL    HW214745   1.550   1.442   1.098
 4616SOL     OW14746   5.805   1.762   4.178
 4616SOL    HW114747   5.836   1.837   4.120
 4616SOL    HW214748   5.883   1.717   4.220
 4617SOL     OW14749   1.578   2.270   2.518
 4617SOL    HW114750   1.613   2.230   2.434
 4617SOL    HW214751   1.478   2.268   2.516
 4618SOL     OW14752   2.295   3.288   5.627
 4618SOL    HW114753   2.389   3.262   5.607
 4618SOL    HW214754   2.277   3.380   5.591
 4619SOL     OW14755   2.971   6.588   3.911
 4619SOL    HW114756   2.961   6.553   4.005
 4619SOL    HW214757   2.916   6.533   3.849
 4620SOL     OW14758   0.721   4.213   1.544
 4620SOL    HW114759   0.651   4.284   1.534
 4620SOL    HW214760   0.719   4.153   1.464
 4621SOL     OW14761   5.268   0.867   2.290
 4621SOL    HW114762   5.308   0.937   2.230
 4621SOL    HW214763   5.169   0.868   2.280
 4622SOL     OW14764   3.618   5.384   0.889
 4622SOL    HW114765   3.597   5.454   0.820
 4622SOL    HW214766   3.713   5.393   0.917
 4623SOL     OW14767   4.079   5.541   1.139
 4623SOL    HW114768   4.153   5.538   1.071
 4623SOL    HW214769   4.034   5.630   1.134
 4624SOL     OW14770   3.492   0.739   3.117
 4624SOL    HW114771   3.529   0.693   3.197
 4624SOL    HW214772   3.552   0.814   3.090
 4625SOL     OW14773   2.245   5.617   2.025
 4625SOL    HW114774   2.341   5.643   2.015
 4625SOL    HW214775   2.228   5.584   2.118
 4626SOL     OW14776   4.234   4.390   1.535
 4626SOL    HW114777   4.331   4.411   1.544
 4626SOL    HW214778   4.210   4.315   1.597
 4627SOL     OW14779   1.121   5.578   5.396
 4627SOL    HW114780   1.186   5.617   5.330
 4627SOL    HW214781   1.171   5.548   5.477
 4628SOL     OW14782   4.540   4.548   4.666
 4628SOL    HW114783   4.564   4.645   4.676
 4628SOL    HW214784   4.493   4.517   4.748
 4629SOL     OW14785   2.058   4.471   5.734
 4629SOL    HW114786   2.026   4.394   5.679
 4629SOL    HW214787   2.007   4.553   5.709
 4630SOL     OW14788   2.366   5.220   2.313
 4630SOL    HW114789   2.446   5.279   2.307
 4630SOL    HW214790   2.346   5.182   2.222
 4631SOL     OW14791   0.964   6.678   4.061
 4631SOL    HW114792   0.926   6.606   4.119
 4631SOL    HW214793   1.045   6.718   4.105
 4632SOL     OW14794   2.556   4.941   2.914
 4632SOL    HW114795   2.608   4.881   2.974
 4632SOL    HW214796   2.553   4.901   2.822
 4633SOL     OW14797   5.659   1.134   4.642
 4633SOL    HW114798   5.666   1.153   4.544
 4633SOL    HW214799   5.646   1.035   4.655
 4634SOL     OW14800   2.521   3.882   5.362
 4634SOL    HW114801   2.618   3.863   5.345
 4634SOL    HW214802   2.481   3.922   5.279
 4635SOL     OW14803   4.487   4.388   1.636
 4635SOL    HW114804   4.478   4.337   1.722
 4635SOL    HW214805   4.583   4.389   1.608
 4636SOL     OW14806   2.407   4.678   0.217
 4636SOL    HW114807   2.482   4.684   0.283
 4636SOL    HW214808   2.444   4.682   0.124
 4637SOL     OW14809   1.104   6.775   0.920
 4637SOL    HW114810   1.112   6.703   0.988
 4637SOL    HW214811   1.015   6.768   0.875
 4638SOL     OW14812   3.977   5.887   6.772
 4638SOL    HW114813   3.966   5.876   6.871
 4638SOL    HW214814   4.016   5.804   6.733
 4639SOL     OW14815   2.579   2.926   6.275
 4639SOL    HW114816   2.587   3.009   6.330
 4639SOL    HW214817   2.590   2.846   6.334
 4640SOL     OW14818   6.366   3.289   4.243
 4640SOL    HW114819   6.277   3.246   4.259
 4640SOL    HW214820   6.355   3.362   4.176
 4641SOL     OW14821   2.033   0.336   4.198
 4641SOL    HW114822   2.066   0.416   4.146
 4641SOL    HW214823   1.959   0.292   4.147
 4642SOL     OW14824   1.572   6.469   2.649
 4642SOL    HW114825   1.541   6.470   2.554
 4642SOL    HW214826   1.671   6.454   2.651
 4643SOL     OW14827   6.783   2.319   0.410
 4643SOL    HW114828   6.858   2.384   0.413
 4643SOL    HW214829   6.819   2.226   0.417
 4644SOL     OW14830   0.153   0.568   5.686
 4644SOL    HW114831   0.184   0.662   5.697
 4644SOL    HW214832   0.063   0.567   5.643
 4645SOL     OW14833   2.193   1.113   4.191
 4645SOL    HW114834   2.171   1.115   4.289
 4645SOL    HW214835   2.153   1.032   4.150
 4646SOL     OW14836   2.298   5.027   3.618
 4646SOL    HW114837   2.337   5.003   3.529
 4646SOL    HW214838   2.309   4.950   3.681
 4647SOL     OW14839   1.811   0.278   3.236
 4647SOL    HW114840   1.784   0.259   3.142
 4647SOL    HW214841   1.910   0.279   3.243
 4648SOL     OW14842   2.698   0.951   4.305
 4648SOL    HW114843   2.674   0.880   4.372
 4648SOL    HW214844   2.787   0.991   4.330
 4649SOL     OW14845   6.232   1.025   0.778
 4649SOL    HW114846   6.189   1.019   0.868
 4649SOL    HW214847   6.296   0.949   0.766
 4650SOL     OW14848   4.885   5.177   1.950
 4650SOL    HW114849   4.935   5.199   2.034
 4650SOL    HW214850   4.818   5.249   1.931
 4651SOL     OW14851   5.816   3.625   6.888
 4651SOL    HW114852   5.904   3.600   6.847
 4651SOL    HW214853   5.831   3.693   6.960
 4652SOL     OW14854   6.144   6.492   4.788
 4652SOL    HW114855   6.220   6.429   4.805
 4652SOL    HW214856   6.094   6.508   4.873
 4653SOL     OW14857   5.011   5.788   0.785
 4653SOL    HW114858   4.926   5.737   0.799
 4653SOL    HW214859   4.993   5.886   0.789
 4654SOL     OW14860   0.507   5.964   6.045
 4654SOL    HW114861   0.469   6.052   6.071
 4654SOL    HW214862   0.567   5.976   5.966
 4655SOL     OW14863   5.279   4.127   1.500
 4655SOL    HW114864   5.325   4.203   1.455
 4655SOL    HW214865   5.272   4.050   1.437
 4656SOL     OW14866   1.043   0.431   1.732
 4656SOL    HW114867   0.986   0.369   1.678
 4656SOL    HW214868   1.139   0.405   1.721
 4657SOL     OW14869   4.738   5.356   1.814
 4657SOL    HW114870   4.792   5.352   1.730
 4657SOL    HW214871   4.648   5.315   1.798
 4658SOL     OW14872   3.127   1.899   4.914
 4658SOL    HW114873   3.101   1.807   4.886
 4658SOL    HW214874   3.080   1.923   4.999
 4659SOL     OW14875   2.604   4.048   7.012
 4659SOL    HW114876   2.620   3.958   6.971
 4659SOL    HW214877   2.530   4.041   0.050
 4660SOL     OW14878   1.419   6.568   4.297
 4660SOL    HW114879   1.512   6.551   4.264
 4660SOL    HW214880   1.418   6.646   4.359
 4661SOL     OW14881   2.304   4.702   5.571
 4661SOL    HW114882   2.327   4.714   5.474
 4661SOL    HW214883   2.234   4.769   5.597
 4662SOL     OW14884   3.139   0.302   5.667
 4662SOL    HW114885   3.100   0.389   5.637
 4662SOL    HW214886   3.233   0.294   5.633
 4663SOL     OW14887   0.511   0.331   0.824
 4663SOL    HW114888   0.560   0.302   0.742
 4663SOL    HW214889   0.414   0.342   0.802
 4664SOL     OW14890   0.659   0.886   0.502
 4664SOL    HW114891   0.621   0.957   0.562
 4664SOL    HW214892   0.661   0.799   0.552
 4665SOL     OW14893   2.678   6.952   5.936
 4665SOL    HW114894   2.634   6.964   6.025
 4665SOL    HW214895   2.617   6.899   5.877
 4666SOL     OW14896   2.298   2.129   6.573
 4666SOL    HW114897   2.273   2.140   6.476
 4666SOL    HW214898   2.263   2.206   6.626
 4667SOL     OW14899   6.213   3.788   1.651
 4667SOL    HW114900   6.122   3.826   1.666
 4667SOL    HW214901   6.245   3.815   1.560
 4668SOL     OW14902   4.927   1.445   4.657
 4668SOL    HW114903   4.852   1.510   4.674
 4668SOL    HW214904   5.011   1.481   4.699
 4669SOL     OW14905   5.267   6.989   6.263
 4669SOL    HW114906   5.283   6.950   6.354
 4669SOL    HW214907   5.277   0.059   6.268
 4670SOL     OW14908   1.151   2.848   6.396
 4670SOL    HW114909   1.223   2.916   6.381
 4670SOL    HW214910   1.080   2.887   6.455
 4671SOL     OW14911   0.947   3.515   6.620
 4671SOL    HW114912   0.977   3.610   6.615
 4671SOL    HW214913   1.000   3.467   6.690
 4672SOL     OW14914   3.983   4.627   6.466
 4672SOL    HW114915   3.994   4.689   6.544
 4672SOL    HW214916   3.886   4.620   6.443
 4673SOL     OW14917   5.178   7.001   0.469
 4673SOL    HW114918   5.123   7.001   0.386
 4673SOL    HW214919   5.126   6.962   0.545
 4674SOL     OW14920   5.645   1.835   0.568
 4674SOL    HW114921   5.650   1.803   0.473
 4674SOL    HW214922   5.720   1.899   0.586
 4675SOL     OW14923   3.863   0.194   0.001
 4675SOL    HW114924   3.765   0.214   7.018
 4675SOL    HW214925   3.876   0.149   0.089
 4676SOL     OW14926   0.326   6.785   4.759
 4676SOL    HW114927   0.296   6.875   4.790
 4676SOL    HW214928   0.309   6.776   4.661
 4677SOL     OW14929   2.941   0.343   0.046
 4677SOL    HW114930   2.955   0.406   6.998
 4677SOL    HW214931   2.844   0.319   0.053
 4678SOL     OW14932   2.235   4.621   2.438
 4678SOL    HW114933   2.186   4.631   2.351
 4678SOL    HW214934   2.322   4.670   2.432
 4679SOL     OW14935   3.582   1.344   6.909
 4679SOL    HW114936   3.615   1.439   6.905
 4679SOL    HW214937   3.483   1.343   6.894
 4680SOL     OW14938   2.454   0.049   2.215
 4680SOL    HW114939   2.423   0.132   2.262
 4680SOL    HW214940   2.458   0.066   2.116
 4681SOL     OW14941   5.969   6.047   5.450
 4681SOL    HW114942   5.956   6.020   5.354
 4681SOL    HW214943   5.912   6.126   5.470
 4682SOL     OW14944   4.819   4.626   6.883
 4682SOL    HW114945   4.862   4.600   6.969
 4682SOL    HW214946   4.744   4.563   6.862
 4683SOL     OW14947   5.353   4.473   2.667
 4683SOL    HW114948   5.378   4.464   2.571
 4683SOL    HW214949   5.413   4.540   2.711
 4684SOL     OW14950   6.974   2.195   4.376
 4684SOL    HW114951   6.960   2.097   4.374
 4684SOL    HW214952   6.949   2.234   4.287
 4685SOL     OW14953   0.425   5.830   4.320
 4685SOL    HW114954   0.388   5.742   4.293
 4685SOL    HW214955   0.437   5.888   4.240
 4686SOL     OW14956   4.950   5.795   0.340
 4686SOL    HW114957   4.979   5.739   0.418
 4686SOL    HW214958   4.876   5.748   0.292
 4687SOL     OW14959   6.347   4.941   5.134
 4687SOL    HW114960   6.274   4.914   5.071
 4687SOL    HW214961   6.424   4.878   5.125
 4688SOL     OW14962   0.068   2.843   6.173
 4688SOL    HW114963   7.024   2.775   6.168
 4688SOL    HW214964   0.153   2.802   6.142
 4689SOL     OW14965   5.421   0.562   6.780
 4689SOL    HW114966   5.323   0.581   6.772
 4689SOL    HW214967   5.461   0.622   6.850
 4690SOL     OW14968   1.162   1.915   6.981
 4690SOL    HW114969   1.125   2.008   6.977
 4690SOL    HW214970   1.260   1.918   6.966
 4691SOL     OW14971   3.069   4.081   1.956
 4691SOL    HW114972   3.086   4.134   1.874
 4691SOL    HW214973   2.974   4.094   1.986
 4692SOL     OW14974   6.592   5.379   2.423
 4692SOL    HW114975   6.571   5.475   2.405
 4692SOL    HW214976   6.587   5.328   2.338
 4693SOL     OW14977   0.643   0.542   4.322
 4693SOL    HW114978   0.657   0.478   4.397
 4693SOL    HW214979   0.665   0.497   4.235
 4694SOL     OW14980   2.689   0.656   0.423
 4694SOL    HW114981   2.736   0.573   0.391
 4694SOL    HW214982   2.665   0.713   0.344
 4695SOL     OW14983   2.999   3.601   1.630
 4695SOL    HW114984   2.980   3.698   1.643
 4695SOL    HW214985   2.917   3.555   1.595
 4696SOL     OW14986   0.805   4.651   5.959
 4696SOL    HW114987   0.800   4.666   6.058
 4696SOL    HW214988   0.866   4.575   5.939
 4697SOL     OW14989   1.695   3.620   0.833
 4697SOL    HW114990   1.639   3.611   0.750
 4697SOL    HW214991   1.646   3.580   0.910
 4698SOL     OW14992   4.840   5.431   3.206
 4698SOL    HW114993   4.811   5.350   3.155
 4698SOL    HW214994   4.822   5.513   3.151
 4699SOL     OW14995   1.132   0.055   2.081
 4699SOL    HW114996   1.114   0.118   2.006
 4699SOL    HW214997   1.186   7.007   2.049
 4700SOL     OW14998   5.881   1.953   2.086
 4700SOL    HW114999   5.782   1.954   2.076
 4700SOL    HW215000   5.923   1.933   1.997
 4701SOL     OW15001   1.440   2.369   0.287
 4701SOL    HW115002   1.470   2.455   0.328
 4701SOL    HW215003   1.423   2.302   0.360
 4702SOL     OW15004   5.317   5.246   6.716
 4702SOL    HW115005   5.400   5.228   6.663
 4702SOL    HW215006   5.254   5.170   6.706
 4703SOL     OW15007   0.974   2.674   2.505
 4703SOL    HW115008   1.046   2.713   2.447
 4703SOL    HW215009   0.896   2.737   2.507
 4704SOL     OW15010   6.992   6.454   0.222
 4704SOL    HW115011   0.043   6.457   0.163
 4704SOL    HW215012   6.981   6.542   0.269
 4705SOL     OW15013   3.736   3.692   2.774
 4705SOL    HW115014   3.817   3.665   2.825
 4705SOL    HW215015   3.662   3.627   2.791
 4706SOL     OW15016   4.328   6.163   6.665
 4706SOL    HW115017   4.326   6.210   6.576
 4706SOL    HW215018   4.252   6.196   6.721
 4707SOL     OW15019   1.902   6.014   0.944
 4707SOL    HW115020   1.979   5.973   0.895
 4707SOL    HW215021   1.895   5.974   1.035
 4708SOL     OW15022   1.772   2.907   0.088
 4708SOL    HW115023   1.742   2.875   0.178
 4708SOL    HW215024   1.692   2.926   0.031
 4709SOL     OW15025   3.796   4.936   5.200
 4709SOL    HW115026   3.796   5.029   5.238
 4709SOL    HW215027   3.726   4.882   5.247
 4710SOL     OW15028   3.767   1.268   5.797
 4710SOL    HW115029   3.825   1.328   5.741
 4710SOL    HW215030   3.822   1.229   5.871
 4711SOL     OW15031   4.945   0.625   2.452
 4711SOL    HW115032   5.022   0.586   2.503
 4711SOL    HW215033   4.860   0.584   2.483
 4712SOL     OW15034   2.780   4.628   0.845
 4712SOL    HW115035   2.772   4.613   0.943
 4712SOL    HW215036   2.747   4.720   0.822
 4713SOL     OW15037   2.577   3.946   1.250
 4713SOL    HW115038   2.588   4.036   1.290
 4713SOL    HW215039   2.524   3.887   1.312
 4714SOL     OW15040   2.137   1.851   6.770
 4714SOL    HW115041   2.110   1.943   6.743
 4714SOL    HW215042   2.235   1.838   6.753
 4715SOL     OW15043   6.643   3.772   1.463
 4715SOL    HW115044   6.647   3.688   1.409
 4715SOL    HW215045   6.736   3.806   1.478
 4716SOL     OW15046   3.856   5.546   6.568
 4716SOL    HW115047   3.773   5.490   6.578
 4716SOL    HW215048   3.920   5.500   6.507
 4717SOL     OW15049   1.070   6.364   3.092
 4717SOL    HW115050   1.034   6.289   3.036
 4717SOL    HW215051   1.077   6.447   3.037
 4718SOL     OW15052   5.347   1.686   6.660
 4718SOL    HW115053   5.417   1.630   6.705
 4718SOL    HW215054   5.286   1.627   6.608
 4719SOL     OW15055   4.887   3.423   2.914
 4719SOL    HW115056   4.865   3.390   3.006
 4719SOL    HW215057   4.833   3.504   2.894
 4720SOL     OW15058   2.426   5.851   5.697
 4720SOL    HW115059   2.424   5.940   5.651
 4720SOL    HW215060   2.448   5.865   5.793
 4721SOL     OW15061   6.335   2.157   1.818
 4721SOL    HW115062   6.402   2.220   1.860
 4721SOL    HW215063   6.255   2.150   1.877
 4722SOL     OW15064   1.482   5.955   0.040
 4722SOL    HW115065   1.407   5.890   0.025
 4722SOL    HW215066   1.567   5.904   0.051
 4723SOL     OW15067   1.703   5.212   5.521
 4723SOL    HW115068   1.686   5.226   5.424
 4723SOL    HW215069   1.618   5.227   5.572
 4724SOL     OW15070   4.802   5.914   2.586
 4724SOL    HW115071   4.739   5.836   2.583
 4724SOL    HW215072   4.876   5.895   2.649
 4725SOL     OW15073   5.410   6.592   2.549
 4725SOL    HW115074   5.508   6.578   2.561
 4725SOL    HW215075   5.372   6.633   2.632
 4726SOL     OW15076   1.750   3.730   6.259
 4726SOL    HW115077   1.764   3.709   6.162
 4726SOL    HW215078   1.838   3.736   6.305
 4727SOL     OW15079   7.004   6.117   6.880
 4727SOL    HW115080   0.070   6.146   6.877
 4727SOL    HW215081   6.982   6.065   6.797
 4728SOL     OW15082   4.703   1.569   1.264
 4728SOL    HW115083   4.779   1.614   1.311
 4728SOL    HW215084   4.739   1.511   1.191
 4729SOL     OW15085   2.876   1.457   2.512
 4729SOL    HW115086   2.825   1.473   2.428
 4729SOL    HW215087   2.863   1.362   2.542
 4730SOL     OW15088   1.983   5.904   5.265
 4730SOL    HW115089   1.919   5.835   5.230
 4730SOL    HW215090   2.075   5.884   5.232
 4731SOL     OW15091   4.594   0.103   6.293
 4731SOL    HW115092   4.537   0.183   6.273
 4731SOL    HW215093   4.666   0.130   6.358
 4732SOL     OW15094   6.893   3.247   6.362
 4732SOL    HW115095   6.884   3.161   6.413
 4732SOL    HW215096   6.832   3.316   6.402
 4733SOL     OW15097   0.651   4.396   2.848
 4733SOL    HW115098   0.728   4.448   2.813
 4733SOL    HW215099   0.586   4.377   2.774
 4734SOL     OW15100   4.818   3.447   6.802
 4734SOL    HW115101   4.826   3.354   6.837
 4734SOL    HW215102   4.753   3.499   6.857
 4735SOL     OW15103   0.606   5.348   4.132
 4735SOL    HW115104   0.624   5.417   4.203
 4735SOL    HW215105   0.675   5.357   4.060
 4736SOL     OW15106   0.591   1.462   6.680
 4736SOL    HW115107   0.644   1.428   6.758
 4736SOL    HW215108   0.494   1.447   6.697
 4737SOL     OW15109   1.406   5.485   2.269
 4737SOL    HW115110   1.403   5.557   2.339
 4737SOL    HW215111   1.501   5.467   2.244
 4738SOL     OW15112   0.087   5.912   2.858
 4738SOL    HW115113   0.102   6.010   2.869
 4738SOL    HW215114   0.057   5.893   2.764
 4739SOL     OW15115   4.248   6.404   2.588
 4739SOL    HW115116   4.344   6.377   2.586
 4739SOL    HW215117   4.197   6.349   2.522
 4740SOL     OW15118   0.189   1.402   1.869
 4740SOL    HW115119   0.127   1.351   1.809
 4740SOL    HW215120   0.283   1.381   1.845
 4741SOL     OW15121   3.358   2.323   1.691
 4741SOL    HW115122   3.433   2.261   1.671
 4741SOL    HW215123   3.393   2.415   1.704
 4742SOL     OW15124   1.949   6.602   6.454
 4742SOL    HW115125   2.017   6.529   6.449
 4742SOL    HW215126   1.866   6.568   6.497
 4743SOL     OW15127   2.040   3.321   2.815
 4743SOL    HW115128   2.124   3.286   2.774
 4743SOL    HW215129   1.968   3.323   2.745
 4744SOL     OW15130   1.946   4.957   1.265
 4744SOL    HW115131   1.902   5.035   1.310
 4744SOL    HW215132   2.038   4.983   1.236
 4745SOL     OW15133   3.037   3.888   6.981
 4745SOL    HW115134   2.973   3.859   0.023
 4745SOL    HW215135   3.069   3.980   7.000
 4746SOL     OW15136   4.318   6.489   3.938
 4746SOL    HW115137   4.235   6.448   3.976
 4746SOL    HW215138   4.395   6.427   3.953
 4747SOL     OW15139   1.262   3.555   0.828
 4747SOL    HW115140   1.297   3.502   0.905
 4747SOL    HW215141   1.174   3.517   0.799
 4748SOL     OW15142   1.366   6.759   1.635
 4748SOL    HW115143   1.426   6.823   1.683
 4748SOL    HW215144   1.377   6.772   1.536
 4749SOL     OW15145   1.960   6.893   6.565
 4749SOL    HW115146   1.942   6.795   6.561
 4749SOL    HW215147   2.048   6.912   6.521
 4750SOL     OW15148   6.349   3.633   5.503
 4750SOL    HW115149   6.291   3.642   5.584
 4750SOL    HW215150   6.411   3.555   5.514
 4751SOL     OW15151   4.531   2.537   3.246
 4751SOL    HW115152   4.578   2.572   3.327
 4751SOL    HW215153   4.597   2.493   3.185
 4752SOL     OW15154   4.630   0.526   0.359
 4752SOL    HW115155   4.643   0.614   0.314
 4752SOL    HW215156   4.718   0.480   0.370
 4753SOL     OW15157   0.806   6.880   3.982
 4753SOL    HW115158   0.856   6.801   4.018
 4753SOL    HW215159   0.794   6.948   4.054
 4754SOL     OW15160   4.924   3.751   5.233
 4754SOL    HW115161   4.873   3.705   5.160
 4754SOL    HW215162   4.989   3.686   5.274
 4755SOL     OW15163   2.389   0.848   0.748
 4755SOL    HW115164   2.329   0.878   0.675
 4755SOL    HW215165   2.335   0.811   0.823
 4756SOL     OW15166   6.884   3.849   6.067
 4756SOL    HW115167   6.827   3.766   6.073
 4756SOL    HW215168   6.840   3.923   6.119
 4757SOL     OW15169   1.550   2.783   1.271
 4757SOL    HW115170   1.578   2.768   1.366
 4757SOL    HW215171   1.554   2.881   1.250
 4758SOL     OW15172   1.298   6.988   3.053
 4758SOL    HW115173   1.324   0.039   3.000
 4758SOL    HW215174   1.357   6.981   3.134
 4759SOL     OW15175   0.563   5.959   6.674
 4759SOL    HW115176   0.577   5.976   6.576
 4759SOL    HW215177   0.643   5.989   6.725
 4760SOL     OW15178   1.424   0.965   0.789
 4760SOL    HW115179   1.486   1.033   0.828
 4760SOL    HW215180   1.338   1.008   0.763
 4761SOL     OW15181   1.623   0.455   0.692
 4761SOL    HW115182   1.605   0.553   0.692
 4761SOL    HW215183   1.631   0.423   0.786
 4762SOL     OW15184   1.408   5.792   2.271
 4762SOL    HW115185   1.434   5.821   2.363
 4762SOL    HW215186   1.368   5.870   2.222
 4763SOL     OW15187   4.590   0.347   2.508
 4763SOL    HW115188   4.518   0.399   2.552
 4763SOL    HW215189   4.592   0.367   2.410
 4764SOL     OW15190   4.582   3.389   5.361
 4764SOL    HW115191   4.573   3.442   5.276
 4764SOL    HW215192   4.552   3.446   5.438
 4765SOL     OW15193   3.700   0.778   6.113
 4765SOL    HW115194   3.618   0.818   6.073
 4765SOL    HW215195   3.774   0.779   6.046
 4766SOL     OW15196   6.144   6.105   4.322
 4766SOL    HW115197   6.184   6.153   4.400
 4766SOL    HW215198   6.064   6.154   4.290
 4767SOL     OW15199   2.605   5.275   5.589
 4767SOL    HW115200   2.663   5.261   5.509
 4767SOL    HW215201   2.522   5.219   5.580
 4768SOL     OW15202   3.894   3.503   6.212
 4768SOL    HW115203   3.919   3.458   6.298
 4768SOL    HW215204   3.797   3.486   6.193
 4769SOL     OW15205   3.346   6.112   0.148
 4769SOL    HW115206   3.432   6.127   0.100
 4769SOL    HW215207   3.270   6.130   0.085
 4770SOL     OW15208   6.569   1.979   4.705
 4770SOL    HW115209   6.588   2.077   4.702
 4770SOL    HW215210   6.606   1.936   4.623
 4771SOL     OW15211   2.264   6.409   5.730
 4771SOL    HW115212   2.214   6.381   5.647
 4771SOL    HW215213   2.267   6.332   5.794
 4772SOL     OW15214   2.889   5.065   0.973
 4772SOL    HW115215   2.905   5.135   0.904
 4772SOL    HW215216   2.855   5.108   1.057
 4773SOL     OW15217   1.122   6.142   4.268
 4773SOL    HW115218   1.023   6.137   4.254
 4773SOL    HW215219   1.150   6.238   4.275
 4774SOL     OW15220   1.253   4.316   1.324
 4774SOL    HW115221   1.309   4.235   1.307
 4774SOL    HW215222   1.237   4.364   1.237
 4775SOL     OW15223   4.937   6.952   4.309
 4775SOL    HW115224   5.015   6.942   4.247
 4775SOL    HW215225   4.878   6.872   4.301
 4776SOL     OW15226   0.970   1.251   4.926
 4776SOL    HW115227   1.065   1.222   4.937
 4776SOL    HW215228   0.955   1.281   4.832
 4777SOL     OW15229   1.720   5.633   1.202
 4777SOL    HW115230   1.653   5.647   1.275
 4777SOL    HW215231   1.700   5.695   1.126
 4778SOL     OW15232   0.276   2.984   4.435
 4778SOL    HW115233   0.308   3.079   4.432
 4778SOL    HW215234   0.354   2.924   4.452
 4779SOL     OW15235   5.662   6.386   4.167
 4779SOL    HW115236   5.604   6.311   4.136
 4779SOL    HW215237   5.621   6.428   4.248
 4780SOL     OW15238   6.185   2.421   6.256
 4780SOL    HW115239   6.208   2.465   6.168
 4780SOL    HW215240   6.246   2.457   6.327
 4781SOL     OW15241   2.884   5.341   2.349
 4781SOL    HW115242   2.893   5.268   2.417
 4781SOL    HW215243   2.895   5.430   2.395
 4782SOL     OW15244   6.458   6.144   6.201
 4782SOL    HW115245   6.507   6.134   6.114
 4782SOL    HW215246   6.376   6.200   6.186
 4783SOL     OW15247   6.006   3.490   0.122
 4783SOL    HW115248   5.917   3.445   0.116
 4783SOL    HW215249   6.049   3.491   0.032
 4784SOL     OW15250   5.917   2.040   5.959
 4784SOL    HW115251   5.900   2.043   5.860
 4784SOL    HW215252   6.015   2.047   5.975
 4785SOL     OW15253   0.026   6.652   2.713
 4785SOL    HW115254   0.114   6.633   2.758
 4785SOL    HW215255   6.981   6.620   2.772
 4786SOL     OW15256   2.883   6.760   6.906
 4786SOL    HW115257   2.970   6.738   6.863
 4786SOL    HW215258   2.899   6.809   6.992
 4787SOL     OW15259   4.333   1.860   3.659
 4787SOL    HW115260   4.263   1.795   3.690
 4787SOL    HW215261   4.402   1.872   3.731
 4788SOL     OW15262   6.238   6.256   0.211
 4788SOL    HW115263   6.296   6.215   0.281
 4788SOL    HW215264   6.160   6.301   0.255
 4789SOL     OW15265   4.884   1.525   1.611
 4789SOL    HW115266   4.855   1.566   1.697
 4789SOL    HW215267   4.946   1.448   1.631
 4790SOL     OW15268   5.395   1.827   5.819
 4790SOL    HW115269   5.473   1.779   5.777
 4790SOL    HW215270   5.415   1.843   5.916
 4791SOL     OW15271   0.319   2.820   1.737
 4791SOL    HW115272   0.350   2.886   1.806
 4791SOL    HW215273   0.383   2.744   1.732
 4792SOL     OW15274   2.240   4.238   4.382
 4792SOL    HW115275   2.233   4.142   4.410
 4792SOL    HW215276   2.327   4.275   4.413
 4793SOL     OW15277   1.515   3.434   5.144
 4793SOL    HW115278   1.566   3.363   5.095
 4793SOL    HW215279   1.457   3.484   5.079
 4794SOL     OW15280   4.399   6.923   4.043
 4794SOL    HW115281   4.494   6.900   4.061
 4794SOL    HW215282   4.362   6.974   4.121
 4795SOL     OW15283   6.761   1.593   4.713
 4795SOL    HW115284   6.844   1.548   4.681
 4795SOL    HW215285   6.723   1.649   4.639
 4796SOL     OW15286   3.633   6.827   6.018
 4796SOL    HW115287   3.693   6.899   6.053
 4796SOL    HW215288   3.541   6.863   6.007
 4797SOL     OW15289   0.786   5.608   4.548
 4797SOL    HW115290   0.805   5.559   4.632
 4797SOL    HW215291   0.784   5.707   4.566
 4798SOL     OW15292   6.247   5.175   6.233
 4798SOL    HW115293   6.154   5.209   6.217
 4798SOL    HW215294   6.248   5.122   6.318
 4799SOL     OW15295   4.044   1.425   0.104
 4799SOL    HW115296   3.960   1.374   0.085
 4799SOL    HW215297   4.040   1.465   0.195
 4800SOL     OW15298   1.632   4.301   6.757
 4800SOL    HW115299   1.548   4.355   6.758
 4800SOL    HW215300   1.703   4.351   6.707
 4801SOL     OW15301   3.690   2.811   0.197
 4801SOL    HW115302   3.747   2.862   0.133
 4801SOL    HW215303   3.714   2.836   0.291
 4802SOL     OW15304   6.754   6.703   1.803
 4802SOL    HW115305   6.688   6.628   1.798
 4802SOL    HW215306   6.735   6.768   1.730
 4803SOL     OW15307   6.349   4.811   1.033
 4803SOL    HW115308   6.416   4.819   1.106
 4803SOL    HW215309   6.289   4.733   1.051
 4804SOL     OW15310   5.636   0.672   1.121
 4804SOL    HW115311   5.616   0.587   1.170
 4804SOL    HW215312   5.550   0.716   1.095
 4805SOL     OW15313   6.654   0.971   2.301
 4805SOL    HW115314   6.588   0.973   2.225
 4805SOL    HW215315   6.678   0.876   2.321
 4806SOL     OW15316   1.115   3.729   3.124
 4806SOL    HW115317   1.140   3.641   3.164
 4806SOL    HW215318   1.128   3.725   3.024
 4807SOL     OW15319   1.850   3.521   6.717
 4807SOL    HW115320   1.880   3.536   6.811
 4807SOL    HW215321   1.928   3.496   6.660
 4808SOL     OW15322   4.173   5.266   0.524
 4808SOL    HW115323   4.201   5.362   0.519
 4808SOL    HW215324   4.248   5.208   0.493
 4809SOL     OW15325   3.926   4.364   1.679
 4809SOL    HW115326   3.960   4.453   1.649
 4809SOL    HW215327   3.833   4.373   1.713
 4810SOL     OW15328   1.357   4.193   3.695
 4810SOL    HW115329   1.429   4.180   3.627
 4810SOL    HW215330   1.390   4.253   3.768
 4811SOL     OW15331   4.004   3.877   4.074
 4811SOL    HW115332   3.985   3.819   4.153
 4811SOL    HW215333   4.099   3.864   4.044
 4812SOL     OW15334   0.643   0.274   2.081
 4812SOL    HW115335   0.623   0.270   2.179
 4812SOL    HW215336   0.670   0.183   2.050
 4813SOL     OW15337   5.816   2.245   6.145
 4813SOL    HW115338   5.795   2.320   6.083
 4813SOL    HW215339   5.860   2.171   6.094
 4814SOL     OW15340   6.916   3.122   2.486
 4814SOL    HW115341   6.915   3.221   2.501
 4814SOL    HW215342   7.011   3.091   2.479
 4815SOL     OW15343   5.425   4.675   2.913
 4815SOL    HW115344   5.496   4.623   2.961
 4815SOL    HW215345   5.335   4.636   2.933
 4816SOL     OW15346   2.390   6.307   1.350
 4816SOL    HW115347   2.487   6.327   1.334
 4816SOL    HW215348   2.374   6.210   1.336
 4817SOL     OW15349   3.412   1.277   1.816
 4817SOL    HW115350   3.450   1.351   1.760
 4817SOL    HW215351   3.313   1.277   1.807
 4818SOL     OW15352   1.225   1.221   4.293
 4818SOL    HW115353   1.204   1.317   4.280
 4818SOL    HW215354   1.162   1.182   4.360
 4819SOL     OW15355   3.118   1.912   1.785
 4819SOL    HW115356   3.131   2.011   1.785
 4819SOL    HW215357   3.173   1.871   1.857
 4820SOL     OW15358   6.349   2.358   1.046
 4820SOL    HW115359   6.387   2.331   1.134
 4820SOL    HW215360   6.376   2.292   0.976
 4821SOL     OW15361   6.272   6.049   1.349
 4821SOL    HW115362   6.295   6.146   1.346
 4821SOL    HW215363   6.339   5.997   1.296
 4822SOL     OW15364   1.624   3.097   3.729
 4822SOL    HW115365   1.671   3.183   3.715
 4822SOL    HW215366   1.674   3.041   3.796
 4823SOL     OW15367   6.847   0.762   3.600
 4823SOL    HW115368   6.864   0.771   3.698
 4823SOL    HW215369   6.913   0.698   3.560
 4824SOL     OW15370   5.733   1.495   3.913
 4824SOL    HW115371   5.638   1.497   3.882
 4824SOL    HW215372   5.780   1.576   3.878
 4825SOL     OW15373   2.121   2.564   4.074
 4825SOL    HW115374   2.088   2.548   4.167
 4825SOL    HW215375   2.042   2.577   4.013
 4826SOL     OW15376   0.775   6.938   0.784
 4826SOL    HW115377   0.811   7.028   0.808
 4826SOL    HW215378   0.842   6.889   0.728
 4827SOL     OW15379   5.966   0.779   1.740
 4827SOL    HW115380   5.900   0.733   1.681
 4827SOL    HW215381   5.939   0.769   1.836
 4828SOL     OW15382   5.731   3.612   1.416
 4828SOL    HW115383   5.668   3.536   1.398
 4828SOL    HW215384   5.741   3.625   1.514
 4829SOL     OW15385   3.743   6.774   6.329
 4829SOL    HW115386   3.699   6.863   6.314
 4829SOL    HW215387   3.673   6.703   6.336
 4830SOL     OW15388   5.177   5.532   3.916
 4830SOL    HW115389   5.177   5.474   3.998
 4830SOL    HW215390   5.237   5.491   3.847
 4831SOL     OW15391   6.533   5.284   5.616
 4831SOL    HW115392   6.535   5.335   5.530
 4831SOL    HW215393   6.620   5.236   5.628
 4832SOL     OW15394   2.834   2.869   6.581
 4832SOL    HW115395   2.846   2.968   6.578
 4832SOL    HW215396   2.859   2.829   6.492
 4833SOL     OW15397   4.922   1.842   3.102
 4833SOL    HW115398   4.829   1.817   3.078
 4833SOL    HW215399   4.983   1.820   3.025
 4834SOL     OW15400   3.293   0.502   0.155
 4834SOL    HW115401   3.195   0.507   0.171
 4834SOL    HW215402   3.342   0.517   0.241
 4835SOL     OW15403   1.614   0.514   6.860
 4835SOL    HW115404   1.522   0.489   6.892
 4835SOL    HW215405   1.673   0.530   6.939
 4836SOL     OW15406   4.643   2.720   3.782
 4836SOL    HW115407   4.694   2.805   3.794
 4836SOL    HW215408   4.639   2.671   3.869
 4837SOL     OW15409   3.638   2.937   1.753
 4837SOL    HW115410   3.653   3.036   1.752
 4837SOL    HW215411   3.581   2.913   1.831
 4838SOL     OW15412   2.316   5.154   2.048
 4838SOL    HW115413   2.315   5.161   1.948
 4838SOL    HW215414   2.386   5.088   2.076
 4839SOL     OW15415   1.623   3.803   5.748
 4839SOL    HW115416   1.527   3.829   5.755
 4839SOL    HW215417   1.676   3.879   5.712
 4840SOL     OW15418   7.007   0.093   5.838
 4840SOL    HW115419   0.031   0.172   5.807
 4840SOL    HW215420   6.912   0.122   5.853
 4841SOL     OW15421   3.293   5.803   1.830
 4841SOL    HW115422   3.218   5.775   1.769
 4841SOL    HW215423   3.366   5.845   1.776
 4842SOL     OW15424   3.457   4.815   1.436
 4842SOL    HW115425   3.493   4.896   1.390
 4842SOL    HW215426   3.389   4.771   1.377
 4843SOL     OW15427   6.376   4.061   0.340
 4843SOL    HW115428   6.418   3.977   0.304
 4843SOL    HW215429   6.411   4.079   0.432
 4844SOL     OW15430   0.058   4.197   6.068
 4844SOL    HW115431   7.010   4.164   6.123
 4844SOL    HW215432   0.136   4.217   6.128
 4845SOL     OW15433   6.644   5.962   4.570
 4845SOL    HW115434   6.677   5.915   4.487
 4845SOL    HW215435   6.682   5.917   4.651
 4846SOL     OW15436   6.569   3.383   2.190
 4846SOL    HW115437   6.647   3.324   2.211
 4846SOL    HW215438   6.602   3.467   2.146
 4847SOL     OW15439   3.452   1.792   5.823
 4847SOL    HW115440   3.443   1.794   5.922
 4847SOL    HW215441   3.363   1.813   5.782
 4848SOL     OW15442   1.846   1.219   4.170
 4848SOL    HW115443   1.828   1.288   4.240
 4848SOL    HW215444   1.882   1.263   4.088
 4849SOL     OW15445   0.936   6.860   6.675
 4849SOL    HW115446   1.035   6.877   6.678
 4849SOL    HW215447   0.896   6.910   6.598
 4850SOL     OW15448   4.293   1.101   2.332
 4850SOL    HW115449   4.337   1.115   2.243
 4850SOL    HW215450   4.363   1.095   2.403
 4851SOL     OW15451   3.398   5.458   5.268
 4851SOL    HW115452   3.465   5.438   5.197
 4851SOL    HW215453   3.382   5.557   5.270
 4852SOL     OW15454   0.740   0.037   6.451
 4852SOL    HW115455   0.741   0.127   6.407
 4852SOL    HW215456   0.691   0.043   6.538
 4853SOL     OW15457   2.972   0.934   2.275
 4853SOL    HW115458   2.883   0.978   2.292
 4853SOL    HW215459   2.965   0.876   2.194
 4854SOL     OW15460   5.435   6.244   2.471
 4854SOL    HW115461   5.500   6.170   2.457
 4854SOL    HW215462   5.345   6.216   2.439
 4855SOL     OW15463   5.717   2.583   2.546
 4855SOL    HW115464   5.747   2.671   2.508
 4855SOL    HW215465   5.620   2.588   2.569
 4856SOL     OW15466   1.275   4.244   2.586
 4856SOL    HW115467   1.231   4.216   2.500
 4856SOL    HW215468   1.350   4.181   2.607
 4857SOL     OW15469   1.967   2.490   5.657
 4857SOL    HW115470   2.011   2.511   5.744
 4857SOL    HW215471   2.011   2.411   5.615
 4858SOL     OW15472   2.096   1.040   4.462
 4858SOL    HW115473   2.104   1.034   4.562
 4858SOL    HW215474   2.002   1.022   4.435
 4859SOL     OW15475   1.013   0.695   4.259
 4859SOL    HW115476   0.984   0.607   4.297
 4859SOL    HW215477   1.110   0.692   4.236
 4860SOL     OW15478   3.327   4.796   1.778
 4860SOL    HW115479   3.376   4.832   1.858
 4860SOL    HW215480   3.229   4.804   1.792
 4861SOL     OW15481   5.081   5.300   0.071
 4861SOL    HW115482   5.131   5.218   0.098
 4861SOL    HW215483   5.067   5.359   0.151
 4862SOL     OW15484   2.859   4.809   4.762
 4862SOL    HW115485   2.760   4.802   4.774
 4862SOL    HW215486   2.896   4.718   4.743
 4863SOL     OW15487   5.982   4.481   0.943
 4863SOL    HW115488   6.010   4.441   0.856
 4863SOL    HW215489   5.883   4.476   0.952
 4864SOL     OW15490   3.670   1.095   4.103
 4864SOL    HW115491   3.602   1.153   4.060
 4864SOL    HW215492   3.730   1.151   4.160
 4865SOL     OW15493   1.623   0.738   5.989
 4865SOL    HW115494   1.653   0.643   5.982
 4865SOL    HW215495   1.702   0.797   6.003
 4866SOL     OW15496   6.756   3.497   1.002
 4866SOL    HW115497   6.681   3.508   1.067
 4866SOL    HW215498   6.719   3.493   0.909
 4867SOL     OW15499   4.133   5.534   2.904
 4867SOL    HW115500   4.193   5.606   2.939
 4867SOL    HW215501   4.151   5.448   2.953
 4868SOL     OW15502   6.474   4.924   2.846
 4868SOL    HW115503   6.379   4.927   2.816
 4868SOL    HW215504   6.480   4.894   2.941
 4869SOL     OW15505   1.890   1.738   1.455
 4869SOL    HW115506   1.927   1.651   1.489
 4869SOL    HW215507   1.930   1.757   1.366
 4870SOL     OW15508   0.928   6.328   1.722
 4870SOL    HW115509   1.018   6.353   1.759
 4870SOL    HW215510   0.918   6.368   1.631
 4871SOL     OW15511   0.564   1.034   3.634
 4871SOL    HW115512   0.649   1.073   3.599
 4871SOL    HW215513   0.552   0.942   3.596
 4872SOL     OW15514   6.386   0.025   3.180
 4872SOL    HW115515   6.371   0.121   3.203
 4872SOL    HW215516   6.478   0.013   3.143
 4873SOL     OW15517   6.720   5.576   4.286
 4873SOL    HW115518   6.628   5.548   4.314
 4873SOL    HW215519   6.783   5.565   4.364
 4874SOL     OW15520   5.200   3.985   2.436
 4874SOL    HW115521   5.168   3.919   2.368
 4874SOL    HW215522   5.172   4.077   2.408
 4875SOL     OW15523   6.465   1.274   0.188
 4875SOL    HW115524   6.446   1.368   0.159
 4875SOL    HW215525   6.413   1.210   0.131
 4876SOL     OW15526   0.102   1.684   3.606
 4876SOL    HW115527   0.100   1.584   3.602
 4876SOL    HW215528   0.142   1.720   3.522
 4877SOL     OW15529   0.465   1.691   5.585
 4877SOL    HW115530   0.536   1.650   5.527
 4877SOL    HW215531   0.470   1.650   5.676
 4878SOL     OW15532   6.466   1.038   2.111
 4878SOL    HW115533   6.522   1.093   2.048
 4878SOL    HW215534   6.390   0.998   2.061
 4879SOL     OW15535   4.340   1.647   2.054
 4879SOL    HW115536   4.252   1.673   2.015
 4879SOL    HW215537   4.373   1.719   2.115
 4880SOL     OW15538   6.097   3.175   0.279
 4880SOL    HW115539   6.107   3.274   0.285
 4880SOL    HW215540   6.062   3.150   0.189
 4881SOL     OW15541   1.689   1.444   0.170
 4881SOL    HW115542   1.769   1.420   0.225
 4881SOL    HW215543   1.635   1.513   0.218
 4882SOL     OW15544   4.504   0.945   5.414
 4882SOL    HW115545   4.524   1.038   5.443
 4882SOL    HW215546   4.466   0.947   5.321
 4883SOL     OW15547   4.905   4.283   1.115
 4883SOL    HW115548   4.939   4.189   1.112
 4883SOL    HW215549   4.853   4.297   1.199
 4884SOL     OW15550   3.102   5.318   1.508
 4884SOL    HW115551   3.197   5.285   1.504
 4884SOL    HW215552   3.044   5.258   1.453
 4885SOL     OW15553   2.198   5.348   1.498
 4885SOL    HW115554   2.205   5.343   1.398
 4885SOL    HW215555   2.198   5.256   1.536
 4886SOL     OW15556   2.797   6.275   1.035
 4886SOL    HW115557   2.746   6.359   1.050
 4886SOL    HW215558   2.879   6.275   1.093
 4887SOL     OW15559   6.885   6.451   1.343
 4887SOL    HW115560   6.826   6.457   1.423
 4887SOL    HW215561   6.859   6.371   1.289
 4888SOL     OW15562   2.802   0.089   3.831
 4888SOL    HW115563   2.744   0.025   3.880
 4888SOL    HW215564   2.757   0.178   3.826
 4889SOL     OW15565   6.828   2.010   5.102
 4889SOL    HW115566   6.766   1.964   5.038
 4889SOL    HW215567   6.807   1.980   5.196
 4890SOL     OW15568   6.930   1.572   5.400
 4890SOL    HW115569   6.841   1.608   5.370
 4890SOL    HW215570   6.918   1.527   5.489
 4891SOL     OW15571   2.192   5.149   6.768
 4891SOL    HW115572   2.284   5.124   6.799
 4891SOL    HW215573   2.164   5.087   6.695
 4892SOL     OW15574   4.547   5.373   2.140
 4892SOL    HW115575   4.447   5.371   2.140
 4892SOL    HW215576   4.578   5.463   2.111
 4893SOL     OW15577   6.039   3.257   2.126
 4893SOL    HW115578   6.050   3.194   2.202
 4893SOL    HW215579   6.109   3.328   2.130
 4894SOL     OW15580   3.900   0.665   2.818
 4894SOL    HW115581   3.823   0.727   2.831
 4894SOL    HW215582   3.897   0.594   2.889
 4895SOL     OW15583   0.668   4.679   4.060
 4895SOL    HW115584   0.712   4.768   4.045
 4895SOL    HW215585   0.684   4.620   3.981
 4896SOL     OW15586   2.582   4.537   2.484
 4896SOL    HW115587   2.641   4.493   2.417
 4896SOL    HW215588   2.494   4.489   2.488
 4897SOL     OW15589   1.737   5.541   5.259
 4897SOL    HW115590   1.707   5.488   5.180
 4897SOL    HW215591   1.766   5.632   5.229
 4898SOL     OW15592   3.988   0.999   4.806
 4898SOL    HW115593   4.078   0.965   4.833
 4898SOL    HW215594   3.931   1.013   4.887
 4899SOL     OW15595   5.800   5.231   2.752
 4899SOL    HW115596   5.713   5.181   2.757
 4899SOL    HW215597   5.799   5.305   2.819
 4900SOL     OW15598   3.546   5.995   5.043
 4900SOL    HW115599   3.598   5.955   4.968
 4900SOL    HW215600   3.481   6.062   5.006
 4901SOL     OW15601   2.587   1.749   5.537
 4901SOL    HW115602   2.554   1.742   5.631
 4901SOL    HW215603   2.553   1.671   5.484
 4902SOL     OW15604   0.950   1.349   4.636
 4902SOL    HW115605   0.916   1.371   4.544
 4902SOL    HW215606   0.915   1.417   4.701
 4903SOL     OW15607   4.578   5.858   0.456
 4903SOL    HW115608   4.497   5.876   0.511
 4903SOL    HW215609   4.558   5.877   0.359
 4904SOL     OW15610   1.980   0.118   5.452
 4904SOL    HW115611   1.922   0.149   5.527
 4904SOL    HW215612   2.001   0.196   5.392
 4905SOL     OW15613   3.514   0.857   3.536
 4905SOL    HW115614   3.547   0.789   3.601
 4905SOL    HW215615   3.415   0.867   3.547
 4906SOL     OW15616   4.868   2.012   6.524
 4906SOL    HW115617   4.911   2.025   6.435
 4906SOL    HW215618   4.789   1.952   6.515
 4907SOL     OW15619   4.937   0.148   1.495
 4907SOL    HW115620   4.875   0.085   1.543
 4907SOL    HW215621   5.008   0.178   1.558
 4908SOL     OW15622   5.717   6.551   6.632
 4908SOL    HW115623   5.701   6.560   6.731
 4908SOL    HW215624   5.636   6.581   6.583
 4909SOL     OW15625   0.011   5.611   3.453
 4909SOL    HW115626   0.084   5.678   3.471
 4909SOL    HW215627   7.019   5.562   3.538
 4910SOL     OW15628   5.571   0.687   4.385
 4910SOL    HW115629   5.612   0.715   4.298
 4910SOL    HW215630   5.476   0.660   4.370
 4911SOL     OW15631   1.809   3.534   3.364
 4911SOL    HW115632   1.827   3.631   3.347
 4911SOL    HW215633   1.757   3.496   3.288
 4912SOL     OW15634   5.588   2.113   6.419
 4912SOL    HW115635   5.678   2.126   6.377
 4912SOL    HW215636   5.580   2.174   6.498
 4913SOL     OW15637   4.055   3.432   5.390
 4913SOL    HW115638   4.006   3.452   5.305
 4913SOL    HW215639   4.065   3.332   5.399
 4914SOL     OW15640   4.625   6.810   5.226
 4914SOL    HW115641   4.546   6.813   5.165
 4914SOL    HW215642   4.657   6.716   5.235
 4915SOL     OW15643   2.174   6.258   5.492
 4915SOL    HW115644   2.082   6.263   5.530
 4915SOL    HW215645   2.172   6.287   5.396
 4916SOL     OW15646   0.761   0.902   3.892
 4916SOL    HW115647   0.715   0.982   3.855
 4916SOL    HW215648   0.758   0.905   3.992
 4917SOL     OW15649   3.184   5.634   1.480
 4917SOL    HW115650   3.138   5.657   1.566
 4917SOL    HW215651   3.164   5.540   1.455
 4918SOL     OW15652   5.511   6.582   1.720
 4918SOL    HW115653   5.587   6.584   1.655
 4918SOL    HW215654   5.529   6.645   1.795
 4919SOL     OW15655   3.145   3.198   1.550
 4919SOL    HW115656   3.173   3.145   1.630
 4919SOL    HW215657   3.123   3.137   1.475
 4920SOL     OW15658   5.559   0.365   4.818
 4920SOL    HW115659   5.551   0.295   4.888
 4920SOL    HW215660   5.638   0.423   4.838
 4921SOL     OW15661   1.410   5.378   0.030
 4921SOL    HW115662   1.476   5.318   0.075
 4921SOL    HW215663   1.375   5.334   6.977
 4922SOL     OW15664   2.936   2.044   4.528
 4922SOL    HW115665   3.029   2.070   4.551
 4922SOL    HW215666   2.891   2.120   4.481
 4923SOL     OW15667   3.003   1.579   2.731
 4923SOL    HW115668   3.101   1.586   2.712
 4923SOL    HW215669   2.957   1.531   2.656
 4924SOL     OW15670   3.224   1.656   4.259
 4924SOL    HW115671   3.255   1.603   4.180
 4924SOL    HW215672   3.167   1.732   4.227
 4925SOL     OW15673   5.443   0.629   2.290
 4925SOL    HW115674   5.540   0.654   2.287
 4925SOL    HW215675   5.387   0.712   2.290
 4926SOL     OW15676   5.732   1.870   1.802
 4926SOL    HW115677   5.822   1.830   1.823
 4926SOL    HW215678   5.742   1.969   1.792
 4927SOL     OW15679   3.144   3.481   4.969
 4927SOL    HW115680   3.228   3.536   4.974
 4927SOL    HW215681   3.151   3.404   5.031
 4928SOL     OW15682   1.503   0.833   0.476
 4928SOL    HW115683   1.449   0.901   0.425
 4928SOL    HW215684   1.599   0.861   0.477
 4929SOL     OW15685   6.484   0.134   4.295
 4929SOL    HW115686   6.523   0.225   4.281
 4929SOL    HW215687   6.555   0.065   4.276
 4930SOL     OW15688   5.805   0.441   2.657
 4930SOL    HW115689   5.900   0.467   2.640
 4930SOL    HW215690   5.745   0.517   2.632
 4931SOL     OW15691   6.139   5.950   1.617
 4931SOL    HW115692   6.040   5.963   1.623
 4931SOL    HW215693   6.175   6.002   1.540
 4932SOL     OW15694   3.865   3.011   2.905
 4932SOL    HW115695   3.949   2.986   2.857
 4932SOL    HW215696   3.792   3.026   2.839
 4933SOL     OW15697   2.580   6.839   2.267
 4933SOL    HW115698   2.564   6.785   2.350
 4933SOL    HW215699   2.501   6.899   2.251
 4934SOL     OW15700   3.590   5.875   2.806
 4934SOL    HW115701   3.639   5.959   2.786
 4934SOL    HW215702   3.570   5.826   2.721
 4935SOL     OW15703   1.534   2.072   6.191
 4935SOL    HW115704   1.613   2.058   6.132
 4935SOL    HW215705   1.526   2.169   6.215
 4936SOL     OW15706   3.489   5.037   1.221
 4936SOL    HW115707   3.408   5.093   1.241
 4936SOL    HW215708   3.504   5.034   1.122
 4937SOL     OW15709   5.975   2.870   5.874
 4937SOL    HW115710   5.939   2.891   5.965
 4937SOL    HW215711   6.034   2.945   5.844
 4938SOL     OW15712   1.980   5.707   5.640
 4938SOL    HW115713   1.931   5.789   5.670
 4938SOL    HW215714   2.056   5.732   5.580
 4939SOL     OW15715   5.486   1.800   5.038
 4939SOL    HW115716   5.488   1.895   5.070
 4939SOL    HW215717   5.395   1.762   5.055
 4940SOL     OW15718   0.823   0.969   4.441
 4940SOL    HW115719   0.915   1.000   4.464
 4940SOL    HW215720   0.765   0.969   4.523
 4941SOL     OW15721   4.354   2.201   6.137
 4941SOL    HW115722   4.422   2.136   6.171
 4941SOL    HW215723   4.272   2.198   6.195
 4942SOL     OW15724   5.356   3.130   5.518
 4942SOL    HW115725   5.402   3.116   5.431
 4942SOL    HW215726   5.258   3.144   5.503
 4943SOL     OW15727   3.894   3.331   0.351
 4943SOL    HW115728   3.943   3.373   0.428
 4943SOL    HW215729   3.944   3.349   0.266
 4944SOL     OW15730   2.106   4.311   2.862
 4944SOL    HW115731   2.203   4.316   2.837
 4944SOL    HW215732   2.052   4.284   2.782
 4945SOL     OW15733   1.171   1.131   3.657
 4945SOL    HW115734   1.170   1.037   3.693
 4945SOL    HW215735   1.265   1.162   3.646
 4946SOL     OW15736   0.328   3.027   1.495
 4946SOL    HW115737   0.307   2.989   1.585
 4946SOL    HW215738   0.245   3.027   1.439
 4947SOL     OW15739   1.667   0.413   0.962
 4947SOL    HW115740   1.584   0.454   1.000
 4947SOL    HW215741   1.744   0.431   1.024
 4948SOL     OW15742   2.724   0.275   2.658
 4948SOL    HW115743   2.690   0.187   2.625
 4948SOL    HW215744   2.647   0.332   2.688
 4949SOL     OW15745   4.669   0.066   5.451
 4949SOL    HW115746   4.652   0.067   5.549
 4949SOL    HW215747   4.597   0.013   5.405
 4950SOL     OW15748   3.018   5.523   3.767
 4950SOL    HW115749   3.091   5.501   3.832
 4950SOL    HW215750   2.931   5.527   3.816
 4951SOL     OW15751   5.633   1.177   4.905
 4951SOL    HW115752   5.713   1.233   4.929
 4951SOL    HW215753   5.629   1.166   4.805
 4952SOL     OW15754   0.287   0.777   5.006
 4952SOL    HW115755   0.354   0.852   5.007
 4952SOL    HW215756   0.314   0.710   4.937
 4953SOL     OW15757   2.536   6.368   2.135
 4953SOL    HW115758   2.559   6.323   2.221
 4953SOL    HW215759   2.551   6.467   2.144
 4954SOL     OW15760   4.941   4.523   6.375
 4954SOL    HW115761   4.924   4.618   6.402
 4954SOL    HW215762   4.921   4.513   6.278
 4955SOL     OW15763   1.593   6.256   6.342
 4955SOL    HW115764   1.687   6.288   6.350
 4955SOL    HW215765   1.531   6.334   6.346
 4956SOL     OW15766   2.699   6.796   5.074
 4956SOL    HW115767   2.674   6.844   4.990
 4956SOL    HW215768   2.642   6.714   5.084
 4957SOL     OW15769   6.987   0.911   3.331
 4957SOL    HW115770   6.906   0.887   3.385
 4957SOL    HW215771   6.988   1.009   3.313
 4958SOL     OW15772   7.010   6.082   5.977
 4958SOL    HW115773   0.071   6.041   5.964
 4958SOL    HW215774   6.940   6.017   5.947
 4959SOL     OW15775   6.572   1.250   6.651
 4959SOL    HW115776   6.581   1.322   6.582
 4959SOL    HW215777   6.654   1.248   6.708
 4960SOL     OW15778   2.971   6.415   3.436
 4960SOL    HW115779   2.939   6.496   3.388
 4960SOL    HW215780   2.975   6.338   3.371
 4961SOL     OW15781   5.239   1.903   5.360
 4961SOL    HW115782   5.293   1.819   5.370
 4961SOL    HW215783   5.145   1.886   5.387
 4962SOL     OW15784   5.988   2.608   1.437
 4962SOL    HW115785   6.067   2.593   1.378
 4962SOL    HW215786   6.007   2.684   1.499
 4963SOL     OW15787   5.916   6.025   0.780
 4963SOL    HW115788   5.944   5.932   0.803
 4963SOL    HW215789   5.985   6.068   0.722
 4964SOL     OW15790   3.766   6.321   3.169
 4964SOL    HW115791   3.667   6.315   3.184
 4964SOL    HW215792   3.809   6.370   3.245
 4965SOL     OW15793   0.268   0.072   3.919
 4965SOL    HW115794   0.235   7.023   3.972
 4965SOL    HW215795   0.362   0.054   3.889
 4966SOL     OW15796   2.305   6.865   4.987
 4966SOL    HW115797   2.247   6.918   4.925
 4966SOL    HW215798   2.295   6.900   5.080
 4967SOL     OW15799   4.170   3.441   6.507
 4967SOL    HW115800   4.163   3.409   6.601
 4967SOL    HW215801   4.092   3.406   6.454
 4968SOL     OW15802   5.256   3.139   3.224
 4968SOL    HW115803   5.283   3.046   3.200
 4968SOL    HW215804   5.276   3.201   3.148
 4969SOL     OW15805   2.019   1.109   2.462
 4969SOL    HW115806   2.078   1.187   2.484
 4969SOL    HW215807   2.071   1.042   2.408
 4970SOL     OW15808   1.479   2.243   4.675
 4970SOL    HW115809   1.476   2.180   4.753
 4970SOL    HW215810   1.553   2.216   4.613
 4971SOL     OW15811   6.521   5.967   3.696
 4971SOL    HW115812   6.610   5.926   3.717
 4971SOL    HW215813   6.535   6.058   3.658
 4972SOL     OW15814   2.163   3.845   0.390
 4972SOL    HW115815   2.140   3.938   0.361
 4972SOL    HW215816   2.228   3.849   0.466
 4973SOL     OW15817   0.164   6.997   1.425
 4973SOL    HW115818   0.211   6.958   1.346
 4973SOL    HW215819   0.212   0.051   1.454
 4974SOL     OW15820   6.610   4.407   0.580
 4974SOL    HW115821   6.542   4.477   0.600
 4974SOL    HW215822   6.568   4.316   0.587
 4975SOL     OW15823   6.058   5.858   0.206
 4975SOL    HW115824   6.141   5.913   0.195
 4975SOL    HW215825   5.989   5.913   0.254
 4976SOL     OW15826   3.291   0.592   4.220
 4976SOL    HW115827   3.371   0.535   4.239
 4976SOL    HW215828   3.229   0.592   4.298
 4977SOL     OW15829   5.051   4.053   1.016
 4977SOL    HW115830   5.113   4.051   0.938
 4977SOL    HW215831   5.063   3.971   1.071
 4978SOL     OW15832   6.638   3.402   5.811
 4978SOL    HW115833   6.722   3.454   5.826
 4978SOL    HW215834   6.607   3.415   5.718
 4979SOL     OW15835   6.973   1.634   5.064
 4979SOL    HW115836   0.029   1.582   5.062
 4979SOL    HW215837   6.895   1.571   5.059
 4980SOL     OW15838   4.700   0.065   3.141
 4980SOL    HW115839   4.720   0.108   3.053
 4980SOL    HW215840   4.773   7.029   3.164
 4981SOL     OW15841   5.194   5.400   5.626
 4981SOL    HW115842   5.254   5.357   5.693
 4981SOL    HW215843   5.144   5.475   5.669
 4982SOL     OW15844   2.604   1.423   6.944
 4982SOL    HW115845   2.574   1.343   6.996
 4982SOL    HW215846   2.648   1.393   6.860
 4983SOL     OW15847   5.066   3.389   4.390
 4983SOL    HW115848   5.027   3.306   4.429
 4983SOL    HW215849   5.007   3.422   4.316
 4984SOL     OW15850   5.580   3.662   4.421
 4984SOL    HW115851   5.521   3.714   4.483
 4984SOL    HW215852   5.666   3.712   4.408
 4985SOL     OW15853   6.664   6.118   4.096
 4985SOL    HW115854   6.583   6.150   4.047
 4985SOL    HW215855   6.666   6.018   4.096
 4986SOL     OW15856   6.748   4.599   2.807
 4986SOL    HW115857   6.685   4.597   2.884
 4986SOL    HW215858   6.842   4.594   2.840
 4987SOL     OW15859   0.543   1.759   1.305
 4987SOL    HW115860   0.539   1.684   1.371
 4987SOL    HW215861   0.515   1.844   1.350
 4988SOL     OW15862   6.689   1.872   3.500
 4988SOL    HW115863   6.683   1.793   3.562
 4988SOL    HW215864   6.770   1.864   3.443
 4989SOL     OW15865   6.024   0.841   1.352
 4989SOL    HW115866   6.082   0.911   1.394
 4989SOL    HW215867   5.928   0.869   1.359
 4990SOL     OW15868   1.308   1.639   6.268
 4990SOL    HW115869   1.244   1.593   6.207
 4990SOL    HW215870   1.394   1.589   6.269
 4991SOL     OW15871   0.632   4.091   3.709
 4991SOL    HW115872   0.539   4.117   3.683
 4991SOL    HW215873   0.698   4.148   3.661
 4992SOL     OW15874   4.864   0.586   3.956
 4992SOL    HW115875   4.908   0.675   3.943
 4992SOL    HW215876   4.893   0.547   4.044
 4993SOL     OW15877   2.549   4.720   3.689
 4993SOL    HW115878   2.526   4.717   3.592
 4993SOL    HW215879   2.638   4.766   3.700
 4994SOL     OW15880   1.364   0.382   2.509
 4994SOL    HW115881   1.308   0.301   2.529
 4994SOL    HW215882   1.412   0.369   2.423
 4995SOL     OW15883   6.991   3.057   5.745
 4995SOL    HW115884   6.935   3.070   5.663
 4995SOL    HW215885   0.054   3.030   5.718
 4996SOL     OW15886   1.431   0.576   2.691
 4996SOL    HW115887   1.406   0.507   2.622
 4996SOL    HW215888   1.480   0.651   2.646
 4997SOL     OW15889   6.003   2.540   2.922
 4997SOL    HW115890   5.928   2.501   2.975
 4997SOL    HW215891   5.966   2.594   2.846
 4998SOL     OW15892   2.150   3.864   4.826
 4998SOL    HW115893   2.223   3.903   4.882
 4998SOL    HW215894   2.068   3.921   4.835
 4999SOL     OW15895   5.178   5.768   1.176
 4999SOL    HW115896   5.251   5.834   1.194
 4999SOL    HW215897   5.100   5.815   1.134
 5000SOL     OW15898   1.427   0.611   4.015
 5000SOL    HW115899   1.405   0.533   4.074
 5000SOL    HW215900   1.516   0.595   3.971
 5001SOL     OW15901   1.801   4.043   5.938
 5001SOL    HW115902   1.834   3.955   5.903
 5001SOL    HW215903   1.873   4.087   5.991
 5002SOL     OW15904   1.158   3.027   3.051
 5002SOL    HW115905   1.179   3.124   3.060
 5002SOL    HW215906   1.196   2.993   2.965
 5003SOL     OW15907   1.015   6.413   3.660
 5003SOL    HW115908   1.011   6.501   3.707
 5003SOL    HW215909   1.110   6.383   3.655
 5004SOL     OW15910   2.183   5.403   5.469
 5004SOL    HW115911   2.249   5.463   5.513
 5004SOL    HW215912   2.143   5.342   5.538
 5005SOL     OW15913   3.567   2.072   0.700
 5005SOL    HW115914   3.512   2.106   0.777
 5005SOL    HW215915   3.596   2.149   0.644
 5006SOL     OW15916   5.630   0.006   6.149
 5006SOL    HW115917   5.578   6.980   6.085
 5006SOL    HW215918   5.578   0.088   6.172
 5007SOL     OW15919   2.497   0.553   6.154
 5007SOL    HW115920   2.462   0.583   6.242
 5007SOL    HW215921   2.469   0.458   6.138
 5008SOL     OW15922   6.579   0.028   3.857
 5008SOL    HW115923   6.638   7.018   3.786
 5008SOL    HW215924   6.582   6.999   3.938
 5009SOL     OW15925   2.225   6.313   1.769
 5009SOL    HW115926   2.159   6.358   1.709
 5009SOL    HW215927   2.318   6.329   1.736
 5010SOL     OW15928   3.509   3.361   3.855
 5010SOL    HW115929   3.481   3.297   3.783
 5010SOL    HW215930   3.607   3.379   3.847
 5011SOL     OW15931   2.115   3.520   2.273
 5011SOL    HW115932   2.052   3.596   2.286
 5011SOL    HW215933   2.149   3.521   2.179
 5012SOL     OW15934   5.651   2.824   6.806
 5012SOL    HW115935   5.715   2.747   6.798
 5012SOL    HW215936   5.568   2.794   6.853
 5013SOL     OW15937   5.432   1.126   0.051
 5013SOL    HW115938   5.342   1.153   0.086
 5013SOL    HW215939   5.490   1.096   0.127
 5014SOL     OW15940   5.971   5.413   0.570
 5014SOL    HW115941   5.929   5.480   0.508
 5014SOL    HW215942   5.918   5.410   0.655
 5015SOL     OW15943   4.084   1.731   3.762
 5015SOL    HW115944   4.074   1.789   3.842
 5015SOL    HW215945   4.029   1.768   3.687
 5016SOL     OW15946   2.014   1.624   2.166
 5016SOL    HW115947   2.019   1.558   2.241
 5016SOL    HW215948   1.966   1.706   2.197
 5017SOL     OW15949   2.122   2.593   0.665
 5017SOL    HW115950   2.124   2.511   0.723
 5017SOL    HW215951   2.092   2.671   0.719
 5018SOL     OW15952   0.767   4.628   1.629
 5018SOL    HW115953   0.782   4.647   1.727
 5018SOL    HW215954   0.766   4.715   1.579
 5019SOL     OW15955   2.590   4.443   0.423
 5019SOL    HW115956   2.521   4.452   0.496
 5019SOL    HW215957   2.659   4.376   0.451
 5020SOL     OW15958   5.515   6.674   5.140
 5020SOL    HW115959   5.570   6.731   5.080
 5020SOL    HW215960   5.469   6.732   5.207
 5021SOL     OW15961   1.203   3.503   5.751
 5021SOL    HW115962   1.264   3.423   5.757
 5021SOL    HW215963   1.211   3.557   5.835
 5022SOL     OW15964   1.848   0.305   1.147
 5022SOL    HW115965   1.914   0.330   1.217
 5022SOL    HW215966   1.851   0.206   1.132
 5023SOL     OW15967   6.583   3.640   0.756
 5023SOL    HW115968   6.499   3.599   0.790
 5023SOL    HW215969   6.616   3.709   0.821
 5024SOL     OW15970   0.146   4.180   2.870
 5024SOL    HW115971   0.168   4.275   2.895
 5024SOL    HW215972   0.182   4.160   2.779
 5025SOL     OW15973   4.531   2.110   1.946
 5025SOL    HW115974   4.626   2.133   1.926
 5025SOL    HW215975   4.493   2.178   2.008
 5026SOL     OW15976   5.881   5.933   6.470
 5026SOL    HW115977   5.964   5.967   6.426
 5026SOL    HW215978   5.810   6.003   6.467
 5027SOL     OW15979   1.002   6.956   2.822
 5027SOL    HW115980   1.080   6.895   2.838
 5027SOL    HW215981   0.924   6.902   2.791
 5028SOL     OW15982   0.262   6.447   1.911
 5028SOL    HW115983   0.264   6.371   1.975
 5028SOL    HW215984   0.298   6.417   1.822
 5029SOL     OW15985   6.920   3.209   3.061
 5029SOL    HW115986   7.009   3.185   3.098
 5029SOL    HW215987   6.869   3.125   3.041
 5030SOL     OW15988   6.647   0.617   6.676
 5030SOL    HW115989   6.616   0.539   6.731
 5030SOL    HW215990   6.587   0.695   6.693
 5031SOL     OW15991   5.968   1.260   4.507
 5031SOL    HW115992   6.006   1.177   4.548
 5031SOL    HW215993   5.881   1.239   4.463
 5032SOL     OW15994   1.341   4.214   1.086
 5032SOL    HW115995   1.417   4.268   1.049
 5032SOL    HW215996   1.255   4.250   1.050
 5033SOL     OW15997   1.881   5.121   6.388
 5033SOL    HW115998   1.860   5.025   6.367
 5033SOL    HW215999   1.934   5.161   6.314
 5034SOL     OW16000   0.311   3.556   2.114
 5034SOL    HW116001   0.227   3.527   2.067
 5034SOL    HW216002   0.379   3.484   2.108
 5035SOL     OW16003   5.949   4.827   1.199
 5035SOL    HW116004   5.954   4.827   1.299
 5035SOL    HW216005   5.984   4.914   1.164
 5036SOL     OW16006   0.641   5.624   6.594
 5036SOL    HW116007   0.600   5.590   6.510
 5036SOL    HW216008   0.669   5.719   6.581
 5037SOL     OW16009   4.489   2.463   2.890
 5037SOL    HW116010   4.428   2.413   2.950
 5037SOL    HW216011   4.578   2.476   2.935
 5038SOL     OW16012   1.487   5.473   5.433
 5038SOL    HW116013   1.568   5.501   5.383
 5038SOL    HW216014   1.423   5.428   5.371
 5039SOL     OW16015   1.881   3.604   5.203
 5039SOL    HW116016   1.934   3.524   5.230
 5039SOL    HW216017   1.933   3.687   5.225
 5040SOL     OW16018   2.325   3.353   6.556
 5040SOL    HW116019   2.384   3.340   6.636
 5040SOL    HW216020   2.377   3.395   6.482
 5041SOL     OW16021   0.735   3.516   1.304
 5041SOL    HW116022   0.818   3.469   1.335
 5041SOL    HW216023   0.709   3.482   1.214
 5042SOL     OW16024   0.277   3.291   7.015
 5042SOL    HW116025   0.325   3.217   6.970
 5042SOL    HW216026   0.202   3.323   6.956
 5043SOL     OW16027   3.339   0.837   5.492
 5043SOL    HW116028   3.309   0.889   5.412
 5043SOL    HW216029   3.350   0.741   5.468
 5044SOL     OW16030   6.485   6.243   3.417
 5044SOL    HW116031   6.441   6.156   3.397
 5044SOL    HW216032   6.538   6.235   3.502
 5045SOL     OW16033   5.254   3.584   0.405
 5045SOL    HW116034   5.317   3.651   0.446
 5045SOL    HW216035   5.296   3.493   0.408
 5046SOL     OW16036   3.855   2.988   4.682
 5046SOL    HW116037   3.925   3.043   4.729
 5046SOL    HW216038   3.806   2.932   4.748
 5047SOL     OW16039   6.235   2.034   2.764
 5047SOL    HW116040   6.152   2.048   2.818
 5047SOL    HW216041   6.294   1.968   2.810
 5048SOL     OW16042   6.413   2.501   1.756
 5048SOL    HW116043   6.478   2.437   1.795
 5048SOL    HW216044   6.328   2.453   1.734
 5049SOL     OW16045   6.441   1.308   3.096
 5049SOL    HW116046   6.387   1.335   3.175
 5049SOL    HW216047   6.380   1.291   3.018
 5050SOL     OW16048   0.278   1.785   1.982
 5050SOL    HW116049   0.204   1.720   1.996
 5050SOL    HW216050   0.364   1.736   1.970
 5051SOL     OW16051   3.874   3.059   0.230
 5051SOL    HW116052   3.951   3.058   0.166
 5051SOL    HW216053   3.872   3.147   0.278
 5052SOL     OW16054   2.847   4.790   6.508
 5052SOL    HW116055   2.790   4.833   6.437
 5052SOL    HW216056   2.943   4.794   6.480
 5053SOL     OW16057   2.013   3.594   2.834
 5053SOL    HW116058   2.012   3.497   2.857
 5053SOL    HW216059   2.089   3.612   2.771
 5054SOL     OW16060   3.850   5.489   5.366
 5054SOL    HW116061   3.820   5.482   5.461
 5054SOL    HW216062   3.949   5.479   5.361
 5055SOL     OW16063   6.907   1.155   4.933
 5055SOL    HW116064   6.908   1.242   4.982
 5055SOL    HW216065   6.941   1.168   4.840
 5056SOL     OW16066   6.819   4.125   6.209
 5056SOL    HW116067   6.793   4.207   6.158
 5056SOL    HW216068   6.740   4.093   6.262
 5057SOL     OW16069   1.456   5.447   3.464
 5057SOL    HW116070   1.431   5.373   3.401
 5057SOL    HW216071   1.536   5.495   3.428
 5058SOL     OW16072   3.887   3.732   6.604
 5058SOL    HW116073   3.912   3.693   6.516
 5058SOL    HW216074   3.822   3.807   6.591
 5059SOL     OW16075   5.193   3.419   4.946
 5059SOL    HW116076   5.264   3.395   4.880
 5059SOL    HW216077   5.116   3.461   4.899
 5060SOL     OW16078   6.954   3.092   4.827
 5060SOL    HW116079   6.901   3.022   4.780
 5060SOL    HW216080   0.009   3.110   4.776
 5061SOL     OW16081   2.953   3.489   3.987
 5061SOL    HW116082   2.962   3.393   3.963
 5061SOL    HW216083   2.986   3.546   3.912
 5062SOL     OW16084   5.608   1.725   2.324
 5062SOL    HW116085   5.643   1.815   2.301
 5062SOL    HW216086   5.645   1.696   2.412
 5063SOL     OW16087   1.232   6.292   1.801
 5063SOL    HW116088   1.227   6.385   1.837
 5063SOL    HW216089   1.266   6.231   1.872
 5064SOL     OW16090   4.812   5.590   0.782
 5064SOL    HW116091   4.822   5.542   0.696
 5064SOL    HW216092   4.829   5.527   0.858
 5065SOL     OW16093   1.930   0.489   2.989
 5065SOL    HW116094   1.839   0.479   2.949
 5065SOL    HW216095   1.970   0.575   2.957
 5066SOL     OW16096   2.649   3.859   1.687
 5066SOL    HW116097   2.702   3.943   1.700
 5066SOL    HW216098   2.552   3.882   1.675
 5067SOL     OW16099   4.154   1.998   2.084
 5067SOL    HW116100   4.165   1.902   2.058
 5067SOL    HW216101   4.087   2.041   2.024
 5068SOL     OW16102   2.901   5.462   0.054
 5068SOL    HW116103   2.818   5.494   0.098
 5068SOL    HW216104   2.974   5.452   0.123
 5069SOL     OW16105   2.220   3.042   5.559
 5069SOL    HW116106   2.168   3.001   5.635
 5069SOL    HW216107   2.252   3.132   5.586
 5070SOL     OW16108   5.858   4.092   4.283
 5070SOL    HW116109   5.908   4.105   4.369
 5070SOL    HW216110   5.898   4.149   4.212
 5071SOL     OW16111   3.869   1.979   3.334
 5071SOL    HW116112   3.870   1.961   3.235
 5071SOL    HW216113   3.794   2.042   3.355
 5072SOL     OW16114   2.037   1.280   1.481
 5072SOL    HW116115   2.055   1.220   1.559
 5072SOL    HW216116   2.000   1.367   1.515
 5073SOL     OW16117   1.592   5.734   1.646
 5073SOL    HW116118   1.539   5.771   1.723
 5073SOL    HW216119   1.681   5.780   1.643
 5074SOL     OW16120   3.822   1.849   1.785
 5074SOL    HW116121   3.804   1.883   1.692
 5074SOL    HW216122   3.782   1.759   1.795
 5075SOL     OW16123   1.264   2.313   0.071
 5075SOL    HW116124   1.325   2.296   0.148
 5075SOL    HW216125   1.302   2.271   7.018
 5076SOL     OW16126   5.164   0.174   0.183
 5076SOL    HW116127   5.258   0.141   0.173
 5076SOL    HW216128   5.155   0.263   0.139
 5077SOL     OW16129   1.094   3.868   6.001
 5077SOL    HW116130   1.018   3.899   5.945
 5077SOL    HW216131   1.169   3.934   5.994
 5078SOL     OW16132   0.262   1.054   4.256
 5078SOL    HW116133   0.334   1.037   4.189
 5078SOL    HW216134   0.303   1.094   4.338
 5079SOL     OW16135   2.700   2.515   5.684
 5079SOL    HW116136   2.786   2.557   5.713
 5079SOL    HW216137   2.674   2.444   5.750
 5080SOL     OW16138   5.673   5.775   5.152
 5080SOL    HW116139   5.632   5.784   5.062
 5080SOL    HW216140   5.691   5.679   5.171
 5081SOL     OW16141   2.318   4.902   5.090
 5081SOL    HW116142   2.226   4.913   5.128
 5081SOL    HW216143   2.313   4.900   4.990
 5082SOL     OW16144   4.563   6.928   0.068
 5082SOL    HW116145   4.519   6.841   0.045
 5082SOL    HW216146   4.662   6.913   0.079
 5083SOL     OW16147   3.612   0.201   0.886
 5083SOL    HW116148   3.697   0.153   0.910
 5083SOL    HW216149   3.631   0.299   0.877
 5084SOL     OW16150   0.519   4.813   4.654
 5084SOL    HW116151   0.565   4.744   4.710
 5084SOL    HW216152   0.434   4.840   4.698
 5085SOL     OW16153   1.253   3.100   5.879
 5085SOL    HW116154   1.173   3.123   5.934
 5085SOL    HW216155   1.314   3.179   5.874
 5086SOL     OW16156   0.126   4.249   1.992
 5086SOL    HW116157   0.071   4.324   2.028
 5086SOL    HW216158   0.134   4.259   1.893
 5087SOL     OW16159   6.913   5.743   2.263
 5087SOL    HW116160   6.842   5.729   2.194
 5087SOL    HW216161   6.907   5.671   2.332
 5088SOL     OW16162   4.351   6.646   3.241
 5088SOL    HW116163   4.344   6.745   3.231
 5088SOL    HW216164   4.318   6.619   3.332
 5089SOL     OW16165   5.718   4.418   4.333
 5089SOL    HW116166   5.749   4.442   4.241
 5089SOL    HW216167   5.742   4.322   4.352
 5090SOL     OW16168   2.443   1.019   2.885
 5090SOL    HW116169   2.415   0.956   2.957
 5090SOL    HW216170   2.479   1.103   2.926
 5091SOL     OW16171   6.496   0.628   0.950
 5091SOL    HW116172   6.472   0.541   0.993
 5091SOL    HW216173   6.443   0.702   0.991
 5092SOL     OW16174   3.335   2.906   3.696
 5092SOL    HW116175   3.386   2.984   3.662
 5092SOL    HW216176   3.341   2.830   3.631
 5093SOL     OW16177   2.670   1.709   1.631
 5093SOL    HW116178   2.675   1.615   1.597
 5093SOL    HW216179   2.746   1.726   1.694
 5094SOL     OW16180   1.849   5.958   6.546
 5094SOL    HW116181   1.938   5.999   6.568
 5094SOL    HW216182   1.841   5.870   6.593
 5095SOL     OW16183   0.722   1.558   2.777
 5095SOL    HW116184   0.694   1.607   2.860
 5095SOL    HW216185   0.762   1.470   2.802
 5096SOL     OW16186   5.432   4.903   6.277
 5096SOL    HW116187   5.466   4.853   6.356
 5096SOL    HW216188   5.335   4.882   6.263
 5097SOL     OW16189   6.824   0.521   0.317
 5097SOL    HW116190   6.882   0.457   0.266
 5097SOL    HW216191   6.874   0.554   0.396
 5098SOL     OW16192   3.577   2.426   1.302
 5098SOL    HW116193   3.577   2.326   1.297
 5098SOL    HW216194   3.490   2.461   1.267
 5099SOL     OW16195   0.068   6.302   1.486
 5099SOL    HW116196   0.002   6.373   1.462
 5099SOL    HW216197   0.145   6.304   1.422
 5100SOL     OW16198   2.970   5.265   3.431
 5100SOL    HW116199   2.915   5.212   3.367
 5100SOL    HW216200   2.946   5.362   3.424
 5101SOL     OW16201   4.399   0.149   4.797
 5101SOL    HW116202   4.410   0.108   4.887
 5101SOL    HW216203   4.472   0.216   4.781
 5102SOL     OW16204   5.035   6.040   4.317
 5102SOL    HW116205   4.959   5.981   4.341
 5102SOL    HW216206   5.088   6.063   4.399
 5103SOL     OW16207   0.559   1.155   4.844
 5103SOL    HW116208   0.590   1.215   4.770
 5103SOL    HW216209   0.461   1.140   4.835
 5104SOL     OW16210   3.179   6.053   1.642
 5104SOL    HW116211   3.195   6.147   1.673
 5104SOL    HW216212   3.157   5.995   1.721
 5105SOL     OW16213   3.139   2.764   6.306
 5105SOL    HW116214   3.213   2.780   6.372
 5105SOL    HW216215   3.174   2.778   6.213
 5106SOL     OW16216   4.017   1.677   1.074
 5106SOL    HW116217   3.932   1.642   1.114
 5106SOL    HW216218   4.094   1.653   1.133
 5107SOL     OW16219   5.078   2.075   0.980
 5107SOL    HW116220   5.150   2.067   1.049
 5107SOL    HW216221   5.009   2.005   0.997
 5108SOL     OW16222   4.088   3.761   5.059
 5108SOL    HW116223   4.100   3.853   5.094
 5108SOL    HW216224   4.088   3.696   5.134
 5109SOL     OW16225   1.423   2.675   0.169
 5109SOL    HW116226   1.495   2.638   0.228
 5109SOL    HW216227   1.336   2.633   0.193
 5110SOL     OW16228   0.127   0.779   6.490
 5110SOL    HW116229   0.071   0.697   6.493
 5110SOL    HW216230   0.190   0.773   6.412
 5111SOL     OW16231   0.883   0.036   4.265
 5111SOL    HW116232   0.963   0.096   4.267
 5111SOL    HW216233   0.906   6.977   4.306
 5112SOL     OW16234   0.509   0.677   3.132
 5112SOL    HW116235   0.562   0.608   3.182
 5112SOL    HW216236   0.548   0.689   3.041
 5113SOL     OW16237   1.149   5.881   1.262
 5113SOL    HW116238   1.248   5.871   1.276
 5113SOL    HW216239   1.132   5.959   1.201
 5114SOL     OW16240   4.084   6.550   6.860
 5114SOL    HW116241   4.062   6.567   6.956
 5114SOL    HW216242   4.021   6.602   6.802
 5115SOL     OW16243   1.548   4.374   2.244
 5115SOL    HW116244   1.521   4.420   2.159
 5115SOL    HW216245   1.544   4.439   2.319
 5116SOL     OW16246   1.996   6.493   0.345
 5116SOL    HW116247   2.063   6.509   0.272
 5116SOL    HW216248   1.933   6.570   0.349
 5117SOL     OW16249   0.949   4.058   3.881
 5117SOL    HW116250   0.921   4.140   3.932
 5117SOL    HW216251   1.003   4.086   3.801
 5118SOL     OW16252   5.796   0.879   0.318
 5118SOL    HW116253   5.756   0.803   0.268
 5118SOL    HW216254   5.783   0.865   0.416
 5119SOL     OW16255   4.466   1.353   1.406
 5119SOL    HW116256   4.534   1.285   1.433
 5119SOL    HW216257   4.513   1.435   1.373
 5120SOL     OW16258   4.885   6.552   5.608
 5120SOL    HW116259   4.851   6.502   5.528
 5120SOL    HW216260   4.940   6.630   5.578
 5121SOL     OW16261   3.118   3.540   6.729
 5121SOL    HW116262   3.023   3.568   6.715
 5121SOL    HW216263   3.150   3.575   6.817
 5122SOL     OW16264   3.104   5.864   3.006
 5122SOL    HW116265   3.162   5.872   3.087
 5122SOL    HW216266   3.095   5.954   2.962
 5123SOL     OW16267   5.520   1.872   4.096
 5123SOL    HW116268   5.610   1.831   4.112
 5123SOL    HW216269   5.520   1.918   4.007
 5124SOL     OW16270   2.283   6.350   4.083
 5124SOL    HW116271   2.208   6.286   4.095
 5124SOL    HW216272   2.356   6.307   4.030
 5125SOL     OW16273   0.079   2.053   3.241
 5125SOL    HW116274   0.069   2.066   3.340
 5125SOL    HW216275   0.113   2.137   3.199
 5126SOL     OW16276   0.808   6.229   6.770
 5126SOL    HW116277   0.838   6.324   6.761
 5126SOL    HW216278   0.832   6.178   6.688
 5127SOL     OW16279   0.289   5.636   0.052
 5127SOL    HW116280   0.228   5.598   7.011
 5127SOL    HW216281   0.357   5.567   0.077
 5128SOL     OW16282   6.866   6.559   0.694
 5128SOL    HW116283   6.866   6.655   0.721
 5128SOL    HW216284   6.947   6.539   0.639
 5129SOL     OW16285   5.014   6.448   2.697
 5129SOL    HW116286   4.933   6.401   2.732
 5129SOL    HW216287   5.094   6.419   2.749
 5130SOL     OW16288   6.830   5.550   2.457
 5130SOL    HW116289   6.762   5.477   2.444
 5130SOL    HW216290   6.909   5.513   2.505
 5131SOL     OW16291   2.082   3.499   4.047
 5131SOL    HW116292   2.134   3.440   3.987
 5131SOL    HW216293   2.084   3.463   4.140
 5132SOL     OW16294   4.260   2.932   5.760
 5132SOL    HW116295   4.175   2.903   5.717
 5132SOL    HW216296   4.270   3.031   5.753
 5133SOL     OW16297   2.692   4.860   6.919
 5133SOL    HW116298   2.786   4.827   6.923
 5133SOL    HW216299   2.679   4.933   6.985
 5134SOL     OW16300   6.815   2.451   2.093
 5134SOL    HW116301   6.730   2.493   2.124
 5134SOL    HW216302   6.876   2.438   2.171
 5135SOL     OW16303   6.350   2.061   4.969
 5135SOL    HW116304   6.271   2.102   4.923
 5135SOL    HW216305   6.340   2.072   5.068
 5136SOL     OW16306   4.865   0.129   5.869
 5136SOL    HW116307   4.884   0.227   5.873
 5136SOL    HW216308   4.766   0.114   5.872
 5137SOL     OW16309   5.616   3.241   6.629
 5137SOL    HW116310   5.709   3.205   6.620
 5137SOL    HW216311   5.574   3.248   6.539
 5138SOL     OW16312   3.227   2.894   5.727
 5138SOL    HW116313   3.144   2.934   5.766
 5138SOL    HW216314   3.206   2.807   5.684
 5139SOL     OW16315   1.436   6.921   3.465
 5139SOL    HW116316   1.444   6.826   3.495
 5139SOL    HW216317   1.517   6.973   3.494
 5140SOL     OW16318   3.435   1.355   0.347
 5140SOL    HW116319   3.385   1.423   0.293
 5140SOL    HW216320   3.477   1.289   0.285
 5141SOL     OW16321   0.143   3.790   0.664
 5141SOL    HW116322   0.217   3.823   0.723
 5141SOL    HW216323   0.182   3.742   0.585
 5142SOL     OW16324   6.187   1.155   3.769
 5142SOL    HW116325   6.128   1.120   3.843
 5142SOL    HW216326   6.226   1.078   3.719
 5143SOL     OW16327   0.709   4.412   3.941
 5143SOL    HW116328   0.705   4.493   3.882
 5143SOL    HW216329   0.617   4.390   3.973
 5144SOL     OW16330   0.880   5.749   6.562
 5144SOL    HW116331   0.924   5.698   6.488
 5144SOL    HW216332   0.904   5.707   6.650
 5145SOL     OW16333   1.657   4.766   5.916
 5145SOL    HW116334   1.746   4.769   5.963
 5145SOL    HW216335   1.623   4.672   5.915
 5146SOL     OW16336   4.201   3.604   5.551
 5146SOL    HW116337   4.152   3.661   5.617
 5146SOL    HW216338   4.135   3.554   5.495
 5147SOL     OW16339   0.077   4.638   2.364
 5147SOL    HW116340   0.165   4.683   2.376
 5147SOL    HW216341   0.003   4.699   2.393
 5148SOL     OW16342   1.107   6.580   1.119
 5148SOL    HW116343   1.181   6.519   1.093
 5148SOL    HW216344   1.039   6.530   1.172
 5149SOL     OW16345   6.217   5.893   4.488
 5149SOL    HW116346   6.222   5.975   4.430
 5149SOL    HW216347   6.249   5.814   4.435
 5150SOL     OW16348   2.103   5.064   2.686
 5150SOL    HW116349   2.134   5.100   2.774
 5150SOL    HW216350   2.182   5.043   2.628
 5151SOL     OW16351   5.328   1.781   0.540
 5151SOL    HW116352   5.328   1.689   0.501
 5151SOL    HW216353   5.422   1.812   0.554
 5152SOL     OW16354   1.941   4.846   6.388
 5152SOL    HW116355   1.913   4.817   6.296
 5152SOL    HW216356   1.900   4.786   6.456
 5153SOL     OW16357   2.504   0.681   6.688
 5153SOL    HW116358   2.464   0.732   6.764
 5153SOL    HW216359   2.530   0.745   6.615
 5154SOL     OW16360   2.081   3.078   6.678
 5154SOL    HW116361   2.068   3.026   6.762
 5154SOL    HW216362   1.993   3.118   6.650
 5155SOL     OW16363   3.771   6.500   2.250
 5155SOL    HW116364   3.856   6.466   2.210
 5155SOL    HW216365   3.792   6.564   2.324
 5156SOL     OW16366   7.008   3.397   5.509
 5156SOL    HW116367   6.928   3.432   5.459
 5156SOL    HW216368   0.052   3.376   5.444
 5157SOL     OW16369   4.672   2.621   4.033
 5157SOL    HW116370   4.604   2.592   4.100
 5157SOL    HW216371   4.735   2.545   4.015
 5158SOL     OW16372   3.391   1.518   1.336
 5158SOL    HW116373   3.391   1.577   1.255
 5158SOL    HW216374   3.485   1.502   1.366
 5159SOL     OW16375   0.332   3.275   4.613
 5159SOL    HW116376   0.403   3.336   4.648
 5159SOL    HW216377   0.368   3.221   4.538
 5160SOL     OW16378   0.550   4.368   3.591
 5160SOL    HW116379   0.630   4.416   3.625
 5160SOL    HW216380   0.468   4.402   3.638
 5161SOL     OW16381   1.831   3.428   4.512
 5161SOL    HW116382   1.862   3.394   4.601
 5161SOL    HW216383   1.844   3.358   4.442
 5162SOL     OW16384   1.341   4.982   4.357
 5162SOL    HW116385   1.405   4.917   4.398
 5162SOL    HW216386   1.254   4.978   4.405
 5163SOL     OW16387   3.309   5.055   0.942
 5163SOL    HW116388   3.236   4.992   0.915
 5163SOL    HW216389   3.283   5.100   1.027
 5164SOL     OW16390   5.661   2.512   6.954
 5164SOL    HW116391   5.571   2.537   6.920
 5164SOL    HW216392   5.688   2.423   6.917
 5165SOL     OW16393   5.926   3.462   5.384
 5165SOL    HW116394   5.956   3.557   5.390
 5165SOL    HW216395   5.826   3.459   5.378
 5166SOL     OW16396   0.916   5.747   1.862
 5166SOL    HW116397   0.876   5.811   1.928
 5166SOL    HW216398   0.849   5.676   1.840
 5167SOL     OW16399   6.185   0.204   5.853
 5167SOL    HW116400   6.232   0.220   5.940
 5167SOL    HW216401   6.252   0.197   5.780
 5168SOL     OW16402   5.137   3.074   3.457
 5168SOL    HW116403   5.159   3.098   3.363
 5168SOL    HW216404   5.039   3.056   3.464
 5169SOL     OW16405   3.414   2.321   5.870
 5169SOL    HW116406   3.456   2.255   5.932
 5169SOL    HW216407   3.393   2.277   5.782
 5170SOL     OW16408   6.907   3.522   5.926
 5170SOL    HW116409   6.932   3.446   5.985
 5170SOL    HW216410   6.989   3.572   5.899
 5171SOL     OW16411   1.943   4.796   4.072
 5171SOL    HW116412   1.902   4.784   3.982
 5171SOL    HW216413   1.873   4.786   4.143
 5172SOL     OW16414   6.975   2.817   2.221
 5172SOL    HW116415   0.012   2.743   2.214
 5172SOL    HW216416   6.942   2.824   2.315
 5173SOL     OW16417   5.915   4.973   6.443
 5173SOL    HW116418   5.821   4.943   6.426
 5173SOL    HW216419   5.922   5.071   6.427
 5174SOL     OW16420   1.791   4.662   3.577
 5174SOL    HW116421   1.841   4.576   3.580
 5174SOL    HW216422   1.764   4.682   3.483
 5175SOL     OW16423   2.592   4.178   6.791
 5175SOL    HW116424   2.546   4.101   6.748
 5175SOL    HW216425   2.599   4.162   6.890
 5176SOL     OW16426   4.351   3.578   0.808
 5176SOL    HW116427   4.324   3.490   0.847
 5176SOL    HW216428   4.448   3.576   0.786
 5177SOL     OW16429   5.001   6.935   5.948
 5177SOL    HW116430   4.953   7.017   5.914
 5177SOL    HW216431   5.080   6.916   5.890
 5178SOL     OW16432   2.045   2.874   1.076
 5178SOL    HW116433   2.114   2.944   1.059
 5178SOL    HW216434   1.970   2.913   1.129
 5179SOL     OW16435   4.217   5.702   5.335
 5179SOL    HW116436   4.145   5.700   5.265
 5179SOL    HW216437   4.192   5.642   5.410
 5180SOL     OW16438   3.238   3.128   6.202
 5180SOL    HW116439   3.308   3.063   6.231
 5180SOL    HW216440   3.149   3.082   6.199
 5181SOL     OW16441   5.173   1.710   2.506
 5181SOL    HW116442   5.222   1.675   2.586
 5181SOL    HW216443   5.084   1.745   2.534
 5182SOL     OW16444   5.125   5.382   1.369
 5182SOL    HW116445   5.159   5.289   1.386
 5182SOL    HW216446   5.122   5.399   1.270
 5183SOL     OW16447   4.177   0.517   2.611
 5183SOL    HW116448   4.078   0.509   2.599
 5183SOL    HW216449   4.220   0.535   2.522
 5184SOL     OW16450   0.791   2.028   4.065
 5184SOL    HW116451   0.884   2.051   4.035
 5184SOL    HW216452   0.726   2.093   4.027
 5185SOL     OW16453   4.901   6.938   3.231
 5185SOL    HW116454   4.976   6.884   3.268
 5185SOL    HW216455   4.888   6.917   3.134
 5186SOL     OW16456   5.704   3.465   0.961
 5186SOL    HW116457   5.623   3.520   0.942
 5186SOL    HW216458   5.760   3.511   1.030
 5187SOL     OW16459   6.226   0.940   3.451
 5187SOL    HW116460   6.324   0.957   3.462
 5187SOL    HW216461   6.210   0.841   3.450
 5188SOL     OW16462   0.603   4.830   0.649
 5188SOL    HW116463   0.592   4.901   0.718
 5188SOL    HW216464   0.700   4.807   0.640
 5189SOL     OW16465   4.782   5.077   1.117
 5189SOL    HW116466   4.773   4.984   1.153
 5189SOL    HW216467   4.734   5.084   1.030
 5190SOL     OW16468   0.797   2.244   4.414
 5190SOL    HW116469   0.828   2.333   4.382
 5190SOL    HW216470   0.697   2.244   4.420
 5191SOL     OW16471   3.613   0.611   2.184
 5191SOL    HW116472   3.708   0.634   2.204
 5191SOL    HW216473   3.567   0.580   2.267
 5192SOL     OW16474   3.773   5.420   2.214
 5192SOL    HW116475   3.694   5.402   2.272
 5192SOL    HW216476   3.747   5.482   2.140
 5193SOL     OW16477   4.876   5.021   3.682
 5193SOL    HW116478   4.887   5.109   3.729
 5193SOL    HW216479   4.817   4.961   3.737
 5194SOL     OW16480   4.430   6.931   6.271
 5194SOL    HW116481   4.336   6.956   6.249
 5194SOL    HW216482   4.491   7.009   6.253
 5195SOL     OW16483   6.310   6.234   4.514
 5195SOL    HW116484   6.403   6.217   4.482
 5195SOL    HW216485   6.289   6.171   4.589
 5196SOL     OW16486   1.340   3.400   1.028
 5196SOL    HW116487   1.435   3.370   1.017
 5196SOL    HW216488   1.326   3.432   1.122
 5197SOL     OW16489   1.773   5.754   4.305
 5197SOL    HW116490   1.847   5.713   4.358
 5197SOL    HW216491   1.691   5.761   4.361
 5198SOL     OW16492   3.680   0.221   4.095
 5198SOL    HW116493   3.720   0.200   4.006
 5198SOL    HW216494   3.734   0.178   4.167
 5199SOL     OW16495   1.791   6.159   0.425
 5199SOL    HW116496   1.808   6.247   0.381
 5199SOL    HW216497   1.704   6.162   0.473
 5200SOL     OW16498   1.112   1.763   5.381
 5200SOL    HW116499   1.078   1.670   5.397
 5200SOL    HW216500   1.182   1.785   5.448
 5201SOL     OW16501   5.045   5.920   4.063
 5201SOL    HW116502   5.102   5.839   4.078
 5201SOL    HW216503   5.056   5.983   4.140
 5202SOL     OW16504   5.983   3.635   6.199
 5202SOL    HW116505   5.964   3.538   6.189
 5202SOL    HW216506   6.079   3.648   6.226
 5203SOL     OW16507   1.699   0.797   0.065
 5203SOL    HW116508   1.609   0.754   0.074
 5203SOL    HW216509   1.704   0.876   0.126
 5204SOL     OW16510   3.473   6.443   6.951
 5204SOL    HW116511   3.524   6.523   6.918
 5204SOL    HW216512   3.397   6.424   6.889
 5205SOL     OW16513   6.968   5.521   0.301
 5205SOL    HW116514   6.937   5.527   0.206
 5205SOL    HW216515   0.019   5.580   0.314
 5206SOL     OW16516   0.669   5.126   5.549
 5206SOL    HW116517   0.752   5.084   5.513
 5206SOL    HW216518   0.634   5.192   5.483
 5207SOL     OW16519   0.623   0.788   3.507
 5207SOL    HW116520   0.586   0.702   3.542
 5207SOL    HW216521   0.723   0.785   3.510
 5208SOL     OW16522   4.506   2.070   0.224
 5208SOL    HW116523   4.599   2.102   0.241
 5208SOL    HW216524   4.502   1.971   0.240
 5209SOL     OW16525   5.099   0.575   1.941
 5209SOL    HW116526   5.039   0.513   1.890
 5209SOL    HW216527   5.193   0.562   1.912
 5210SOL     OW16528   5.564   4.101   1.058
 5210SOL    HW116529   5.577   4.128   1.153
 5210SOL    HW216530   5.469   4.072   1.044
 5211SOL     OW16531   5.103   1.549   4.833
 5211SOL    HW116532   5.065   1.489   4.904
 5211SOL    HW216533   5.203   1.539   4.832
 5212SOL     OW16534   1.185   2.967   0.705
 5212SOL    HW116535   1.112   2.916   0.660
 5212SOL    HW216536   1.265   2.971   0.645
 5213SOL     OW16537   4.409   3.774   1.500
 5213SOL    HW116538   4.504   3.772   1.529
 5213SOL    HW216539   4.375   3.868   1.505
 5214SOL     OW16540   4.705   3.726   5.634
 5214SOL    HW116541   4.759   3.641   5.637
 5214SOL    HW216542   4.692   3.754   5.539
 5215SOL     OW16543   6.787   4.130   4.258
 5215SOL    HW116544   6.840   4.139   4.342
 5215SOL    HW216545   6.704   4.077   4.276
 5216SOL     OW16546   4.758   5.837   1.120
 5216SOL    HW116547   4.687   5.902   1.092
 5216SOL    HW216548   4.848   5.874   1.098
 5217SOL     OW16549   3.813   6.021   4.636
 5217SOL    HW116550   3.908   6.055   4.635
 5217SOL    HW216551   3.808   5.935   4.586
 5218SOL     OW16552   0.210   1.103   1.004
 5218SOL    HW116553   0.258   1.131   0.921
 5218SOL    HW216554   0.216   1.176   1.072
 5219SOL     OW16555   3.530   1.769   4.005
 5219SOL    HW116556   3.574   1.793   3.918
 5219SOL    HW216557   3.594   1.789   4.080
 5220SOL     OW16558   1.670   4.875   2.567
 5220SOL    HW116559   1.672   4.775   2.559
 5220SOL    HW216560   1.574   4.906   2.567
 5221SOL     OW16561   0.022   0.314   2.228
 5221SOL    HW116562   0.062   0.355   2.310
 5221SOL    HW216563   0.029   0.378   2.151
 5222SOL     OW16564   3.567   5.458   2.378
 5222SOL    HW116565   3.518   5.397   2.316
 5222SOL    HW216566   3.531   5.551   2.368
 5223SOL     OW16567   0.762   2.410   0.881
 5223SOL    HW116568   0.744   2.492   0.935
 5223SOL    HW216569   0.698   2.406   0.804
 5224SOL     OW16570   0.127   1.822   4.408
 5224SOL    HW116571   0.204   1.834   4.345
 5224SOL    HW216572   0.090   1.730   4.398
 5225SOL     OW16573   0.163   0.447   4.051
 5225SOL    HW116574   0.085   0.444   3.988
 5225SOL    HW216575   0.174   0.540   4.086
 5226SOL     OW16576   0.520   6.150   3.266
 5226SOL    HW116577   0.436   6.116   3.223
 5226SOL    HW216578   0.592   6.082   3.257
 5227SOL     OW16579   0.118   3.843   6.117
 5227SOL    HW116580   0.019   3.851   6.103
 5227SOL    HW216581   0.158   3.934   6.125
 5228SOL     OW16582   0.889   2.483   0.092
 5228SOL    HW116583   0.900   2.448   7.028
 5228SOL    HW216584   0.968   2.538   0.116
 5229SOL     OW16585   3.232   6.284   6.745
 5229SOL    HW116586   3.329   6.261   6.749
 5229SOL    HW216587   3.190   6.241   6.666
 5230SOL     OW16588   6.434   0.432   2.985
 5230SOL    HW116589   6.343   0.424   2.945
 5230SOL    HW216590   6.449   0.357   3.049
 5231SOL     OW16591   4.965   2.349   3.715
 5231SOL    HW116592   5.028   2.278   3.682
 5231SOL    HW216593   5.017   2.429   3.742
 5232SOL     OW16594   1.142   4.314   6.163
 5232SOL    HW116595   1.091   4.283   6.082
 5232SOL    HW216596   1.139   4.413   6.168
 5233SOL     OW16597   3.231   0.819   1.893
 5233SOL    HW116598   3.152   0.778   1.848
 5233SOL    HW216599   3.205   0.907   1.933
 5234SOL     OW16600   2.999   3.101   6.507
 5234SOL    HW116601   2.992   3.103   6.408
 5234SOL    HW216602   3.076   3.158   6.536
 5235SOL     OW16603   1.900   2.517   0.534
 5235SOL    HW116604   1.992   2.524   0.572
 5235SOL    HW216605   1.852   2.603   0.547
 5236SOL     OW16606   3.494   5.202   1.847
 5236SOL    HW116607   3.563   5.182   1.916
 5236SOL    HW216608   3.493   5.129   1.778
 5237SOL     OW16609   2.726   1.024   4.856
 5237SOL    HW116610   2.695   0.933   4.882
 5237SOL    HW216611   2.699   1.043   4.761
 5238SOL     OW16612   0.903   5.521   1.519
 5238SOL    HW116613   0.977   5.541   1.584
 5238SOL    HW216614   0.827   5.584   1.535
 5239SOL     OW16615   3.430   3.376   0.659
 5239SOL    HW116616   3.429   3.301   0.725
 5239SOL    HW216617   3.400   3.341   0.570
 5240SOL     OW16618   2.963   2.492   5.319
 5240SOL    HW116619   2.880   2.449   5.282
 5240SOL    HW216620   3.043   2.456   5.273
 5241SOL     OW16621   0.593   5.693   2.677
 5241SOL    HW116622   0.582   5.792   2.669
 5241SOL    HW216623   0.635   5.671   2.765
 5242SOL     OW16624   5.060   0.162   2.322
 5242SOL    HW116625   5.139   0.165   2.262
 5242SOL    HW216626   5.072   0.226   2.398
 5243SOL     OW16627   2.489   6.370   1.704
 5243SOL    HW116628   2.451   6.449   1.753
 5243SOL    HW216629   2.551   6.403   1.633
 5244SOL     OW16630   5.234   3.798   0.169
 5244SOL    HW116631   5.159   3.743   0.133
 5244SOL    HW216632   5.272   3.753   0.250
 5245SOL     OW16633   3.978   4.604   0.889
 5245SOL    HW116634   4.076   4.587   0.879
 5245SOL    HW216635   3.938   4.622   0.799
 5246SOL     OW16636   6.034   2.725   2.466
 5246SOL    HW116637   6.109   2.774   2.423
 5246SOL    HW216638   6.070   2.667   2.540
 5247SOL     OW16639   3.223   0.762   5.996
 5247SOL    HW116640   3.204   0.781   5.900
 5247SOL    HW216641   3.211   0.664   6.013
 5248SOL     OW16642   0.036   1.866   3.062
 5248SOL    HW116643   0.042   1.945   3.123
 5248SOL    HW216644   0.112   1.804   3.080
 5249SOL     OW16645   1.644   5.854   6.811
 5249SOL    HW116646   1.636   5.946   6.773
 5249SOL    HW216647   1.566   5.799   6.781
 5250SOL     OW16648   1.140   5.888   0.629
 5250SOL    HW116649   1.053   5.930   0.603
 5250SOL    HW216650   1.127   5.832   0.711
 5251SOL     OW16651   1.367   4.295   0.761
 5251SOL    HW116652   1.392   4.236   0.684
 5251SOL    HW216653   1.337   4.384   0.727
 5252SOL     OW16654   2.684   6.490   1.505
 5252SOL    HW116655   2.774   6.473   1.544
 5252SOL    HW216656   2.675   6.440   1.419
 5253SOL     OW16657   6.726   3.788   4.529
 5253SOL    HW116658   6.800   3.823   4.586
 5253SOL    HW216659   6.757   3.780   4.435
 5254SOL     OW16660   6.316   0.190   3.425
 5254SOL    HW116661   6.266   0.241   3.495
 5254SOL    HW216662   6.266   0.107   3.402
 5255SOL     OW16663   5.509   2.839   4.742
 5255SOL    HW116664   5.458   2.817   4.825
 5255SOL    HW216665   5.606   2.821   4.757
 5256SOL     OW16666   4.846   1.656   4.233
 5256SOL    HW116667   4.778   1.672   4.305
 5256SOL    HW216668   4.914   1.729   4.235
 5257SOL     OW16669   4.852   6.978   1.084
 5257SOL    HW116670   4.947   6.968   1.054
 5257SOL    HW216671   4.790   6.961   1.007
 5258SOL     OW16672   5.591   2.361   2.802
 5258SOL    HW116673   5.585   2.446   2.854
 5258SOL    HW216674   5.560   2.376   2.708
 5259SOL     OW16675   5.014   5.830   2.820
 5259SOL    HW116676   4.920   5.846   2.849
 5259SOL    HW216677   5.050   5.912   2.777
 5260SOL     OW16678   4.016   5.114   0.734
 5260SOL    HW116679   4.026   5.014   0.738
 5260SOL    HW216680   4.104   5.155   0.714
 5261SOL     OW16681   0.162   4.149   6.411
 5261SOL    HW116682   0.233   4.088   6.376
 5261SOL    HW216683   0.203   4.237   6.434
 5262SOL     OW16684   3.371   1.028   3.786
 5262SOL    HW116685   3.291   1.078   3.817
 5262SOL    HW216686   3.425   1.086   3.724
 5263SOL     OW16687   1.442   1.207   2.837
 5263SOL    HW116688   1.400   1.128   2.792
 5263SOL    HW216689   1.441   1.193   2.936
 5264SOL     OW16690   6.442   2.700   1.984
 5264SOL    HW116691   6.503   2.777   1.961
 5264SOL    HW216692   6.415   2.653   1.900
 5265SOL     OW16693   6.659   3.048   4.331
 5265SOL    HW116694   6.691   3.054   4.425
 5265SOL    HW216695   6.658   3.140   4.290
 5266SOL     OW16696   2.734   5.615   0.190
 5266SOL    HW116697   2.725   5.698   0.133
 5266SOL    HW216698   2.646   5.592   0.229
 5267SOL     OW16699   5.149   2.351   4.730
 5267SOL    HW116700   5.108   2.382   4.644
 5267SOL    HW216701   5.085   2.289   4.777
 5268SOL     OW16702   5.299   0.587   0.057
 5268SOL    HW116703   5.278   0.501   0.012
 5268SOL    HW216704   5.213   0.632   0.084
 5269SOL     OW16705   0.501   6.712   2.461
 5269SOL    HW116706   0.454   6.779   2.519
 5269SOL    HW216707   0.591   6.747   2.436
 5270SOL     OW16708   5.957   1.394   1.841
 5270SOL    HW116709   5.924   1.478   1.884
 5270SOL    HW216710   5.886   1.355   1.783
 5271SOL     OW16711   5.709   5.135   5.433
 5271SOL    HW116712   5.767   5.061   5.400
 5271SOL    HW216713   5.716   5.141   5.532
 5272SOL     OW16714   3.355   5.331   1.380
 5272SOL    HW116715   3.445   5.359   1.413
 5272SOL    HW216716   3.321   5.399   1.315
 5273SOL     OW16717   0.310   3.580   2.404
 5273SOL    HW116718   0.309   3.585   2.305
 5273SOL    HW216719   0.379   3.513   2.434
 5274SOL     OW16720   5.211   6.858   3.020
 5274SOL    HW116721   5.190   6.954   3.000
 5274SOL    HW216722   5.234   6.810   2.935
 5275SOL     OW16723   3.804   1.174   0.694
 5275SOL    HW116724   3.872   1.200   0.763
 5275SOL    HW216725   3.738   1.110   0.733
 5276SOL     OW16726   2.220   0.385   1.582
 5276SOL    HW116727   2.169   0.406   1.666
 5276SOL    HW216728   2.242   0.471   1.535
 5277SOL     OW16729   2.654   0.979   3.220
 5277SOL    HW116730   2.583   1.047   3.237
 5277SOL    HW216731   2.614   0.887   3.220
 5278SOL     OW16732   5.001   5.554   4.302
 5278SOL    HW116733   5.001   5.476   4.364
 5278SOL    HW216734   4.940   5.536   4.225
 5279SOL     OW16735   2.775   5.591   0.562
 5279SOL    HW116736   2.684   5.600   0.522
 5279SOL    HW216737   2.790   5.664   0.629
 5280SOL     OW16738   2.998   5.987   4.976
 5280SOL    HW116739   2.934   6.038   4.919
 5280SOL    HW216740   3.036   5.911   4.923
 5281SOL     OW16741   6.069   2.297   2.337
 5281SOL    HW116742   5.997   2.236   2.304
 5281SOL    HW216743   6.075   2.376   2.276
 5282SOL     OW16744   3.449   1.388   3.638
 5282SOL    HW116745   3.515   1.317   3.663
 5282SOL    HW216746   3.478   1.476   3.678
 5283SOL     OW16747   4.964   6.629   1.881
 5283SOL    HW116748   5.036   6.607   1.816
 5283SOL    HW216749   4.996   6.701   1.942
 5284SOL     OW16750   5.423   4.488   3.439
 5284SOL    HW116751   5.413   4.571   3.384
 5284SOL    HW216752   5.451   4.412   3.380
 5285SOL     OW16753   2.894   4.855   4.315
 5285SOL    HW116754   2.933   4.916   4.384
 5285SOL    HW216755   2.925   4.883   4.224
 5286SOL     OW16756   2.343   4.382   1.256
 5286SOL    HW116757   2.278   4.388   1.179
 5286SOL    HW216758   2.302   4.422   1.337
 5287SOL     OW16759   2.761   1.603   0.801
 5287SOL    HW116760   2.828   1.648   0.860
 5287SOL    HW216761   2.791   1.509   0.784
 5288SOL     OW16762   3.882   0.073   1.365
 5288SOL    HW116763   3.879   0.004   1.292
 5288SOL    HW216764   3.863   0.029   1.453
 5289SOL     OW16765   1.506   5.032   0.130
 5289SOL    HW116766   1.521   4.934   0.120
 5289SOL    HW216767   1.582   5.083   0.089
 5290SOL     OW16768   2.741   4.960   6.308
 5290SOL    HW116769   2.676   4.885   6.318
 5290SOL    HW216770   2.703   5.029   6.246
 5291SOL     OW16771   2.508   5.519   5.456
 5291SOL    HW116772   2.526   5.444   5.519
 5291SOL    HW216773   2.531   5.490   5.363
 5292SOL     OW16774   6.116   2.892   0.490
 5292SOL    HW116775   6.107   2.892   0.391
 5292SOL    HW216776   6.026   2.899   0.532
 5293SOL     OW16777   0.776   1.002   5.182
 5293SOL    HW116778   0.776   1.101   5.168
 5293SOL    HW216779   0.870   0.969   5.188
 5294SOL     OW16780   5.360   3.490   6.680
 5294SOL    HW116781   5.459   3.486   6.694
 5294SOL    HW216782   5.333   3.581   6.650
 5295SOL     OW16783   5.332   1.388   2.677
 5295SOL    HW116784   5.365   1.331   2.753
 5295SOL    HW216785   5.335   1.335   2.592
 5296SOL     OW16786   1.535   5.221   6.768
 5296SOL    HW116787   1.593   5.289   6.723
 5296SOL    HW216788   1.444   5.260   6.781
 5297SOL     OW16789   1.779   2.580   0.934
 5297SOL    HW116790   1.875   2.561   0.957
 5297SOL    HW216791   1.720   2.519   0.987
 5298SOL     OW16792   6.411   5.684   2.084
 5298SOL    HW116793   6.358   5.757   2.041
 5298SOL    HW216794   6.407   5.601   2.028
 5299SOL     OW16795   2.221   0.580   1.381
 5299SOL    HW116796   2.291   0.603   1.314
 5299SOL    HW216797   2.172   0.662   1.409
 5300SOL     OW16798   0.531   5.512   3.411
 5300SOL    HW116799   0.502   5.522   3.316
 5300SOL    HW216800   0.614   5.457   3.415
 5301SOL     OW16801   3.823   1.268   0.041
 5301SOL    HW116802   3.736   1.284   7.024
 5301SOL    HW216803   3.809   1.204   0.117
 5302SOL     OW16804   6.471   4.149   2.124
 5302SOL    HW116805   6.491   4.220   2.058
 5302SOL    HW216806   6.400   4.181   2.188
 5303SOL     OW16807   6.467   5.608   3.983
 5303SOL    HW116808   6.409   5.550   4.041
 5303SOL    HW216809   6.420   5.694   3.964
 5304SOL     OW16810   5.006   2.088   6.302
 5304SOL    HW116811   5.064   2.084   6.220
 5304SOL    HW216812   5.046   2.152   6.367
 5305SOL     OW16813   1.664   1.034   4.224
 5305SOL    HW116814   1.712   1.005   4.307
 5305SOL    HW216815   1.725   1.089   4.168
 5306SOL     OW16816   2.777   5.941   5.389
 5306SOL    HW116817   2.851   5.892   5.344
 5306SOL    HW216818   2.699   5.880   5.402
 5307SOL     OW16819   4.618   6.437   5.831
 5307SOL    HW116820   4.536   6.481   5.868
 5307SOL    HW216821   4.600   6.339   5.816
 5308SOL     OW16822   0.388   0.612   3.839
 5308SOL    HW116823   0.325   0.617   3.761
 5308SOL    HW216824   0.401   0.516   3.865
 5309SOL     OW16825   4.038   3.572   3.274
 5309SOL    HW116826   4.088   3.606   3.354
 5309SOL    HW216827   4.023   3.647   3.210
 5310SOL     OW16828   4.978   2.636   1.610
 5310SOL    HW116829   5.011   2.662   1.701
 5310SOL    HW216830   4.886   2.673   1.596
 5311SOL     OW16831   1.371   5.708   6.689
 5311SOL    HW116832   1.393   5.629   6.631
 5311SOL    HW216833   1.342   5.676   6.779
 5312SOL     OW16834   0.790   5.294   2.237
 5312SOL    HW116835   0.824   5.200   2.234
 5312SOL    HW216836   0.822   5.339   2.320
 5313SOL     OW16837   1.067   5.552   6.768
 5313SOL    HW116838   1.090   5.514   6.678
 5313SOL    HW216839   1.148   5.549   6.827
 5314SOL     OW16840   4.066   4.981   0.433
 5314SOL    HW116841   4.127   5.060   0.435
 5314SOL    HW216842   3.974   5.011   0.409
 5315SOL     OW16843   4.820   4.111   2.158
 5315SOL    HW116844   4.732   4.146   2.124
 5315SOL    HW216845   4.881   4.096   2.080
 5316SOL     OW16846   0.024   5.344   4.953
 5316SOL    HW116847   0.022   5.245   4.946
 5316SOL    HW216848   6.965   5.382   4.923
 5317SOL     OW16849   5.701   0.898   3.436
 5317SOL    HW116850   5.618   0.896   3.381
 5317SOL    HW216851   5.748   0.985   3.424
 5318SOL     OW16852   6.954   2.338   4.850
 5318SOL    HW116853   6.916   2.257   4.805
 5318SOL    HW216854   0.017   2.355   4.814
 5319SOL     OW16855   5.691   0.197   6.548
 5319SOL    HW116856   5.709   0.268   6.617
 5319SOL    HW216857   5.764   0.197   6.480
 5320SOL     OW16858   6.130   4.272   6.762
 5320SOL    HW116859   6.089   4.360   6.739
 5320SOL    HW216860   6.138   4.263   6.861
 5321SOL     OW16861   1.689   4.990   4.298
 5321SOL    HW116862   1.617   4.960   4.361
 5321SOL    HW216863   1.647   5.022   4.213
 5322SOL     OW16864   3.806   6.459   6.997
 5322SOL    HW116865   3.752   6.462   0.052
 5322SOL    HW216866   3.898   6.494   7.014
 5323SOL     OW16867   4.193   1.968   0.710
 5323SOL    HW116868   4.181   2.036   0.638
 5323SOL    HW216869   4.134   1.889   0.693
 5324SOL     OW16870   3.771   1.961   2.023
 5324SOL    HW116871   3.760   1.931   1.928
 5324SOL    HW216872   3.710   2.038   2.040
 5325SOL     OW16873   4.785   6.666   2.622
 5325SOL    HW116874   4.871   6.643   2.668
 5325SOL    HW216875   4.759   6.591   2.561
 5326SOL     OW16876   0.162   5.731   1.701
 5326SOL    HW116877   0.067   5.760   1.703
 5326SOL    HW216878   0.169   5.637   1.733
 5327SOL     OW16879   0.472   6.549   4.786
 5327SOL    HW116880   0.428   6.638   4.775
 5327SOL    HW216881   0.447   6.510   4.875
 5328SOL     OW16882   3.612   3.512   6.133
 5328SOL    HW116883   3.614   3.527   6.034
 5328SOL    HW216884   3.547   3.438   6.154
 5329SOL     OW16885   0.303   4.419   0.180
 5329SOL    HW116886   0.385   4.393   0.128
 5329SOL    HW216887   0.250   4.337   0.201
 5330SOL     OW16888   4.055   3.349   0.139
 5330SOL    HW116889   4.002   3.342   0.055
 5330SOL    HW216890   4.082   3.444   0.155
 5331SOL     OW16891   4.584   2.208   0.622
 5331SOL    HW116892   4.522   2.216   0.544
 5331SOL    HW216893   4.677   2.227   0.591
 5332SOL     OW16894   6.270   5.077   0.367
 5332SOL    HW116895   6.289   5.067   0.465
 5332SOL    HW216896   6.293   5.170   0.338
 5333SOL     OW16897   2.349   0.722   3.623
 5333SOL    HW116898   2.362   0.737   3.721
 5333SOL    HW216899   2.362   0.809   3.574
 5334SOL     OW16900   4.616   4.893   3.753
 5334SOL    HW116901   4.639   4.954   3.829
 5334SOL    HW216902   4.583   4.806   3.789
 5335SOL     OW16903   6.690   4.650   2.395
 5335SOL    HW116904   6.780   4.681   2.426
 5335SOL    HW216905   6.651   4.587   2.462
 5336SOL     OW16906   2.095   1.692   4.162
 5336SOL    HW116907   2.014   1.635   4.153
 5336SOL    HW216908   2.105   1.750   4.081
 5337SOL     OW16909   6.185   4.402   1.374
 5337SOL    HW116910   6.261   4.413   1.310
 5337SOL    HW216911   6.155   4.492   1.406
 5338SOL     OW16912   6.135   2.827   0.004
 5338SOL    HW116913   6.228   2.857   7.014
 5338SOL    HW216914   6.120   2.737   6.993
 5339SOL     OW16915   5.858   2.126   2.326
 5339SOL    HW116916   5.874   2.086   2.236
 5339SOL    HW216917   5.836   2.053   2.391
 5340SOL     OW16918   5.110   3.216   2.092
 5340SOL    HW116919   5.181   3.169   2.039
 5340SOL    HW216920   5.138   3.219   2.188
 5341SOL     OW16921   4.627   4.809   3.104
 5341SOL    HW116922   4.583   4.871   3.168
 5341SOL    HW216923   4.568   4.797   3.023
 5342SOL     OW16924   5.947   6.854   5.946
 5342SOL    HW116925   5.886   6.775   5.935
 5342SOL    HW216926   6.019   6.830   6.011
 5343SOL     OW16927   3.886   3.572   5.236
 5343SOL    HW116928   3.907   3.504   5.165
 5343SOL    HW216929   3.788   3.569   5.257
 5344SOL     OW16930   0.648   1.584   0.197
 5344SOL    HW116931   0.581   1.536   0.139
 5344SOL    HW216932   0.733   1.596   0.147
 5345SOL     OW16933   4.621   1.412   6.926
 5345SOL    HW116934   4.634   1.486   6.861
 5345SOL    HW216935   4.523   1.392   6.934
 5346SOL     OW16936   2.590   5.140   3.661
 5346SOL    HW116937   2.512   5.089   3.696
 5346SOL    HW216938   2.653   5.077   3.614
 5347SOL     OW16939   6.886   2.457   3.539
 5347SOL    HW116940   6.860   2.542   3.586
 5347SOL    HW216941   6.879   2.470   3.440
 5348SOL     OW16942   6.108   1.581   4.753
 5348SOL    HW116943   6.085   1.497   4.801
 5348SOL    HW216944   6.063   1.659   4.796
 5349SOL     OW16945   0.544   2.745   1.940
 5349SOL    HW116946   0.625   2.711   1.987
 5349SOL    HW216947   0.528   2.690   1.858
 5350SOL     OW16948   1.689   7.017   5.853
 5350SOL    HW116949   1.671   6.918   5.852
 5350SOL    HW216950   1.684   0.021   5.947
 5351SOL     OW16951   0.229   5.613   1.443
 5351SOL    HW116952   0.190   5.660   1.523
 5351SOL    HW216953   0.234   5.677   1.366
 5352SOL     OW16954   1.745   3.877   2.779
 5352SOL    HW116955   1.667   3.936   2.802
 5352SOL    HW216956   1.820   3.896   2.843
 5353SOL     OW16957   3.833   5.276   3.787
 5353SOL    HW116958   3.864   5.228   3.869
 5353SOL    HW216959   3.864   5.227   3.706
 5354SOL     OW16960   3.533   5.169   0.554
 5354SOL    HW116961   3.567   5.082   0.520
 5354SOL    HW216962   3.611   5.226   0.582
 5355SOL     OW16963   5.175   5.516   5.263
 5355SOL    HW116964   5.110   5.454   5.306
 5355SOL    HW216965   5.163   5.608   5.299
 5356SOL     OW16966   0.012   3.680   1.498
 5356SOL    HW116967   6.979   3.723   1.432
 5356SOL    HW216968   6.988   3.643   1.574
 5357SOL     OW16969   4.652   4.688   1.786
 5357SOL    HW116970   4.578   4.633   1.825
 5357SOL    HW216971   4.689   4.641   1.706
 5358SOL     OW16972   4.320   1.504   0.154
 5358SOL    HW116973   4.326   1.601   0.129
 5358SOL    HW216974   4.231   1.468   0.127
 5359SOL     OW16975   2.347   1.933   0.459
 5359SOL    HW116976   2.269   1.869   0.459
 5359SOL    HW216977   2.370   1.957   0.553
 5360SOL     OW16978   5.311   5.078   4.065
 5360SOL    HW116979   5.257   5.139   4.122
 5360SOL    HW216980   5.365   5.017   4.123
 5361SOL     OW16981   3.431   6.235   2.711
 5361SOL    HW116982   3.516   6.189   2.686
 5361SOL    HW216983   3.415   6.224   2.809
 5362SOL     OW16984   5.310   6.942   2.315
 5362SOL    HW116985   5.230   6.889   2.342
 5362SOL    HW216986   5.280   7.028   2.274
 5363SOL     OW16987   5.366   6.597   4.930
 5363SOL    HW116988   5.400   6.615   5.022
 5363SOL    HW216989   5.443   6.574   4.870
 5364SOL     OW16990   5.288   0.852   2.560
 5364SOL    HW116991   5.310   0.846   2.462
 5364SOL    HW216992   5.371   0.872   2.612
 5365SOL     OW16993   3.448   3.210   3.653
 5365SOL    HW116994   3.534   3.163   3.670
 5365SOL    HW216995   3.450   3.252   3.563
 5366SOL     OW16996   6.944   0.102   1.461
 5366SOL    HW116997   6.958   0.201   1.449
 5366SOL    HW216998   0.003   0.055   1.453
 5367SOL     OW16999   5.973   0.176   0.430
 5367SOL    HW117000   6.039   0.242   0.394
 5367SOL    HW217001   5.915   0.221   0.498
 5368SOL     OW17002   6.832   6.093   1.926
 5368SOL    HW117003   6.834   6.110   1.828
 5368SOL    HW217004   6.748   6.130   1.965
 5369SOL     OW17005   2.697   5.176   1.755
 5369SOL    HW117006   2.678   5.120   1.836
 5369SOL    HW217007   2.792   5.206   1.758
 5370SOL     OW17008   3.948   3.879   1.627
 5370SOL    HW117009   4.027   3.819   1.636
 5370SOL    HW217010   3.933   3.900   1.531
 5371SOL     OW17011   6.531   5.057   4.888
 5371SOL    HW117012   6.481   4.971   4.875
 5371SOL    HW217013   6.466   5.133   4.890
 5372SOL     OW17014   1.956   6.901   2.959
 5372SOL    HW117015   1.895   6.974   2.989
 5372SOL    HW217016   2.048   6.917   2.995
 5373SOL     OW17017   4.380   6.552   5.930
 5373SOL    HW117018   4.308   6.566   5.862
 5373SOL    HW217019   4.344   6.503   6.009
 5374SOL     OW17020   2.539   5.112   1.384
 5374SOL    HW117021   2.484   5.031   1.404
 5374SOL    HW217022   2.531   5.177   1.460
 5375SOL     OW17023   0.563   6.612   5.485
 5375SOL    HW117024   0.497   6.590   5.556
 5375SOL    HW217025   0.553   6.707   5.458
 5376SOL     OW17026   1.300   2.401   1.582
 5376SOL    HW117027   1.254   2.312   1.584
 5376SOL    HW217028   1.393   2.391   1.547
 5377SOL     OW17029   2.320   0.809   3.042
 5377SOL    HW117030   2.362   0.805   3.132
 5377SOL    HW217031   2.291   0.717   3.014
 5378SOL     OW17032   5.397   0.754   1.016
 5378SOL    HW117033   5.310   0.717   1.050
 5378SOL    HW217034   5.391   0.767   0.917
 5379SOL     OW17035   1.518   2.592   5.246
 5379SOL    HW117036   1.456   2.562   5.173
 5379SOL    HW217037   1.552   2.684   5.224
 5380SOL     OW17038   3.765   0.306   1.261
 5380SOL    HW117039   3.853   0.333   1.223
 5380SOL    HW217040   3.776   0.222   1.315
 5381SOL     OW17041   5.543   6.735   2.825
 5381SOL    HW117042   5.566   6.642   2.797
 5381SOL    HW217043   5.444   6.748   2.818
 5382SOL     OW17044   4.304   1.630   2.796
 5382SOL    HW117045   4.295   1.706   2.732
 5382SOL    HW217046   4.400   1.619   2.822
 5383SOL     OW17047   1.223   2.971   3.938
 5383SOL    HW117048   1.148   3.036   3.949
 5383SOL    HW217049   1.188   2.886   3.899
 5384SOL     OW17050   4.473   5.585   5.334
 5384SOL    HW117051   4.453   5.515   5.403
 5384SOL    HW217052   4.395   5.647   5.327
 5385SOL     OW17053   6.635   2.570   5.882
 5385SOL    HW117054   6.665   2.517   5.803
 5385SOL    HW217055   6.570   2.516   5.936
 5386SOL     OW17056   6.176   3.031   4.010
 5386SOL    HW117057   6.128   3.008   4.095
 5386SOL    HW217058   6.204   2.948   3.963
 5387SOL     OW17059   2.671   0.238   2.977
 5387SOL    HW117060   2.705   0.157   2.929
 5387SOL    HW217061   2.748   0.285   3.021
 5388SOL     OW17062   0.806   6.327   2.799
 5388SOL    HW117063   0.717   6.289   2.774
 5388SOL    HW217064   0.839   6.284   2.883
 5389SOL     OW17065   4.592   1.655   5.037
 5389SOL    HW117066   4.513   1.619   4.987
 5389SOL    HW217067   4.604   1.752   5.015
 5390SOL     OW17068   6.349   3.461   4.021
 5390SOL    HW117069   6.283   3.483   3.950
 5390SOL    HW217070   6.439   3.445   3.980
 5391SOL     OW17071   2.233   2.646   0.183
 5391SOL    HW117072   2.222   2.608   0.275
 5391SOL    HW217073   2.151   2.697   0.157
 5392SOL     OW17074   4.543   2.569   3.518
 5392SOL    HW117075   4.457   2.518   3.514
 5392SOL    HW217076   4.531   2.648   3.579
 5393SOL     OW17077   4.123   0.490   5.147
 5393SOL    HW117078   4.130   0.399   5.107
 5393SOL    HW217079   4.108   0.483   5.246
 5394SOL     OW17080   1.631   6.965   1.068
 5394SOL    HW117081   1.551   7.014   1.033
 5394SOL    HW217082   1.645   6.988   1.164
 5395SOL     OW17083   5.207   1.441   1.448
 5395SOL    HW117084   5.132   1.391   1.404
 5395SOL    HW217085   5.261   1.377   1.503
 5396SOL     OW17086   5.711   5.609   2.707
 5396SOL    HW117087   5.800   5.629   2.746
 5396SOL    HW217088   5.655   5.559   2.773
 5397SOL     OW17089   6.109   1.824   2.988
 5397SOL    HW117090   6.017   1.786   2.996
 5397SOL    HW217091   6.118   1.901   3.052
 5398SOL     OW17092   4.824   2.402   3.974
 5398SOL    HW117093   4.869   2.318   4.004
 5398SOL    HW217094   4.803   2.396   3.876
 5399SOL     OW17095   1.377   0.044   5.171
 5399SOL    HW117096   1.448   0.101   5.130
 5399SOL    HW217097   1.320   0.099   5.232
 5400SOL     OW17098   3.760   2.921   0.978
 5400SOL    HW117099   3.709   3.003   1.003
 5400SOL    HW217100   3.851   2.947   0.945
 5401SOL     OW17101   5.191   4.925   3.072
 5401SOL    HW117102   5.260   4.993   3.050
 5401SOL    HW217103   5.164   4.877   2.989
 5402SOL     OW17104   2.443   0.018   0.381
 5402SOL    HW117105   2.475   0.010   0.475
 5402SOL    HW217106   2.383   0.098   0.374
 5403SOL     OW17107   5.293   3.050   0.033
 5403SOL    HW117108   5.200   3.066   0.067
 5403SOL    HW217109   5.335   3.138   0.008
 5404SOL     OW17110   0.730   0.856   0.871
 5404SOL    HW117111   0.707   0.769   0.915
 5404SOL    HW217112   0.825   0.855   0.841
 5405SOL     OW17113   5.138   5.650   0.557
 5405SOL    HW117114   5.207   5.719   0.536
 5405SOL    HW217115   5.099   5.668   0.647
 5406SOL     OW17116   2.627   0.449   4.781
 5406SOL    HW117117   2.608   0.544   4.755
 5406SOL    HW217118   2.722   0.440   4.810
 5407SOL     OW17119   2.619   0.597   1.447
 5407SOL    HW117120   2.653   0.656   1.374
 5407SOL    HW217121   2.603   0.651   1.529
 5408SOL     OW17122   2.589   2.155   4.410
 5408SOL    HW117123   2.685   2.183   4.408
 5408SOL    HW217124   2.583   2.055   4.414
 5409SOL     OW17125   6.873   2.739   1.347
 5409SOL    HW117126   6.798   2.724   1.283
 5409SOL    HW217127   6.864   2.830   1.388
 5410SOL     OW17128   0.370   2.510   1.183
 5410SOL    HW117129   0.469   2.496   1.185
 5410SOL    HW217130   0.324   2.423   1.195
 5411SOL     OW17131   4.865   4.832   6.715
 5411SOL    HW117132   4.876   4.910   6.776
 5411SOL    HW217133   4.841   4.751   6.768
 5412SOL     OW17134   1.219   1.584   6.570
 5412SOL    HW117135   1.139   1.641   6.586
 5412SOL    HW217136   1.233   1.571   6.472
 5413SOL     OW17137   6.456   0.278   5.495
 5413SOL    HW117138   6.526   0.266   5.425
 5413SOL    HW217139   6.413   0.368   5.484
 5414SOL     OW17140   7.012   4.657   5.647
 5414SOL    HW117141   6.980   4.710   5.568
 5414SOL    HW217142   0.042   4.714   5.703
 5415SOL     OW17143   2.927   6.964   0.374
 5415SOL    HW117144   3.008   6.982   0.430
 5415SOL    HW217145   2.868   0.015   0.375
 5416SOL     OW17146   2.626   5.190   5.200
 5416SOL    HW117147   2.657   5.099   5.226
 5416SOL    HW217148   2.531   5.186   5.170
 5417SOL     OW17149   4.984   6.196   3.529
 5417SOL    HW117150   4.957   6.286   3.494
 5417SOL    HW217151   4.906   6.134   3.524
 5418SOL     OW17152   5.994   4.725   4.128
 5418SOL    HW117153   5.985   4.775   4.214
 5418SOL    HW217154   5.922   4.754   4.065
 5419SOL     OW17155   4.167   6.662   6.534
 5419SOL    HW117156   4.069   6.666   6.555
 5419SOL    HW217157   4.209   6.585   6.581
 5420SOL     OW17158   1.306   1.543   1.460
 5420SOL    HW117159   1.309   1.641   1.445
 5420SOL    HW217160   1.394   1.511   1.495
 5421SOL     OW17161   3.434   5.332   2.186
 5421SOL    HW117162   3.406   5.407   2.126
 5421SOL    HW217163   3.509   5.281   2.143
 5422SOL     OW17164   1.974   6.021   3.921
 5422SOL    HW117165   2.005   5.936   3.878
 5422SOL    HW217166   1.910   5.999   3.995
 5423SOL     OW17167   6.490   6.251   1.855
 5423SOL    HW117168   6.397   6.249   1.819
 5423SOL    HW217169   6.505   6.170   1.912
 5424SOL     OW17170   4.812   4.229   4.965
 5424SOL    HW117171   4.795   4.278   4.879
 5424SOL    HW217172   4.730   4.231   5.022
 5425SOL     OW17173   0.280   3.493   5.446
 5425SOL    HW117174   0.310   3.493   5.542
 5425SOL    HW217175   0.247   3.402   5.422
 5426SOL     OW17176   5.317   5.099   2.217
 5426SOL    HW117177   5.236   5.104   2.275
 5426SOL    HW217178   5.319   5.011   2.170
 5427SOL     OW17179   4.907   2.646   6.716
 5427SOL    HW117180   4.896   2.684   6.808
 5427SOL    HW217181   4.902   2.547   6.721
 5428SOL     OW17182   6.354   5.633   3.060
 5428SOL    HW117183   6.303   5.562   3.011
 5428SOL    HW217184   6.415   5.680   2.997
 5429SOL     OW17185   3.177   0.823   3.857
 5429SOL    HW117186   3.249   0.869   3.804
 5429SOL    HW217187   3.195   0.835   3.954
 5430SOL     OW17188   2.493   3.787   6.075
 5430SOL    HW117189   2.522   3.786   5.980
 5430SOL    HW217190   2.491   3.882   6.108
 5431SOL     OW17191   3.206   4.952   6.128
 5431SOL    HW117192   3.261   4.987   6.204
 5431SOL    HW217193   3.266   4.903   6.064
 5432SOL     OW17194   5.651   5.763   1.333
 5432SOL    HW117195   5.715   5.778   1.258
 5432SOL    HW217196   5.588   5.841   1.339
 5433SOL     OW17197   1.557   0.388   1.376
 5433SOL    HW117198   1.627   0.435   1.322
 5433SOL    HW217199   1.503   0.455   1.427
 5434SOL     OW17200   5.014   1.329   5.006
 5434SOL    HW117201   5.023   1.273   5.089
 5434SOL    HW217202   4.918   1.355   4.994
 5435SOL     OW17203   6.578   3.912   0.891
 5435SOL    HW117204   6.625   3.970   0.825
 5435SOL    HW217205   6.644   3.875   0.957
 5436SOL     OW17206   1.323   5.626   2.622
 5436SOL    HW117207   1.322   5.542   2.677
 5436SOL    HW217208   1.235   5.637   2.576
 5437SOL     OW17209   3.118   5.022   6.600
 5437SOL    HW117210   3.037   5.029   6.658
 5437SOL    HW217211   3.136   5.110   6.556
 5438SOL     OW17212   4.858   3.822   2.241
 5438SOL    HW117213   4.807   3.908   2.250
 5438SOL    HW217214   4.797   3.750   2.209
 5439SOL     OW17215   0.998   4.004   0.656
 5439SOL    HW117216   1.084   4.025   0.704
 5439SOL    HW217217   0.923   4.053   0.700
 5440SOL     OW17218   5.883   6.344   3.270
 5440SOL    HW117219   5.810   6.309   3.328
 5440SOL    HW217220   5.908   6.275   3.202
 5441SOL     OW17221   4.835   2.839   4.096
 5441SOL    HW117222   4.894   2.777   4.149
 5441SOL    HW217223   4.760   2.787   4.055
 5442SOL     OW17224   5.277   0.078   4.062
 5442SOL    HW117225   5.360   0.085   4.118
 5442SOL    HW217226   5.291   0.125   3.975
 5443SOL     OW17227   5.062   6.778   5.266
 5443SOL    HW117228   4.993   6.794   5.195
 5443SOL    HW217229   5.020   6.784   5.356
 5444SOL     OW17230   0.396   1.568   3.839
 5444SOL    HW117231   0.489   1.535   3.856
 5444SOL    HW217232   0.397   1.668   3.834
 5445SOL     OW17233   4.995   5.367   5.430
 5445SOL    HW117234   4.981   5.276   5.393
 5445SOL    HW217235   5.065   5.364   5.502
 5446SOL     OW17236   0.112   4.961   5.276
 5446SOL    HW117237   0.162   4.897   5.335
 5446SOL    HW217238   0.015   4.958   5.298
 5447SOL     OW17239   1.667   1.902   0.870
 5447SOL    HW117240   1.584   1.940   0.831
 5447SOL    HW217241   1.704   1.964   0.939
 5448SOL     OW17242   4.496   6.211   3.635
 5448SOL    HW117243   4.434   6.151   3.684
 5448SOL    HW217244   4.444   6.266   3.569
 5449SOL     OW17245   3.250   1.501   2.655
 5449SOL    HW117246   3.319   1.443   2.699
 5449SOL    HW217247   3.219   1.458   2.570
 5450SOL     OW17248   4.131   6.337   1.757
 5450SOL    HW117249   4.144   6.271   1.832
 5450SOL    HW217250   4.033   6.352   1.743
 5451SOL     OW17251   1.251   0.236   3.380
 5451SOL    HW117252   1.239   0.156   3.439
 5451SOL    HW217253   1.220   0.317   3.429
 5452SOL     OW17254   1.859   4.668   1.750
 5452SOL    HW117255   1.891   4.575   1.767
 5452SOL    HW217256   1.762   4.666   1.723
 5453SOL     OW17257   5.795   4.144   2.856
 5453SOL    HW117258   5.887   4.106   2.848
 5453SOL    HW217259   5.736   4.106   2.785
 5454SOL     OW17260   5.997   5.604   2.712
 5454SOL    HW117261   6.035   5.536   2.649
 5454SOL    HW217262   6.016   5.696   2.677
 5455SOL     OW17263   0.185   1.655   2.303
 5455SOL    HW117264   0.163   1.590   2.229
 5455SOL    HW217265   0.183   1.748   2.267
 5456SOL     OW17266   4.863   0.794   6.752
 5456SOL    HW117267   4.959   0.821   6.747
 5456SOL    HW217268   4.837   0.783   6.848
 5457SOL     OW17269   6.429   2.165   0.863
 5457SOL    HW117270   6.414   2.072   0.896
 5457SOL    HW217271   6.509   2.167   0.803
 5458SOL     OW17272   6.408   4.399   1.213
 5458SOL    HW117273   6.396   4.317   1.157
 5458SOL    HW217274   6.468   4.463   1.165
 5459SOL     OW17275   1.503   4.497   5.380
 5459SOL    HW117276   1.534   4.418   5.433
 5459SOL    HW217277   1.580   4.558   5.363
 5460SOL     OW17278   1.840   1.400   0.854
 5460SOL    HW117279   1.884   1.418   0.942
 5460SOL    HW217280   1.903   1.349   0.796
 5461SOL     OW17281   0.122   1.666   6.330
 5461SOL    HW117282   0.113   1.708   6.240
 5461SOL    HW217283   0.031   1.650   6.368
 5462SOL     OW17284   5.356   6.343   6.928
 5462SOL    HW117285   5.445   6.384   6.948
 5462SOL    HW217286   5.299   6.408   6.878
 5463SOL     OW17287   0.061   2.544   6.526
 5463SOL    HW117288   0.041   2.470   6.591
 5463SOL    HW217289   7.007   2.567   6.476
 5464SOL     OW17290   5.998   6.468   5.722
 5464SOL    HW117291   5.945   6.505   5.645
 5464SOL    HW217292   5.990   6.368   5.722
 5465SOL     OW17293   6.371   6.826   2.961
 5465SOL    HW117294   6.391   6.776   3.045
 5465SOL    HW217295   6.280   6.867   2.967
 5466SOL     OW17296   5.825   2.324   5.085
 5466SOL    HW117297   5.739   2.349   5.129
 5466SOL    HW217298   5.807   2.297   4.990
 5467SOL     OW17299   5.966   4.003   3.479
 5467SOL    HW117300   5.960   3.979   3.382
 5467SOL    HW217301   5.983   4.101   3.488
 5468SOL     OW17302   6.719   1.939   2.728
 5468SOL    HW117303   6.740   1.848   2.692
 5468SOL    HW217304   6.728   2.007   2.654
 5469SOL     OW17305   1.854   0.567   6.147
 5469SOL    HW117306   1.949   0.561   6.179
 5469SOL    HW217307   1.803   0.627   6.209
 5470SOL     OW17308   4.001   5.511   4.649
 5470SOL    HW117309   4.058   5.499   4.730
 5470SOL    HW217310   3.974   5.607   4.640
 5471SOL     OW17311   5.000   0.036   2.724
 5471SOL    HW117312   5.083   0.091   2.710
 5471SOL    HW217313   4.919   0.092   2.704
 5472SOL     OW17314   2.850   2.118   6.351
 5472SOL    HW117315   2.836   2.082   6.444
 5472SOL    HW217316   2.815   2.052   6.285
 5473SOL     OW17317   2.004   4.776   0.445
 5473SOL    HW117318   2.049   4.843   0.505
 5473SOL    HW217319   2.063   4.757   0.367
 5474SOL     OW17320   1.362   5.570   3.716
 5474SOL    HW117321   1.411   5.496   3.671
 5474SOL    HW217322   1.403   5.589   3.805
 5475SOL     OW17323   1.771   2.056   0.118
 5475SOL    HW117324   1.724   2.097   0.197
 5475SOL    HW217325   1.738   1.963   0.105
 5476SOL     OW17326   1.929   5.291   5.311
 5476SOL    HW117327   1.993   5.355   5.353
 5476SOL    HW217328   1.836   5.329   5.317
 5477SOL     OW17329   1.494   4.381   3.138
 5477SOL    HW117330   1.518   4.368   3.234
 5477SOL    HW217331   1.450   4.299   3.103
 5478SOL     OW17332   5.352   5.534   6.245
 5478SOL    HW117333   5.269   5.532   6.299
 5478SOL    HW217334   5.365   5.445   6.200
 5479SOL     OW17335   4.670   1.332   4.769
 5479SOL    HW117336   4.756   1.349   4.722
 5479SOL    HW217337   4.621   1.258   4.724
 5480SOL     OW17338   6.084   4.721   4.678
 5480SOL    HW117339   5.999   4.741   4.630
 5480SOL    HW217340   6.091   4.778   4.760
 5481SOL     OW17341   3.895   0.941   5.881
 5481SOL    HW117342   3.985   0.918   5.846
 5481SOL    HW217343   3.827   0.876   5.845
 5482SOL     OW17344   3.915   3.592   2.145
 5482SOL    HW117345   3.820   3.564   2.161
 5482SOL    HW217346   3.963   3.518   2.098
 5483SOL     OW17347   6.603   2.757   5.684
 5483SOL    HW117348   6.679   2.765   5.620
 5483SOL    HW217349   6.633   2.709   5.767
 5484SOL     OW17350   6.904   6.823   3.824
 5484SOL    HW117351   6.857   6.799   3.909
 5484SOL    HW217352   6.975   6.756   3.804
 5485SOL     OW17353   2.738   0.251   4.487
 5485SOL    HW117354   2.823   0.272   4.535
 5485SOL    HW217355   2.689   0.336   4.468
 5486SOL     OW17356   1.468   0.187   3.980
 5486SOL    HW117357   1.524   0.110   4.010
 5486SOL    HW217358   1.474   0.195   3.880
 5487SOL     OW17359   5.986   3.921   6.940
 5487SOL    HW117360   5.919   3.896   7.010
 5487SOL    HW217361   6.078   3.901   6.974
 5488SOL     OW17362   4.356   1.789   0.106
 5488SOL    HW117363   4.428   1.793   0.176
 5488SOL    HW217364   4.300   1.872   0.112
 5489SOL     OW17365   1.600   4.707   1.958
 5489SOL    HW117366   1.546   4.745   2.033
 5489SOL    HW217367   1.542   4.650   1.901
 5490SOL     OW17368   3.273   7.011   0.403
 5490SOL    HW117369   3.366   6.997   0.370
 5490SOL    HW217370   3.265   0.074   0.442
 5491SOL     OW17371   1.439   4.387   6.509
 5491SOL    HW117372   1.388   4.310   6.471
 5491SOL    HW217373   1.401   4.413   6.598
 5492SOL     OW17374   1.191   1.280   6.165
 5492SOL    HW117375   1.143   1.344   6.225
 5492SOL    HW217376   1.209   1.325   6.077
 5493SOL     OW17377   3.862   2.898   5.137
 5493SOL    HW117378   3.853   2.997   5.121
 5493SOL    HW217379   3.957   2.870   5.120
 5494SOL     OW17380   6.828   2.893   0.633
 5494SOL    HW117381   6.837   2.793   0.626
 5494SOL    HW217382   6.786   2.928   0.550
 5495SOL     OW17383   3.389   2.991   0.551
 5495SOL    HW117384   3.424   3.032   0.635
 5495SOL    HW217385   3.340   2.907   0.573
 5496SOL     OW17386   3.478   5.980   1.614
 5496SOL    HW117387   3.447   5.908   1.552
 5496SOL    HW217388   3.507   6.060   1.561
 5497SOL     OW17389   0.489   2.221   3.149
 5497SOL    HW117390   0.474   2.156   3.074
 5497SOL    HW217391   0.541   2.300   3.115
 5498SOL     OW17392   4.941   0.985   0.019
 5498SOL    HW117393   4.867   0.918   0.012
 5498SOL    HW217394   4.915   1.059   0.081
 5499SOL     OW17395   0.776   1.146   3.508
 5499SOL    HW117396   0.853   1.112   3.455
 5499SOL    HW217397   0.752   1.238   3.476
 5500SOL     OW17398   2.166   5.683   0.001
 5500SOL    HW117399   2.172   5.591   0.041
 5500SOL    HW217400   2.220   5.685   6.946
 5501SOL     OW17401   3.496   6.960   1.557
 5501SOL    HW117402   3.455   7.006   1.636
 5501SOL    HW217403   3.593   6.986   1.551
 5502SOL     OW17404   6.219   4.289   6.051
 5502SOL    HW117405   6.168   4.266   6.134
 5502SOL    HW217406   6.159   4.337   5.987
 5503SOL     OW17407   0.796   5.123   2.508
 5503SOL    HW117408   0.862   5.190   2.474
 5503SOL    HW217409   0.705   5.164   2.511
 5504SOL     OW17410   3.013   0.924   4.965
 5504SOL    HW117411   3.029   0.872   5.049
 5504SOL    HW217412   2.997   1.020   4.988
 5505SOL     OW17413   1.705   5.993   4.787
 5505SOL    HW117414   1.680   6.084   4.753
 5505SOL    HW217415   1.795   5.997   4.830
 5506SOL     OW17416   6.794   0.188   5.071
 5506SOL    HW117417   6.856   0.266   5.069
 5506SOL    HW217418   6.811   0.130   4.991
 5507SOL     OW17419   2.883   6.605   3.259
 5507SOL    HW117420   2.914   6.698   3.236
 5507SOL    HW217421   2.912   6.542   3.188
 5508SOL     OW17422   2.347   1.283   0.059
 5508SOL    HW117423   2.326   1.314   0.151
 5508SOL    HW217424   2.402   1.199   0.063
 5509SOL     OW17425   0.294   6.177   0.795
 5509SOL    HW117426   0.198   6.152   0.781
 5509SOL    HW217427   0.343   6.167   0.708
 5510SOL     OW17428   5.136   6.532   0.097
 5510SOL    HW117429   5.152   6.591   0.018
 5510SOL    HW217430   5.136   6.436   0.068
 5511SOL     OW17431   1.782   0.385   3.686
 5511SOL    HW117432   1.770   0.429   3.597
 5511SOL    HW217433   1.822   0.294   3.673
 5512SOL     OW17434   6.237   1.933   0.530
 5512SOL    HW117435   6.177   2.007   0.497
 5512SOL    HW217436   6.320   1.930   0.474
 5513SOL     OW17437   5.095   4.250   4.946
 5513SOL    HW117438   5.127   4.234   4.853
 5513SOL    HW217439   4.999   4.225   4.954
 5514SOL     OW17440   5.318   5.488   2.612
 5514SOL    HW117441   5.263   5.536   2.680
 5514SOL    HW217442   5.371   5.416   2.656
 5515SOL     OW17443   6.395   3.332   1.061
 5515SOL    HW117444   6.482   3.293   1.033
 5515SOL    HW217445   6.322   3.264   1.047
 5516SOL     OW17446   1.591   3.126   0.384
 5516SOL    HW117447   1.538   3.104   0.302
 5516SOL    HW217448   1.682   3.159   0.357
 5517SOL     OW17449   2.720   2.286   2.468
 5517SOL    HW117450   2.794   2.277   2.534
 5517SOL    HW217451   2.658   2.208   2.476
 5518SOL     OW17452   6.785   5.682   6.051
 5518SOL    HW117453   6.745   5.608   6.105
 5518SOL    HW217454   6.878   5.659   6.025
 5519SOL     OW17455   5.095   3.913   2.913
 5519SOL    HW117456   5.143   3.924   2.826
 5519SOL    HW217457   5.069   3.817   2.924
 5520SOL     OW17458   0.648   4.689   2.410
 5520SOL    HW117459   0.697   4.606   2.435
 5520SOL    HW217460   0.565   4.665   2.359
 5521SOL     OW17461   4.249   5.779   2.236
 5521SOL    HW117462   4.242   5.788   2.335
 5521SOL    HW217463   4.342   5.753   2.211
 5522SOL     OW17464   1.904   3.308   1.068
 5522SOL    HW117465   1.905   3.319   1.168
 5522SOL    HW217466   1.814   3.276   1.039
 5523SOL     OW17467   3.446   6.725   2.948
 5523SOL    HW117468   3.462   6.682   2.859
 5523SOL    HW217469   3.352   6.758   2.952
 5524SOL     OW17470   6.731   5.853   4.806
 5524SOL    HW117471   6.730   5.910   4.888
 5524SOL    HW217472   6.664   5.779   4.816
 5525SOL     OW17473   6.583   4.557   0.105
 5525SOL    HW117474   6.620   4.564   0.012
 5525SOL    HW217475   6.639   4.493   0.158
 5526SOL     OW17476   6.080   3.829   4.668
 5526SOL    HW117477   6.001   3.884   4.694
 5526SOL    HW217478   6.152   3.839   4.737
 5527SOL     OW17479   0.624   3.217   2.987
 5527SOL    HW117480   0.589   3.288   3.048
 5527SOL    HW217481   0.575   3.222   2.900
 5528SOL     OW17482   0.864   2.233   5.980
 5528SOL    HW117483   0.778   2.224   6.031
 5528SOL    HW217484   0.922   2.301   6.025
 5529SOL     OW17485   2.219   0.347   4.640
 5529SOL    HW117486   2.301   0.289   4.640
 5529SOL    HW217487   2.231   0.421   4.706
 5530SOL     OW17488   7.009   1.914   2.001
 5530SOL    HW117489   6.965   1.826   1.981
 5530SOL    HW217490   0.044   1.902   2.076
 5531SOL     OW17491   3.950   3.369   4.226
 5531SOL    HW117492   3.869   3.314   4.211
 5531SOL    HW217493   3.998   3.338   4.308
 5532SOL     OW17494   1.664   1.421   1.358
 5532SOL    HW117495   1.747   1.367   1.372
 5532SOL    HW217496   1.596   1.399   1.428
 5533SOL     OW17497   2.582   0.459   2.826
 5533SOL    HW117498   2.613   0.371   2.861
 5533SOL    HW217499   2.652   0.528   2.842
 5534SOL     OW17500   1.167   3.188   6.400
 5534SOL    HW117501   1.100   3.166   6.471
 5534SOL    HW217502   1.124   3.243   6.329
 5535SOL     OW17503   6.937   3.545   3.156
 5535SOL    HW117504   7.016   3.510   3.106
 5535SOL    HW217505   6.916   3.484   3.232
 5536SOL     OW17506   2.964   1.020   4.371
 5536SOL    HW117507   2.948   1.119   4.380
 5536SOL    HW217508   3.059   1.004   4.344
 5537SOL     OW17509   3.290   1.508   4.465
 5537SOL    HW117510   3.377   1.459   4.455
 5537SOL    HW217511   3.272   1.561   4.383
 5538SOL     OW17512   3.052   6.991   4.609
 5538SOL    HW117513   3.079   6.965   4.516
 5538SOL    HW217514   3.125   0.017   4.650
 5539SOL     OW17515   0.610   1.512   0.778
 5539SOL    HW117516   0.519   1.485   0.811
 5539SOL    HW217517   0.613   1.502   0.678
 5540SOL     OW17518   5.014   3.365   2.526
 5540SOL    HW117519   4.994   3.451   2.479
 5540SOL    HW217520   4.953   3.294   2.494
 5541SOL     OW17521   5.384   3.206   5.973
 5541SOL    HW117522   5.357   3.267   5.898
 5541SOL    HW217523   5.341   3.238   6.058
 5542SOL     OW17524   6.048   6.050   5.962
 5542SOL    HW117525   6.029   6.099   6.047
 5542SOL    HW217526   6.019   5.954   5.972
 5543SOL     OW17527   1.722   5.399   6.665
 5543SOL    HW117528   1.810   5.372   6.704
 5543SOL    HW217529   1.715   5.499   6.665
 5544SOL     OW17530   5.519   5.503   5.770
 5544SOL    HW117531   5.595   5.487   5.834
 5544SOL    HW217532   5.502   5.601   5.762
 5545SOL     OW17533   5.006   1.102   2.366
 5545SOL    HW117534   4.939   1.051   2.314
 5545SOL    HW217535   4.980   1.199   2.369
 5546SOL     OW17536   1.211   6.525   3.961
 5546SOL    HW117537   1.160   6.448   3.922
 5546SOL    HW217538   1.291   6.545   3.904
 5547SOL     OW17539   3.870   0.604   5.043
 5547SOL    HW117540   3.854   0.697   5.076
 5547SOL    HW217541   3.959   0.572   5.075
 5548SOL     OW17542   6.679   3.795   5.671
 5548SOL    HW117543   6.757   3.818   5.730
 5548SOL    HW217544   6.670   3.865   5.600
 5549SOL     OW17545   3.801   4.413   1.186
 5549SOL    HW117546   3.842   4.380   1.270
 5549SOL    HW217547   3.873   4.436   1.120
 5550SOL     OW17548   2.455   4.631   2.139
 5550SOL    HW117549   2.378   4.568   2.147
 5550SOL    HW217550   2.504   4.614   2.054
 5551SOL     OW17551   1.302   6.371   2.661
 5551SOL    HW117552   1.223   6.430   2.673
 5551SOL    HW217553   1.386   6.424   2.674
 5552SOL     OW17554   6.308   0.949   6.715
 5552SOL    HW117555   6.211   0.969   6.707
 5552SOL    HW217556   6.341   0.975   6.806
 5553SOL     OW17557   4.837   6.518   6.385
 5553SOL    HW117558   4.889   6.513   6.299
 5553SOL    HW217559   4.815   6.613   6.405
 5554SOL     OW17560   4.754   2.121   0.312
 5554SOL    HW117561   4.807   2.112   0.228
 5554SOL    HW217562   4.775   2.208   0.356
 5555SOL     OW17563   1.099   3.857   2.125
 5555SOL    HW117564   1.142   3.773   2.159
 5555SOL    HW217565   1.120   3.933   2.187
 5556SOL     OW17566   6.200   1.321   3.273
 5556SOL    HW117567   6.110   1.354   3.302
 5556SOL    HW217568   6.265   1.397   3.274
 5557SOL     OW17569   4.213   6.048   2.097
 5557SOL    HW117570   4.215   5.965   2.153
 5557SOL    HW217571   4.167   6.029   2.010
 5558SOL     OW17572   2.955   3.783   6.348
 5558SOL    HW117573   2.958   3.683   6.358
 5558SOL    HW217574   2.887   3.808   6.280
 5559SOL     OW17575   2.146   0.417   1.886
 5559SOL    HW117576   2.146   0.502   1.938
 5559SOL    HW217577   2.082   0.352   1.928
 5560SOL     OW17578   0.315   5.320   1.316
 5560SOL    HW117579   0.415   5.319   1.308
 5560SOL    HW217580   0.277   5.391   1.258
 5561SOL     OW17581   2.257   0.815   4.389
 5561SOL    HW117582   2.314   0.799   4.470
 5561SOL    HW217583   2.190   0.886   4.409
 5562SOL     OW17584   3.870   2.800   6.812
 5562SOL    HW117585   3.878   2.815   6.713
 5562SOL    HW217586   3.961   2.808   6.853
 5563SOL     OW17587   3.004   4.787   2.833
 5563SOL    HW117588   2.986   4.862   2.897
 5563SOL    HW217589   3.102   4.779   2.818
 5564SOL     OW17590   4.719   0.167   0.740
 5564SOL    HW117591   4.772   0.144   0.658
 5564SOL    HW217592   4.702   0.266   0.742
 5565SOL     OW17593   3.794   2.228   6.005
 5565SOL    HW117594   3.705   2.187   6.027
 5565SOL    HW217595   3.785   2.286   5.924
 5566SOL     OW17596   1.419   4.669   6.850
 5566SOL    HW117597   1.493   4.712   6.797
 5566SOL    HW217598   1.333   4.717   6.832
 5567SOL     OW17599   6.985   3.234   0.822
 5567SOL    HW117600   6.927   3.309   0.790
 5567SOL    HW217601   6.928   3.155   0.843
 5568SOL     OW17602   5.451   0.968   3.321
 5568SOL    HW117603   5.497   1.056   3.311
 5568SOL    HW217604   5.380   0.976   3.392
 5569SOL     OW17605   2.181   1.637   2.437
 5569SOL    HW117606   2.205   1.695   2.359
 5569SOL    HW217607   2.127   1.691   2.502
 5570SOL     OW17608   6.569   4.061   4.554
 5570SOL    HW117609   6.586   3.983   4.493
 5570SOL    HW217610   6.655   4.092   4.593
 5571SOL     OW17611   6.022   6.029   1.254
 5571SOL    HW117612   6.110   6.056   1.293
 5571SOL    HW217613   5.949   6.083   1.297
 5572SOL     OW17614   1.153   3.815   4.771
 5572SOL    HW117615   1.187   3.779   4.684
 5572SOL    HW217616   1.056   3.836   4.764
 5573SOL     OW17617   1.614   5.765   4.865
 5573SOL    HW117618   1.584   5.715   4.784
 5573SOL    HW217619   1.652   5.853   4.837
 5574SOL     OW17620   0.180   1.922   2.235
 5574SOL    HW117621   0.154   2.019   2.234
 5574SOL    HW217622   0.269   1.911   2.190
 5575SOL     OW17623   6.959   1.317   0.983
 5575SOL    HW117624   0.004   1.339   0.919
 5575SOL    HW217625   6.949   1.391   1.050
 5576SOL     OW17626   0.998   4.933   1.527
 5576SOL    HW117627   1.032   4.858   1.583
 5576SOL    HW217628   1.020   4.916   1.431
 5577SOL     OW17629   2.942   2.716   6.829
 5577SOL    HW117630   2.844   2.732   6.822
 5577SOL    HW217631   2.984   2.724   6.738
 5578SOL     OW17632   3.579   3.533   1.734
 5578SOL    HW117633   3.509   3.590   1.778
 5578SOL    HW217634   3.534   3.458   1.686
 5579SOL     OW17635   0.388   3.517   0.492
 5579SOL    HW117636   0.340   3.604   0.482
 5579SOL    HW217637   0.322   3.442   0.498
 5580SOL     OW17638   4.864   2.410   5.490
 5580SOL    HW117639   4.916   2.327   5.472
 5580SOL    HW217640   4.830   2.448   5.404
 5581SOL     OW17641   2.451   0.332   1.737
 5581SOL    HW117642   2.353   0.329   1.759
 5581SOL    HW217643   2.463   0.332   1.638
 5582SOL     OW17644   3.401   3.528   6.358
 5582SOL    HW117645   3.339   3.606   6.352
 5582SOL    HW217646   3.389   3.470   6.277
 5583SOL     OW17647   4.802   0.795   2.638
 5583SOL    HW117648   4.790   0.815   2.735
 5583SOL    HW217649   4.877   0.850   2.601
 5584SOL     OW17650   6.888   4.762   4.430
 5584SOL    HW117651   6.854   4.798   4.343
 5584SOL    HW217652   6.952   4.688   4.413
 5585SOL     OW17653   5.762   5.735   3.010
 5585SOL    HW117654   5.691   5.769   2.948
 5585SOL    HW217655   5.769   5.796   3.090
 5586SOL     OW17656   0.334   2.855   5.766
 5586SOL    HW117657   0.353   2.953   5.765
 5586SOL    HW217658   0.244   2.839   5.808
 5587SOL     OW17659   4.281   6.357   0.571
 5587SOL    HW117660   4.254   6.443   0.527
 5587SOL    HW217661   4.206   6.326   0.630
 5588SOL     OW17662   2.157   5.150   2.954
 5588SOL    HW117663   2.139   5.112   3.045
 5588SOL    HW217664   2.199   5.240   2.964
 5589SOL     OW17665   6.456   3.377   5.576
 5589SOL    HW117666   6.364   3.373   5.536
 5589SOL    HW217667   6.509   3.298   5.547
 5590SOL     OW17668   0.170   6.127   3.514
 5590SOL    HW117669   0.202   6.036   3.491
 5590SOL    HW217670   0.218   6.195   3.458
 5591SOL     OW17671   5.762   1.595   1.696
 5591SOL    HW117672   5.861   1.598   1.686
 5591SOL    HW217673   5.737   1.611   1.791
 5592SOL     OW17674   1.892   5.764   2.233
 5592SOL    HW117675   1.830   5.686   2.246
 5592SOL    HW217676   1.860   5.821   2.158
 5593SOL     OW17677   0.992   2.873   0.536
 5593SOL    HW117678   0.976   2.785   0.581
 5593SOL    HW217679   0.909   2.929   0.543
 5594SOL     OW17680   4.614   1.025   6.378
 5594SOL    HW117681   4.608   0.926   6.363
 5594SOL    HW217682   4.595   1.045   6.474
 5595SOL     OW17683   0.160   0.968   4.700
 5595SOL    HW117684   0.256   0.958   4.675
 5595SOL    HW217685   0.119   0.878   4.715
 5596SOL     OW17686   4.525   0.746   2.602
 5596SOL    HW117687   4.624   0.740   2.596
 5596SOL    HW217688   4.493   0.830   2.559
 5597SOL     OW17689   4.896   3.209   4.510
 5597SOL    HW117690   4.933   3.186   4.601
 5597SOL    HW217691   4.799   3.185   4.507
 5598SOL     OW17692   5.441   4.215   4.110
 5598SOL    HW117693   5.540   4.221   4.094
 5598SOL    HW217694   5.392   4.242   4.027
 5599SOL     OW17695   0.921   2.254   2.783
 5599SOL    HW117696   0.892   2.161   2.761
 5599SOL    HW217697   0.967   2.295   2.705
 5600SOL     OW17698   1.132   1.497   1.720
 5600SOL    HW117699   1.163   1.502   1.625
 5600SOL    HW217700   1.128   1.401   1.749
 5601SOL     OW17701   2.094   0.469   6.278
 5601SOL    HW117702   2.023   0.448   6.344
 5601SOL    HW217703   2.178   0.495   6.325
 5602SOL     OW17704   0.236   1.546   1.139
 5602SOL    HW117705   0.333   1.545   1.114
 5602SOL    HW217706   0.213   1.635   1.177
 5603SOL     OW17707   5.639   2.834   0.617
 5603SOL    HW117708   5.727   2.878   0.595
 5603SOL    HW217709   5.582   2.832   0.536
 5604SOL     OW17710   6.497   2.302   4.940
 5604SOL    HW117711   6.461   2.214   4.972
 5604SOL    HW217712   6.513   2.298   4.841
 5605SOL     OW17713   0.260   1.404   5.519
 5605SOL    HW117714   0.240   1.500   5.538
 5605SOL    HW217715   0.207   1.345   5.580
 5606SOL     OW17716   4.770   6.644   0.377
 5606SOL    HW117717   4.761   6.544   0.382
 5606SOL    HW217718   4.866   6.669   0.380
 5607SOL     OW17719   5.276   1.147   2.529
 5607SOL    HW117720   5.249   1.059   2.568
 5607SOL    HW217721   5.213   1.173   2.456
 5608SOL     OW17722   5.564   0.206   4.057
 5608SOL    HW117723   5.583   0.217   4.155
 5608SOL    HW217724   5.615   0.128   4.022
 5609SOL     OW17725   3.198   5.904   0.894
 5609SOL    HW117726   3.116   5.849   0.909
 5609SOL    HW217727   3.253   5.864   0.821
 5610SOL     OW17728   4.011   5.725   0.282
 5610SOL    HW117729   3.922   5.731   0.328
 5610SOL    HW217730   4.068   5.802   0.311
 5611SOL     OW17731   1.407   6.046   2.936
 5611SOL    HW117732   1.311   6.031   2.961
 5611SOL    HW217733   1.421   6.141   2.910
 5612SOL     OW17734   3.876   2.183   6.250
 5612SOL    HW117735   3.850   2.193   6.154
 5612SOL    HW217736   3.876   2.273   6.294
 5613SOL     OW17737   6.221   4.485   3.082
 5613SOL    HW117738   6.151   4.553   3.103
 5613SOL    HW217739   6.180   4.394   3.077
 5614SOL     OW17740   4.645   2.008   4.549
 5614SOL    HW117741   4.604   2.090   4.510
 5614SOL    HW217742   4.743   2.021   4.560
 5615SOL     OW17743   0.141   1.884   4.071
 5615SOL    HW117744   0.069   1.906   4.136
 5615SOL    HW217745   0.101   1.867   3.981
 5616SOL     OW17746   2.758   1.835   4.974
 5616SOL    HW117747   2.822   1.899   5.017
 5616SOL    HW217748   2.664   1.862   4.997
 5617SOL     OW17749   2.725   6.405   5.771
 5617SOL    HW117750   2.678   6.318   5.759
 5617SOL    HW217751   2.702   6.466   5.695
 5618SOL     OW17752   0.076   4.863   3.823
 5618SOL    HW117753   0.027   4.877   3.737
 5618SOL    HW217754   0.116   4.950   3.853
 5619SOL     OW17755   3.085   3.871   5.274
 5619SOL    HW117756   3.091   3.901   5.179
 5619SOL    HW217757   3.070   3.772   5.278
 5620SOL     OW17758   4.123   3.691   0.719
 5620SOL    HW117759   4.190   3.625   0.753
 5620SOL    HW217760   4.119   3.770   0.780
 5621SOL     OW17761   2.136   2.315   0.255
 5621SOL    HW117762   2.162   2.391   0.314
 5621SOL    HW217763   2.214   2.253   0.243
 5622SOL     OW17764   4.379   0.283   6.090
 5622SOL    HW117765   4.367   0.257   5.994
 5622SOL    HW217766   4.301   0.339   6.119
 5623SOL     OW17767   2.999   5.588   5.162
 5623SOL    HW117768   3.022   5.499   5.203
 5623SOL    HW217769   2.921   5.627   5.210
 5624SOL     OW17770   1.091   4.088   3.676
 5624SOL    HW117771   1.181   4.124   3.650
 5624SOL    HW217772   1.091   3.989   3.666
 5625SOL     OW17773   6.086   0.997   5.066
 5625SOL    HW117774   6.069   1.009   4.969
 5625SOL    HW217775   6.168   1.047   5.093
 5626SOL     OW17776   2.498   6.016   4.342
 5626SOL    HW117777   2.477   6.103   4.386
 5626SOL    HW217778   2.415   5.980   4.300
 5627SOL     OW17779   1.007   5.625   6.338
 5627SOL    HW117780   0.926   5.606   6.284
 5627SOL    HW217781   1.076   5.670   6.281
 5628SOL     OW17782   1.366   2.232   0.538
 5628SOL    HW117783   1.275   2.231   0.580
 5628SOL    HW217784   1.432   2.271   0.603
 5629SOL     OW17785   3.702   3.825   3.046
 5629SOL    HW117786   3.636   3.886   3.091
 5629SOL    HW217787   3.667   3.798   2.957
 5630SOL     OW17788   1.682   3.921   0.042
 5630SOL    HW117789   1.680   3.983   0.121
 5630SOL    HW217790   1.596   3.926   7.021
 5631SOL     OW17791   4.354   1.730   0.937
 5631SOL    HW117792   4.444   1.767   0.916
 5631SOL    HW217793   4.297   1.801   0.978
 5632SOL     OW17794   2.860   2.414   6.077
 5632SOL    HW117795   2.880   2.404   6.174
 5632SOL    HW217796   2.841   2.509   6.055
 5633SOL     OW17797   6.012   4.025   3.965
 5633SOL    HW117798   5.931   4.016   3.907
 5633SOL    HW217799   6.010   4.113   4.011
 5634SOL     OW17800   2.088   4.561   4.112
 5634SOL    HW117801   2.171   4.577   4.165
 5634SOL    HW217802   2.039   4.648   4.101
 5635SOL     OW17803   1.964   4.359   5.223
 5635SOL    HW117804   1.901   4.286   5.196
 5635SOL    HW217805   2.033   4.323   5.285
 5636SOL     OW17806   4.407   6.313   4.362
 5636SOL    HW117807   4.436   6.393   4.310
 5636SOL    HW217808   4.478   6.287   4.426
 5637SOL     OW17809   5.458   0.176   3.483
 5637SOL    HW117810   5.530   0.140   3.423
 5637SOL    HW217811   5.375   0.122   3.472
 5638SOL     OW17812   6.137   3.625   1.283
 5638SOL    HW117813   6.190   3.709   1.266
 5638SOL    HW217814   6.058   3.623   1.222
 5639SOL     OW17815   0.402   1.262   2.051
 5639SOL    HW117816   0.448   1.343   2.014
 5639SOL    HW217817   0.390   1.194   1.979
 5640SOL     OW17818   3.163   0.539   3.760
 5640SOL    HW117819   3.161   0.603   3.837
 5640SOL    HW217820   3.156   0.590   3.674
 5641SOL     OW17821   1.091   4.983   5.154
 5641SOL    HW117822   1.131   4.983   5.246
 5641SOL    HW217823   1.034   4.902   5.142
 5642SOL     OW17824   1.675   6.743   5.611
 5642SOL    HW117825   1.766   6.705   5.594
 5642SOL    HW217826   1.648   6.802   5.536
 5643SOL     OW17827   4.708   1.130   5.637
 5643SOL    HW117828   4.804   1.148   5.620
 5643SOL    HW217829   4.651   1.185   5.576
 5644SOL     OW17830   3.248   0.314   5.104
 5644SOL    HW117831   3.282   0.407   5.094
 5644SOL    HW217832   3.323   0.254   5.132
 5645SOL     OW17833   6.393   4.601   3.796
 5645SOL    HW117834   6.334   4.673   3.761
 5645SOL    HW217835   6.341   4.540   3.856
 5646SOL     OW17836   1.689   5.611   3.402
 5646SOL    HW117837   1.785   5.603   3.428
 5646SOL    HW217838   1.677   5.690   3.343
 5647SOL     OW17839   4.686   6.011   1.787
 5647SOL    HW117840   4.595   6.017   1.829
 5647SOL    HW217841   4.755   6.039   1.853
 5648SOL     OW17842   2.252   5.863   2.380
 5648SOL    HW117843   2.301   5.852   2.466
 5648SOL    HW217844   2.283   5.947   2.334
 5649SOL     OW17845   0.978   6.829   4.348
 5649SOL    HW117846   0.992   6.852   4.444
 5649SOL    HW217847   1.062   6.788   4.312
 5650SOL     OW17848   1.080   5.383   1.207
 5650SOL    HW117849   1.019   5.314   1.246
 5650SOL    HW217850   1.131   5.428   1.281
 5651SOL     OW17851   1.615   1.697   1.336
 5651SOL    HW117852   1.674   1.743   1.403
 5651SOL    HW217853   1.651   1.607   1.315
 5652SOL     OW17854   6.323   6.274   1.088
 5652SOL    HW117855   6.385   6.292   1.012
 5652SOL    HW217856   6.230   6.297   1.062
 5653SOL     OW17857   6.360   6.768   6.479
 5653SOL    HW117858   6.317   6.857   6.466
 5653SOL    HW217859   6.313   6.719   6.553
 5654SOL     OW17860   0.866   6.434   4.478
 5654SOL    HW117861   0.850   6.452   4.381
 5654SOL    HW217862   0.788   6.469   4.531
 5655SOL     OW17863   0.370   2.797   3.900
 5655SOL    HW117864   0.436   2.757   3.835
 5655SOL    HW217865   0.277   2.782   3.866
 5656SOL     OW17866   6.751   4.181   6.698
 5656SOL    HW117867   6.816   4.108   6.680
 5656SOL    HW217868   6.670   4.143   6.744
 5657SOL     OW17869   5.899   3.382   6.147
 5657SOL    HW117870   5.952   3.300   6.126
 5657SOL    HW217871   5.801   3.361   6.143
 5658SOL     OW17872   2.872   3.130   6.239
 5658SOL    HW117873   2.779   3.119   6.275
 5658SOL    HW217874   2.880   3.219   6.194
 5659SOL     OW17875   3.333   3.383   6.148
 5659SOL    HW117876   3.282   3.390   6.062
 5659SOL    HW217877   3.302   3.304   6.199
 5660SOL     OW17878   4.769   6.782   5.949
 5660SOL    HW117879   4.844   6.847   5.960
 5660SOL    HW217880   4.793   6.695   5.993
 5661SOL     OW17881   1.832   6.327   4.868
 5661SOL    HW117882   1.744   6.315   4.821
 5661SOL    HW217883   1.850   6.246   4.924
 5662SOL     OW17884   2.917   6.785   2.950
 5662SOL    HW117885   2.931   6.791   3.048
 5662SOL    HW217886   2.850   6.713   2.930
 5663SOL     OW17887   2.657   2.573   0.747
 5663SOL    HW117888   2.631   2.562   0.843
 5663SOL    HW217889   2.702   2.661   0.734
 5664SOL     OW17890   6.971   3.693   4.273
 5664SOL    HW117891   7.019   3.736   4.349
 5664SOL    HW217892   6.886   3.651   4.306
 5665SOL     OW17893   1.232   0.667   0.536
 5665SOL    HW117894   1.263   0.758   0.509
 5665SOL    HW217895   1.287   0.598   0.489
 5666SOL     OW17896   6.772   0.057   3.433
 5666SOL    HW117897   6.771   7.019   3.507
 5666SOL    HW217898   6.706   0.129   3.453
 5667SOL     OW17899   1.473   5.095   4.762
 5667SOL    HW117900   1.394   5.101   4.823
 5667SOL    HW217901   1.509   5.186   4.743
 5668SOL     OW17902   5.783   3.277   3.264
 5668SOL    HW117903   5.772   3.270   3.165
 5668SOL    HW217904   5.749   3.366   3.295
 5669SOL     OW17905   6.295   3.806   0.814
 5669SOL    HW117906   6.391   3.837   0.812
 5669SOL    HW217907   6.292   3.709   0.837
 5670SOL     OW17908   1.561   3.689   3.907
 5670SOL    HW117909   1.566   3.610   3.968
 5670SOL    HW217910   1.648   3.737   3.907
 5671SOL     OW17911   5.806   6.611   5.512
 5671SOL    HW117912   5.791   6.698   5.465
 5671SOL    HW217913   5.721   6.559   5.516
 5672SOL     OW17914   5.053   4.057   6.381
 5672SOL    HW117915   5.152   4.062   6.396
 5672SOL    HW217916   5.035   4.011   6.294
 5673SOL     OW17917   2.070   6.299   1.381
 5673SOL    HW117918   2.134   6.228   1.410
 5673SOL    HW217919   2.119   6.368   1.327
 5674SOL     OW17920   1.083   4.681   5.048
 5674SOL    HW117921   1.150   4.645   5.113
 5674SOL    HW217922   1.020   4.609   5.021
 5675SOL     OW17923   4.451   2.811   6.358
 5675SOL    HW117924   4.528   2.760   6.397
 5675SOL    HW217925   4.424   2.771   6.271
 5676SOL     OW17926   2.341   1.947   2.995
 5676SOL    HW117927   2.437   1.972   2.981
 5676SOL    HW217928   2.288   2.029   3.015
 5677SOL     OW17929   1.014   0.812   0.792
 5677SOL    HW117930   0.995   0.722   0.754
 5677SOL    HW217931   1.034   0.803   0.890
 5678SOL     OW17932   3.831   0.243   2.970
 5678SOL    HW117933   3.772   0.162   2.970
 5678SOL    HW217934   3.917   0.222   2.925
 5679SOL     OW17935   5.770   1.051   3.884
 5679SOL    HW117936   5.729   0.972   3.838
 5679SOL    HW217937   5.698   1.116   3.908
 5680SOL     OW17938   1.399   4.968   6.670
 5680SOL    HW117939   1.358   5.007   6.588
 5680SOL    HW217940   1.455   5.036   6.716
 5681SOL     OW17941   0.581   3.620   1.855
 5681SOL    HW117942   0.560   3.685   1.928
 5681SOL    HW217943   0.496   3.580   1.821
 5682SOL     OW17944   2.213   5.122   4.284
 5682SOL    HW117945   2.194   5.026   4.305
 5682SOL    HW217946   2.238   5.170   4.369
 5683SOL     OW17947   3.687   1.753   6.455
 5683SOL    HW117948   3.769   1.698   6.435
 5683SOL    HW217949   3.606   1.697   6.440
 5684SOL     OW17950   2.239   3.652   5.962
 5684SOL    HW117951   2.323   3.695   5.930
 5684SOL    HW217952   2.239   3.555   5.938
 5685SOL     OW17953   2.815   1.647   3.473
 5685SOL    HW117954   2.741   1.599   3.519
 5685SOL    HW217955   2.883   1.677   3.540
 5686SOL     OW17956   3.251   1.539   4.984
 5686SOL    HW117957   3.283   1.602   5.055
 5686SOL    HW217958   3.279   1.573   4.894
 5687SOL     OW17959   0.750   5.736   5.903
 5687SOL    HW117960   0.699   5.726   5.818
 5687SOL    HW217961   0.785   5.829   5.911
 5688SOL     OW17962   1.610   2.440   2.957
 5688SOL    HW117963   1.526   2.486   2.985
 5688SOL    HW217964   1.689   2.499   2.976
 5689SOL     OW17965   2.496   1.256   2.446
 5689SOL    HW117966   2.457   1.346   2.429
 5689SOL    HW217967   2.550   1.258   2.530
 5690SOL     OW17968   1.304   5.685   0.181
 5690SOL    HW117969   1.276   5.772   0.140
 5690SOL    HW217970   1.246   5.666   0.260
 5691SOL     OW17971   3.588   0.893   2.196
 5691SOL    HW117972   3.680   0.928   2.213
 5691SOL    HW217973   3.591   0.793   2.185
 5692SOL     OW17974   5.599   4.429   0.509
 5692SOL    HW117975   5.607   4.407   0.412
 5692SOL    HW217976   5.512   4.392   0.544
 5693SOL     OW17977   4.472   1.230   1.843
 5693SOL    HW117978   4.413   1.291   1.791
 5693SOL    HW217979   4.532   1.180   1.781
 5694SOL     OW17980   1.099   0.748   2.662
 5694SOL    HW117981   1.154   0.715   2.739
 5694SOL    HW217982   1.026   0.807   2.697
 5695SOL     OW17983   1.986   1.469   3.399
 5695SOL    HW117984   2.008   1.411   3.321
 5695SOL    HW217985   1.918   1.538   3.372
 5696SOL     OW17986   0.519   6.605   4.248
 5696SOL    HW117987   0.580   6.529   4.270
 5696SOL    HW217988   0.563   6.691   4.273
 5697SOL     OW17989   5.688   2.350   2.329
 5697SOL    HW117990   5.713   2.415   2.256
 5697SOL    HW217991   5.731   2.262   2.311
 5698SOL     OW17992   1.576   4.616   3.777
 5698SOL    HW117993   1.511   4.560   3.725
 5698SOL    HW217994   1.641   4.658   3.715
 5699SOL     OW17995   1.287   2.267   3.154
 5699SOL    HW117996   1.192   2.259   3.125
 5699SOL    HW217997   1.321   2.359   3.131
 5700SOL     OW17998   6.301   6.643   3.974
 5700SOL    HW117999   6.255   6.731   3.981
 5700SOL    HW218000   6.258   6.588   3.902
 5701SOL     OW18001   0.467   0.187   1.634
 5701SOL    HW118002   0.501   0.256   1.697
 5701SOL    HW218003   0.531   0.110   1.631
 5702SOL     OW18004   2.166   6.088   4.123
 5702SOL    HW118005   2.231   6.012   4.129
 5702SOL    HW218006   2.083   6.058   4.077
 5703SOL     OW18007   6.938   4.222   0.089
 5703SOL    HW118008   6.930   4.311   0.045
 5703SOL    HW218009   6.864   4.162   0.059
 5704SOL     OW18010   5.163   4.188   3.602
 5704SOL    HW118011   5.124   4.171   3.512
 5704SOL    HW218012   5.155   4.106   3.658
 5705SOL     OW18013   4.787   6.062   6.726
 5705SOL    HW118014   4.820   6.153   6.698
 5705SOL    HW218015   4.750   6.014   6.646
 5706SOL     OW18016   5.223   2.672   2.245
 5706SOL    HW118017   5.153   2.742   2.233
 5706SOL    HW218018   5.287   2.701   2.317
 5707SOL     OW18019   6.232   0.164   0.793
 5707SOL    HW118020   6.208   0.067   0.787
 5707SOL    HW218021   6.200   0.212   0.712
 5708SOL     OW18022   4.799   5.726   2.230
 5708SOL    HW118023   4.777   5.823   2.237
 5708SOL    HW218024   4.896   5.716   2.205
 5709SOL     OW18025   0.632   1.395   2.470
 5709SOL    HW118026   0.616   1.301   2.498
 5709SOL    HW218027   0.726   1.421   2.490
 5710SOL     OW18028   3.478   1.991   0.419
 5710SOL    HW118029   3.503   1.936   0.499
 5710SOL    HW218030   3.554   2.052   0.396
 5711SOL     OW18031   5.055   1.323   1.711
 5711SOL    HW118032   5.145   1.342   1.750
 5711SOL    HW218033   5.065   1.277   1.623
 5712SOL     OW18034   6.090   6.810   0.383
 5712SOL    HW118035   6.181   6.851   0.387
 5712SOL    HW218036   6.063   6.780   0.475
 5713SOL     OW18037   2.856   3.774   1.851
 5713SOL    HW118038   2.774   3.791   1.796
 5713SOL    HW218039   2.933   3.824   1.812
 5714SOL     OW18040   6.615   6.403   1.261
 5714SOL    HW118041   6.615   6.451   1.174
 5714SOL    HW218042   6.661   6.458   1.330
 5715SOL     OW18043   0.008   7.001   2.820
 5715SOL    HW118044   6.998   6.927   2.874
 5715SOL    HW218045   0.107   7.004   2.834
 5716SOL     OW18046   1.231   5.888   5.621
 5716SOL    HW118047   1.309   5.829   5.602
 5716SOL    HW218048   1.147   5.833   5.620
 5717SOL     OW18049   1.441   5.200   0.848
 5717SOL    HW118050   1.440   5.112   0.799
 5717SOL    HW218051   1.350   5.216   0.887
 5718SOL     OW18052   1.341   3.839   0.934
 5718SOL    HW118053   1.334   3.741   0.954
 5718SOL    HW218054   1.399   3.852   0.854
 5719SOL     OW18055   2.618   3.655   0.245
 5719SOL    HW118056   2.566   3.737   0.220
 5719SOL    HW218057   2.693   3.680   0.305
 5720SOL     OW18058   1.263   6.765   4.795
 5720SOL    HW118059   1.265   6.854   4.840
 5720SOL    HW218060   1.219   6.698   4.855
 5721SOL     OW18061   6.102   4.457   0.653
 5721SOL    HW118062   6.085   4.360   0.638
 5721SOL    HW218063   6.041   4.510   0.594
 5722SOL     OW18064   6.568   2.327   5.207
 5722SOL    HW118065   6.665   2.320   5.181
 5722SOL    HW218066   6.515   2.357   5.128
 5723SOL     OW18067   4.130   3.606   0.187
 5723SOL    HW118068   4.085   3.684   0.143
 5723SOL    HW218069   4.205   3.639   0.245
 5724SOL     OW18070   6.048   2.930   4.251
 5724SOL    HW118071   5.957   2.914   4.290
 5724SOL    HW218072   6.080   2.847   4.206
 5725SOL     OW18073   6.305   5.122   4.021
 5725SOL    HW118074   6.285   5.029   3.990
 5725SOL    HW218075   6.386   5.156   3.973
 5726SOL     OW18076   0.055   5.643   4.078
 5726SOL    HW118077   0.051   5.628   4.177
 5726SOL    HW218078   6.994   5.625   4.038
 5727SOL     OW18079   5.937   2.595   4.522
 5727SOL    HW118080   6.018   2.616   4.578
 5727SOL    HW218081   5.893   2.680   4.495
 5728SOL     OW18082   5.301   6.613   5.617
 5728SOL    HW118083   5.302   6.698   5.566
 5728SOL    HW218084   5.212   6.601   5.661
 5729SOL     OW18085   1.537   1.189   6.689
 5729SOL    HW118086   1.529   1.144   6.778
 5729SOL    HW218087   1.508   1.285   6.697
 5730SOL     OW18088   5.879   5.035   5.962
 5730SOL    HW118089   5.924   5.098   6.025
 5730SOL    HW218090   5.784   5.021   5.990
 5731SOL     OW18091   6.815   0.289   3.003
 5731SOL    HW118092   6.840   0.226   3.077
 5731SOL    HW218093   6.896   0.313   2.950
 5732SOL     OW18094   0.533   6.115   3.838
 5732SOL    HW118095   0.542   6.187   3.906
 5732SOL    HW218096   0.541   6.154   3.746
 5733SOL     OW18097   3.397   6.473   5.040
 5733SOL    HW118098   3.478   6.417   5.059
 5733SOL    HW218099   3.341   6.429   4.970
 5734SOL     OW18100   1.340   0.577   5.522
 5734SOL    HW118101   1.350   0.512   5.446
 5734SOL    HW218102   1.258   0.553   5.575
 5735SOL     OW18103   4.120   1.401   0.882
 5735SOL    HW118104   4.075   1.490   0.874
 5735SOL    HW218105   4.209   1.412   0.926
 5736SOL     OW18106   6.398   4.312   0.260
 5736SOL    HW118107   6.493   4.342   0.254
 5736SOL    HW218108   6.395   4.212   0.268
 5737SOL     OW18109   5.636   6.274   0.596
 5737SOL    HW118110   5.590   6.223   0.523
 5737SOL    HW218111   5.637   6.218   0.680
 5738SOL     OW18112   2.072   2.958   6.021
 5738SOL    HW118113   2.136   2.907   6.078
 5738SOL    HW218114   2.095   2.946   5.925
 5739SOL     OW18115   1.786   1.394   6.265
 5739SOL    HW118116   1.865   1.339   6.294
 5739SOL    HW218117   1.813   1.490   6.259
 5740SOL     OW18118   4.133   4.865   0.790
 5740SOL    HW118119   4.115   4.790   0.854
 5740SOL    HW218120   4.167   4.828   0.704
 5741SOL     OW18121   0.392   5.236   4.407
 5741SOL    HW118122   0.401   5.207   4.312
 5741SOL    HW218123   0.297   5.262   4.425
 5742SOL     OW18124   5.215   6.411   2.865
 5742SOL    HW118125   5.279   6.349   2.819
 5742SOL    HW218126   5.219   6.395   2.964
 5743SOL     OW18127   2.333   6.552   5.223
 5743SOL    HW118128   2.389   6.581   5.146
 5743SOL    HW218129   2.369   6.590   5.308
 5744SOL     OW18130   4.827   0.337   1.319
 5744SOL    HW118131   4.845   0.256   1.375
 5744SOL    HW218132   4.731   0.364   1.330
 5745SOL     OW18133   4.077   1.535   4.421
 5745SOL    HW118134   4.066   1.436   4.429
 5745SOL    HW218135   4.174   1.559   4.430
 5746SOL     OW18136   4.867   0.814   0.882
 5746SOL    HW118137   4.824   0.876   0.816
 5746SOL    HW218138   4.895   0.865   0.963
 5747SOL     OW18139   0.121   5.280   2.817
 5747SOL    HW118140   0.029   5.294   2.781
 5747SOL    HW218141   0.181   5.352   2.784
 5748SOL     OW18142   1.530   4.793   0.950
 5748SOL    HW118143   1.440   4.836   0.940
 5748SOL    HW218144   1.525   4.720   1.019
 5749SOL     OW18145   3.100   0.621   4.423
 5749SOL    HW118146   3.062   0.710   4.449
 5749SOL    HW218147   3.053   0.549   4.473
 5750SOL     OW18148   5.811   5.077   4.984
 5750SOL    HW118149   5.837   5.085   4.888
 5750SOL    HW218150   5.724   5.027   4.991
 5751SOL     OW18151   2.464   2.555   4.539
 5751SOL    HW118152   2.379   2.605   4.556
 5751SOL    HW218153   2.505   2.529   4.626
 5752SOL     OW18154   5.801   1.250   6.335
 5752SOL    HW118155   5.858   1.255   6.417
 5752SOL    HW218156   5.746   1.333   6.329
 5753SOL     OW18157   3.246   3.767   6.320
 5753SOL    HW118158   3.150   3.778   6.345
 5753SOL    HW218159   3.260   3.799   6.226
 5754SOL     OW18160   5.491   5.999   1.286
 5754SOL    HW118161   5.541   6.084   1.274
 5754SOL    HW218162   5.439   6.002   1.371
 5755SOL     OW18163   3.392   3.560   5.466
 5755SOL    HW118164   3.342   3.495   5.523
 5755SOL    HW218165   3.328   3.603   5.401
 5756SOL     OW18166   7.012   5.490   3.709
 5756SOL    HW118167   6.969   5.404   3.737
 5756SOL    HW218168   0.072   5.499   3.753
 5757SOL     OW18169   6.417   6.346   2.356
 5757SOL    HW118170   6.414   6.405   2.437
 5757SOL    HW218171   6.501   6.365   2.305
 5758SOL     OW18172   2.763   1.922   4.107
 5758SOL    HW118173   2.721   1.859   4.172
 5758SOL    HW218174   2.725   1.908   4.016
 5759SOL     OW18175   4.697   1.970   6.931
 5759SOL    HW118176   4.694   1.876   6.894
 5759SOL    HW218177   4.604   2.000   6.950
 5760SOL     OW18178   1.595   6.383   2.033
 5760SOL    HW118179   1.563   6.460   1.977
 5760SOL    HW218180   1.534   6.305   2.018
 5761SOL     OW18181   5.978   0.779   5.561
 5761SOL    HW118182   5.897   0.824   5.598
 5761SOL    HW218183   6.018   0.836   5.489
 5762SOL     OW18184   4.819   0.055   0.491
 5762SOL    HW118185   4.721   0.059   0.470
 5762SOL    HW218186   4.867   0.008   0.417
 5763SOL     OW18187   0.710   0.035   0.262
 5763SOL    HW118188   0.652   0.098   0.211
 5763SOL    HW218189   0.788   0.008   0.206
 5764SOL     OW18190   5.606   4.976   6.057
 5764SOL    HW118191   5.570   5.053   6.004
 5764SOL    HW218192   5.533   4.936   6.112
 5765SOL     OW18193   6.355   4.759   6.375
 5765SOL    HW118194   6.365   4.675   6.428
 5765SOL    HW218195   6.260   4.770   6.347
 5766SOL     OW18196   2.608   1.284   1.814
 5766SOL    HW118197   2.509   1.286   1.825
 5766SOL    HW218198   2.636   1.196   1.777
 5767SOL     OW18199   2.144   7.008   0.308
 5767SOL    HW118200   2.243   6.991   0.305
 5767SOL    HW218201   2.101   6.963   0.230
 5768SOL     OW18202   6.838   6.827   3.031
 5768SOL    HW118203   6.762   6.828   2.966
 5768SOL    HW218204   6.802   6.836   3.124
 5769SOL     OW18205   2.690   6.978   3.310
 5769SOL    HW118206   2.647   0.036   3.292
 5769SOL    HW218207   2.694   6.962   3.409
 5770SOL     OW18208   0.058   0.053   0.768
 5770SOL    HW118209   0.045   0.040   0.866
 5770SOL    HW218210   6.999   0.047   0.721
 5771SOL     OW18211   1.678   6.492   1.234
 5771SOL    HW118212   1.602   6.499   1.298
 5771SOL    HW218213   1.724   6.580   1.226
 5772SOL     OW18214   5.678   2.924   0.885
 5772SOL    HW118215   5.665   3.022   0.871
 5772SOL    HW218216   5.661   2.875   0.800
 5773SOL     OW18217   5.894   6.917   3.775
 5773SOL    HW118218   5.924   6.992   3.715
 5773SOL    HW218219   5.916   6.829   3.732
 5774SOL     OW18220   2.368   4.395   3.447
 5774SOL    HW118221   2.403   4.482   3.482
 5774SOL    HW218222   2.391   4.387   3.351
 5775SOL     OW18223   1.746   0.579   1.248
 5775SOL    HW118224   1.794   0.511   1.304
 5775SOL    HW218225   1.809   0.654   1.226
 5776SOL     OW18226   6.727   0.681   6.251
 5776SOL    HW118227   6.758   0.683   6.346
 5776SOL    HW218228   6.778   0.749   6.198
 5777SOL     OW18229   5.745   0.971   4.244
 5777SOL    HW118230   5.845   0.960   4.242
 5777SOL    HW218231   5.702   0.896   4.195
 5778SOL     OW18232   2.530   0.337   2.310
 5778SOL    HW118233   2.608   0.277   2.328
 5778SOL    HW218234   2.544   0.384   2.222
 5779SOL     OW18235   3.692   0.453   0.871
 5779SOL    HW118236   3.639   0.528   0.911
 5779SOL    HW218237   3.785   0.457   0.905
 5780SOL     OW18238   6.512   5.317   1.689
 5780SOL    HW118239   6.486   5.401   1.735
 5780SOL    HW218240   6.430   5.259   1.677
 5781SOL     OW18241   2.213   4.127   4.723
 5781SOL    HW118242   2.232   4.089   4.813
 5781SOL    HW218243   2.182   4.054   4.662
 5782SOL     OW18244   1.550   1.397   1.611
 5782SOL    HW118245   1.626   1.450   1.649
 5782SOL    HW218246   1.512   1.338   1.682
 5783SOL     OW18247   1.740   1.601   0.534
 5783SOL    HW118248   1.800   1.681   0.525
 5783SOL    HW218249   1.657   1.627   0.585
 5784SOL     OW18250   0.670   6.046   0.369
 5784SOL    HW118251   0.647   5.960   0.324
 5784SOL    HW218252   0.604   6.065   0.442
 5785SOL     OW18253   1.342   1.268   1.341
 5785SOL    HW118254   1.353   1.361   1.305
 5785SOL    HW218255   1.420   1.212   1.313
 5786SOL     OW18256   1.325   3.375   1.321
 5786SOL    HW118257   1.281   3.449   1.372
 5786SOL    HW218258   1.255   3.313   1.285
 5787SOL     OW18259   5.708   2.340   4.292
 5787SOL    HW118260   5.724   2.253   4.339
 5787SOL    HW218261   5.745   2.335   4.199
 5788SOL     OW18262   3.094   0.344   1.172
 5788SOL    HW118263   3.139   0.335   1.083
 5788SOL    HW218264   3.096   0.256   1.219
 5789SOL     OW18265   3.910   2.875   6.547
 5789SOL    HW118266   3.994   2.875   6.493
 5789SOL    HW218267   3.831   2.858   6.487
 5790SOL     OW18268   6.456   6.121   4.890
 5790SOL    HW118269   6.439   6.049   4.823
 5790SOL    HW218270   6.554   6.131   4.906
 5791SOL     OW18271   3.132   1.368   2.456
 5791SOL    HW118272   3.167   1.276   2.440
 5791SOL    HW218273   3.032   1.364   2.466
 5792SOL     OW18274   5.225   3.380   3.329
 5792SOL    HW118275   5.265   3.440   3.260
 5792SOL    HW218276   5.244   3.285   3.305
 5793SOL     OW18277   5.850   2.592   5.500
 5793SOL    HW118278   5.782   2.666   5.503
 5793SOL    HW218279   5.803   2.504   5.506
 5794SOL     OW18280   3.217   6.866   6.322
 5794SOL    HW118281   3.212   6.923   6.403
 5794SOL    HW218282   3.204   6.923   6.240
 5795SOL     OW18283   0.967   5.976   1.716
 5795SOL    HW118284   0.973   5.932   1.626
 5795SOL    HW218285   0.977   5.907   1.787
 5796SOL     OW18286   4.871   1.267   6.189
 5796SOL    HW118287   4.805   1.338   6.165
 5796SOL    HW218288   4.964   1.303   6.184
 5797SOL     OW18289   5.820   1.530   0.668
 5797SOL    HW118290   5.811   1.616   0.718
 5797SOL    HW218291   5.860   1.547   0.578
 5798SOL     OW18292   0.529   3.642   4.702
 5798SOL    HW118293   0.535   3.679   4.609
 5798SOL    HW218294   0.578   3.554   4.705
 5799SOL     OW18295   1.216   6.805   2.863
 5799SOL    HW118296   1.232   6.865   2.942
 5799SOL    HW218297   1.269   6.837   2.785
 5800SOL     OW18298   0.519   6.931   0.739
 5800SOL    HW118299   0.479   6.878   0.814
 5800SOL    HW218300   0.618   6.936   0.751
 5801SOL     OW18301   2.366   2.694   2.555
 5801SOL    HW118302   2.457   2.661   2.532
 5801SOL    HW218303   2.370   2.744   2.642
 5802SOL     OW18304   6.470   2.390   2.890
 5802SOL    HW118305   6.376   2.367   2.917
 5802SOL    HW218306   6.477   2.488   2.875
 5803SOL     OW18307   1.322   4.617   4.166
 5803SOL    HW118308   1.402   4.605   4.107
 5803SOL    HW218309   1.335   4.698   4.223
 5804SOL     OW18310   6.380   6.708   3.660
 5804SOL    HW118311   6.307   6.642   3.678
 5804SOL    HW218312   6.407   6.751   3.746
 5805SOL     OW18313   1.570   3.603   1.085
 5805SOL    HW118314   1.602   3.693   1.115
 5805SOL    HW218315   1.583   3.536   1.159
 5806SOL     OW18316   0.772   3.597   3.772
 5806SOL    HW118317   0.756   3.524   3.839
 5806SOL    HW218318   0.815   3.559   3.691
 5807SOL     OW18319   1.300   6.125   1.045
 5807SOL    HW118320   1.251   6.177   0.975
 5807SOL    HW218321   1.334   6.188   1.115
 5808SOL     OW18322   6.274   6.921   3.959
 5808SOL    HW118323   6.333   6.993   3.923
 5808SOL    HW218324   6.250   6.942   4.054
 5809SOL     OW18325   0.760   1.899   5.964
 5809SOL    HW118326   0.727   1.886   6.057
 5809SOL    HW218327   0.850   1.943   5.966
 5810SOL     OW18328   4.399   6.820   5.066
 5810SOL    HW118329   4.424   6.819   4.969
 5810SOL    HW218330   4.319   6.762   5.080
 5811SOL     OW18331   2.801   2.673   5.971
 5811SOL    HW118332   2.707   2.703   5.958
 5811SOL    HW218333   2.848   2.737   6.033
 5812SOL     OW18334   5.857   3.025   0.501
 5812SOL    HW118335   5.922   3.098   0.521
 5812SOL    HW218336   5.833   3.027   0.404
 5813SOL     OW18337   3.792   6.269   1.185
 5813SOL    HW118338   3.861   6.245   1.116
 5813SOL    HW218339   3.717   6.202   1.181
 5814SOL     OW18340   6.680   1.948   2.324
 5814SOL    HW118341   6.656   1.858   2.361
 5814SOL    HW218342   6.673   1.945   2.224
 5815SOL     OW18343   6.307   1.562   3.893
 5815SOL    HW118344   6.273   1.560   3.799
 5815SOL    HW218345   6.406   1.572   3.893
 5816SOL     OW18346   0.286   5.372   2.240
 5816SOL    HW118347   0.373   5.338   2.204
 5816SOL    HW218348   0.268   5.329   2.329
 5817SOL     OW18349   5.380   4.100   5.222
 5817SOL    HW118350   5.398   4.088   5.124
 5817SOL    HW218351   5.321   4.026   5.254
 5818SOL     OW18352   1.006   6.375   5.021
 5818SOL    HW118353   0.928   6.412   4.971
 5818SOL    HW218354   0.976   6.295   5.073
 5819SOL     OW18355   2.971   4.998   6.939
 5819SOL    HW118356   3.042   4.932   6.965
 5819SOL    HW218357   2.986   5.084   6.988
 5820SOL     OW18358   5.461   5.090   2.438
 5820SOL    HW118359   5.403   5.094   2.356
 5820SOL    HW218360   5.556   5.079   2.410
 5821SOL     OW18361   6.772   0.768   1.583
 5821SOL    HW118362   6.814   0.784   1.672
 5821SOL    HW218363   6.806   0.682   1.545
 5822SOL     OW18364   1.446   2.114   2.967
 5822SOL    HW118365   1.420   2.192   3.024
 5822SOL    HW218366   1.524   2.139   2.910
 5823SOL     OW18367   2.347   6.407   4.724
 5823SOL    HW118368   2.269   6.389   4.784
 5823SOL    HW218369   2.347   6.504   4.698
 5824SOL     OW18370   0.673   6.940   2.402
 5824SOL    HW118371   0.747   6.942   2.335
 5824SOL    HW218372   0.705   6.982   2.487
 5825SOL     OW18373   6.764   6.393   4.833
 5825SOL    HW118374   6.811   6.401   4.921
 5825SOL    HW218375   6.734   6.298   4.821
 5826SOL     OW18376   6.934   0.481   5.110
 5826SOL    HW118377   6.940   0.566   5.058
 5826SOL    HW218378   7.020   0.466   5.159
 5827SOL     OW18379   1.360   3.498   4.892
 5827SOL    HW118380   1.307   3.422   4.854
 5827SOL    HW218381   1.298   3.562   4.938
 5828SOL     OW18382   5.386   6.559   3.947
 5828SOL    HW118383   5.321   6.606   3.887
 5828SOL    HW218384   5.464   6.528   3.893
 5829SOL     OW18385   1.615   0.732   5.028
 5829SOL    HW118386   1.617   0.647   4.975
 5829SOL    HW218387   1.669   0.721   5.111
 5830SOL     OW18388   3.566   4.940   5.353
 5830SOL    HW118389   3.619   5.014   5.394
 5830SOL    HW218390   3.488   4.978   5.303
 5831SOL     OW18391   1.193   1.317   5.515
 5831SOL    HW118392   1.292   1.322   5.519
 5831SOL    HW218393   1.154   1.355   5.600
 5832SOL     OW18394   3.372   4.587   1.218
 5832SOL    HW118395   3.321   4.665   1.183
 5832SOL    HW218396   3.328   4.502   1.189
 5833SOL     OW18397   4.204   3.999   5.379
 5833SOL    HW118398   4.114   3.962   5.353
 5833SOL    HW218399   4.269   3.924   5.389
 5834SOL     OW18400   6.737   4.389   6.516
 5834SOL    HW118401   6.808   4.375   6.448
 5834SOL    HW218402   6.745   4.320   6.588
 5835SOL     OW18403   5.563   0.872   2.664
 5835SOL    HW118404   5.538   0.834   2.754
 5835SOL    HW218405   5.657   0.905   2.666
 5836SOL     OW18406   3.978   6.136   2.514
 5836SOL    HW118407   3.885   6.170   2.495
 5836SOL    HW218408   4.042   6.180   2.451
 5837SOL     OW18409   3.734   4.247   0.538
 5837SOL    HW118410   3.791   4.199   0.604
 5837SOL    HW218411   3.747   4.206   0.447
 5838SOL     OW18412   3.503   2.170   1.257
 5838SOL    HW118413   3.520   2.181   1.159
 5838SOL    HW218414   3.496   2.073   1.279
 5839SOL     OW18415   0.756   2.634   2.095
 5839SOL    HW118416   0.846   2.597   2.118
 5839SOL    HW218417   0.697   2.560   2.064
 5840SOL     OW18418   0.296   3.836   2.099
 5840SOL    HW118419   0.265   3.749   2.136
 5840SOL    HW218420   0.386   3.824   2.058
 5841SOL     OW18421   4.172   0.756   1.636
 5841SOL    HW118422   4.226   0.840   1.648
 5841SOL    HW218423   4.198   0.712   1.550
 5842SOL     OW18424   3.875   1.760   0.396
 5842SOL    HW118425   3.879   1.858   0.376
 5842SOL    HW218426   3.798   1.742   0.458
 5843SOL     OW18427   1.916   3.805   0.926
 5843SOL    HW118428   1.862   3.724   0.906
 5843SOL    HW218429   1.876   3.852   1.005
 5844SOL     OW18430   0.653   6.811   4.873
 5844SOL    HW118431   0.709   6.763   4.805
 5844SOL    HW218432   0.626   6.746   4.944
 5845SOL     OW18433   6.999   6.812   1.604
 5845SOL    HW118434   6.924   6.869   1.638
 5845SOL    HW218435   0.050   6.869   1.587
 5846SOL     OW18436   6.682   3.819   5.135
 5846SOL    HW118437   6.586   3.833   5.112
 5846SOL    HW218438   6.691   3.738   5.193
 5847SOL     OW18439   2.353   2.927   1.788
 5847SOL    HW118440   2.411   2.910   1.709
 5847SOL    HW218441   2.303   3.013   1.776
 5848SOL     OW18442   2.327   5.871   4.138
 5848SOL    HW118443   2.311   5.773   4.147
 5848SOL    HW218444   2.395   5.887   4.066
 5849SOL     OW18445   2.476   6.308   5.234
 5849SOL    HW118446   2.406   6.378   5.223
 5849SOL    HW218447   2.543   6.338   5.302
 5850SOL     OW18448   1.250   2.565   2.135
 5850SOL    HW118449   1.296   2.631   2.195
 5850SOL    HW218450   1.161   2.540   2.174
 5851SOL     OW18451   5.990   3.315   4.569
 5851SOL    HW118452   5.925   3.371   4.517
 5851SOL    HW218453   6.058   3.374   4.612
 5852SOL     OW18454   4.655   5.752   3.434
 5852SOL    HW118455   4.724   5.711   3.493
 5852SOL    HW218456   4.573   5.694   3.433
 5853SOL     OW18457   3.842   5.194   5.260
 5853SOL    HW118458   3.757   5.244   5.277
 5853SOL    HW218459   3.902   5.202   5.339
 5854SOL     OW18460   3.501   4.531   5.614
 5854SOL    HW118461   3.514   4.571   5.523
 5854SOL    HW218462   3.404   4.507   5.626
 5855SOL     OW18463   1.963   2.213   3.930
 5855SOL    HW118464   1.946   2.126   3.884
 5855SOL    HW218465   2.061   2.227   3.940
 5856SOL     OW18466   1.729   6.801   2.306
 5856SOL    HW118467   1.822   6.812   2.342
 5856SOL    HW218468   1.733   6.791   2.207
 5857SOL     OW18469   0.346   3.388   5.718
 5857SOL    HW118470   0.397   3.419   5.799
 5857SOL    HW218471   0.249   3.381   5.741
 5858SOL     OW18472   2.515   1.248   3.019
 5858SOL    HW118473   2.551   1.335   2.985
 5858SOL    HW218474   2.435   1.266   3.076
 5859SOL     OW18475   5.715   6.590   1.549
 5859SOL    HW118476   5.802   6.639   1.540
 5859SOL    HW218477   5.672   6.580   1.459
 5860SOL     OW18478   0.532   4.713   3.252
 5860SOL    HW118479   0.614   4.658   3.234
 5860SOL    HW218480   0.530   4.738   3.349
 5861SOL     OW18481   5.899   0.689   5.201
 5861SOL    HW118482   5.819   0.630   5.204
 5861SOL    HW218483   5.916   0.717   5.106
 5862SOL     OW18484   6.631   6.103   2.128
 5862SOL    HW118485   6.657   6.050   2.209
 5862SOL    HW218486   6.613   6.198   2.154
 5863SOL     OW18487   2.980   0.822   4.555
 5863SOL    HW118488   2.938   0.909   4.530
 5863SOL    HW218489   3.073   0.838   4.590
 5864SOL     OW18490   3.338   3.593   3.148
 5864SOL    HW118491   3.381   3.636   3.227
 5864SOL    HW218492   3.339   3.494   3.159
 5865SOL     OW18493   5.957   1.494   5.657
 5865SOL    HW118494   6.002   1.423   5.711
 5865SOL    HW218495   5.927   1.568   5.717
 5866SOL     OW18496   3.300   3.290   1.099
 5866SOL    HW118497   3.369   3.351   1.138
 5866SOL    HW218498   3.285   3.212   1.160
 5867SOL     OW18499   2.018   2.283   1.269
 5867SOL    HW118500   1.949   2.232   1.321
 5867SOL    HW218501   2.037   2.370   1.316
 5868SOL     OW18502   1.066   1.692   6.022
 5868SOL    HW118503   1.033   1.786   6.034
 5868SOL    HW218504   1.102   1.680   5.930
 5869SOL     OW18505   1.239   4.478   3.217
 5869SOL    HW118506   1.321   4.476   3.161
 5869SOL    HW218507   1.258   4.436   3.306
 5870SOL     OW18508   4.080   4.752   5.474
 5870SOL    HW118509   4.020   4.673   5.483
 5870SOL    HW218510   4.118   4.754   5.381
 5871SOL     OW18511   3.472   3.348   3.432
 5871SOL    HW118512   3.447   3.315   3.341
 5871SOL    HW218513   3.558   3.398   3.426
 5872SOL     OW18514   3.858   5.986   1.310
 5872SOL    HW118515   3.862   6.037   1.396
 5872SOL    HW218516   3.769   6.000   1.268
 5873SOL     OW18517   2.595   5.406   2.304
 5873SOL    HW118518   2.674   5.373   2.356
 5873SOL    HW218519   2.580   5.502   2.325
 5874SOL     OW18520   2.106   4.247   5.001
 5874SOL    HW118521   2.059   4.310   5.063
 5874SOL    HW218522   2.170   4.191   5.053
 5875SOL     OW18523   3.578   1.962   0.099
 5875SOL    HW118524   3.556   1.887   0.162
 5875SOL    HW218525   3.576   2.048   0.149
 5876SOL     OW18526   4.102   3.783   2.371
 5876SOL    HW118527   4.197   3.808   2.390
 5876SOL    HW218528   4.065   3.730   2.448
 5877SOL     OW18529   5.874   6.399   1.251
 5877SOL    HW118530   5.965   6.423   1.287
 5877SOL    HW218531   5.818   6.363   1.325
 5878SOL     OW18532   1.405   5.770   3.491
 5878SOL    HW118533   1.392   5.837   3.564
 5878SOL    HW218534   1.458   5.692   3.526
 5879SOL     OW18535   6.424   3.341   0.076
 5879SOL    HW118536   6.440   3.435   0.047
 5879SOL    HW218537   6.495   3.282   0.037
 5880SOL     OW18538   2.729   5.601   1.205
 5880SOL    HW118539   2.642   5.599   1.253
 5880SOL    HW218540   2.785   5.675   1.242
 5881SOL     OW18541   0.189   4.794   3.434
 5881SOL    HW118542   0.224   4.700   3.432
 5881SOL    HW218543   0.254   4.852   3.484
 5882SOL     OW18544   5.683   0.558   0.810
 5882SOL    HW118545   5.647   0.523   0.897
 5882SOL    HW218546   5.610   0.605   0.761
 5883SOL     OW18547   0.279   2.383   6.485
 5883SOL    HW118548   0.201   2.446   6.490
 5883SOL    HW218549   0.312   2.362   6.577
 5884SOL     OW18550   1.891   0.961   3.638
 5884SOL    HW118551   1.962   0.892   3.656
 5884SOL    HW218552   1.815   0.918   3.588
 5885SOL     OW18553   6.770   6.991   1.615
 5885SOL    HW118554   6.834   0.017   1.562
 5885SOL    HW218555   6.695   0.020   1.647
 5886SOL     OW18556   0.408   2.215   4.783
 5886SOL    HW118557   0.450   2.170   4.705
 5886SOL    HW218558   0.471   2.283   4.821
 5887SOL     OW18559   4.181   1.341   3.317
 5887SOL    HW118560   4.172   1.344   3.416
 5887SOL    HW218561   4.114   1.278   3.279
 5888SOL     OW18562   2.862   6.603   2.718
 5888SOL    HW118563   2.818   6.602   2.808
 5888SOL    HW218564   2.955   6.567   2.726
 5889SOL     OW18565   1.889   6.815   1.508
 5889SOL    HW118566   1.893   6.915   1.504
 5889SOL    HW218567   1.853   6.787   1.597
 5890SOL     OW18568   1.180   0.164   5.324
 5890SOL    HW118569   1.153   0.091   5.387
 5890SOL    HW218570   1.108   0.178   5.257
 5891SOL     OW18571   3.966   3.128   6.308
 5891SOL    HW118572   3.960   3.034   6.342
 5891SOL    HW218573   4.044   3.137   6.246
 5892SOL     OW18574   1.146   6.144   1.590
 5892SOL    HW118575   1.180   6.200   1.665
 5892SOL    HW218576   1.069   6.089   1.621
 5893SOL     OW18577   1.062   3.821   3.631
 5893SOL    HW118578   0.985   3.847   3.689
 5893SOL    HW218579   1.028   3.772   3.551
 5894SOL     OW18580   1.157   4.917   3.095
 5894SOL    HW118581   1.236   4.961   3.051
 5894SOL    HW218582   1.089   4.893   3.025
 5895SOL     OW18583   5.309   2.640   4.211
 5895SOL    HW118584   5.364   2.565   4.249
 5895SOL    HW218585   5.212   2.619   4.223
 5896SOL     OW18586   3.879   1.815   0.088
 5896SOL    HW118587   3.945   1.874   0.042
 5896SOL    HW218588   3.902   1.808   0.185
 5897SOL     OW18589   4.024   6.959   2.025
 5897SOL    HW118590   4.021   6.863   1.996
 5897SOL    HW218591   4.092   7.009   1.971
 5898SOL     OW18592   2.108   0.262   3.106
 5898SOL    HW118593   2.131   0.355   3.079
 5898SOL    HW218594   2.179   0.199   3.074
 5899SOL     OW18595   5.523   0.003   5.710
 5899SOL    HW118596   5.614   0.014   5.750
 5899SOL    HW218597   5.480   0.093   5.702
 5900SOL     OW18598   4.492   5.252   3.933
 5900SOL    HW118599   4.427   5.319   3.967
 5900SOL    HW218600   4.583   5.293   3.927
 5901SOL     OW18601   2.724   0.538   6.528
 5901SOL    HW118602   2.678   0.626   6.521
 5901SOL    HW218603   2.823   0.550   6.518
 5902SOL     OW18604   0.003   2.028   0.727
 5902SOL    HW118605   0.027   1.950   0.785
 5902SOL    HW218606   6.968   1.999   0.657
 5903SOL     OW18607   5.054   3.973   0.548
 5903SOL    HW118608   5.149   3.988   0.521
 5903SOL    HW218609   5.051   3.922   0.634
 5904SOL     OW18610   0.057   3.598   2.505
 5904SOL    HW118611   0.053   3.689   2.546
 5904SOL    HW218612   0.149   3.582   2.467
 5905SOL     OW18613   5.891   6.145   3.028
 5905SOL    HW118614   5.974   6.166   2.977
 5905SOL    HW218615   5.823   6.107   2.965
 5906SOL     OW18616   5.454   0.986   4.421
 5906SOL    HW118617   5.392   1.027   4.488
 5906SOL    HW218618   5.497   0.905   4.460
 5907SOL     OW18619   1.602   6.161   1.746
 5907SOL    HW118620   1.534   6.211   1.800
 5907SOL    HW218621   1.694   6.182   1.780
 5908SOL     OW18622   0.917   2.660   5.732
 5908SOL    HW118623   0.890   2.618   5.819
 5908SOL    HW218624   0.975   2.596   5.681
 5909SOL     OW18625   0.563   5.259   0.519
 5909SOL    HW118626   0.500   5.185   0.539
 5909SOL    HW218627   0.656   5.223   0.510
 5910SOL     OW18628   0.856   2.989   3.250
 5910SOL    HW118629   0.906   2.904   3.267
 5910SOL    HW218630   0.890   3.061   3.310
 5911SOL     OW18631   6.953   5.501   6.557
 5911SOL    HW118632   6.950   5.521   6.459
 5911SOL    HW218633   6.992   5.409   6.570
 5912SOL     OW18634   6.381   1.532   5.348
 5912SOL    HW118635   6.303   1.580   5.307
 5912SOL    HW218636   6.426   1.593   5.414
 5913SOL     OW18637   5.273   2.825   0.223
 5913SOL    HW118638   5.274   2.901   0.158
 5913SOL    HW218639   5.254   2.740   0.174
 5914SOL     OW18640   1.074   6.763   6.391
 5914SOL    HW118641   1.108   6.808   6.474
 5914SOL    HW218642   1.126   6.796   6.312
 5915SOL     OW18643   3.596   6.205   0.045
 5915SOL    HW118644   3.623   6.119   0.001
 5915SOL    HW218645   3.593   6.278   7.006
 5916SOL     OW18646   6.981   6.921   2.550
 5916SOL    HW118647   6.952   6.999   2.494
 5916SOL    HW218648   7.005   6.952   2.641
 5917SOL     OW18649   3.347   3.986   5.292
 5917SOL    HW118650   3.260   3.938   5.281
 5917SOL    HW218651   3.423   3.924   5.271
 5918SOL     OW18652   1.611   5.582   6.288
 5918SOL    HW118653   1.521   5.625   6.299
 5918SOL    HW218654   1.682   5.652   6.291
 5919SOL     OW18655   3.199   4.086   2.935
 5919SOL    HW118656   3.178   4.117   2.842
 5919SOL    HW218657   3.116   4.051   2.978
 5920SOL     OW18658   5.156   1.492   6.513
 5920SOL    HW118659   5.221   1.417   6.523
 5920SOL    HW218660   5.159   1.526   6.419
 5921SOL     OW18661   4.067   5.054   6.491
 5921SOL    HW118662   4.014   5.055   6.406
 5921SOL    HW218663   4.164   5.044   6.469
 5922SOL     OW18664   6.184   3.895   4.140
 5922SOL    HW118665   6.209   3.979   4.188
 5922SOL    HW218666   6.115   3.916   4.070
 5923SOL     OW18667   0.179   0.655   1.613
 5923SOL    HW118668   0.153   0.695   1.702
 5923SOL    HW218669   0.144   0.562   1.607
 5924SOL     OW18670   5.876   6.735   3.116
 5924SOL    HW118671   5.961   6.787   3.109
 5924SOL    HW218672   5.798   6.798   3.113
 5925SOL     OW18673   4.184   6.043   1.816
 5925SOL    HW118674   4.086   6.036   1.838
 5925SOL    HW218675   4.195   6.051   1.717
 5926SOL     OW18676   4.590   4.398   2.591
 5926SOL    HW118677   4.620   4.305   2.609
 5926SOL    HW218678   4.524   4.398   2.515
 5927SOL     OW18679   1.036   3.813   1.854
 5927SOL    HW118680   0.984   3.729   1.874
 5927SOL    HW218681   1.073   3.850   1.939
 5928SOL     OW18682   3.785   7.003   1.600
 5928SOL    HW118683   3.814   0.050   1.658
 5928SOL    HW218684   3.784   6.919   1.654
 5929SOL     OW18685   5.896   1.328   5.442
 5929SOL    HW118686   5.892   1.400   5.512
 5929SOL    HW218687   5.983   1.281   5.449
 5930SOL     OW18688   0.425   2.810   2.701
 5930SOL    HW118689   0.409   2.860   2.785
 5930SOL    HW218690   0.517   2.771   2.702
 5931SOL     OW18691   5.820   5.948   2.450
 5931SOL    HW118692   5.747   5.905   2.503
 5931SOL    HW218693   5.906   5.939   2.500
 5932SOL     OW18694   3.162   0.104   6.877
 5932SOL    HW118695   3.116   0.087   6.964
 5932SOL    HW218696   3.250   0.057   6.876
 5933SOL     OW18697   6.722   5.042   3.967
 5933SOL    HW118698   6.753   4.954   3.930
 5933SOL    HW218699   6.675   5.026   4.054
 5934SOL     OW18700   3.564   3.234   5.459
 5934SOL    HW118701   3.618   3.318   5.450
 5934SOL    HW218702   3.475   3.256   5.499
 5935SOL     OW18703   0.784   6.193   5.242
 5935SOL    HW118704   0.702   6.142   5.217
 5935SOL    HW218705   0.806   6.175   5.338
 5936SOL     OW18706   2.955   3.848   2.539
 5936SOL    HW118707   2.927   3.769   2.594
 5936SOL    HW218708   2.952   3.824   2.442
 5937SOL     OW18709   5.824   3.091   2.283
 5937SOL    HW118710   5.915   3.101   2.324
 5937SOL    HW218711   5.824   3.128   2.191
 5938SOL     OW18712   6.174   6.130   4.718
 5938SOL    HW118713   6.090   6.157   4.766
 5938SOL    HW218714   6.169   6.034   4.693
 5939SOL     OW18715   2.890   5.929   4.391
 5939SOL    HW118716   2.986   5.908   4.373
 5939SOL    HW218717   2.883   5.982   4.476
 5940SOL     OW18718   4.321   5.038   3.891
 5940SOL    HW118719   4.297   4.967   3.958
 5940SOL    HW218720   4.402   5.087   3.922
 5941SOL     OW18721   5.699   2.748   3.467
 5941SOL    HW118722   5.782   2.773   3.515
 5941SOL    HW218723   5.647   2.831   3.445
 5942SOL     OW18724   5.654   3.516   6.690
 5942SOL    HW118725   5.700   3.428   6.679
 5942SOL    HW218726   5.692   3.564   6.769
 5943SOL     OW18727   3.757   3.332   6.668
 5943SOL    HW118728   3.684   3.355   6.604
 5943SOL    HW218729   3.716   3.303   6.755
 5944SOL     OW18730   1.053   2.821   0.274
 5944SOL    HW118731   1.021   2.848   0.365
 5944SOL    HW218732   1.090   2.729   0.278
 5945SOL     OW18733   0.130   6.003   5.576
 5945SOL    HW118734   0.072   6.085   5.569
 5945SOL    HW218735   0.115   5.959   5.664
 5946SOL     OW18736   3.116   4.491   0.098
 5946SOL    HW118737   3.182   4.432   0.143
 5946SOL    HW218738   3.038   4.506   0.158
 5947SOL     OW18739   3.065   3.535   3.481
 5947SOL    HW118740   3.101   3.468   3.545
 5947SOL    HW218741   3.067   3.497   3.388
 5948SOL     OW18742   4.551   4.643   2.166
 5948SOL    HW118743   4.626   4.704   2.191
 5948SOL    HW218744   4.557   4.559   2.220
 5949SOL     OW18745   4.527   5.625   1.160
 5949SOL    HW118746   4.593   5.575   1.216
 5949SOL    HW218747   4.569   5.710   1.126
 5950SOL     OW18748   4.856   2.285   5.752
 5950SOL    HW118749   4.759   2.261   5.765
 5950SOL    HW218750   4.865   2.350   5.677
 5951SOL     OW18751   0.962   5.673   4.988
 5951SOL    HW118752   0.904   5.601   5.027
 5951SOL    HW218753   0.974   5.747   5.054
 5952SOL     OW18754   4.263   5.434   3.361
 5952SOL    HW118755   4.264   5.334   3.357
 5952SOL    HW218756   4.168   5.467   3.354
 5953SOL     OW18757   6.648   4.354   5.142
 5953SOL    HW118758   6.716   4.411   5.095
 5953SOL    HW218759   6.681   4.260   5.148
 5954SOL     OW18760   0.370   5.639   5.694
 5954SOL    HW118761   0.362   5.605   5.788
 5954SOL    HW218762   0.467   5.649   5.670
 5955SOL     OW18763   4.355   5.318   1.626
 5955SOL    HW118764   4.408   5.281   1.702
 5955SOL    HW218765   4.414   5.379   1.572
 5956SOL     OW18766   5.462   1.481   3.855
 5956SOL    HW118767   5.493   1.462   3.761
 5956SOL    HW218768   5.430   1.576   3.861
 5957SOL     OW18769   2.618   1.750   3.875
 5957SOL    HW118770   2.588   1.655   3.865
 5957SOL    HW218771   2.539   1.810   3.865
 5958SOL     OW18772   4.186   0.392   3.002
 5958SOL    HW118773   4.152   0.332   2.930
 5958SOL    HW218774   4.154   0.485   2.987
 5959SOL     OW18775   4.126   2.468   5.723
 5959SOL    HW118776   4.034   2.501   5.703
 5959SOL    HW218777   4.121   2.383   5.776
 5960SOL     OW18778   2.597   6.304   4.262
 5960SOL    HW118779   2.577   6.400   4.239
 5960SOL    HW218780   2.625   6.256   4.179
 5961SOL     OW18781   4.459   1.086   2.100
 5961SOL    HW118782   4.559   1.088   2.102
 5961SOL    HW218783   4.426   1.153   2.034
 5962SOL     OW18784   5.359   5.757   6.087
 5962SOL    HW118785   5.444   5.786   6.042
 5962SOL    HW218786   5.380   5.690   6.158
 5963SOL     OW18787   3.105   3.955   6.513
 5963SOL    HW118788   3.042   3.882   6.486
 5963SOL    HW218789   3.146   3.934   6.601
 5964SOL     OW18790   2.531   0.065   4.162
 5964SOL    HW118791   2.499   0.040   4.071
 5964SOL    HW218792   2.629   0.044   4.169
 5965SOL     OW18793   1.957   0.373   0.162
 5965SOL    HW118794   1.945   0.339   0.255
 5965SOL    HW218795   1.935   0.301   0.096
 5966SOL     OW18796   1.233   6.759   6.063
 5966SOL    HW118797   1.134   6.769   6.056
 5966SOL    HW218798   1.275   6.768   5.973
 5967SOL     OW18799   1.772   0.208   5.629
 5967SOL    HW118800   1.734   0.290   5.672
 5967SOL    HW218801   1.729   0.127   5.668
 5968SOL     OW18802   5.774   2.730   0.295
 5968SOL    HW118803   5.684   2.774   0.285
 5968SOL    HW218804   5.768   2.635   0.263
 5969SOL     OW18805   4.976   1.403   6.697
 5969SOL    HW118806   4.963   1.437   6.790
 5969SOL    HW218807   5.055   1.448   6.655
 5970SOL     OW18808   0.418   4.484   0.947
 5970SOL    HW118809   0.401   4.388   0.923
 5970SOL    HW218810   0.396   4.542   0.869
 5971SOL     OW18811   6.267   0.031   1.485
 5971SOL    HW118812   6.358   7.026   1.458
 5971SOL    HW218813   6.253   0.014   1.582
 5972SOL     OW18814   4.982   5.862   6.417
 5972SOL    HW118815   5.051   5.865   6.344
 5972SOL    HW218816   5.010   5.924   6.491
 5973SOL     OW18817   1.534   3.075   2.902
 5973SOL    HW118818   1.570   3.157   2.858
 5973SOL    HW218819   1.549   3.081   3.001
 5974SOL     OW18820   4.838   0.331   0.350
 5974SOL    HW118821   4.843   0.236   0.380
 5974SOL    HW218822   4.921   0.379   0.376
 5975SOL     OW18823   4.092   6.103   0.822
 5975SOL    HW118824   4.190   6.084   0.820
 5975SOL    HW218825   4.058   6.115   0.729
 5976SOL     OW18826   3.286   3.144   5.295
 5976SOL    HW118827   3.250   3.101   5.378
 5976SOL    HW218828   3.372   3.100   5.270
 5977SOL     OW18829   0.566   5.807   0.675
 5977SOL    HW118830   0.529   5.858   0.752
 5977SOL    HW218831   0.663   5.786   0.692
 5978SOL     OW18832   3.625   5.635   1.448
 5978SOL    HW118833   3.618   5.536   1.432
 5978SOL    HW218834   3.709   5.669   1.407
 5979SOL     OW18835   6.571   0.793   2.015
 5979SOL    HW118836   6.613   0.730   2.080
 5979SOL    HW218837   6.514   0.859   2.064
 5980SOL     OW18838   3.524   2.915   2.076
 5980SOL    HW118839   3.545   3.012   2.090
 5980SOL    HW218840   3.424   2.903   2.078
 5981SOL     OW18841   4.917   1.655   0.395
 5981SOL    HW118842   4.971   1.618   0.471
 5981SOL    HW218843   4.886   1.747   0.417
 5982SOL     OW18844   5.876   2.227   2.792
 5982SOL    HW118845   5.790   2.271   2.820
 5982SOL    HW218846   5.922   2.285   2.725
 5983SOL     OW18847   1.268   0.730   4.203
 5983SOL    HW118848   1.318   0.809   4.237
 5983SOL    HW218849   1.302   0.705   4.112
 5984SOL     OW18850   5.861   6.694   3.619
 5984SOL    HW118851   5.835   6.713   3.525
 5984SOL    HW218852   5.868   6.596   3.634
 5985SOL     OW18853   6.605   2.478   3.686
 5985SOL    HW118854   6.635   2.574   3.681
 5985SOL    HW218855   6.584   2.445   3.595
 5986SOL     OW18856   3.967   4.254   5.669
 5986SOL    HW118857   3.875   4.271   5.634
 5986SOL    HW218858   4.034   4.271   5.597
 5987SOL     OW18859   5.476   0.624   4.789
 5987SOL    HW118860   5.377   0.624   4.795
 5987SOL    HW218861   5.510   0.530   4.792
 5988SOL     OW18862   3.522   0.787   6.649
 5988SOL    HW118863   3.506   0.852   6.574
 5988SOL    HW218864   3.561   0.703   6.613
 5989SOL     OW18865   1.499   5.105   5.802
 5989SOL    HW118866   1.414   5.130   5.755
 5989SOL    HW218867   1.537   5.023   5.760
 5990SOL     OW18868   3.846   3.901   0.555
 5990SOL    HW118869   3.890   3.934   0.639
 5990SOL    HW218870   3.748   3.895   0.569
 5991SOL     OW18871   4.454   5.928   6.710
 5991SOL    HW118872   4.411   6.014   6.682
 5991SOL    HW218873   4.539   5.915   6.659
 5992SOL     OW18874   3.561   6.759   1.979
 5992SOL    HW118875   3.590   6.759   2.074
 5992SOL    HW218876   3.640   6.779   1.920
 5993SOL     OW18877   5.316   4.099   6.368
 5993SOL    HW118878   5.364   4.038   6.306
 5993SOL    HW218879   5.366   4.105   6.454
 5994SOL     OW18880   6.644   2.654   1.122
 5994SOL    HW118881   6.592   2.614   1.047
 5994SOL    HW218882   6.655   2.752   1.105
 5995SOL     OW18883   4.714   2.669   2.060
 5995SOL    HW118884   4.642   2.635   2.120
 5995SOL    HW218885   4.712   2.769   2.058
 5996SOL     OW18886   1.388   5.296   1.809
 5996SOL    HW118887   1.341   5.281   1.722
 5996SOL    HW218888   1.476   5.248   1.807
 5997SOL     OW18889   0.885   6.459   3.418
 5997SOL    HW118890   0.921   6.409   3.497
 5997SOL    HW218891   0.841   6.395   3.355
 5998SOL     OW18892   5.769   0.623   1.584
 5998SOL    HW118893   5.825   0.548   1.549
 5998SOL    HW218894   5.704   0.652   1.514
 5999SOL     OW18895   2.599   3.246   1.016
 5999SOL    HW118896   2.604   3.332   0.966
 5999SOL    HW218897   2.600   3.170   0.951
 6000SOL     OW18898   0.914   5.993   0.473
 6000SOL    HW118899   0.968   5.919   0.433
 6000SOL    HW218900   0.835   6.011   0.415
 6001SOL     OW18901   5.651   5.256   6.875
 6001SOL    HW118902   5.567   5.210   6.904
 6001SOL    HW218903   5.631   5.353   6.858
 6002SOL     OW18904   6.525   0.074   5.920
 6002SOL    HW118905   6.491   0.070   5.826
 6002SOL    HW218906   6.474   0.144   5.971
 6003SOL     OW18907   5.497   2.581   4.635
 6003SOL    HW118908   5.471   2.673   4.666
 6003SOL    HW218909   5.585   2.556   4.675
 6004SOL     OW18910   6.233   2.110   3.561
 6004SOL    HW118911   6.286   2.140   3.481
 6004SOL    HW218912   6.277   2.029   3.601
 6005SOL     OW18913   5.756   4.729   5.183
 6005SOL    HW118914   5.692   4.656   5.161
 6005SOL    HW218915   5.768   4.735   5.282
 6006SOL     OW18916   3.011   0.479   4.930
 6006SOL    HW118917   3.043   0.384   4.922
 6006SOL    HW218918   3.066   0.527   4.999
 6007SOL     OW18919   0.169   3.109   6.188
 6007SOL    HW118920   0.228   3.126   6.109
 6007SOL    HW218921   0.133   3.016   6.184
 6008SOL     OW18922   2.109   4.689   4.930
 6008SOL    HW118923   2.082   4.680   5.026
 6008SOL    HW218924   2.031   4.723   4.878
 6009SOL     OW18925   4.292   5.870   3.325
 6009SOL    HW118926   4.255   5.933   3.393
 6009SOL    HW218927   4.312   5.920   3.241
 6010SOL     OW18928   0.952   4.752   3.491
 6010SOL    HW118929   1.021   4.750   3.418
 6010SOL    HW218930   0.915   4.660   3.505
 6011SOL     OW18931   4.858   3.082   2.956
 6011SOL    HW118932   4.878   3.117   3.047
 6011SOL    HW218933   4.801   3.148   2.907
 6012SOL     OW18934   6.559   0.844   0.203
 6012SOL    HW118935   6.657   0.825   0.196
 6012SOL    HW218936   6.518   0.782   0.270
 6013SOL     OW18937   4.682   1.237   2.519
 6013SOL    HW118938   4.657   1.141   2.512
 6013SOL    HW218939   4.629   1.281   2.592
 6014SOL     OW18940   3.446   4.131   4.013
 6014SOL    HW118941   3.399   4.158   3.929
 6014SOL    HW218942   3.381   4.090   4.077
 6015SOL     OW18943   6.300   3.688   4.508
 6015SOL    HW118944   6.282   3.591   4.493
 6015SOL    HW218945   6.234   3.724   4.574
 6016SOL     OW18946   5.638   2.035   5.786
 6016SOL    HW118947   5.675   1.987   5.866
 6016SOL    HW218948   5.602   1.968   5.721
 6017SOL     OW18949   6.792   4.924   5.088
 6017SOL    HW118950   6.880   4.969   5.075
 6017SOL    HW218951   6.733   4.981   5.144
 6018SOL     OW18952   3.256   1.255   4.985
 6018SOL    HW118953   3.313   1.325   5.029
 6018SOL    HW218954   3.243   1.179   5.048
 6019SOL     OW18955   0.570   3.618   5.484
 6019SOL    HW118956   0.506   3.563   5.430
 6019SOL    HW218957   0.520   3.674   5.550
 6020SOL     OW18958   0.826   5.532   0.691
 6020SOL    HW118959   0.844   5.573   0.780
 6020SOL    HW218960   0.738   5.485   0.693
 6021SOL     OW18961   4.999   0.440   3.028
 6021SOL    HW118962   4.924   0.418   3.089
 6021SOL    HW218963   4.968   0.437   2.933
 6022SOL     OW18964   6.919   1.806   3.369
 6022SOL    HW118965   6.997   1.833   3.313
 6022SOL    HW218966   6.858   1.747   3.316
 6023SOL     OW18967   5.294   0.180   2.195
 6023SOL    HW118968   5.371   0.156   2.253
 6023SOL    HW218969   5.319   0.258   2.137
 6024SOL     OW18970   0.669   4.390   0.849
 6024SOL    HW118971   0.598   4.451   0.885
 6024SOL    HW218972   0.631   4.333   0.776
 6025SOL     OW18973   3.709   1.422   3.250
 6025SOL    HW118974   3.767   1.501   3.269
 6025SOL    HW218975   3.613   1.451   3.248
 6026SOL     OW18976   6.795   5.440   4.919
 6026SOL    HW118977   6.799   5.413   4.822
 6026SOL    HW218978   6.742   5.524   4.928
 6027SOL     OW18979   0.254   3.212   5.945
 6027SOL    HW118980   0.208   3.290   5.904
 6027SOL    HW218981   0.353   3.227   5.942
 6028SOL     OW18982   5.238   4.690   1.128
 6028SOL    HW118983   5.312   4.683   1.195
 6028SOL    HW218984   5.150   4.679   1.176
 6029SOL     OW18985   2.595   6.970   3.931
 6029SOL    HW118986   2.564   6.918   3.851
 6029SOL    HW218987   2.666   6.919   3.978
 6030SOL     OW18988   5.002   3.869   4.627
 6030SOL    HW118989   4.945   3.949   4.645
 6030SOL    HW218990   4.985   3.837   4.534
 6031SOL     OW18991   2.041   5.694   4.414
 6031SOL    HW118992   2.123   5.679   4.470
 6031SOL    HW218993   1.977   5.751   4.464
 6032SOL     OW18994   2.702   4.761   3.108
 6032SOL    HW118995   2.793   4.786   3.075
 6032SOL    HW218996   2.710   4.701   3.187
 6033SOL     OW18997   2.202   3.026   2.635
 6033SOL    HW118998   2.240   3.016   2.544
 6033SOL    HW218999   2.105   3.000   2.634
 6034SOL     OW19000   0.805   0.251   6.316
 6034SOL    HW119001   0.750   0.297   6.247
 6034SOL    HW219002   0.817   0.311   6.395
 6035SOL     OW19003   1.222   0.156   2.516
 6035SOL    HW119004   1.152   0.178   2.448
 6035SOL    HW219005   1.182   0.162   2.608
 6036SOL     OW19006   5.964   5.092   1.289
 6036SOL    HW119007   5.889   5.135   1.339
 6036SOL    HW219008   5.948   5.100   1.190
 6037SOL     OW19009   3.551   0.005   0.425
 6037SOL    HW119010   3.589   0.092   0.396
 6037SOL    HW219011   3.570   7.020   0.522
 6038SOL     OW19012   1.170   2.587   6.535
 6038SOL    HW119013   1.250   2.534   6.563
 6038SOL    HW219014   1.200   2.668   6.484
 6039SOL     OW19015   4.041   3.426   3.042
 6039SOL    HW119016   4.062   3.467   3.131
 6039SOL    HW219017   3.981   3.348   3.055
 6040SOL     OW19018   1.860   1.442   0.369
 6040SOL    HW119019   1.799   1.478   0.439
 6040SOL    HW219020   1.954   1.467   0.391
 6041SOL     OW19021   3.397   2.283   5.345
 6041SOL    HW119022   3.463   2.237   5.286
 6041SOL    HW219023   3.339   2.342   5.290
 6042SOL     OW19024   3.856   6.976   2.941
 6042SOL    HW119025   3.817   6.904   2.998
 6042SOL    HW219026   3.934   6.940   2.890
 6043SOL     OW19027   1.288   0.689   4.497
 6043SOL    HW119028   1.277   0.709   4.400
 6043SOL    HW219029   1.204   0.713   4.546
 6044SOL     OW19030   2.567   2.042   2.060
 6044SOL    HW119031   2.511   2.121   2.083
 6044SOL    HW219032   2.645   2.071   2.005
 6045SOL     OW19033   5.173   3.477   3.923
 6045SOL    HW119034   5.240   3.506   3.991
 6045SOL    HW219035   5.211   3.403   3.868
 6046SOL     OW19036   3.246   2.758   0.563
 6046SOL    HW119037   3.258   2.708   0.477
 6046SOL    HW219038   3.297   2.713   0.636
 6047SOL     OW19039   5.443   2.219   1.266
 6047SOL    HW119040   5.380   2.151   1.228
 6047SOL    HW219041   5.457   2.201   1.364
 6048SOL     OW19042   4.891   5.723   5.172
 6048SOL    HW119043   4.975   5.774   5.154
 6048SOL    HW219044   4.902   5.668   5.255
 6049SOL     OW19045   5.069   4.842   6.046
 6049SOL    HW119046   4.995   4.795   6.000
 6049SOL    HW219047   5.122   4.894   5.980
 6050SOL     OW19048   2.276   5.316   0.949
 6050SOL    HW119049   2.230   5.395   0.906
 6050SOL    HW219050   2.372   5.338   0.964
 6051SOL     OW19051   1.849   6.409   2.657
 6051SOL    HW119052   1.901   6.393   2.572
 6051SOL    HW219053   1.912   6.406   2.735
 6052SOL     OW19054   5.413   1.309   1.602
 6052SOL    HW119055   5.510   1.329   1.609
 6052SOL    HW219056   5.366   1.344   1.684
 6053SOL     OW19057   3.786   0.500   6.151
 6053SOL    HW119058   3.861   0.500   6.085
 6053SOL    HW219059   3.730   0.582   6.139
 6054SOL     OW19060   3.326   4.317   0.615
 6054SOL    HW119061   3.417   4.359   0.618
 6054SOL    HW219062   3.323   4.241   0.680
 6055SOL     OW19063   3.943   5.876   5.916
 6055SOL    HW119064   3.905   5.862   6.007
 6055SOL    HW219065   3.965   5.787   5.875
 6056SOL     OW19066   4.957   3.173   5.155
 6056SOL    HW119067   4.936   3.206   5.063
 6056SOL    HW219068   4.916   3.234   5.222
 6057SOL     OW19069   5.878   0.501   1.924
 6057SOL    HW119070   5.890   0.491   2.022
 6057SOL    HW219071   5.964   0.480   1.877
 6058SOL     OW19072   5.667   3.950   0.330
 6058SOL    HW119073   5.704   4.021   0.269
 6058SOL    HW219074   5.660   3.987   0.423
 6059SOL     OW19075   5.178   4.569   5.658
 6059SOL    HW119076   5.219   4.517   5.583
 6059SOL    HW219077   5.250   4.606   5.716
 6060SOL     OW19078   2.509   3.318   6.764
 6060SOL    HW119079   2.565   3.245   6.803
 6060SOL    HW219080   2.544   3.406   6.795
 6061SOL     OW19081   4.814   4.019   0.889
 6061SOL    HW119082   4.893   4.043   0.944
 6061SOL    HW219083   4.844   3.979   0.802
 6062SOL     OW19084   2.383   1.558   6.901
 6062SOL    HW119085   2.463   1.498   6.913
 6062SOL    HW219086   2.321   1.546   6.979
 6063SOL     OW19087   3.615   3.669   5.591
 6063SOL    HW119088   3.531   3.618   5.572
 6063SOL    HW219089   3.614   3.754   5.538
 6064SOL     OW19090   1.139   0.908   1.032
 6064SOL    HW119091   1.053   0.940   1.073
 6064SOL    HW219092   1.192   0.987   1.001
 6065SOL     OW19093   0.396   5.838   1.783
 6065SOL    HW119094   0.381   5.935   1.768
 6065SOL    HW219095   0.313   5.787   1.756
 6066SOL     OW19096   5.753   1.109   5.332
 6066SOL    HW119097   5.795   1.046   5.396
 6066SOL    HW219098   5.789   1.201   5.347
 6067SOL     OW19099   4.996   1.278   5.420
 6067SOL    HW119100   5.067   1.253   5.354
 6067SOL    HW219101   5.010   1.228   5.505
 6068SOL     OW19102   4.999   2.172   4.351
 6068SOL    HW119103   4.947   2.093   4.318
 6068SOL    HW219104   4.987   2.182   4.449
 6069SOL     OW19105   6.460   3.832   5.371
 6069SOL    HW119106   6.513   3.887   5.436
 6069SOL    HW219107   6.403   3.767   5.421
 6070SOL     OW19108   3.691   3.002   1.274
 6070SOL    HW119109   3.733   3.087   1.305
 6070SOL    HW219110   3.639   3.019   1.190
 6071SOL     OW19111   1.322   5.960   4.202
 6071SOL    HW119112   1.240   6.010   4.231
 6071SOL    HW219113   1.347   5.988   4.110
 6072SOL     OW19114   0.690   0.954   2.020
 6072SOL    HW119115   0.722   0.875   1.968
 6072SOL    HW219116   0.622   0.924   2.087
 6073SOL     OW19117   5.356   2.781   0.868
 6073SOL    HW119118   5.333   2.832   0.785
 6073SOL    HW219119   5.273   2.744   0.908
 6074SOL     OW19120   1.907   6.685   2.113
 6074SOL    HW119121   1.997   6.654   2.082
 6074SOL    HW219122   1.848   6.606   2.130
 6075SOL     OW19123   4.364   0.054   5.064
 6075SOL    HW119124   4.334   0.061   5.159
 6075SOL    HW219125   4.394   6.990   5.045
 6076SOL     OW19126   2.676   5.244   3.103
 6076SOL    HW119127   2.680   5.317   3.035
 6076SOL    HW219128   2.596   5.187   3.087
 6077SOL     OW19129   6.654   6.051   1.025
 6077SOL    HW119130   6.618   6.082   1.113
 6077SOL    HW219131   6.754   6.039   1.032
 6078SOL     OW19132   4.498   4.922   0.578
 6078SOL    HW119133   4.526   4.918   0.482
 6078SOL    HW219134   4.411   4.874   0.589
 6079SOL     OW19135   5.442   4.766   6.537
 6079SOL    HW119136   5.431   4.673   6.572
 6079SOL    HW219137   5.354   4.814   6.540
 6080SOL     OW19138   0.601   5.364   1.357
 6080SOL    HW119139   0.668   5.438   1.364
 6080SOL    HW219140   0.649   5.277   1.340
 6081SOL     OW19141   6.938   2.980   5.067
 6081SOL    HW119142   6.950   3.009   4.972
 6081SOL    HW219143   6.961   2.883   5.075
 6082SOL     OW19144   3.525   6.712   2.701
 6082SOL    HW119145   3.620   6.742   2.693
 6082SOL    HW219146   3.464   6.787   2.676
 6083SOL     OW19147   5.718   5.388   0.748
 6083SOL    HW119148   5.752   5.294   0.751
 6083SOL    HW219149   5.663   5.407   0.829
 6084SOL     OW19150   0.916   6.618   2.161
 6084SOL    HW119151   0.864   6.584   2.239
 6084SOL    HW219152   0.985   6.551   2.134
 6085SOL     OW19153   6.802   5.714   6.674
 6085SOL    HW119154   6.731   5.703   6.743
 6085SOL    HW219155   6.847   5.626   6.658
 6086SOL     OW19156   2.613   2.062   5.865
 6086SOL    HW119157   2.526   2.012   5.865
 6086SOL    HW219158   2.641   2.079   5.770
 6087SOL     OW19159   3.728   6.036   0.893
 6087SOL    HW119160   3.747   6.074   0.802
 6087SOL    HW219161   3.745   5.937   0.892
 6088SOL     OW19162   5.572   6.845   4.922
 6088SOL    HW119163   5.481   6.822   4.887
 6088SOL    HW219164   5.622   6.896   4.852
 6089SOL     OW19165   5.995   2.470   3.323
 6089SOL    HW119166   5.985   2.511   3.414
 6089SOL    HW219167   6.072   2.512   3.276
 6090SOL     OW19168   1.942   4.838   4.506
 6090SOL    HW119169   2.018   4.845   4.441
 6090SOL    HW219170   1.905   4.929   4.526
 6091SOL     OW19171   2.878   1.627   0.349
 6091SOL    HW119172   2.891   1.721   0.316
 6091SOL    HW219173   2.783   1.600   0.334
 6092SOL     OW19174   4.564   0.849   1.749
 6092SOL    HW119175   4.647   0.863   1.803
 6092SOL    HW219176   4.581   0.779   1.679
 6093SOL     OW19177   2.438   2.226   1.817
 6093SOL    HW119178   2.432   2.199   1.913
 6093SOL    HW219179   2.503   2.302   1.808
 6094SOL     OW19180   1.675   5.918   2.926
 6094SOL    HW119181   1.584   5.959   2.923
 6094SOL    HW219182   1.681   5.845   2.858
 6095SOL     OW19183   4.885   4.798   6.441
 6095SOL    HW119184   4.900   4.817   6.538
 6095SOL    HW219185   4.789   4.816   6.418
 6096SOL     OW19186   6.128   6.870   2.110
 6096SOL    HW119187   6.187   6.791   2.123
 6096SOL    HW219188   6.083   6.892   2.197
 6097SOL     OW19189   1.829   5.284   2.264
 6097SOL    HW119190   1.898   5.252   2.199
 6097SOL    HW219191   1.801   5.208   2.323
 6098SOL     OW19192   6.785   1.293   6.041
 6098SOL    HW119193   6.778   1.280   6.140
 6098SOL    HW219194   6.757   1.386   6.018
 6099SOL     OW19195   5.101   5.671   5.662
 6099SOL    HW119196   5.034   5.736   5.695
 6099SOL    HW219197   5.108   5.678   5.562
 6100SOL     OW19198   0.319   6.300   2.185
 6100SOL    HW119199   0.367   6.380   2.220
 6100SOL    HW219200   0.223   6.323   2.168
 6101SOL     OW19201   6.729   2.990   3.030
 6101SOL    HW119202   6.638   2.983   2.988
 6101SOL    HW219203   6.789   2.921   2.991
 6102SOL     OW19204   4.199   5.529   2.637
 6102SOL    HW119205   4.239   5.603   2.583
 6102SOL    HW219206   4.153   5.569   2.717
 6103SOL     OW19207   6.677   0.683   1.176
 6103SOL    HW119208   6.635   0.651   1.091
 6103SOL    HW219209   6.728   0.767   1.158
 6104SOL     OW19210   6.155   0.007   5.000
 6104SOL    HW119211   6.252   0.013   4.973
 6104SOL    HW219212   6.130   0.090   5.050
 6105SOL     OW19213   1.585   5.342   5.937
 6105SOL    HW119214   1.631   5.422   5.897
 6105SOL    HW219215   1.554   5.282   5.863
 6106SOL     OW19216   1.245   4.760   0.059
 6106SOL    HW119217   1.338   4.736   0.086
 6106SOL    HW219218   1.244   4.783   6.991
 6107SOL     OW19219   4.751   5.670   4.957
 6107SOL    HW119220   4.653   5.684   4.976
 6107SOL    HW219221   4.804   5.700   5.036
 6108SOL     OW19222   2.091   2.472   3.534
 6108SOL    HW119223   2.160   2.470   3.462
 6108SOL    HW219224   2.129   2.434   3.618
 6109SOL     OW19225   5.699   0.926   5.578
 6109SOL    HW119226   5.631   0.933   5.651
 6109SOL    HW219227   5.657   0.952   5.491
 6110SOL     OW19228   2.899   3.425   0.732
 6110SOL    HW119229   2.927   3.353   0.668
 6110SOL    HW219230   2.841   3.491   0.685
 6111SOL     OW19231   1.176   3.425   2.436
 6111SOL    HW119232   1.189   3.457   2.530
 6111SOL    HW219233   1.097   3.365   2.432
 6112SOL     OW19234   4.400   0.420   2.716
 6112SOL    HW119235   4.313   0.463   2.693
 6112SOL    HW219236   4.469   0.491   2.730
 6113SOL     OW19237   2.426   2.880   6.661
 6113SOL    HW119238   2.340   2.861   6.709
 6113SOL    HW219239   2.503   2.856   6.720
 6114SOL     OW19240   4.743   4.130   2.617
 6114SOL    HW119241   4.782   4.047   2.576
 6114SOL    HW219242   4.800   4.159   2.693
 6115SOL     OW19243   6.336   0.978   4.896
 6115SOL    HW119244   6.375   0.968   4.804
 6115SOL    HW219245   6.353   1.071   4.929
 6116SOL     OW19246   3.728   1.570   6.055
 6116SOL    HW119247   3.665   1.559   6.132
 6116SOL    HW219248   3.819   1.539   6.082
 6117SOL     OW19249   1.784   1.914   3.232
 6117SOL    HW119250   1.727   1.913   3.150
 6117SOL    HW219251   1.872   1.956   3.212
 6118SOL     OW19252   5.800   1.276   1.609
 6118SOL    HW119253   5.781   1.296   1.513
 6118SOL    HW219254   5.870   1.205   1.615
 6119SOL     OW19255   1.345   3.697   0.619
 6119SOL    HW119256   1.387   3.781   0.654
 6119SOL    HW219257   1.302   3.647   0.694
 6120SOL     OW19258   1.640   6.073   5.686
 6120SOL    HW119259   1.595   6.162   5.682
 6120SOL    HW219260   1.653   6.038   5.593
 6121SOL     OW19261   1.145   3.788   5.605
 6121SOL    HW119262   1.103   3.808   5.516
 6121SOL    HW219263   1.089   3.720   5.653
 6122SOL     OW19264   4.718   5.341   6.957
 6122SOL    HW119265   4.797   5.391   6.923
 6122SOL    HW219266   4.748   5.266   7.016
 6123SOL     OW19267   4.726   6.846   5.621
 6123SOL    HW119268   4.735   6.828   5.719
 6123SOL    HW219269   4.646   6.903   5.604
 6124SOL     OW19270   0.552   6.775   5.807
 6124SOL    HW119271   0.611   6.852   5.783
 6124SOL    HW219272   0.605   6.707   5.858
 6125SOL     OW19273   2.322   4.316   7.026
 6125SOL    HW119274   2.412   4.340   0.034
 6125SOL    HW219275   2.333   4.250   6.951
 6126SOL     OW19276   0.157   1.272   5.137
 6126SOL    HW119277   0.256   1.277   5.155
 6126SOL    HW219278   0.109   1.249   5.221
 6127SOL     OW19279   4.171   0.098   1.865
 6127SOL    HW119280   4.219   0.160   1.927
 6127SOL    HW219281   4.218   0.098   1.776
 6128SOL     OW19282   5.471   5.470   0.593
 6128SOL    HW119283   5.566   5.487   0.620
 6128SOL    HW219284   5.412   5.540   0.633
 6129SOL     OW19285   0.670   3.849   3.427
 6129SOL    HW119286   0.726   3.823   3.506
 6129SOL    HW219287   0.711   3.927   3.381
 6130SOL     OW19288   5.148   2.660   2.818
 6130SOL    HW119289   5.082   2.594   2.853
 6130SOL    HW219290   5.106   2.714   2.745
 6131SOL     OW19291   0.887   1.559   3.314
 6131SOL    HW119292   0.937   1.581   3.397
 6131SOL    HW219293   0.893   1.461   3.296
 6132SOL     OW19294   3.828   2.132   6.746
 6132SOL    HW119295   3.728   2.133   6.757
 6132SOL    HW219296   3.859   2.221   6.715
 6133SOL     OW19297   2.141   3.274   3.080
 6133SOL    HW119298   2.098   3.286   2.991
 6133SOL    HW219299   2.116   3.349   3.140
 6134SOL     OW19300   4.397   6.709   0.052
 6134SOL    HW119301   4.383   6.635   7.016
 6134SOL    HW219302   4.355   6.686   0.140
 6135SOL     OW19303   0.477   5.534   1.516
 6135SOL    HW119304   0.480   5.444   1.472
 6135SOL    HW219305   0.386   5.573   1.505
 6136SOL     OW19306   1.322   2.645   1.707
 6136SOL    HW119307   1.333   2.557   1.662
 6136SOL    HW219308   1.262   2.704   1.652
 6137SOL     OW19309   0.316   4.245   2.214
 6137SOL    HW119310   0.237   4.252   2.152
 6137SOL    HW219311   0.363   4.159   2.196
 6138SOL     OW19312   3.732   7.017   3.562
 6138SOL    HW119313   3.723   0.065   3.499
 6138SOL    HW219314   3.650   6.960   3.556
 6139SOL     OW19315   0.793   6.492   5.601
 6139SOL    HW119316   0.715   6.532   5.554
 6139SOL    HW219317   0.878   6.525   5.560
 6140SOL     OW19318   0.581   0.473   2.279
 6140SOL    HW119319   0.558   0.394   2.336
 6140SOL    HW219320   0.542   0.460   2.188
 6141SOL     OW19321   0.179   0.207   6.159
 6141SOL    HW119322   0.276   0.224   6.145
 6141SOL    HW219323   0.156   0.115   6.126
 6142SOL     OW19324   0.628   5.814   6.260
 6142SOL    HW119325   0.561   5.772   6.321
 6142SOL    HW219326   0.581   5.853   6.180
 6143SOL     OW19327   0.119   4.189   0.996
 6143SOL    HW119328   0.180   4.171   1.073
 6143SOL    HW219329   0.169   4.181   0.910
 6144SOL     OW19330   5.163   5.137   3.528
 6144SOL    HW119331   5.105   5.217   3.541
 6144SOL    HW219332   5.161   5.109   3.432
 6145SOL     OW19333   5.212   4.843   3.929
 6145SOL    HW119334   5.220   4.825   3.831
 6145SOL    HW219335   5.257   4.929   3.951
 6146SOL     OW19336   3.286   5.938   3.209
 6146SOL    HW119337   3.369   5.965   3.160
 6146SOL    HW219338   3.298   5.956   3.307
 6147SOL     OW19339   1.945   2.547   5.190
 6147SOL    HW119340   1.926   2.475   5.258
 6147SOL    HW219341   1.867   2.555   5.128
 6148SOL     OW19342   4.268   5.635   5.754
 6148SOL    HW119343   4.228   5.654   5.843
 6148SOL    HW219344   4.291   5.722   5.709
 6149SOL     OW19345   2.645   6.804   1.844
 6149SOL    HW119346   2.669   6.764   1.932
 6149SOL    HW219347   2.715   6.781   1.777
 6150SOL     OW19348   5.996   4.035   6.692
 6150SOL    HW119349   6.067   4.105   6.696
 6150SOL    HW219350   5.990   3.987   6.779
 6151SOL     OW19351   5.962   4.879   5.127
 6151SOL    HW119352   5.881   4.820   5.122
 6151SOL    HW219353   5.937   4.973   5.106
 6152SOL     OW19354   0.705   5.341   4.889
 6152SOL    HW119355   0.618   5.368   4.932
 6152SOL    HW219356   0.719   5.243   4.903
 6153SOL     OW19357   5.636   5.219   1.368
 6153SOL    HW119358   5.589   5.149   1.314
 6153SOL    HW219359   5.676   5.178   1.449
 6154SOL     OW19360   5.633   3.247   2.367
 6154SOL    HW119361   5.708   3.187   2.341
 6154SOL    HW219362   5.663   3.309   2.440
 6155SOL     OW19363   3.022   1.057   2.917
 6155SOL    HW119364   3.050   1.034   2.824
 6155SOL    HW219365   3.049   1.151   2.938
 6156SOL     OW19366   4.653   5.092   1.431
 6156SOL    HW119367   4.560   5.094   1.470
 6156SOL    HW219368   4.664   5.009   1.376
 6157SOL     OW19369   0.719   1.932   2.974
 6157SOL    HW119370   0.818   1.923   2.960
 6157SOL    HW219371   0.695   2.029   2.983
 6158SOL     OW19372   3.752   2.442   0.196
 6158SOL    HW119373   3.662   2.486   0.196
 6158SOL    HW219374   3.803   2.472   0.115
 6159SOL     OW19375   4.371   2.496   0.619
 6159SOL    HW119376   4.449   2.556   0.636
 6159SOL    HW219377   4.399   2.420   0.560
 6160SOL     OW19378   6.047   0.155   6.590
 6160SOL    HW119379   5.998   0.080   6.635
 6160SOL    HW219380   5.984   0.206   6.532
 6161SOL     OW19381   5.597   1.323   0.392
 6161SOL    HW119382   5.670   1.288   0.451
 6161SOL    HW219383   5.577   1.257   0.320
 6162SOL     OW19384   6.198   6.184   3.823
 6162SOL    HW119385   6.156   6.143   3.742
 6162SOL    HW219386   6.281   6.233   3.797
 6163SOL     OW19387   5.119   5.965   2.155
 6163SOL    HW119388   5.061   5.997   2.080
 6163SOL    HW219389   5.093   5.872   2.179
 6164SOL     OW19390   3.509   4.210   4.779
 6164SOL    HW119391   3.410   4.198   4.783
 6164SOL    HW219392   3.541   4.255   4.863
 6165SOL     OW19393   4.393   1.699   6.053
 6165SOL    HW119394   4.334   1.769   6.093
 6165SOL    HW219395   4.339   1.639   5.994
 6166SOL     OW19396   5.861   1.723   0.853
 6166SOL    HW119397   5.949   1.750   0.814
 6166SOL    HW219398   5.843   1.775   0.936
 6167SOL     OW19399   0.863   4.897   2.639
 6167SOL    HW119400   0.785   4.864   2.692
 6167SOL    HW219401   0.858   4.997   2.631
 6168SOL     OW19402   0.350   3.159   3.374
 6168SOL    HW119403   0.448   3.156   3.352
 6168SOL    HW219404   0.317   3.253   3.366
 6169SOL     OW19405   1.433   1.964   7.019
 6169SOL    HW119406   1.497   1.898   0.029
 6169SOL    HW219407   1.483   2.044   6.987
 6170SOL     OW19408   3.070   4.173   5.289
 6170SOL    HW119409   2.972   4.171   5.272
 6170SOL    HW219410   3.099   4.087   5.330
 6171SOL     OW19411   1.594   3.464   1.314
 6171SOL    HW119412   1.600   3.532   1.386
 6171SOL    HW219413   1.505   3.420   1.316
 6172SOL     OW19414   1.144   0.731   3.328
 6172SOL    HW119415   1.051   0.722   3.365
 6172SOL    HW219416   1.183   0.818   3.359
 6173SOL     OW19417   6.905   4.828   2.379
 6173SOL    HW119418   6.894   4.849   2.476
 6173SOL    HW219419   6.828   4.868   2.328
 6174SOL     OW19420   6.177   5.201   2.858
 6174SOL    HW119421   6.225   5.141   2.795
 6174SOL    HW219422   6.092   5.158   2.887
 6175SOL     OW19423   5.173   0.249   3.626
 6175SOL    HW119424   5.195   0.157   3.594
 6175SOL    HW219425   5.096   0.244   3.690
 6176SOL     OW19426   6.706   2.893   0.348
 6176SOL    HW119427   6.736   2.812   0.298
 6176SOL    HW219428   6.637   2.868   0.415
 6177SOL     OW19429   6.557   1.721   1.417
 6177SOL    HW119430   6.598   1.768   1.495
 6177SOL    HW219431   6.475   1.672   1.447
 6178SOL     OW19432   4.584   5.084   2.508
 6178SOL    HW119433   4.501   5.032   2.485
 6178SOL    HW219434   4.560   5.158   2.571
 6179SOL     OW19435   6.547   4.789   4.452
 6179SOL    HW119436   6.630   4.822   4.496
 6179SOL    HW219437   6.470   4.799   4.515
 6180SOL     OW19438   3.504   6.149   6.631
 6180SOL    HW119439   3.457   6.072   6.673
 6180SOL    HW219440   3.552   6.118   6.549
 6181SOL     OW19441   4.405   6.417   1.160
 6181SOL    HW119442   4.496   6.376   1.162
 6181SOL    HW219443   4.342   6.361   1.213
 6182SOL     OW19444   5.423   3.403   5.265
 6182SOL    HW119445   5.329   3.405   5.232
 6182SOL    HW219446   5.456   3.309   5.269
 6183SOL     OW19447   2.779   0.002   2.858
 6183SOL    HW119448   2.810   6.958   2.919
 6183SOL    HW219449   2.843   0.010   2.781
 6184SOL     OW19450   1.734   6.493   6.215
 6184SOL    HW119451   1.797   6.484   6.293
 6184SOL    HW219452   1.697   6.586   6.214
 6185SOL     OW19453   0.933   4.669   6.250
 6185SOL    HW119454   0.974   4.741   6.194
 6185SOL    HW219455   0.959   4.683   6.346
 6186SOL     OW19456   5.974   0.318   4.848
 6186SOL    HW119457   5.926   0.403   4.827
 6186SOL    HW219458   6.003   0.319   4.944
 6187SOL     OW19459   4.470   4.702   4.179
 6187SOL    HW119460   4.546   4.752   4.221
 6187SOL    HW219461   4.448   4.621   4.234
 6188SOL     OW19462   2.210   6.710   0.938
 6188SOL    HW119463   2.122   6.683   0.978
 6188SOL    HW219464   2.211   6.687   0.841
 6189SOL     OW19465   4.668   4.250   4.024
 6189SOL    HW119466   4.698   4.158   4.049
 6189SOL    HW219467   4.603   4.283   4.093
 6190SOL     OW19468   6.601   3.667   6.453
 6190SOL    HW119469   6.550   3.698   6.373
 6190SOL    HW219470   6.666   3.738   6.480
 6191SOL     OW19471   4.392   2.992   0.055
 6191SOL    HW119472   4.434   2.976   0.145
 6191SOL    HW219473   4.462   2.987   7.013
 6192SOL     OW19474   3.252   3.124   6.700
 6192SOL    HW119475   3.260   3.204   6.640
 6192SOL    HW219476   3.206   3.150   6.784
 6193SOL     OW19477   5.022   0.927   2.565
 6193SOL    HW119478   5.111   0.882   2.552
 6193SOL    HW219479   5.011   1.000   2.499
 6194SOL     OW19480   1.005   6.824   0.348
 6194SOL    HW119481   1.018   6.909   0.297
 6194SOL    HW219482   0.941   6.765   0.299
 6195SOL     OW19483   3.944   5.660   5.745
 6195SOL    HW119484   3.896   5.576   5.719
 6195SOL    HW219485   3.940   5.725   5.670
 6196SOL     OW19486   6.034   2.244   1.396
 6196SOL    HW119487   6.070   2.338   1.404
 6196SOL    HW219488   5.995   2.231   1.305
 6197SOL     OW19489   4.078   3.931   0.396
 6197SOL    HW119490   4.060   4.002   0.328
 6197SOL    HW219491   3.997   3.917   0.453
 6198SOL     OW19492   3.248   5.166   2.266
 6198SOL    HW119493   3.268   5.097   2.197
 6198SOL    HW219494   3.318   5.237   2.265
 6199SOL     OW19495   1.115   0.037   0.928
 6199SOL    HW119496   1.111   6.967   0.923
 6199SOL    HW219497   1.059   0.077   0.856
 6200SOL     OW19498   1.871   0.828   5.552
 6200SOL    HW119499   1.784   0.873   5.533
 6200SOL    HW219500   1.941   0.861   5.488
 6201SOL     OW19501   1.694   3.874   5.368
 6201SOL    HW119502   1.778   3.820   5.369
 6201SOL    HW219503   1.614   3.814   5.372
 6202SOL     OW19504   4.070   1.889   1.401
 6202SOL    HW119505   4.106   1.823   1.335
 6202SOL    HW219506   4.082   1.981   1.364
 6203SOL     OW19507   5.482   6.652   3.281
 6203SOL    HW119508   5.393   6.642   3.238
 6203SOL    HW219509   5.551   6.604   3.226
 6204SOL     OW19510   0.490   5.358   5.078
 6204SOL    HW119511   0.391   5.366   5.064
 6204SOL    HW219512   0.513   5.386   5.171
 6205SOL     OW19513   5.924   6.368   0.060
 6205SOL    HW119514   5.919   6.270   0.041
 6205SOL    HW219515   5.988   6.411   7.025
 6206SOL     OW19516   6.475   0.692   2.861
 6206SOL    HW119517   6.434   0.675   2.950
 6206SOL    HW219518   6.506   0.787   2.856
 6207SOL     OW19519   1.787   4.206   4.292
 6207SOL    HW119520   1.864   4.269   4.297
 6207SOL    HW219521   1.702   4.259   4.288
 6208SOL     OW19522   6.136   1.499   6.633
 6208SOL    HW119523   6.197   1.541   6.566
 6208SOL    HW219524   6.115   1.564   6.706
 6209SOL     OW19525   4.652   5.576   0.099
 6209SOL    HW119526   4.636   5.481   0.072
 6209SOL    HW219527   4.750   5.595   0.099
 6210SOL     OW19528   6.011   4.655   3.813
 6210SOL    HW119529   6.047   4.591   3.882
 6210SOL    HW219530   6.085   4.714   3.782
 6211SOL     OW19531   2.934   6.319   4.691
 6211SOL    HW119532   2.848   6.369   4.688
 6211SOL    HW219533   2.989   6.351   4.768
 6212SOL     OW19534   2.058   5.264   3.312
 6212SOL    HW119535   2.045   5.274   3.410
 6212SOL    HW219536   2.096   5.349   3.274
 6213SOL     OW19537   4.959   0.500   6.834
 6213SOL    HW119538   4.940   0.402   6.831
 6213SOL    HW219539   4.874   0.551   6.822
 6214SOL     OW19540   4.290   5.002   3.617
 6214SOL    HW119541   4.327   4.909   3.610
 6214SOL    HW219542   4.281   5.027   3.714
 6215SOL     OW19543   3.926   2.030   0.315
 6215SOL    HW119544   3.919   2.040   0.215
 6215SOL    HW219545   3.871   2.100   0.359
 6216SOL     OW19546   6.252   2.145   2.497
 6216SOL    HW119547   6.183   2.212   2.469
 6216SOL    HW219548   6.218   2.093   2.575
 6217SOL     OW19549   0.109   2.892   2.995
 6217SOL    HW119550   0.157   2.824   3.051
 6217SOL    HW219551   0.022   2.853   2.965
 6218SOL     OW19552   3.090   5.004   5.586
 6218SOL    HW119553   3.166   5.068   5.592
 6218SOL    HW219554   3.080   4.956   5.673
 6219SOL     OW19555   1.221   1.999   4.301
 6219SOL    HW119556   1.183   1.939   4.231
 6219SOL    HW219557   1.184   1.975   4.390
 6220SOL     OW19558   1.476   3.177   5.318
 6220SOL    HW119559   1.505   3.252   5.259
 6220SOL    HW219560   1.501   3.197   5.412
 6221SOL     OW19561   6.223   5.867   6.641
 6221SOL    HW119562   6.146   5.919   6.678
 6221SOL    HW219563   6.285   5.929   6.593
 6222SOL     OW19564   1.450   6.520   1.370
 6222SOL    HW119565   1.417   6.457   1.299
 6222SOL    HW219566   1.409   6.610   1.357
 6223SOL     OW19567   0.350   4.559   4.876
 6223SOL    HW119568   0.293   4.486   4.914
 6223SOL    HW219569   0.375   4.623   4.949
 6224SOL     OW19570   2.576   1.974   6.376
 6224SOL    HW119571   2.595   1.934   6.287
 6224SOL    HW219572   2.509   1.917   6.424
 6225SOL     OW19573   3.600   3.137   1.046
 6225SOL    HW119574   3.661   3.207   1.010
 6225SOL    HW219575   3.511   3.177   1.069
 6226SOL     OW19576   5.724   1.758   5.408
 6226SOL    HW119577   5.816   1.761   5.446
 6226SOL    HW219578   5.726   1.717   5.317
 6227SOL     OW19579   3.860   5.434   5.639
 6227SOL    HW119580   3.764   5.424   5.666
 6227SOL    HW219581   3.909   5.349   5.656
 6228SOL     OW19582   0.944   2.881   2.780
 6228SOL    HW119583   0.882   2.881   2.702
 6228SOL    HW219584   0.895   2.913   2.861
 6229SOL     OW19585   0.813   2.895   2.552
 6229SOL    HW119586   0.780   2.989   2.542
 6229SOL    HW219587   0.735   2.833   2.560
 6230SOL     OW19588   1.223   1.393   3.912
 6230SOL    HW119589   1.137   1.433   3.946
 6230SOL    HW219590   1.214   1.293   3.910
 6231SOL     OW19591   6.679   5.027   1.271
 6231SOL    HW119592   6.599   4.968   1.268
 6231SOL    HW219593   6.661   5.105   1.331
 6232SOL     OW19594   6.226   1.725   0.954
 6232SOL    HW119595   6.269   1.680   1.032
 6232SOL    HW219596   6.174   1.657   0.902
 6233SOL     OW19597   6.064   0.952   0.317
 6233SOL    HW119598   6.101   0.915   0.402
 6233SOL    HW219599   5.964   0.941   0.316
 6234SOL     OW19600   6.487   2.016   5.598
 6234SOL    HW119601   6.502   2.057   5.508
 6234SOL    HW219602   6.574   1.988   5.637
 6235SOL     OW19603   1.561   0.160   1.545
 6235SOL    HW119604   1.628   0.152   1.619
 6235SOL    HW219605   1.578   0.244   1.494
 6236SOL     OW19606   0.574   4.007   0.197
 6236SOL    HW119607   0.590   4.069   0.119
 6236SOL    HW219608   0.661   3.983   0.239
 6237SOL     OW19609   3.601   5.799   6.800
 6237SOL    HW119610   3.648   5.776   6.715
 6237SOL    HW219611   3.512   5.839   6.779
 6238SOL     OW19612   3.981   5.049   3.226
 6238SOL    HW119613   3.928   4.964   3.235
 6238SOL    HW219614   3.922   5.127   3.247
 6239SOL     OW19615   3.520   6.084   1.870
 6239SOL    HW119616   3.534   6.052   1.777
 6239SOL    HW219617   3.567   6.023   1.934
 6240SOL     OW19618   2.774   3.289   6.623
 6240SOL    HW119619   2.837   3.218   6.592
 6240SOL    HW219620   2.798   3.317   6.716
 6241SOL     OW19621   3.223   7.004   1.611
 6241SOL    HW119622   3.233   6.935   1.539
 6241SOL    HW219623   3.151   6.976   1.674
 6242SOL     OW19624   5.362   0.986   3.774
 6242SOL    HW119625   5.275   1.030   3.750
 6242SOL    HW219626   5.362   0.963   3.871
 6243SOL     OW19627   6.158   6.583   3.732
 6243SOL    HW119628   6.110   6.498   3.711
 6243SOL    HW219629   6.106   6.660   3.695
 6244SOL     OW19630   1.082   2.119   2.405
 6244SOL    HW119631   1.066   2.021   2.403
 6244SOL    HW219632   0.995   2.168   2.396
 6245SOL     OW19633   1.778   4.039   0.309
 6245SOL    HW119634   1.848   4.024   0.240
 6245SOL    HW219635   1.734   3.952   0.332
 6246SOL     OW19636   1.843   2.734   5.633
 6246SOL    HW119637   1.886   2.644   5.640
 6246SOL    HW219638   1.837   2.761   5.537
 6247SOL     OW19639   1.386   6.856   3.968
 6247SOL    HW119640   1.361   6.783   3.905
 6247SOL    HW219641   1.477   6.892   3.944
 6248SOL     OW19642   2.918   4.027   0.870
 6248SOL    HW119643   2.995   4.063   0.818
 6248SOL    HW219644   2.926   4.054   0.966
 6249SOL     OW19645   0.871   3.906   0.312
 6249SOL    HW119646   0.941   3.870   0.250
 6249SOL    HW219647   0.914   3.962   0.383
 6250SOL     OW19648   0.379   5.916   0.889
 6250SOL    HW119649   0.325   6.000   0.882
 6250SOL    HW219650   0.331   5.850   0.948
 6251SOL     OW19651   3.554   5.174   6.771
 6251SOL    HW119652   3.542   5.220   6.859
 6251SOL    HW219653   3.604   5.089   6.785
 6252SOL     OW19654   1.139   6.442   5.930
 6252SOL    HW119655   1.152   6.360   5.874
 6252SOL    HW219656   1.194   6.435   6.013
 6253SOL     OW19657   2.166   3.992   2.736
 6253SOL    HW119658   2.074   4.033   2.735
 6253SOL    HW219659   2.187   3.960   2.828
 6254SOL     OW19660   4.883   1.064   0.484
 6254SOL    HW119661   4.823   1.016   0.548
 6254SOL    HW219662   4.978   1.046   0.509
 6255SOL     OW19663   2.734   0.712   1.233
 6255SOL    HW119664   2.825   0.740   1.265
 6255SOL    HW219665   2.742   0.632   1.174
 6256SOL     OW19666   3.309   4.906   2.825
 6256SOL    HW119667   3.295   5.003   2.810
 6256SOL    HW219668   3.394   4.877   2.781
 6257SOL     OW19669   4.794   2.324   0.484
 6257SOL    HW119670   4.857   2.346   0.559
 6257SOL    HW219671   4.771   2.407   0.434
 6258SOL     OW19672   4.443   0.083   3.829
 6258SOL    HW119673   4.392   0.009   3.874
 6258SOL    HW219674   4.466   0.153   3.897
 6259SOL     OW19675   2.729   2.839   0.693
 6259SOL    HW119676   2.750   2.832   0.596
 6259SOL    HW219677   2.688   2.929   0.711
 6260SOL     OW19678   3.034   5.223   0.017
 6260SOL    HW119679   2.966   5.294   0.033
 6260SOL    HW219680   3.108   5.260   6.990
 6261SOL     OW19681   3.652   0.018   6.306
 6261SOL    HW119682   3.702   0.029   6.220
 6261SOL    HW219683   3.708   0.051   6.382
 6262SOL     OW19684   1.443   4.984   0.644
 6262SOL    HW119685   1.489   5.023   0.564
 6262SOL    HW219686   1.422   4.888   0.627
 6263SOL     OW19687   0.094   0.403   5.327
 6263SOL    HW119688   0.168   0.463   5.358
 6263SOL    HW219689   0.021   0.403   5.395
 6264SOL     OW19690   1.452   0.218   1.824
 6264SOL    HW119691   1.460   0.249   1.919
 6264SOL    HW219692   1.369   0.162   1.815
 6265SOL     OW19693   2.945   4.219   0.627
 6265SOL    HW119694   2.858   4.232   0.579
 6265SOL    HW219695   2.955   4.288   0.699
 6266SOL     OW19696   4.086   6.982   4.853
 6266SOL    HW119697   4.082   7.000   4.755
 6266SOL    HW219698   4.064   6.886   4.870
 6267SOL     OW19699   2.743   0.610   6.845
 6267SOL    HW119700   2.667   0.620   6.782
 6267SOL    HW219701   2.802   0.535   6.815
 6268SOL     OW19702   3.704   6.710   3.392
 6268SOL    HW119703   3.699   6.697   3.293
 6268SOL    HW219704   3.792   6.750   3.417
 6269SOL     OW19705   6.643   5.552   1.814
 6269SOL    HW119706   6.724   5.504   1.846
 6269SOL    HW219707   6.668   5.643   1.780
 6270SOL     OW19708   1.786   0.528   5.522
 6270SOL    HW119709   1.817   0.616   5.557
 6270SOL    HW219710   1.710   0.495   5.577
 6271SOL     OW19711   5.713   2.439   5.940
 6271SOL    HW119712   5.632   2.457   5.997
 6271SOL    HW219713   5.740   2.523   5.894
 6272SOL     OW19714   0.683   2.541   6.545
 6272SOL    HW119715   0.779   2.514   6.541
 6272SOL    HW219716   0.634   2.504   6.466
 6273SOL     OW19717   1.919   6.715   3.168
 6273SOL    HW119718   1.908   6.777   3.246
 6273SOL    HW219719   1.865   6.748   3.091
 6274SOL     OW19720   1.968   5.341   6.014
 6274SOL    HW119721   2.049   5.284   6.024
 6274SOL    HW219722   1.987   5.417   5.952
 6275SOL     OW19723   1.923   6.072   4.969
 6275SOL    HW119724   2.008   6.026   4.945
 6275SOL    HW219725   1.900   6.053   5.065
 6276SOL     OW19726   1.947   4.898   3.060
 6276SOL    HW119727   2.013   4.865   2.993
 6276SOL    HW219728   1.882   4.960   3.016
 6277SOL     OW19729   5.531   3.638   1.735
 6277SOL    HW119730   5.628   3.613   1.733
 6277SOL    HW219731   5.482   3.576   1.796
 6278SOL     OW19732   5.293   6.838   4.764
 6278SOL    HW119733   5.292   6.755   4.820
 6278SOL    HW219734   5.202   6.855   4.727
 6279SOL     OW19735   3.631   0.590   6.455
 6279SOL    HW119736   3.545   0.612   6.409
 6279SOL    HW219737   3.645   0.491   6.452
 6280SOL     OW19738   0.690   2.122   5.180
 6280SOL    HW119739   0.615   2.137   5.116
 6280SOL    HW219740   0.774   2.102   5.129
 6281SOL     OW19741   1.619   4.949   3.560
 6281SOL    HW119742   1.708   4.908   3.538
 6281SOL    HW219743   1.604   4.946   3.658
 6282SOL     OW19744   1.335   7.024   4.892
 6282SOL    HW119745   1.333   0.064   4.820
 6282SOL    HW219746   1.354   0.037   4.980
 6283SOL     OW19747   6.815   3.010   5.951
 6283SOL    HW119748   6.879   2.997   5.874
 6283SOL    HW219749   6.806   2.924   6.002
 6284SOL     OW19750   1.942   5.282   4.622
 6284SOL    HW119751   1.885   5.203   4.600
 6284SOL    HW219752   1.909   5.362   4.572
 6285SOL     OW19753   0.925   3.314   3.825
 6285SOL    HW119754   1.010   3.300   3.773
 6285SOL    HW219755   0.947   3.339   3.919
 6286SOL     OW19756   6.561   1.796   3.773
 6286SOL    HW119757   6.595   1.884   3.808
 6286SOL    HW219758   6.634   1.728   3.779
 6287SOL     OW19759   3.780   4.968   3.985
 6287SOL    HW119760   3.690   4.984   4.026
 6287SOL    HW219761   3.771   4.969   3.885
 6288SOL     OW19762   5.694   4.732   2.743
 6288SOL    HW119763   5.740   4.755   2.657
 6288SOL    HW219764   5.596   4.749   2.735
 6289SOL     OW19765   1.466   5.056   1.998
 6289SOL    HW119766   1.563   5.031   2.005
 6289SOL    HW219767   1.431   5.079   2.088
 6290SOL     OW19768   6.039   3.688   4.258
 6290SOL    HW119769   6.128   3.719   4.224
 6290SOL    HW219770   5.977   3.766   4.264
 6291SOL     OW19771   3.463   2.902   4.821
 6291SOL    HW119772   3.548   2.899   4.874
 6291SOL    HW219773   3.395   2.843   4.864
 6292SOL     OW19774   1.488   2.100   3.694
 6292SOL    HW119775   1.402   2.058   3.668
 6292SOL    HW219776   1.497   2.098   3.794
 6293SOL     OW19777   3.511   0.411   6.943
 6293SOL    HW119778   3.558   0.349   7.006
 6293SOL    HW219779   3.418   0.427   6.976
 6294SOL     OW19780   3.728   5.162   4.316
 6294SOL    HW119781   3.661   5.125   4.251
 6294SOL    HW219782   3.713   5.260   4.326
 6295SOL     OW19783   5.444   5.240   5.731
 6295SOL    HW119784   5.486   5.325   5.760
 6295SOL    HW219785   5.379   5.209   5.801
 6296SOL     OW19786   0.110   6.689   5.288
 6296SOL    HW119787   0.066   6.778   5.296
 6296SOL    HW219788   0.078   6.630   5.363
 6297SOL     OW19789   5.053   6.856   4.936
 6297SOL    HW119790   5.079   6.761   4.956
 6297SOL    HW219791   4.961   6.873   4.972
 6298SOL     OW19792   1.510   2.684   5.988
 6298SOL    HW119793   1.439   2.735   6.035
 6298SOL    HW219794   1.548   2.739   5.914
 6299SOL     OW19795   5.387   1.552   0.403
 6299SOL    HW119796   5.402   1.616   0.327
 6299SOL    HW219797   5.462   1.486   0.406
 6300SOL     OW19798   5.184   0.357   6.971
 6300SOL    HW119799   5.101   0.400   6.934
 6300SOL    HW219800   5.220   0.292   6.905
 6301SOL     OW19801   3.531   0.639   0.974
 6301SOL    HW119802   3.452   0.700   0.980
 6301SOL    HW219803   3.523   0.567   1.043
 6302SOL     OW19804   1.819   0.952   3.936
 6302SOL    HW119805   1.912   0.931   3.965
 6302SOL    HW219806   1.819   1.036   3.882
 6303SOL     OW19807   2.108   1.022   4.736
 6303SOL    HW119808   2.064   1.087   4.798
 6303SOL    HW219809   2.204   1.012   4.761
 6304SOL     OW19810   2.276   1.329   1.327
 6304SOL    HW119811   2.198   1.310   1.387
 6304SOL    HW219812   2.266   1.276   1.243
 6305SOL     OW19813   6.176   0.036   1.757
 6305SOL    HW119814   6.265   0.024   1.801
 6305SOL    HW219815   6.110   0.068   1.825
 6306SOL     OW19816   1.237   3.237   4.237
 6306SOL    HW119817   1.280   3.317   4.197
 6306SOL    HW219818   1.220   3.253   4.334
 6307SOL     OW19819   4.004   4.588   5.719
 6307SOL    HW119820   3.945   4.580   5.639
 6307SOL    HW219821   3.956   4.554   5.800
 6308SOL     OW19822   2.001   2.007   4.736
 6308SOL    HW119823   1.984   2.095   4.692
 6308SOL    HW219824   2.094   1.977   4.715
 6309SOL     OW19825   5.265   4.289   4.309
 6309SOL    HW119826   5.314   4.358   4.362
 6309SOL    HW219827   5.318   4.265   4.228
 6310SOL     OW19828   1.928   5.627   3.267
 6310SOL    HW119829   1.913   5.725   3.252
 6310SOL    HW219830   1.975   5.614   3.354
 6311SOL     OW19831   5.325   0.567   5.786
 6311SOL    HW119832   5.412   0.614   5.774
 6311SOL    HW219833   5.294   0.578   5.880
 6312SOL     OW19834   6.480   5.371   5.881
 6312SOL    HW119835   6.501   5.339   5.788
 6312SOL    HW219836   6.381   5.373   5.894
 6313SOL     OW19837   1.416   6.618   3.756
 6313SOL    HW119838   1.431   6.621   3.657
 6313SOL    HW219839   1.502   6.594   3.802
 6314SOL     OW19840   4.224   6.615   1.715
 6314SOL    HW119841   4.205   6.519   1.734
 6314SOL    HW219842   4.212   6.633   1.617
 6315SOL     OW19843   3.685   3.171   6.357
 6315SOL    HW119844   3.738   3.182   6.273
 6315SOL    HW219845   3.678   3.074   6.379
 6316SOL     OW19846   4.518   1.813   6.674
 6316SOL    HW119847   4.442   1.817   6.739
 6316SOL    HW219848   4.604   1.795   6.723
 6317SOL     OW19849   5.078   5.577   2.782
 6317SOL    HW119850   5.057   5.671   2.811
 6317SOL    HW219851   5.055   5.566   2.685
 6318SOL     OW19852   2.716   2.288   4.737
 6318SOL    HW119853   2.789   2.272   4.803
 6318SOL    HW219854   2.754   2.295   4.645
 6319SOL     OW19855   6.855   2.275   4.146
 6319SOL    HW119856   6.779   2.218   4.114
 6319SOL    HW219857   6.863   2.355   4.087
 6320SOL     OW19858   5.909   5.536   4.875
 6320SOL    HW119859   5.812   5.513   4.865
 6320SOL    HW219860   5.952   5.472   4.938
 6321SOL     OW19861   3.031   3.668   1.256
 6321SOL    HW119862   2.988   3.748   1.298
 6321SOL    HW219863   3.130   3.679   1.256
 6322SOL     OW19864   2.107   2.404   7.019
 6322SOL    HW119865   2.094   2.387   0.087
 6322SOL    HW219866   2.038   2.470   6.987
 6323SOL     OW19867   2.982   2.775   1.516
 6323SOL    HW119868   2.968   2.844   1.587
 6323SOL    HW219869   3.055   2.713   1.545
 6324SOL     OW19870   5.301   0.213   6.360
 6324SOL    HW119871   5.381   0.260   6.324
 6324SOL    HW219872   5.316   0.193   6.457
 6325SOL     OW19873   2.159   2.032   2.436
 6325SOL    HW119874   2.072   2.072   2.464
 6325SOL    HW219875   2.159   2.016   2.337
 6326SOL     OW19876   5.064   5.645   1.417
 6326SOL    HW119877   5.067   5.546   1.421
 6326SOL    HW219878   5.148   5.680   1.375
 6327SOL     OW19879   0.167   0.257   4.985
 6327SOL    HW119880   0.245   0.307   5.023
 6327SOL    HW219881   0.107   0.321   4.937
 6328SOL     OW19882   2.049   4.235   0.773
 6328SOL    HW119883   2.129   4.206   0.826
 6328SOL    HW219884   1.989   4.156   0.757
 6329SOL     OW19885   2.116   2.715   3.219
 6329SOL    HW119886   2.163   2.752   3.299
 6329SOL    HW219887   2.139   2.619   3.207
 6330SOL     OW19888   4.730   1.221   1.057
 6330SOL    HW119889   4.758   1.317   1.052
 6330SOL    HW219890   4.653   1.206   0.995
 6331SOL     OW19891   6.306   2.059   6.981
 6331SOL    HW119892   6.285   2.153   6.956
 6331SOL    HW219893   6.249   2.031   0.029
 6332SOL     OW19894   6.386   3.613   1.769
 6332SOL    HW119895   6.393   3.635   1.866
 6332SOL    HW219896   6.316   3.670   1.726
 6333SOL     OW19897   4.147   5.505   4.875
 6333SOL    HW119898   4.207   5.583   4.855
 6333SOL    HW219899   4.180   5.459   4.957
 6334SOL     OW19900   3.196   0.179   1.824
 6334SOL    HW119901   3.199   0.134   1.734
 6334SOL    HW219902   3.171   0.112   1.894
 6335SOL     OW19903   4.635   1.048   0.145
 6335SOL    HW119904   4.695   1.119   0.182
 6335SOL    HW219905   4.542   1.064   0.178
 6336SOL     OW19906   0.499   1.755   6.620
 6336SOL    HW119907   0.586   1.802   6.628
 6336SOL    HW219908   0.510   1.659   6.646
 6337SOL     OW19909   4.818   4.531   6.098
 6337SOL    HW119910   4.721   4.556   6.104
 6337SOL    HW219911   4.859   4.574   6.018
 6338SOL     OW19912   3.308   2.033   3.282
 6338SOL    HW119913   3.280   1.937   3.277
 6338SOL    HW219914   3.350   2.060   3.196
 6339SOL     OW19915   1.619   3.051   2.496
 6339SOL    HW119916   1.566   3.111   2.556
 6339SOL    HW219917   1.647   2.970   2.547
 6340SOL     OW19918   1.395   4.988   2.581
 6340SOL    HW119919   1.323   4.931   2.542
 6340SOL    HW219920   1.388   4.988   2.681
 6341SOL     OW19921   0.952   4.309   4.038
 6341SOL    HW119922   0.866   4.330   3.992
 6341SOL    HW219923   0.959   4.362   4.122
 6342SOL     OW19924   2.415   1.830   1.942
 6342SOL    HW119925   2.498   1.883   1.957
 6342SOL    HW219926   2.438   1.746   1.892
 6343SOL     OW19927   4.928   2.385   6.794
 6343SOL    HW119928   5.022   2.376   6.760
 6343SOL    HW219929   4.881   2.297   6.783
 6344SOL     OW19930   5.678   3.399   4.969
 6344SOL    HW119931   5.647   3.337   5.041
 6344SOL    HW219932   5.639   3.370   4.882
 6345SOL     OW19933   4.835   1.826   2.270
 6345SOL    HW119934   4.868   1.761   2.201
 6345SOL    HW219935   4.744   1.858   2.245
 6346SOL     OW19936   6.785   4.536   3.953
 6346SOL    HW119937   6.873   4.494   3.933
 6346SOL    HW219938   6.757   4.514   4.046
 6347SOL     OW19939   1.892   0.057   1.471
 6347SOL    HW119940   1.990   0.075   1.464
 6347SOL    HW219941   1.854   0.109   1.548
 6348SOL     OW19942   1.582   3.863   4.863
 6348SOL    HW119943   1.641   3.905   4.932
 6348SOL    HW219944   1.491   3.904   4.867
 6349SOL     OW19945   3.277   0.035   1.153
 6349SOL    HW119946   3.322   0.105   1.098
 6349SOL    HW219947   3.210   0.078   1.214
 6350SOL     OW19948   2.631   4.575   3.996
 6350SOL    HW119949   2.636   4.630   3.913
 6350SOL    HW219950   2.680   4.621   4.070
 6351SOL     OW19951   6.152   3.533   3.348
 6351SOL    HW119952   6.185   3.440   3.332
 6351SOL    HW219953   6.077   3.553   3.285
 6352SOL     OW19954   3.088   5.349   4.682
 6352SOL    HW119955   3.064   5.358   4.779
 6352SOL    HW219956   3.024   5.286   4.638
 6353SOL     OW19957   0.340   1.127   6.181
 6353SOL    HW119958   0.401   1.202   6.206
 6353SOL    HW219959   0.394   1.047   6.157
 6354SOL     OW19960   2.002   6.158   3.193
 6354SOL    HW119961   2.037   6.232   3.250
 6354SOL    HW219962   1.922   6.191   3.143
 6355SOL     OW19963   1.089   5.438   6.080
 6355SOL    HW119964   1.126   5.415   6.170
 6355SOL    HW219965   0.994   5.470   6.091
 6356SOL     OW19966   3.494   4.900   2.357
 6356SOL    HW119967   3.425   4.943   2.298
 6356SOL    HW219968   3.566   4.860   2.300
 6357SOL     OW19969   5.142   3.147   2.379
 6357SOL    HW119970   5.044   3.162   2.388
 6357SOL    HW219971   5.180   3.122   2.468
 6358SOL     OW19972   1.259   2.066   6.118
 6358SOL    HW119973   1.285   2.044   6.212
 6358SOL    HW219974   1.319   2.138   6.083
 6359SOL     OW19975   6.301   6.733   5.760
 6359SOL    HW119976   6.251   6.815   5.732
 6359SOL    HW219977   6.397   6.741   5.732
 6360SOL     OW19978   1.776   3.869   3.955
 6360SOL    HW119979   1.715   3.897   4.030
 6360SOL    HW219980   1.840   3.800   3.989
 6361SOL     OW19981   6.199   0.346   0.373
 6361SOL    HW119982   6.186   0.437   0.331
 6361SOL    HW219983   6.193   0.355   0.472
 6362SOL     OW19984   6.867   6.139   0.496
 6362SOL    HW119985   6.875   6.040   0.504
 6362SOL    HW219986   6.940   6.174   0.437
 6363SOL     OW19987   2.298   4.119   3.200
 6363SOL    HW119988   2.313   4.178   3.279
 6363SOL    HW219989   2.203   4.124   3.171
 6364SOL     OW19990   3.084   1.542   5.937
 6364SOL    HW119991   3.081   1.482   5.857
 6364SOL    HW219992   3.039   1.629   5.916
 6365SOL     OW19993   5.628   0.137   4.357
 6365SOL    HW119994   5.637   0.161   4.453
 6365SOL    HW219995   5.628   0.038   4.347
 6366SOL     OW19996   1.137   5.484   6.523
 6366SOL    HW119997   1.237   5.485   6.515
 6366SOL    HW219998   1.098   5.545   6.454
 6367SOL     OW19999   4.009   6.925   4.564
 6367SOL    HW120000   3.928   6.932   4.505
 6367SOL    HW220001   4.009   6.836   4.610
 6368SOL     OW20002   3.313   6.009   3.480
 6368SOL    HW120003   3.382   6.081   3.487
 6368SOL    HW220004   3.230   6.037   3.528
 6369SOL     OW20005   2.013   4.352   4.274
 6369SOL    HW120006   2.096   4.308   4.308
 6369SOL    HW220007   2.037   4.429   4.214
 6370SOL     OW20008   0.581   3.615   2.564
 6370SOL    HW120009   0.575   3.703   2.515
 6370SOL    HW220010   0.627   3.548   2.505
 6371SOL     OW20011   5.158   3.743   4.176
 6371SOL    HW120012   5.181   3.651   4.208
 6371SOL    HW220013   5.236   3.781   4.125
 6372SOL     OW20014   3.719   0.222   1.878
 6372SOL    HW120015   3.632   0.259   1.847
 6372SOL    HW220016   3.786   0.229   1.804
 6373SOL     OW20017   5.578   4.474   3.656
 6373SOL    HW120018   5.526   4.460   3.740
 6373SOL    HW220019   5.517   4.504   3.583
 6374SOL     OW20020   3.312   3.770   4.715
 6374SOL    HW120021   3.234   3.719   4.679
 6374SOL    HW220022   3.330   3.849   4.657
 6375SOL     OW20023   7.014   1.544   4.464
 6375SOL    HW120024   6.944   1.594   4.412
 6375SOL    HW220025   0.017   1.467   4.409
 6376SOL     OW20026   6.273   2.573   5.243
 6376SOL    HW120027   6.331   2.507   5.196
 6376SOL    HW220028   6.182   2.534   5.257
 6377SOL     OW20029   6.287   1.847   5.612
 6377SOL    HW120030   6.231   1.802   5.542
 6377SOL    HW220031   6.359   1.900   5.568
 6378SOL     OW20032   4.985   5.330   3.518
 6378SOL    HW120033   5.028   5.374   3.440
 6378SOL    HW220034   4.887   5.317   3.500
 6379SOL     OW20035   2.295   4.182   4.100
 6379SOL    HW120036   2.252   4.091   4.106
 6379SOL    HW220037   2.309   4.219   4.191
 6380SOL     OW20038   0.821   1.443   6.509
 6380SOL    HW120039   0.831   1.345   6.493
 6380SOL    HW220040   0.732   1.461   6.550
 6381SOL     OW20041   4.089   3.275   1.713
 6381SOL    HW120042   4.189   3.267   1.713
 6381SOL    HW220043   4.055   3.262   1.620
 6382SOL     OW20044   0.781   2.126   0.412
 6382SOL    HW120045   0.767   2.111   0.510
 6382SOL    HW220046   0.805   2.222   0.396
 6383SOL     OW20047   1.990   2.022   3.082
 6383SOL    HW120048   1.956   2.110   3.048
 6383SOL    HW220049   1.963   1.950   3.018
 6384SOL     OW20050   5.385   4.328   1.377
 6384SOL    HW120051   5.434   4.415   1.376
 6384SOL    HW220052   5.363   4.300   1.283
 6385SOL     OW20053   6.909   5.114   4.243
 6385SOL    HW120054   6.874   5.074   4.158
 6385SOL    HW220055   6.997   5.072   4.266
 6386SOL     OW20056   2.190   4.653   6.472
 6386SOL    HW120057   2.240   4.577   6.428
 6386SOL    HW220058   2.256   4.717   6.511
 6387SOL     OW20059   0.926   1.698   6.611
 6387SOL    HW120060   0.875   1.621   6.573
 6387SOL    HW220061   0.883   1.784   6.581
 6388SOL     OW20062   4.285   4.739   1.158
 6388SOL    HW120063   4.195   4.752   1.116
 6388SOL    HW220064   4.289   4.649   1.201
 6389SOL     OW20065   0.960   6.433   2.590
 6389SOL    HW120066   0.910   6.405   2.672
 6389SOL    HW220067   0.984   6.530   2.597
 6390SOL     OW20068   0.899   1.879   4.735
 6390SOL    HW120069   0.839   1.803   4.711
 6390SOL    HW220070   0.845   1.963   4.738
 6391SOL     OW20071   2.630   6.612   5.620
 6391SOL    HW120072   2.588   6.694   5.658
 6391SOL    HW220073   2.694   6.638   5.548
 6392SOL     OW20074   2.391   7.009   3.685
 6392SOL    HW120075   2.299   0.017   3.672
 6392SOL    HW220076   2.384   6.920   3.730
 6393SOL     OW20077   5.848   6.984   1.320
 6393SOL    HW120078   5.808   0.001   1.400
 6393SOL    HW220079   5.777   6.970   1.251
 6394SOL     OW20080   2.290   4.745   1.156
 6394SOL    HW120081   2.225   4.748   1.081
 6394SOL    HW220082   2.374   4.699   1.126
 6395SOL     OW20083   6.480   2.939   2.201
 6395SOL    HW120084   6.460   2.973   2.109
 6395SOL    HW220085   6.561   2.879   2.197
 6396SOL     OW20086   5.188   3.081   6.593
 6396SOL    HW120087   5.249   3.144   6.642
 6396SOL    HW220088   5.125   3.134   6.536
 6397SOL     OW20089   5.873   2.649   6.190
 6397SOL    HW120090   5.891   2.585   6.265
 6397SOL    HW220091   5.778   2.640   6.160
 6398SOL     OW20092   3.208   0.987   0.731
 6398SOL    HW120093   3.111   0.964   0.725
 6398SOL    HW220094   3.218   1.079   0.768
 6399SOL     OW20095   1.275   5.291   6.853
 6399SOL    HW120096   1.222   5.215   6.892
 6399SOL    HW220097   1.237   5.314   6.763
 6400SOL     OW20098   2.447   6.395   2.757
 6400SOL    HW120099   2.390   6.389   2.675
 6400SOL    HW220100   2.453   6.490   2.787
 6401SOL     OW20101   0.571   4.805   3.559
 6401SOL    HW120102   0.490   4.863   3.567
 6401SOL    HW220103   0.650   4.860   3.532
 6402SOL     OW20104   4.326   1.031   2.829
 6402SOL    HW120105   4.344   1.129   2.837
 6402SOL    HW220106   4.271   1.001   2.907
 6403SOL     OW20107   0.218   6.378   6.664
 6403SOL    HW120108   0.141   6.418   6.715
 6403SOL    HW220109   0.222   6.418   6.573
 6404SOL     OW20110   4.307   1.303   2.848
 6404SOL    HW120111   4.223   1.271   2.804
 6404SOL    HW220112   4.351   1.370   2.789
 6405SOL     OW20113   2.371   0.554   3.419
 6405SOL    HW120114   2.274   0.553   3.396
 6405SOL    HW220115   2.385   0.607   3.503
 6406SOL     OW20116   1.442   2.565   3.726
 6406SOL    HW120117   1.361   2.601   3.773
 6406SOL    HW220118   1.499   2.515   3.790
 6407SOL     OW20119   3.060   6.998   3.768
 6407SOL    HW120120   3.108   6.994   3.856
 6407SOL    HW220121   2.973   0.016   3.780
 6408SOL     OW20122   6.090   2.139   0.337
 6408SOL    HW120123   6.124   2.185   0.420
 6408SOL    HW220124   6.014   2.192   0.298
 6409SOL     OW20125   0.641   4.924   3.075
 6409SOL    HW120126   0.649   5.020   3.101
 6409SOL    HW220127   0.592   4.875   3.146
 6410SOL     OW20128   2.095   1.525   0.477
 6410SOL    HW120129   2.177   1.583   0.469
 6410SOL    HW220130   2.064   1.525   0.571
 6411SOL     OW20131   0.370   2.699   3.377
 6411SOL    HW120132   0.329   2.760   3.444
 6411SOL    HW220133   0.345   2.604   3.398
 6412SOL     OW20134   0.327   2.850   5.223
 6412SOL    HW120135   0.328   2.855   5.123
 6412SOL    HW220136   0.235   2.869   5.257
 6413SOL     OW20137   4.117   4.721   2.955
 6413SOL    HW120138   4.157   4.665   3.028
 6413SOL    HW220139   4.160   4.697   2.868
 6414SOL     OW20140   6.021   0.495   1.310
 6414SOL    HW120141   5.963   0.437   1.367
 6414SOL    HW220142   5.972   0.579   1.287
 6415SOL     OW20143   1.865   2.552   2.969
 6415SOL    HW120144   1.942   2.570   3.030
 6415SOL    HW220145   1.897   2.547   2.875
 6416SOL     OW20146   1.148   1.014   6.343
 6416SOL    HW120147   1.217   1.031   6.413
 6416SOL    HW220148   1.164   0.924   6.301
 6417SOL     OW20149   6.773   4.256   1.870
 6417SOL    HW120150   6.695   4.245   1.809
 6417SOL    HW220151   6.784   4.174   1.927
 6418SOL     OW20152   4.812   4.608   1.549
 6418SOL    HW120153   4.881   4.680   1.549
 6418SOL    HW220154   4.755   4.616   1.468
 6419SOL     OW20155   2.378   4.455   2.796
 6419SOL    HW120156   2.428   4.392   2.856
 6419SOL    HW220157   2.386   4.424   2.701
 6420SOL     OW20158   2.973   3.809   5.552
 6420SOL    HW120159   3.054   3.778   5.503
 6420SOL    HW220160   3.001   3.863   5.631
 6421SOL     OW20161   5.695   1.344   2.128
 6421SOL    HW120162   5.626   1.413   2.147
 6421SOL    HW220163   5.782   1.371   2.169
 6422SOL     OW20164   0.136   0.318   4.290
 6422SOL    HW120165   0.196   0.244   4.322
 6422SOL    HW220166   0.157   0.338   4.195
 6423SOL     OW20167   4.796   4.891   2.497
 6423SOL    HW120168   4.830   4.848   2.413
 6423SOL    HW220169   4.716   4.946   2.477
 6424SOL     OW20170   6.315   5.973   5.306
 6424SOL    HW120171   6.348   6.063   5.335
 6424SOL    HW220172   6.306   5.970   5.207
 6425SOL     OW20173   6.419   5.706   3.418
 6425SOL    HW120174   6.382   5.681   3.507
 6425SOL    HW220175   6.436   5.623   3.365
 6426SOL     OW20176   0.604   5.090   3.310
 6426SOL    HW120177   0.672   5.044   3.367
 6426SOL    HW220178   0.519   5.102   3.363
 6427SOL     OW20179   2.173   3.225   6.064
 6427SOL    HW120180   2.108   3.157   6.030
 6427SOL    HW220181   2.243   3.180   6.119
 6428SOL     OW20182   6.725   2.773   6.789
 6428SOL    HW120183   6.768   2.683   6.776
 6428SOL    HW220184   6.769   2.819   6.866
 6429SOL     OW20185   0.774   1.685   5.724
 6429SOL    HW120186   0.727   1.704   5.637
 6429SOL    HW220187   0.744   1.751   5.793
 6430SOL     OW20188   5.355   1.086   2.149
 6430SOL    HW120189   5.352   1.097   2.049
 6430SOL    HW220190   5.367   1.175   2.192
 6431SOL     OW20191   5.398   6.581   3.566
 6431SOL    HW120192   5.453   6.548   3.643
 6431SOL    HW220193   5.458   6.606   3.490
 6432SOL     OW20194   4.366   3.717   6.997
 6432SOL    HW120195   4.416   3.716   0.054
 6432SOL    HW220196   4.429   3.739   6.922
 6433SOL     OW20197   3.683   4.516   0.578
 6433SOL    HW120198   3.712   4.421   0.567
 6433SOL    HW220199   3.646   4.529   0.670
 6434SOL     OW20200   1.964   3.660   0.392
 6434SOL    HW120201   2.021   3.742   0.405
 6434SOL    HW220202   1.915   3.667   0.306
 6435SOL     OW20203   4.082   6.103   0.063
 6435SOL    HW120204   4.170   6.065   0.093
 6435SOL    HW220205   4.092   6.144   7.002
 6436SOL     OW20206   2.215   3.072   3.237
 6436SOL    HW120207   2.161   3.059   3.320
 6436SOL    HW220208   2.170   3.140   3.179
 6437SOL     OW20209   2.342   0.943   1.296
 6437SOL    HW120210   2.437   0.954   1.328
 6437SOL    HW220211   2.288   0.902   1.370
 6438SOL     OW20212   0.722   4.614   6.584
 6438SOL    HW120213   0.666   4.615   6.666
 6438SOL    HW220214   0.703   4.531   6.531
 6439SOL     OW20215   6.191   0.681   1.626
 6439SOL    HW120216   6.270   0.742   1.615
 6439SOL    HW220217   6.114   0.732   1.663
 6440SOL     OW20218   2.204   1.959   0.854
 6440SOL    HW120219   2.260   1.976   0.935
 6440SOL    HW220220   2.184   1.862   0.847
 6441SOL     OW20221   1.279   6.689   2.279
 6441SOL    HW120222   1.239   6.685   2.187
 6441SOL    HW220223   1.231   6.758   2.333
 6442SOL     OW20224   2.644   0.945   3.720
 6442SOL    HW120225   2.713   0.965   3.789
 6442SOL    HW220226   2.681   0.966   3.629
 6443SOL     OW20227   4.165   2.561   6.258
 6443SOL    HW120228   4.137   2.612   6.176
 6443SOL    HW220229   4.249   2.512   6.239
 6444SOL     OW20230   0.220   2.523   3.721
 6444SOL    HW120231   0.180   2.612   3.744
 6444SOL    HW220232   0.243   2.474   3.805
 6445SOL     OW20233   5.067   3.094   5.476
 6445SOL    HW120234   5.052   3.004   5.517
 6445SOL    HW220235   5.040   3.091   5.379
 6446SOL     OW20236   0.990   0.623   6.253
 6446SOL    HW120237   1.032   0.675   6.178
 6446SOL    HW220238   1.051   0.624   6.332
 6447SOL     OW20239   0.113   5.485   2.581
 6447SOL    HW120240   0.203   5.495   2.623
 6447SOL    HW220241   0.112   5.530   2.492
 6448SOL     OW20242   5.111   4.788   2.851
 6448SOL    HW120243   5.060   4.778   2.766
 6448SOL    HW220244   5.141   4.698   2.883
 6449SOL     OW20245   2.788   4.604   0.196
 6449SOL    HW120246   2.823   4.676   0.136
 6449SOL    HW220247   2.765   4.644   0.285
 6450SOL     OW20248   0.153   3.741   1.235
 6450SOL    HW120249   0.186   3.820   1.286
 6450SOL    HW220250   0.054   3.733   1.247
 6451SOL     OW20251   2.431   6.665   5.434
 6451SOL    HW120252   2.355   6.668   5.500
 6451SOL    HW220253   2.477   6.754   5.433
 6452SOL     OW20254   3.289   6.366   4.529
 6452SOL    HW120255   3.370   6.395   4.478
 6452SOL    HW220256   3.230   6.313   4.468
 6453SOL     OW20257   1.252   6.759   0.469
 6453SOL    HW120258   1.155   6.780   0.454
 6453SOL    HW220259   1.280   6.794   0.558
 6454SOL     OW20260   3.354   1.753   3.312
 6454SOL    HW120261   3.431   1.725   3.255
 6454SOL    HW220262   3.278   1.688   3.301
 6455SOL     OW20263   0.113   2.216   4.095
 6455SOL    HW120264   0.145   2.122   4.083
 6455SOL    HW220265   0.013   2.218   4.096
 6456SOL     OW20266   1.607   0.822   3.770
 6456SOL    HW120267   1.675   0.884   3.810
 6456SOL    HW220268   1.614   0.826   3.670
 6457SOL     OW20269   5.175   1.353   1.039
 6457SOL    HW120270   5.139   1.332   1.130
 6457SOL    HW220271   5.100   1.374   0.977
 6458SOL     OW20272   0.839   0.045   3.259
 6458SOL    HW120273   0.880   6.989   3.290
 6458SOL    HW220274   0.872   0.065   3.166
 6459SOL     OW20275   5.859   4.958   0.401
 6459SOL    HW120276   5.857   5.058   0.403
 6459SOL    HW220277   5.869   4.923   0.495
 6460SOL     OW20278   4.584   5.216   5.610
 6460SOL    HW120279   4.635   5.272   5.675
 6460SOL    HW220280   4.645   5.149   5.569
 6461SOL     OW20281   2.627   4.847   5.038
 6461SOL    HW120282   2.527   4.834   5.036
 6461SOL    HW220283   2.672   4.759   5.028
 6462SOL     OW20284   2.374   2.754   5.041
 6462SOL    HW120285   2.285   2.721   5.074
 6462SOL    HW220286   2.373   2.854   5.038
 6463SOL     OW20287   1.140   3.704   6.854
 6463SOL    HW120288   1.199   3.636   6.810
 6463SOL    HW220289   1.073   3.737   6.787
 6464SOL     OW20290   0.892   5.421   4.728
 6464SOL    HW120291   0.813   5.402   4.785
 6464SOL    HW220292   0.975   5.423   4.785
 6465SOL     OW20293   6.362   2.428   3.836
 6465SOL    HW120294   6.455   2.422   3.801
 6465SOL    HW220295   6.344   2.521   3.868
 6466SOL     OW20296   1.130   1.293   6.689
 6466SOL    HW120297   1.120   1.345   6.604
 6466SOL    HW220298   1.199   1.337   6.747
 6467SOL     OW20299   2.979   0.718   0.094
 6467SOL    HW120300   3.028   0.768   0.165
 6467SOL    HW220301   3.039   0.703   0.016
 6468SOL     OW20302   4.405   6.815   1.787
 6468SOL    HW120303   4.369   6.904   1.759
 6468SOL    HW220304   4.338   6.744   1.768
 6469SOL     OW20305   4.345   0.797   5.605
 6469SOL    HW120306   4.377   0.891   5.617
 6469SOL    HW220307   4.373   0.742   5.684
 6470SOL     OW20308   6.234   5.591   6.689
 6470SOL    HW120309   6.180   5.539   6.623
 6470SOL    HW220310   6.199   5.685   6.692
 6471SOL     OW20311   6.643   6.523   5.691
 6471SOL    HW120312   6.604   6.609   5.658
 6471SOL    HW220313   6.666   6.531   5.787
 6472SOL     OW20314   0.421   4.226   1.424
 6472SOL    HW120315   0.361   4.299   1.456
 6472SOL    HW220316   0.426   4.154   1.493
 6473SOL     OW20317   2.246   1.534   4.318
 6473SOL    HW120318   2.210   1.554   4.410
 6473SOL    HW220319   2.192   1.583   4.250
 6474SOL     OW20320   2.023   3.818   6.017
 6474SOL    HW120321   1.982   3.837   5.927
 6474SOL    HW220322   2.094   3.748   6.007
 6475SOL     OW20323   0.129   5.314   4.440
 6475SOL    HW120324   0.092   5.234   4.486
 6475SOL    HW220325   0.079   5.330   4.354
 6476SOL     OW20326   4.688   3.628   1.346
 6476SOL    HW120327   4.601   3.647   1.300
 6476SOL    HW220328   4.711   3.531   1.334
 6477SOL     OW20329   7.027   5.218   1.197
 6477SOL    HW120330   6.983   5.278   1.265
 6477SOL    HW220331   6.957   5.165   1.150
 6478SOL     OW20332   3.844   5.923   2.388
 6478SOL    HW120333   3.844   5.840   2.444
 6478SOL    HW220334   3.908   5.989   2.426
 6479SOL     OW20335   3.851   5.519   3.414
 6479SOL    HW120336   3.936   5.565   3.389
 6479SOL    HW220337   3.831   5.536   3.510
 6480SOL     OW20338   3.109   2.170   5.751
 6480SOL    HW120339   3.076   2.183   5.845
 6480SOL    HW220340   3.050   2.221   5.688
 6481SOL     OW20341   3.198   2.108   2.448
 6481SOL    HW120342   3.111   2.068   2.476
 6481SOL    HW220343   3.188   2.150   2.358
 6482SOL     OW20344   0.272   0.751   6.230
 6482SOL    HW120345   0.252   0.743   6.133
 6482SOL    HW220346   0.352   0.810   6.243
 6483SOL     OW20347   2.296   6.023   1.902
 6483SOL    HW120348   2.376   6.007   1.958
 6483SOL    HW220349   2.281   6.122   1.892
 6484SOL     OW20350   4.073   0.947   2.667
 6484SOL    HW120351   4.016   0.917   2.591
 6484SOL    HW220352   4.150   0.883   2.678
 6485SOL     OW20353   1.699   3.577   2.908
 6485SOL    HW120354   1.657   3.523   2.835
 6485SOL    HW220355   1.794   3.598   2.885
 6486SOL     OW20356   1.802   4.184   4.570
 6486SOL    HW120357   1.888   4.231   4.590
 6486SOL    HW220358   1.787   4.183   4.471
 6487SOL     OW20359   6.588   5.728   5.378
 6487SOL    HW120360   6.498   5.769   5.360
 6487SOL    HW220361   6.656   5.767   5.316
 6488SOL     OW20362   2.940   5.695   5.530
 6488SOL    HW120363   2.877   5.700   5.453
 6488SOL    HW220364   2.916   5.618   5.588
 6489SOL     OW20365   2.654   3.513   6.528
 6489SOL    HW120366   2.675   3.427   6.574
 6489SOL    HW220367   2.602   3.495   6.445
 6490SOL     OW20368   4.092   1.922   6.480
 6490SOL    HW120369   4.009   1.914   6.535
 6490SOL    HW220370   4.169   1.945   6.539
 6491SOL     OW20371   4.001   1.221   6.733
 6491SOL    HW120372   4.011   1.122   6.721
 6491SOL    HW220373   3.904   1.244   6.741
 6492SOL     OW20374   5.568   5.803   0.182
 6492SOL    HW120375   5.518   5.835   0.101
 6492SOL    HW220376   5.609   5.713   0.162
 6493SOL     OW20377   1.325   5.695   4.299
 6493SOL    HW120378   1.231   5.701   4.333
 6493SOL    HW220379   1.347   5.778   4.247
 6494SOL     OW20380   0.529   1.083   3.110
 6494SOL    HW120381   0.559   1.026   3.187
 6494SOL    HW220382   0.467   1.031   3.052
 6495SOL     OW20383   4.670   6.236   4.428
 6495SOL    HW120384   4.653   6.208   4.334
 6495SOL    HW220385   4.757   6.285   4.433
 6496SOL     OW20386   0.136   7.028   1.880
 6496SOL    HW120387   0.040   7.000   1.875
 6496SOL    HW220388   0.153   0.043   1.968
 6497SOL     OW20389   2.717   3.851   6.884
 6497SOL    HW120390   2.768   3.888   6.806
 6497SOL    HW220391   2.780   3.809   6.949
 6498SOL     OW20392   2.252   4.098   3.844
 6498SOL    HW120393   2.258   4.159   3.923
 6498SOL    HW220394   2.184   4.027   3.862
 6499SOL     OW20395   5.508   2.054   5.132
 6499SOL    HW120396   5.522   2.117   5.055
 6499SOL    HW220397   5.428   2.083   5.184
 6500SOL     OW20398   6.799   4.806   3.868
 6500SOL    HW120399   6.841   4.816   3.778
 6500SOL    HW220400   6.785   4.709   3.888
 6501SOL     OW20401   6.644   2.993   6.631
 6501SOL    HW120402   6.668   2.899   6.655
 6501SOL    HW220403   6.652   3.005   6.532
 6502SOL     OW20404   6.313   3.940   1.856
 6502SOL    HW120405   6.264   4.019   1.892
 6502SOL    HW220406   6.259   3.896   1.785
 6503SOL     OW20407   5.295   0.253   3.869
 6503SOL    HW120408   5.248   0.274   3.783
 6503SOL    HW220409   5.353   0.330   3.895
 6504SOL     OW20410   5.073   6.535   6.197
 6504SOL    HW120411   5.091   6.625   6.236
 6504SOL    HW220412   5.148   6.510   6.134
 6505SOL     OW20413   5.524   4.971   1.293
 6505SOL    HW120414   5.530   4.974   1.193
 6505SOL    HW220415   5.463   4.897   1.321
 6506SOL     OW20416   6.413   3.382   1.614
 6506SOL    HW120417   6.396   3.468   1.661
 6506SOL    HW220418   6.482   3.330   1.665
 6507SOL     OW20419   1.260   5.476   5.621
 6507SOL    HW120420   1.345   5.481   5.568
 6507SOL    HW220421   1.278   5.430   5.708
 6508SOL     OW20422   2.656   1.184   3.513
 6508SOL    HW120423   2.675   1.213   3.606
 6508SOL    HW220424   2.610   1.257   3.463
 6509SOL     OW20425   2.678   2.327   3.983
 6509SOL    HW120426   2.730   2.254   4.028
 6509SOL    HW220427   2.723   2.350   3.896
 6510SOL     OW20428   6.735   4.610   6.908
 6510SOL    HW120429   6.778   4.691   6.870
 6510SOL    HW220430   6.789   4.529   6.884
 6511SOL     OW20431   4.990   0.961   5.286
 6511SOL    HW120432   5.047   0.882   5.261
 6511SOL    HW220433   5.037   1.045   5.258
 6512SOL     OW20434   5.006   0.349   1.764
 6512SOL    HW120435   4.941   0.317   1.833
 6512SOL    HW220436   4.957   0.399   1.693
 6513SOL     OW20437   3.307   5.230   3.005
 6513SOL    HW120438   3.221   5.209   3.053
 6513SOL    HW220439   3.333   5.324   3.025
 6514SOL     OW20440   5.956   0.000   3.344
 6514SOL    HW120441   5.879   6.967   3.330
 6514SOL    HW220442   5.926   0.079   3.398
 6515SOL     OW20443   0.764   4.944   4.008
 6515SOL    HW120444   0.767   5.039   4.039
 6515SOL    HW220445   0.782   4.941   3.909
 6516SOL     OW20446   0.649   3.195   1.277
 6516SOL    HW120447   0.723   3.261   1.290
 6516SOL    HW220448   0.638   3.176   1.180
 6517SOL     OW20449   6.492   1.312   0.873
 6517SOL    HW120450   6.559   1.385   0.861
 6517SOL    HW220451   6.499   1.276   0.966
 6518SOL     OW20452   0.202   0.187   7.012
 6518SOL    HW120453   0.156   0.193   0.071
 6518SOL    HW220454   0.202   0.093   6.980
 6519SOL     OW20455   2.569   1.527   3.607
 6519SOL    HW120456   2.595   1.534   3.703
 6519SOL    HW220457   2.478   1.487   3.600
 6520SOL     OW20458   5.556   5.697   2.268
 6520SOL    HW120459   5.472   5.684   2.321
 6520SOL    HW220460   5.620   5.624   2.290
 6521SOL     OW20461   1.457   2.206   4.334
 6521SOL    HW120462   1.362   2.181   4.355
 6521SOL    HW220463   1.484   2.165   4.247
 6522SOL     OW20464   3.556   4.338   6.831
 6522SOL    HW120465   3.585   4.370   6.741
 6522SOL    HW220466   3.589   4.401   6.902
 6523SOL     OW20467   3.184   0.653   6.933
 6523SOL    HW120468   3.273   0.675   6.973
 6523SOL    HW220469   3.183   0.557   6.904
 6524SOL     OW20470   2.922   3.439   2.520
 6524SOL    HW120471   2.956   3.482   2.437
 6524SOL    HW220472   2.943   3.341   2.518
 6525SOL     OW20473   1.634   3.283   2.762
 6525SOL    HW120474   1.726   3.298   2.725
 6525SOL    HW220475   1.567   3.288   2.688
 6526SOL     OW20476   2.216   6.930   5.756
 6526SOL    HW120477   2.120   6.958   5.759
 6526SOL    HW220478   2.273   7.004   5.793
 6527SOL     OW20479   0.658   1.345   4.648
 6527SOL    HW120480   0.705   1.312   4.566
 6527SOL    HW220481   0.721   1.402   4.702
 6528SOL     OW20482   7.025   1.163   3.715
 6528SOL    HW120483   6.926   1.166   3.729
 6528SOL    HW220484   0.036   1.095   3.777
 6529SOL     OW20485   6.803   1.584   3.272
 6529SOL    HW120486   6.737   1.589   3.197
 6529SOL    HW220487   6.755   1.560   3.356
 6530SOL     OW20488   6.630   3.228   1.710
 6530SOL    HW120489   6.648   3.189   1.620
 6530SOL    HW220490   6.699   3.194   1.775
 6531SOL     OW20491   5.623   4.012   4.709
 6531SOL    HW120492   5.642   3.983   4.803
 6531SOL    HW220493   5.564   4.093   4.710
 6532SOL     OW20494   6.405   0.809   7.003
 6532SOL    HW120495   6.450   0.854   0.051
 6532SOL    HW220496   6.462   0.733   6.972
 6533SOL     OW20497   4.513   6.139   1.300
 6533SOL    HW120498   4.428   6.088   1.314
 6533SOL    HW220499   4.572   6.128   1.380
 6534SOL     OW20500   3.340   4.446   1.446
 6534SOL    HW120501   3.286   4.372   1.406
 6534SOL    HW220502   3.363   4.513   1.375
 6535SOL     OW20503   0.099   3.474   4.148
 6535SOL    HW120504   0.053   3.394   4.185
 6535SOL    HW220505   0.046   3.556   4.168
 6536SOL     OW20506   0.479   2.787   5.564
 6536SOL    HW120507   0.412   2.821   5.630
 6536SOL    HW220508   0.512   2.862   5.507
 6537SOL     OW20509   5.683   5.543   0.154
 6537SOL    HW120510   5.629   5.510   0.077
 6537SOL    HW220511   5.774   5.501   0.152
 6538SOL     OW20512   3.775   4.490   0.243
 6538SOL    HW120513   3.716   4.510   0.165
 6538SOL    HW220514   3.795   4.575   0.292
 6539SOL     OW20515   3.046   1.142   6.434
 6539SOL    HW120516   3.111   1.193   6.377
 6539SOL    HW220517   3.049   1.046   6.409
 6540SOL     OW20518   4.713   1.689   5.544
 6540SOL    HW120519   4.729   1.595   5.512
 6540SOL    HW220520   4.799   1.740   5.540
 6541SOL     OW20521   4.118   1.860   5.269
 6541SOL    HW120522   4.094   1.957   5.279
 6541SOL    HW220523   4.162   1.828   5.352
 6542SOL     OW20524   6.878   5.272   3.799
 6542SOL    HW120525   6.806   5.225   3.850
 6542SOL    HW220526   6.856   5.270   3.701
 6543SOL     OW20527   6.334   4.005   0.005
 6543SOL    HW120528   6.338   3.952   0.090
 6543SOL    HW220529   6.252   4.061   0.004
 6544SOL     OW20530   0.102   6.254   2.580
 6544SOL    HW120531   0.089   6.155   2.569
 6544SOL    HW220532   0.040   6.303   2.517
 6545SOL     OW20533   5.384   2.203   6.833
 6545SOL    HW120534   5.377   2.240   6.926
 6545SOL    HW220535   5.311   2.136   6.819
 6546SOL     OW20536   4.493   4.076   6.605
 6546SOL    HW120537   4.447   4.135   6.540
 6546SOL    HW220538   4.465   3.981   6.590
 6547SOL     OW20539   4.792   1.615   5.983
 6547SOL    HW120540   4.723   1.607   5.911
 6547SOL    HW220541   4.748   1.636   6.070
 6548SOL     OW20542   0.883   3.304   6.914
 6548SOL    HW120543   0.962   3.352   6.876
 6548SOL    HW220544   0.882   3.315   7.014
 6549SOL     OW20545   4.147   1.208   0.657
 6549SOL    HW120546   4.081   1.231   0.585
 6549SOL    HW220547   4.147   1.279   0.727
 6550SOL     OW20548   0.051   6.519   3.241
 6550SOL    HW120549   0.074   6.596   3.301
 6550SOL    HW220550   7.026   6.452   3.291
 6551SOL     OW20551   1.950   4.276   2.047
 6551SOL    HW120552   1.865   4.328   2.032
 6551SOL    HW220553   1.987   4.298   2.137
 6552SOL     OW20554   2.230   6.927   5.250
 6552SOL    HW120555   2.223   6.848   5.310
 6552SOL    HW220556   2.142   6.974   5.245
 6553SOL     OW20557   0.478   1.680   2.624
 6553SOL    HW120558   0.454   1.688   2.528
 6553SOL    HW220559   0.576   1.659   2.633
 6554SOL     OW20560   6.519   1.671   5.529
 6554SOL    HW120561   6.523   1.732   5.608
 6554SOL    HW220562   6.554   1.581   5.555
 6555SOL     OW20563   1.169   2.157   1.593
 6555SOL    HW120564   1.110   2.181   1.670
 6555SOL    HW220565   1.252   2.112   1.628
 6556SOL     OW20566   4.471   4.859   4.966
 6556SOL    HW120567   4.373   4.857   4.986
 6556SOL    HW220568   4.486   4.833   4.871
 6557SOL     OW20569   4.475   5.516   1.487
 6557SOL    HW120570   4.514   5.562   1.567
 6557SOL    HW220571   4.436   5.584   1.425
 6558SOL     OW20572   6.397   5.748   0.578
 6558SOL    HW120573   6.347   5.816   0.633
 6558SOL    HW220574   6.426   5.790   0.492
 6559SOL     OW20575   6.998   4.038   6.798
 6559SOL    HW120576   6.981   4.122   6.849
 6559SOL    HW220577   6.945   3.963   6.838
 6560SOL     OW20578   3.787   3.338   1.019
 6560SOL    HW120579   3.772   3.436   1.033
 6560SOL    HW220580   3.841   3.324   0.936
 6561SOL     OW20581   3.667   3.762   2.230
 6561SOL    HW120582   3.666   3.764   2.330
 6561SOL    HW220583   3.608   3.835   2.195
 6562SOL     OW20584   5.908   4.808   6.788
 6562SOL    HW120585   5.838   4.863   6.742
 6562SOL    HW220586   5.998   4.851   6.774
 6563SOL     OW20587   0.356   6.197   0.145
 6563SOL    HW120588   0.432   6.139   0.115
 6563SOL    HW220589   0.328   6.171   0.237
 6564SOL     OW20590   6.873   4.197   2.369
 6564SOL    HW120591   6.812   4.251   2.312
 6564SOL    HW220592   6.953   4.252   2.393
 6565SOL     OW20593   5.989   2.525   4.241
 6565SOL    HW120594   5.981   2.568   4.331
 6565SOL    HW220595   5.997   2.595   4.171
 6566SOL     OW20596   3.078   0.104   1.322
 6566SOL    HW120597   3.059   0.008   1.343
 6566SOL    HW220598   3.051   0.161   1.400
 6567SOL     OW20599   4.199   2.438   1.439
 6567SOL    HW120600   4.167   2.474   1.527
 6567SOL    HW220601   4.125   2.388   1.395
 6568SOL     OW20602   5.063   6.110   2.892
 6568SOL    HW120603   5.097   6.144   2.979
 6568SOL    HW220604   4.971   6.145   2.875
 6569SOL     OW20605   3.573   3.872   0.617
 6569SOL    HW120606   3.512   3.812   0.565
 6569SOL    HW220607   3.532   3.962   0.626
 6570SOL     OW20608   4.765   6.776   1.754
 6570SOL    HW120609   4.835   6.710   1.780
 6570SOL    HW220610   4.720   6.746   1.669
 6571SOL     OW20611   3.278   6.259   2.067
 6571SOL    HW120612   3.305   6.269   1.971
 6571SOL    HW220613   3.347   6.300   2.126
 6572SOL     OW20614   6.627   5.460   5.412
 6572SOL    HW120615   6.614   5.557   5.392
 6572SOL    HW220616   6.708   5.426   5.364
 6573SOL     OW20617   2.907   0.876   3.104
 6573SOL    HW120618   2.835   0.926   3.152
 6573SOL    HW220619   2.942   0.932   3.029
 6574SOL     OW20620   3.134   6.064   2.200
 6574SOL    HW120621   3.169   6.147   2.156
 6574SOL    HW220622   3.205   6.025   2.258
 6575SOL     OW20623   0.873   1.468   1.858
 6575SOL    HW120624   0.965   1.492   1.825
 6575SOL    HW220625   0.826   1.551   1.888
 6576SOL     OW20626   1.329   6.809   6.840
 6576SOL    HW120627   1.287   6.868   6.772
 6576SOL    HW220628   1.426   6.796   6.819
 6577SOL     OW20629   0.308   1.916   3.514
 6577SOL    HW120630   0.291   1.878   3.422
 6577SOL    HW220631   0.235   1.980   3.537
 6578SOL     OW20632   0.523   4.377   2.617
 6578SOL    HW120633   0.427   4.405   2.622
 6578SOL    HW220634   0.556   4.386   2.523
 6579SOL     OW20635   0.200   3.914   4.752
 6579SOL    HW120636   0.286   3.914   4.701
 6579SOL    HW220637   0.206   3.848   4.827
 6580SOL     OW20638   6.972   1.227   1.336
 6580SOL    HW120639   7.006   1.301   1.395
 6580SOL    HW220640   6.875   1.212   1.355
 6581SOL     OW20641   3.298   1.455   6.674
 6581SOL    HW120642   3.395   1.479   6.666
 6581SOL    HW220643   3.255   1.461   6.584
 6582SOL     OW20644   1.668   0.533   2.387
 6582SOL    HW120645   1.731   0.477   2.441
 6582SOL    HW220646   1.716   0.615   2.355
 6583SOL     OW20647   4.221   0.301   5.398
 6583SOL    HW120648   4.185   0.322   5.489
 6583SOL    HW220649   4.305   0.353   5.384
 6584SOL     OW20650   5.378   1.717   0.190
 6584SOL    HW120651   5.289   1.763   0.195
 6584SOL    HW220652   5.402   1.703   0.094
 6585SOL     OW20653   6.744   1.106   0.559
 6585SOL    HW120654   6.664   1.074   0.610
 6585SOL    HW220655   6.716   1.138   0.469
 6586SOL     OW20656   6.458   2.416   6.050
 6586SOL    HW120657   6.550   2.377   6.054
 6586SOL    HW220658   6.400   2.360   5.992
 6587SOL     OW20659   2.672   5.465   4.434
 6587SOL    HW120660   2.668   5.365   4.437
 6587SOL    HW220661   2.610   5.504   4.502
 6588SOL     OW20662   1.921   3.947   1.611
 6588SOL    HW120663   1.934   4.000   1.695
 6588SOL    HW220664   1.916   3.849   1.634
 6589SOL     OW20665   4.789   0.222   6.486
 6589SOL    HW120666   4.888   0.232   6.472
 6589SOL    HW220667   4.756   0.296   6.544
 6590SOL     OW20668   0.913   1.278   5.941
 6590SOL    HW120669   0.839   1.292   5.875
 6590SOL    HW220670   0.910   1.349   6.011
 6591SOL     OW20671   4.849   6.217   2.748
 6591SOL    HW120672   4.817   6.135   2.701
 6591SOL    HW220673   4.778   6.249   2.811
 6592SOL     OW20674   5.914   6.988   4.063
 6592SOL    HW120675   5.966   6.939   3.993
 6592SOL    HW220676   5.820   7.001   4.031
 6593SOL     OW20677   2.404   1.751   3.546
 6593SOL    HW120678   2.398   1.661   3.588
 6593SOL    HW220679   2.390   1.821   3.615
 6594SOL     OW20680   4.021   1.523   0.356
 6594SOL    HW120681   4.000   1.436   0.402
 6594SOL    HW220682   3.949   1.589   0.376
 6595SOL     OW20683   0.713   3.414   1.080
 6595SOL    HW120684   0.806   3.407   1.044
 6595SOL    HW220685   0.649   3.419   1.004
 6596SOL     OW20686   3.290   6.797   4.576
 6596SOL    HW120687   3.222   6.723   4.573
 6596SOL    HW220688   3.275   6.858   4.498
 6597SOL     OW20689   1.440   6.114   3.405
 6597SOL    HW120690   1.483   6.054   3.473
 6597SOL    HW220691   1.469   6.087   3.314
 6598SOL     OW20692   0.632   0.124   4.351
 6598SOL    HW120693   0.639   0.142   4.449
 6598SOL    HW220694   0.716   0.083   4.319
 6599SOL     OW20695   3.197   5.669   5.577
 6599SOL    HW120696   3.252   5.753   5.572
 6599SOL    HW220697   3.110   5.683   5.530
 6600SOL     OW20698   4.619   4.940   5.899
 6600SOL    HW120699   4.713   4.942   5.865
 6600SOL    HW220700   4.620   4.918   5.997
 6601SOL     OW20701   0.757   1.056   6.963
 6601SOL    HW120702   0.777   0.963   6.934
 6601SOL    HW220703   0.807   1.120   6.904
 6602SOL     OW20704   6.615   1.278   1.967
 6602SOL    HW120705   6.556   1.343   2.014
 6602SOL    HW220706   6.698   1.264   2.020
 6603SOL     OW20707   0.997   2.807   4.121
 6603SOL    HW120708   0.991   2.786   4.219
 6603SOL    HW220709   1.037   2.897   4.108
 6604SOL     OW20710   2.464   6.504   0.606
 6604SOL    HW120711   2.474   6.419   0.658
 6604SOL    HW220712   2.392   6.560   0.648
 6605SOL     OW20713   5.749   4.593   0.648
 6605SOL    HW120714   5.679   4.536   0.604
 6605SOL    HW220715   5.825   4.606   0.585
 6606SOL     OW20716   5.521   0.325   2.634
 6606SOL    HW120717   5.479   0.400   2.583
 6606SOL    HW220718   5.618   0.345   2.650
 6607SOL     OW20719   1.581   2.408   1.487
 6607SOL    HW120720   1.646   2.345   1.530
 6607SOL    HW220721   1.622   2.500   1.483
 6608SOL     OW20722   4.936   6.067   1.975
 6608SOL    HW120723   4.969   6.057   1.881
 6608SOL    HW220724   4.969   6.154   2.012
 6609SOL     OW20725   4.224   0.752   6.154
 6609SOL    HW120726   4.181   0.809   6.224
 6609SOL    HW220727   4.317   0.784   6.138
 6610SOL     OW20728   2.427   1.026   6.321
 6610SOL    HW120729   2.361   0.952   6.304
 6610SOL    HW220730   2.496   0.993   6.386
 6611SOL     OW20731   6.424   2.727   3.205
 6611SOL    HW120732   6.436   2.810   3.260
 6611SOL    HW220733   6.327   2.700   3.207
 6612SOL     OW20734   0.318   2.797   7.013
 6612SOL    HW120735   0.417   2.815   7.014
 6612SOL    HW220736   0.302   2.699   7.018
 6613SOL     OW20737   5.580   5.969   4.459
 6613SOL    HW120738   5.548   5.942   4.368
 6613SOL    HW220739   5.639   6.049   4.452
 6614SOL     OW20740   5.153   6.264   0.070
 6614SOL    HW120741   5.175   6.182   0.124
 6614SOL    HW220742   5.222   6.277   7.028
 6615SOL     OW20743   1.255   4.708   3.590
 6615SOL    HW120744   1.169   4.700   3.639
 6615SOL    HW220745   1.252   4.790   3.532
 6616SOL     OW20746   4.226   1.292   6.465
 6616SOL    HW120747   4.206   1.263   6.371
 6616SOL    HW220748   4.209   1.216   6.527
 6617SOL     OW20749   2.794   6.019   3.167
 6617SOL    HW120750   2.825   5.925   3.178
 6617SOL    HW220751   2.766   6.035   3.072
 6618SOL     OW20752   1.220   3.280   3.088
 6618SOL    HW120753   1.287   3.342   3.047
 6618SOL    HW220754   1.146   3.333   3.128
 6619SOL     OW20755   6.923   6.667   4.522
 6619SOL    HW120756   6.995   6.714   4.471
 6619SOL    HW220757   6.925   6.698   4.617
 6620SOL     OW20758   2.515   2.778   5.328
 6620SOL    HW120759   2.440   2.845   5.326
 6620SOL    HW220760   2.521   2.732   5.240
 6621SOL     OW20761   2.240   3.267   6.845
 6621SOL    HW120762   2.332   3.280   6.808
 6621SOL    HW220763   2.190   3.201   6.789
 6622SOL     OW20764   5.819   6.169   1.467
 6622SOL    HW120765   5.732   6.200   1.429
 6622SOL    HW220766   5.857   6.240   1.527
 6623SOL     OW20767   2.780   3.654   1.051
 6623SOL    HW120768   2.853   3.620   1.111
 6623SOL    HW220769   2.703   3.685   1.108
 6624SOL     OW20770   1.676   0.533   4.286
 6624SOL    HW120771   1.614   0.463   4.252
 6624SOL    HW220772   1.678   0.610   4.223
 6625SOL     OW20773   5.007   1.865   6.016
 6625SOL    HW120774   5.019   1.806   5.936
 6625SOL    HW220775   5.070   1.943   6.009
 6626SOL     OW20776   3.951   4.830   5.000
 6626SOL    HW120777   3.879   4.848   5.066
 6626SOL    HW220778   3.924   4.865   4.911
 6627SOL     OW20779   2.236   0.853   5.968
 6627SOL    HW120780   2.270   0.779   5.912
 6627SOL    HW220781   2.136   0.846   5.976
 6628SOL     OW20782   4.662   4.850   4.335
 6628SOL    HW120783   4.700   4.940   4.314
 6628SOL    HW220784   4.677   4.829   4.432
 6629SOL     OW20785   2.603   5.528   6.716
 6629SOL    HW120786   2.689   5.484   6.741
 6629SOL    HW220787   2.585   5.604   6.778
 6630SOL     OW20788   3.143   1.499   1.582
 6630SOL    HW120789   3.223   1.490   1.523
 6630SOL    HW220790   3.099   1.409   1.592
 6631SOL     OW20791   3.915   0.240   2.314
 6631SOL    HW120792   3.841   0.236   2.248
 6631SOL    HW220793   3.987   0.301   2.280
 6632SOL     OW20794   0.618   0.338   1.805
 6632SOL    HW120795   0.613   0.287   1.891
 6632SOL    HW220796   0.681   0.414   1.815
 6633SOL     OW20797   1.168   4.462   5.620
 6633SOL    HW120798   1.185   4.389   5.554
 6633SOL    HW220799   1.216   4.545   5.591
 6634SOL     OW20800   5.847   2.844   5.059
 6634SOL    HW120801   5.925   2.788   5.033
 6634SOL    HW220802   5.876   2.939   5.073
 6635SOL     OW20803   3.949   5.146   3.555
 6635SOL    HW120804   4.007   5.204   3.612
 6635SOL    HW220805   3.963   5.050   3.580
 6636SOL     OW20806   3.420   1.782   6.160
 6636SOL    HW120807   3.361   1.702   6.154
 6636SOL    HW220808   3.363   1.865   6.166
 6637SOL     OW20809   2.050   0.214   6.095
 6637SOL    HW120810   2.110   0.284   6.134
 6637SOL    HW220811   1.959   0.253   6.079
 6638SOL     OW20812   3.601   4.378   5.295
 6638SOL    HW120813   3.501   4.370   5.285
 6638SOL    HW220814   3.622   4.468   5.333
 6639SOL     OW20815   5.469   5.355   0.335
 6639SOL    HW120816   5.473   5.393   0.428
 6639SOL    HW220817   5.513   5.418   0.271
 6640SOL     OW20818   0.078   2.044   5.128
 6640SOL    HW120819   0.145   2.044   5.053
 6640SOL    HW220820   7.019   2.011   5.094
 6641SOL     OW20821   2.399   2.393   6.927
 6641SOL    HW120822   2.456   2.436   6.996
 6641SOL    HW220823   2.304   2.392   6.959
 6642SOL     OW20824   2.500   5.550   0.277
 6642SOL    HW120825   2.462   5.627   0.327
 6642SOL    HW220826   2.447   5.467   0.297
 6643SOL     OW20827   6.713   5.024   6.752
 6643SOL    HW120828   6.740   5.019   6.849
 6643SOL    HW220829   6.617   4.998   6.743
 6644SOL     OW20830   2.869   4.767   1.738
 6644SOL    HW120831   2.932   4.732   1.669
 6644SOL    HW220832   2.846   4.694   1.803
 6645SOL     OW20833   0.010   4.943   0.238
 6645SOL    HW120834   0.099   4.968   0.200
 6645SOL    HW220835   6.998   5.023   0.282
 6646SOL     OW20836   3.739   6.934   4.426
 6646SOL    HW120837   3.697   6.987   4.499
 6646SOL    HW220838   3.675   6.863   4.396
 6647SOL     OW20839   3.853   0.975   2.198
 6647SOL    HW120840   3.869   0.945   2.104
 6647SOL    HW220841   3.867   1.074   2.205
 6648SOL     OW20842   3.466   5.686   2.297
 6648SOL    HW120843   3.483   5.667   2.201
 6648SOL    HW220844   3.368   5.679   2.316
 6649SOL     OW20845   4.957   1.461   0.194
 6649SOL    HW120846   4.938   1.522   0.270
 6649SOL    HW220847   4.944   1.366   0.223
 6650SOL     OW20848   3.744   1.253   5.238
 6650SOL    HW120849   3.823   1.234   5.296
 6650SOL    HW220850   3.660   1.224   5.285
 6651SOL     OW20851   2.045   1.643   6.917
 6651SOL    HW120852   2.088   1.625   7.005
 6651SOL    HW220853   2.079   1.729   6.880
 6652SOL     OW20854   6.571   5.305   0.358
 6652SOL    HW120855   6.474   5.308   0.333
 6652SOL    HW220856   6.598   5.393   0.399
 6653SOL     OW20857   3.207   3.495   2.238
 6653SOL    HW120858   3.254   3.538   2.161
 6653SOL    HW220859   3.223   3.397   2.236
 6654SOL     OW20860   1.661   3.201   1.068
 6654SOL    HW120861   1.655   3.102   1.051
 6654SOL    HW220862   1.646   3.250   0.982
 6655SOL     OW20863   3.431   6.715   1.489
 6655SOL    HW120864   3.451   6.796   1.543
 6655SOL    HW220865   3.419   6.741   1.393
 6656SOL     OW20866   6.310   1.912   2.336
 6656SOL    HW120867   6.263   1.974   2.400
 6656SOL    HW220868   6.294   1.818   2.364
 6657SOL     OW20869   5.136   5.957   6.637
 6657SOL    HW120870   5.133   6.057   6.632
 6657SOL    HW220871   5.219   5.924   6.591
 6658SOL     OW20872   5.799   1.629   4.881
 6658SOL    HW120873   5.775   1.587   4.794
 6658SOL    HW220874   5.865   1.703   4.866
 6659SOL     OW20875   2.135   2.307   0.773
 6659SOL    HW120876   2.222   2.313   0.725
 6659SOL    HW220877   2.083   2.229   0.738
 6660SOL     OW20878   0.755   6.078   1.243
 6660SOL    HW120879   0.803   5.990   1.234
 6660SOL    HW220880   0.660   6.067   1.212
 6661SOL     OW20881   0.596   6.115   3.562
 6661SOL    HW120882   0.591   6.017   3.539
 6661SOL    HW220883   0.572   6.169   3.482
 6662SOL     OW20884   1.349   0.726   6.866
 6662SOL    HW120885   1.422   0.766   6.812
 6662SOL    HW220886   1.280   0.795   6.887
 6663SOL     OW20887   6.885   5.318   2.734
 6663SOL    HW120888   6.887   5.312   2.634
 6663SOL    HW220889   6.844   5.235   2.772
 6664SOL     OW20890   1.639   0.005   0.632
 6664SOL    HW120891   1.730   0.032   0.663
 6664SOL    HW220892   1.603   6.964   0.694
 6665SOL     OW20893   1.919   0.146   3.573
 6665SOL    HW120894   1.954   0.212   3.507
 6665SOL    HW220895   1.990   0.078   3.593
 6666SOL     OW20896   5.547   0.947   6.375
 6666SOL    HW120897   5.468   1.010   6.376
 6666SOL    HW220898   5.543   0.888   6.455
 6667SOL     OW20899   0.282   5.001   5.573
 6667SOL    HW120900   0.295   4.915   5.524
 6667SOL    HW220901   0.341   5.072   5.533
 6668SOL     OW20902   6.019   5.887   1.953
 6668SOL    HW120903   5.978   5.886   2.044
 6668SOL    HW220904   5.977   5.959   1.897
 6669SOL     OW20905   2.337   2.850   3.759
 6669SOL    HW120906   2.307   2.810   3.845
 6669SOL    HW220907   2.273   2.921   3.730
 6670SOL     OW20908   3.612   2.562   5.738
 6670SOL    HW120909   3.557   2.489   5.779
 6670SOL    HW220910   3.596   2.565   5.640
 6671SOL     OW20911   4.810   5.672   1.354
 6671SOL    HW120912   4.898   5.689   1.399
 6671SOL    HW220913   4.807   5.721   1.267
 6672SOL     OW20914   0.799   1.882   5.469
 6672SOL    HW120915   0.741   1.820   5.415
 6672SOL    HW220916   0.893   1.850   5.467
 6673SOL     OW20917   5.287   6.367   3.163
 6673SOL    HW120918   5.386   6.362   3.155
 6673SOL    HW220919   5.247   6.276   3.152
 6674SOL     OW20920   0.655   5.139   6.119
 6674SOL    HW120921   0.746   5.117   6.084
 6674SOL    HW220922   0.595   5.060   6.110
 6675SOL     OW20923   4.254   4.180   1.705
 6675SOL    HW120924   4.212   4.116   1.769
 6675SOL    HW220925   4.337   4.219   1.746
 6676SOL     OW20926   0.644   4.214   5.394
 6676SOL    HW120927   0.589   4.257   5.465
 6676SOL    HW220928   0.628   4.260   5.307
 6677SOL     OW20929   0.872   2.191   6.790
 6677SOL    HW120930   0.912   2.177   6.880
 6677SOL    HW220931   0.850   2.288   6.778
 6678SOL     OW20932   2.256   2.512   0.430
 6678SOL    HW120933   2.352   2.487   0.443
 6678SOL    HW220934   2.218   2.545   0.516
 6679SOL     OW20935   2.639   1.456   4.145
 6679SOL    HW120936   2.671   1.534   4.200
 6679SOL    HW220937   2.547   1.430   4.175
 6680SOL     OW20938   4.439   6.484   6.622
 6680SOL    HW120939   4.434   6.548   6.545
 6680SOL    HW220940   4.363   6.419   6.616
 6681SOL     OW20941   4.900   4.973   0.418
 6681SOL    HW120942   4.924   5.063   0.382
 6681SOL    HW220943   4.977   4.911   0.407
 6682SOL     OW20944   1.398   4.559   2.398
 6682SOL    HW120945   1.372   4.551   2.301
 6682SOL    HW220946   1.316   4.556   2.455
 6683SOL     OW20947   4.810   2.661   5.649
 6683SOL    HW120948   4.775   2.745   5.608
 6683SOL    HW220949   4.857   2.606   5.579
 6684SOL     OW20950   2.201   6.717   0.667
 6684SOL    HW120951   2.145   6.655   0.612
 6684SOL    HW220952   2.180   6.811   0.643
 6685SOL     OW20953   5.639   3.169   5.157
 6685SOL    HW120954   5.570   3.108   5.196
 6685SOL    HW220955   5.705   3.194   5.228
 6686SOL     OW20956   5.224   5.950   3.851
 6686SOL    HW120957   5.286   5.876   3.877
 6686SOL    HW220958   5.144   5.949   3.911
 6687SOL     OW20959   0.238   2.263   1.191
 6687SOL    HW120960   0.271   2.170   1.178
 6687SOL    HW220961   0.172   2.285   1.119
 6688SOL     OW20962   6.580   4.008   1.796
 6688SOL    HW120963   6.613   3.992   1.890
 6688SOL    HW220964   6.502   3.949   1.777
 6689SOL     OW20965   4.245   2.968   0.415
 6689SOL    HW120966   4.315   2.908   0.377
 6689SOL    HW220967   4.255   3.060   0.377
 6690SOL     OW20968   1.984   0.863   2.043
 6690SOL    HW120969   2.064   0.922   2.031
 6690SOL    HW220970   2.014   0.771   2.069
 6691SOL     OW20971   3.118   6.341   1.798
 6691SOL    HW120972   3.067   6.346   1.884
 6691SOL    HW220973   3.212   6.371   1.813
 6692SOL     OW20974   2.847   4.611   5.405
 6692SOL    HW120975   2.862   4.621   5.307
 6692SOL    HW220976   2.935   4.597   5.451
 6693SOL     OW20977   4.090   3.532   6.008
 6693SOL    HW120978   4.023   3.546   6.081
 6693SOL    HW220979   4.140   3.617   5.992
 6694SOL     OW20980   5.025   6.293   0.324
 6694SOL    HW120981   4.944   6.339   0.361
 6694SOL    HW220982   5.038   6.320   0.229
 6695SOL     OW20983   2.176   2.138   5.647
 6695SOL    HW120984   2.257   2.187   5.680
 6695SOL    HW220985   2.108   2.133   5.721
 6696SOL     OW20986   1.674   2.428   0.085
 6696SOL    HW120987   1.740   2.471   0.146
 6696SOL    HW220988   1.590   2.409   0.135
 6697SOL     OW20989   5.002   2.398   3.320
 6697SOL    HW120990   5.010   2.488   3.276
 6697SOL    HW220991   4.921   2.396   3.377
 6698SOL     OW20992   3.064   2.895   0.406
 6698SOL    HW120993   3.115   2.833   0.467
 6698SOL    HW220994   3.114   2.906   0.320
 6699SOL     OW20995   3.377   4.901   6.479
 6699SOL    HW120996   3.405   4.964   6.406
 6699SOL    HW220997   3.310   4.947   6.538
 6700SOL     OW20998   0.269   6.355   1.321
 6700SOL    HW120999   0.320   6.430   1.364
 6700SOL    HW221000   0.277   6.362   1.222
 6701SOL     OW21001   5.371   2.787   1.430
 6701SOL    HW121002   5.310   2.785   1.510
 6701SOL    HW221003   5.346   2.713   1.368
 6702SOL     OW21004   2.419   2.941   0.395
 6702SOL    HW121005   2.377   2.869   0.450
 6702SOL    HW221006   2.517   2.924   0.387
 6703SOL     OW21007   6.374   1.375   6.859
 6703SOL    HW121008   6.325   1.365   6.772
 6703SOL    HW221009   6.443   1.446   6.850
 6704SOL     OW21010   4.261   2.039   2.427
 6704SOL    HW121011   4.185   1.977   2.409
 6704SOL    HW221012   4.292   2.080   2.340
 6705SOL     OW21013   0.028   2.177   1.918
 6705SOL    HW121014   0.035   2.227   2.005
 6705SOL    HW221015   0.014   2.080   1.937
 6706SOL     OW21016   1.215   3.940   1.167
 6706SOL    HW121017   1.177   4.030   1.149
 6706SOL    HW221018   1.268   3.909   1.088
 6707SOL     OW21019   0.274   5.514   4.659
 6707SOL    HW121020   0.192   5.458   4.670
 6707SOL    HW221021   0.355   5.456   4.655
 6708SOL     OW21022   1.218   5.320   2.477
 6708SOL    HW121023   1.192   5.361   2.389
 6708SOL    HW221024   1.317   5.305   2.479
 6709SOL     OW21025   3.140   5.526   1.943
 6709SOL    HW121026   3.136   5.507   2.042
 6709SOL    HW221027   3.236   5.537   1.916
 6710SOL     OW21028   2.805   1.613   6.059
 6710SOL    HW121029   2.775   1.586   6.151
 6710SOL    HW221030   2.865   1.693   6.066
 6711SOL     OW21031   5.640   4.688   6.825
 6711SOL    HW121032   5.722   4.727   6.782
 6711SOL    HW221033   5.563   4.751   6.814
 6712SOL     OW21034   4.515   5.198   0.227
 6712SOL    HW121035   4.491   5.139   0.150
 6712SOL    HW221036   4.553   5.284   0.193
 6713SOL     OW21037   1.701   2.139   1.560
 6713SOL    HW121038   1.796   2.114   1.543
 6713SOL    HW221039   1.645   2.113   1.482
 6714SOL     OW21040   5.388   0.613   6.261
 6714SOL    HW121041   5.322   0.574   6.197
 6714SOL    HW221042   5.340   0.667   6.330
 6715SOL     OW21043   0.130   0.538   0.037
 6715SOL    HW121044   0.195   0.505   6.997
 6715SOL    HW221045   0.133   0.638   0.041
 6716SOL     OW21046   0.963   5.671   2.165
 6716SOL    HW121047   0.881   5.675   2.222
 6716SOL    HW221048   0.937   5.658   2.069
 6717SOL     OW21049   4.443   2.934   1.007
 6717SOL    HW121050   4.469   2.837   1.008
 6717SOL    HW221051   4.385   2.953   1.086
 6718SOL     OW21052   3.900   6.219   6.362
 6718SOL    HW121053   3.815   6.236   6.312
 6718SOL    HW221054   3.888   6.139   6.421
 6719SOL     OW21055   0.461   0.162   6.051
 6719SOL    HW121056   0.513   0.189   6.131
 6719SOL    HW221057   0.509   0.192   5.968
 6720SOL     OW21058   1.377   6.198   2.014
 6720SOL    HW121059   1.364   6.275   2.076
 6720SOL    HW221060   1.395   6.115   2.067
 6721SOL     OW21061   5.698   6.682   4.573
 6721SOL    HW121062   5.779   6.671   4.630
 6721SOL    HW221063   5.718   6.742   4.496
 6722SOL     OW21064   5.358   3.062   1.376
 6722SOL    HW121065   5.345   2.963   1.380
 6722SOL    HW221066   5.315   3.104   1.456
 6723SOL     OW21067   2.161   6.570   3.132
 6723SOL    HW121068   2.134   6.497   3.195
 6723SOL    HW221069   2.088   6.638   3.127
 6724SOL     OW21070   1.236   3.620   5.998
 6724SOL    HW121071   1.333   3.641   6.012
 6724SOL    HW221072   1.181   3.699   6.026
 6725SOL     OW21073   0.666   4.169   1.936
 6725SOL    HW121074   0.747   4.178   1.879
 6725SOL    HW221075   0.584   4.188   1.882
 6726SOL     OW21076   0.716   1.769   4.411
 6726SOL    HW121077   0.682   1.686   4.455
 6726SOL    HW221078   0.670   1.849   4.449
 6727SOL     OW21079   6.504   3.657   5.830
 6727SOL    HW121080   6.558   3.705   5.760
 6727SOL    HW221081   6.544   3.567   5.847
 6728SOL     OW21082   4.711   1.620   4.691
 6728SOL    HW121083   4.688   1.648   4.598
 6728SOL    HW221084   4.706   1.699   4.752
 6729SOL     OW21085   6.643   1.418   2.367
 6729SOL    HW121086   6.595   1.505   2.380
 6729SOL    HW221087   6.602   1.369   2.290
 6730SOL     OW21088   1.909   6.304   6.710
 6730SOL    HW121089   1.926   6.402   6.705
 6730SOL    HW221090   1.983   6.260   6.761
 6731SOL     OW21091   1.758   4.656   1.114
 6731SOL    HW121092   1.850   4.695   1.106
 6731SOL    HW221093   1.716   4.689   1.199
 6732SOL     OW21094   4.179   5.284   6.219
 6732SOL    HW121095   4.231   5.229   6.155
 6732SOL    HW221096   4.229   5.292   6.305
 6733SOL     OW21097   4.337   5.178   6.768
 6733SOL    HW121098   4.238   5.185   6.768
 6733SOL    HW221099   4.377   5.270   6.765
 6734SOL     OW21100   1.062   3.151   5.431
 6734SOL    HW121101   1.044   3.151   5.530
 6734SOL    HW221102   1.099   3.063   5.404
 6735SOL     OW21103   0.688   5.939   4.853
 6735SOL    HW121104   0.611   5.880   4.875
 6735SOL    HW221105   0.737   5.902   4.774
 6736SOL     OW21106   1.751   3.510   0.528
 6736SOL    HW121107   1.846   3.538   0.520
 6736SOL    HW221108   1.707   3.514   0.438
 6737SOL     OW21109   2.058   2.826   0.799
 6737SOL    HW121110   2.003   2.907   0.782
 6737SOL    HW221111   2.056   2.804   0.896
 6738SOL     OW21112   2.118   3.190   2.145
 6738SOL    HW121113   2.147   3.276   2.187
 6738SOL    HW221114   2.163   3.114   2.193
 6739SOL     OW21115   2.971   5.279   5.838
 6739SOL    HW121116   2.951   5.200   5.896
 6739SOL    HW221117   3.057   5.321   5.866
 6740SOL     OW21118   2.042   1.607   4.556
 6740SOL    HW121119   2.074   1.608   4.651
 6740SOL    HW221120   1.988   1.689   4.538
 6741SOL     OW21121   4.204   1.409   5.928
 6741SOL    HW121122   4.183   1.454   6.015
 6741SOL    HW221123   4.137   1.437   5.859
 6742SOL     OW21124   0.365   5.698   2.893
 6742SOL    HW121125   0.330   5.676   2.984
 6742SOL    HW221126   0.464   5.711   2.898
 6743SOL     OW21127   3.969   4.496   6.843
 6743SOL    HW121128   3.929   4.404   6.844
 6743SOL    HW221129   4.066   4.490   6.822
 6744SOL     OW21130   4.268   5.149   5.985
 6744SOL    HW121131   4.332   5.077   5.956
 6744SOL    HW221132   4.233   5.196   5.905
 6745SOL     OW21133   1.241   6.194   2.412
 6745SOL    HW121134   1.278   6.228   2.498
 6745SOL    HW221135   1.142   6.180   2.421
 6746SOL     OW21136   0.336   0.966   2.957
 6746SOL    HW121137   0.239   0.985   2.972
 6746SOL    HW221138   0.346   0.880   2.907
 6747SOL     OW21139   5.454   6.602   4.641
 6747SOL    HW121140   5.372   6.555   4.611
 6747SOL    HW221141   5.514   6.618   4.563
 6748SOL     OW21142   1.670   0.475   2.850
 6748SOL    HW121143   1.578   0.514   2.845
 6748SOL    HW221144   1.675   0.394   2.792
 6749SOL     OW21145   3.055   6.533   6.613
 6749SOL    HW121146   3.041   6.547   6.711
 6749SOL    HW221147   2.992   6.591   6.562
 6750SOL     OW21148   3.980   1.621   4.702
 6750SOL    HW121149   4.002   1.637   4.606
 6750SOL    HW221150   4.049   1.664   4.760
 6751SOL     OW21151   3.654   1.853   3.716
 6751SOL    HW121152   3.614   1.815   3.633
 6751SOL    HW221153   3.752   1.867   3.702
 6752SOL     OW21154   6.064   3.115   2.382
 6752SOL    HW121155   6.117   3.034   2.356
 6752SOL    HW221156   6.092   3.145   2.473
 6753SOL     OW21157   4.642   1.440   6.426
 6753SOL    HW121158   4.672   1.401   6.513
 6753SOL    HW221159   4.559   1.495   6.441
 6754SOL     OW21160   6.421   2.144   5.338
 6754SOL    HW121161   6.481   2.209   5.292
 6754SOL    HW221162   6.339   2.192   5.371
 6755SOL     OW21163   5.200   1.760   3.972
 6755SOL    HW121164   5.111   1.715   3.973
 6755SOL    HW221165   5.187   1.860   3.972
 6756SOL     OW21166   4.621   4.399   4.279
 6756SOL    HW121167   4.542   4.425   4.335
 6756SOL    HW221168   4.665   4.481   4.243
 6757SOL     OW21169   4.691   6.180   0.753
 6757SOL    HW121170   4.707   6.274   0.782
 6757SOL    HW221171   4.600   6.172   0.712
 6758SOL     OW21172   5.322   4.114   2.115
 6758SOL    HW121173   5.304   4.021   2.147
 6758SOL    HW221174   5.239   4.152   2.075
 6759SOL     OW21175   1.244   3.671   4.223
 6759SOL    HW121176   1.284   3.757   4.191
 6759SOL    HW221177   1.145   3.682   4.231
 6760SOL     OW21178   6.391   5.114   4.592
 6760SOL    HW121179   6.474   5.136   4.645
 6760SOL    HW221180   6.355   5.025   4.623
 6761SOL     OW21181   5.465   2.486   6.091
 6761SOL    HW121182   5.397   2.457   6.024
 6761SOL    HW221183   5.476   2.585   6.088
 6762SOL     OW21184   6.814   5.658   3.010
 6762SOL    HW121185   6.880   5.652   2.935
 6762SOL    HW221186   6.859   5.635   3.096
 6763SOL     OW21187   6.449   6.296   4.032
 6763SOL    HW121188   6.480   6.358   3.960
 6763SOL    HW221189   6.412   6.349   4.109
 6764SOL     OW21190   2.938   4.441   6.541
 6764SOL    HW121191   2.947   4.427   6.442
 6764SOL    HW221192   2.905   4.356   6.583
 6765SOL     OW21193   6.037   4.950   3.715
 6765SOL    HW121194   5.980   4.936   3.633
 6765SOL    HW221195   6.076   5.041   3.713
 6766SOL     OW21196   2.791   6.887   6.263
 6766SOL    HW121197   2.760   6.793   6.245
 6766SOL    HW221198   2.715   6.950   6.248
 6767SOL     OW21199   0.613   3.007   0.753
 6767SOL    HW121200   0.633   2.979   0.658
 6767SOL    HW221201   0.678   3.078   0.780
 6768SOL     OW21202   1.029   0.430   3.716
 6768SOL    HW121203   1.109   0.370   3.725
 6768SOL    HW221204   0.949   0.376   3.690
 6769SOL     OW21205   3.148   1.359   5.229
 6769SOL    HW121206   3.158   1.411   5.144
 6769SOL    HW221207   3.051   1.348   5.249
 6770SOL     OW21208   0.185   2.185   4.539
 6770SOL    HW121209   0.118   2.201   4.466
 6770SOL    HW221210   0.139   2.151   4.621
 6771SOL     OW21211   3.653   2.111   3.460
 6771SOL    HW121212   3.589   2.082   3.388
 6771SOL    HW221213   3.602   2.147   3.538
 6772SOL     OW21214   5.383   2.098   2.547
 6772SOL    HW121215   5.430   2.185   2.566
 6772SOL    HW221216   5.417   2.028   2.610
 6773SOL     OW21217   6.675   6.784   1.435
 6773SOL    HW121218   6.679   6.866   1.492
 6773SOL    HW221219   6.707   6.806   1.342
 6774SOL     OW21220   2.023   1.612   5.532
 6774SOL    HW121221   1.966   1.586   5.455
 6774SOL    HW221222   2.113   1.570   5.524
 6775SOL     OW21223   1.283   1.921   3.626
 6775SOL    HW121224   1.324   1.883   3.709
 6775SOL    HW221225   1.287   1.853   3.552
 6776SOL     OW21226   3.605   3.774   1.580
 6776SOL    HW121227   3.555   3.851   1.620
 6776SOL    HW221228   3.586   3.691   1.633
 6777SOL     OW21229   4.222   5.195   1.246
 6777SOL    HW121230   4.171   5.278   1.227
 6777SOL    HW221231   4.319   5.218   1.261
 6778SOL     OW21232   5.545   3.947   2.437
 6778SOL    HW121233   5.460   3.985   2.401
 6778SOL    HW221234   5.620   3.970   2.375
 6779SOL     OW21235   6.559   4.576   6.292
 6779SOL    HW121236   6.535   4.599   6.386
 6779SOL    HW221237   6.481   4.595   6.232
 6780SOL     OW21238   2.277   2.834   2.839
 6780SOL    HW121239   2.276   2.923   2.795
 6780SOL    HW221240   2.304   2.844   2.935
 6781SOL     OW21241   6.590   0.942   3.909
 6781SOL    HW121242   6.633   0.860   3.947
 6781SOL    HW221243   6.519   0.916   3.844
 6782SOL     OW21244   0.069   1.428   3.565
 6782SOL    HW121245   0.031   1.336   3.576
 6782SOL    HW221246   0.163   1.422   3.533
 6783SOL     OW21247   1.285   4.310   5.073
 6783SOL    HW121248   1.311   4.358   5.157
 6783SOL    HW221249   1.186   4.292   5.075
 6784SOL     OW21250   2.214   3.157   1.856
 6784SOL    HW121251   2.158   3.168   1.938
 6784SOL    HW221252   2.282   3.230   1.852
 6785SOL     OW21253   5.768   4.427   5.007
 6785SOL    HW121254   5.772   4.384   4.917
 6785SOL    HW221255   5.672   4.442   5.032
 6786SOL     OW21256   6.500   3.117   0.515
 6786SOL    HW121257   6.461   3.041   0.567
 6786SOL    HW221258   6.454   3.124   0.427
 6787SOL     OW21259   3.659   2.400   0.708
 6787SOL    HW121260   3.565   2.433   0.705
 6787SOL    HW221261   3.721   2.477   0.722
 6788SOL     OW21262   0.801   3.616   2.790
 6788SOL    HW121263   0.716   3.612   2.738
 6788SOL    HW221264   0.781   3.611   2.888
 6789SOL     OW21265   6.480   4.393   4.178
 6789SOL    HW121266   6.440   4.481   4.152
 6789SOL    HW221267   6.452   4.369   4.271
 6790SOL     OW21268   0.782   4.777   5.710
 6790SOL    HW121269   0.861   4.735   5.664
 6790SOL    HW221270   0.772   4.737   5.801
 6791SOL     OW21271   4.458   1.482   3.669
 6791SOL    HW121272   4.489   1.426   3.592
 6791SOL    HW221273   4.427   1.423   3.743
 6792SOL     OW21274   4.159   6.657   5.074
 6792SOL    HW121275   4.147   6.577   5.016
 6792SOL    HW221276   4.132   6.739   5.025
 6793SOL     OW21277   2.841   2.372   7.026
 6793SOL    HW121278   2.916   2.307   7.015
 6793SOL    HW221279   2.815   2.408   6.936
 6794SOL     OW21280   4.463   1.302   5.898
 6794SOL    HW121281   4.538   1.368   5.905
 6794SOL    HW221282   4.377   1.346   5.921
 6795SOL     OW21283   1.178   0.604   1.457
 6795SOL    HW121284   1.199   0.565   1.547
 6795SOL    HW221285   1.093   0.565   1.422
 6796SOL     OW21286   6.276   0.891   1.978
 6796SOL    HW121287   6.227   0.897   1.891
 6796SOL    HW221288   6.296   0.795   1.998
 6797SOL     OW21289   6.746   2.463   1.780
 6797SOL    HW121290   6.805   2.396   1.735
 6797SOL    HW221291   6.749   2.448   1.879
 6798SOL     OW21292   5.260   0.280   1.300
 6798SOL    HW121293   5.343   0.332   1.322
 6798SOL    HW221294   5.225   0.238   1.384
 6799SOL     OW21295   5.766   6.761   3.383
 6799SOL    HW121296   5.837   6.720   3.326
 6799SOL    HW221297   5.684   6.779   3.328
 6800SOL     OW21298   1.089   1.302   1.260
 6800SOL    HW121299   1.187   1.305   1.277
 6800SOL    HW221300   1.046   1.240   1.325
 6801SOL     OW21301   1.197   6.393   4.743
 6801SOL    HW121302   1.115   6.441   4.714
 6801SOL    HW221303   1.174   6.299   4.768
 6802SOL     OW21304   2.996   6.275   1.217
 6802SOL    HW121305   3.044   6.353   1.256
 6802SOL    HW221306   3.059   6.221   1.162
 6803SOL     OW21307   4.961   4.524   0.094
 6803SOL    HW121308   4.910   4.438   0.093
 6803SOL    HW221309   5.059   4.504   0.099
 6804SOL     OW21310   2.808   4.845   2.656
 6804SOL    HW121311   2.721   4.796   2.667
 6804SOL    HW221312   2.868   4.825   2.733
 6805SOL     OW21313   0.486   5.241   5.742
 6805SOL    HW121314   0.552   5.203   5.677
 6805SOL    HW221315   0.409   5.281   5.693
 6806SOL     OW21316   6.937   0.778   3.862
 6806SOL    HW121317   6.936   0.679   3.851
 6806SOL    HW221318   6.885   0.804   3.943
 6807SOL     OW21319   3.505   3.943   3.676
 6807SOL    HW121320   3.548   3.947   3.767
 6807SOL    HW221321   3.449   4.024   3.662
 6808SOL     OW21322   5.189   1.165   5.252
 6808SOL    HW121323   5.247   1.160   5.171
 6808SOL    HW221324   5.244   1.145   5.333
 6809SOL     OW21325   5.926   4.752   1.892
 6809SOL    HW121326   5.941   4.801   1.978
 6809SOL    HW221327   5.939   4.654   1.907
 6810SOL     OW21328   3.329   1.161   3.337
 6810SOL    HW121329   3.425   1.133   3.334
 6810SOL    HW221330   3.279   1.117   3.263
 6811SOL     OW21331   6.460   1.855   2.599
 6811SOL    HW121332   6.439   1.854   2.697
 6811SOL    HW221333   6.470   1.949   2.568
 6812SOL     OW21334   3.570   3.542   5.029
 6812SOL    HW121335   3.594   3.446   5.018
 6812SOL    HW221336   3.500   3.567   4.961
 6813SOL     OW21337   5.145   3.373   1.166
 6813SOL    HW121338   5.114   3.323   1.246
 6813SOL    HW221339   5.191   3.309   1.103
 6814SOL     OW21340   4.157   1.495   6.175
 6814SOL    HW121341   4.076   1.439   6.189
 6814SOL    HW221342   4.149   1.580   6.227
 6815SOL     OW21343   1.793   5.000   6.670
 6815SOL    HW121344   1.827   5.054   6.747
 6815SOL    HW221345   1.826   5.039   6.584
 6816SOL     OW21346   6.627   1.756   4.539
 6816SOL    HW121347   6.631   1.738   4.441
 6816SOL    HW221348   6.533   1.746   4.572
 6817SOL     OW21349   2.613   2.414   3.126
 6817SOL    HW121350   2.540   2.479   3.148
 6817SOL    HW221351   2.692   2.433   3.184
 6818SOL     OW21352   1.937   6.034   6.009
 6818SOL    HW121353   2.031   6.002   5.995
 6818SOL    HW221354   1.939   6.130   6.037
 6819SOL     OW21355   5.042   5.314   2.827
 6819SOL    HW121356   5.029   5.413   2.819
 6819SOL    HW221357   5.139   5.293   2.837
 6820SOL     OW21358   1.801   6.742   1.241
 6820SOL    HW121359   1.717   6.794   1.256
 6820SOL    HW221360   1.859   6.747   1.322
 6821SOL     OW21361   4.241   2.259   5.533
 6821SOL    HW121362   4.298   2.202   5.593
 6821SOL    HW221363   4.227   2.348   5.577
 6822SOL     OW21364   0.106   2.838   5.881
 6822SOL    HW121365   0.069   2.746   5.872
 6822SOL    HW221366   0.041   2.896   5.930
 6823SOL     OW21367   5.525   3.517   0.072
 6823SOL    HW121368   5.616   3.486   0.046
 6823SOL    HW221369   5.530   3.611   0.107
 6824SOL     OW21370   1.612   1.686   6.723
 6824SOL    HW121371   1.666   1.756   6.677
 6824SOL    HW221372   1.665   1.647   6.798
 6825SOL     OW21373   6.920   6.037   1.072
 6825SOL    HW121374   7.000   5.989   1.110
 6825SOL    HW221375   6.947   6.129   1.045
 6826SOL     OW21376   0.664   3.603   3.028
 6826SOL    HW121377   0.694   3.574   3.118
 6826SOL    HW221378   0.649   3.702   3.028
 6827SOL     OW21379   4.868   5.619   5.433
 6827SOL    HW121380   4.782   5.615   5.485
 6827SOL    HW221381   4.900   5.526   5.413
 6828SOL     OW21382   3.882   1.327   2.846
 6828SOL    HW121383   3.869   1.248   2.907
 6828SOL    HW221384   3.864   1.411   2.897
 6829SOL     OW21385   5.581   0.150   4.970
 6829SOL    HW121386   5.630   0.128   5.054
 6829SOL    HW221387   5.487   0.116   4.976
 6830SOL     OW21388   5.998   1.167   3.047
 6830SOL    HW121389   6.087   1.201   3.017
 6830SOL    HW221390   6.008   1.120   3.135
 6831SOL     OW21391   1.575   1.590   5.574
 6831SOL    HW121392   1.658   1.562   5.622
 6831SOL    HW221393   1.518   1.510   5.557
 6832SOL     OW21394   2.783   2.361   0.603
 6832SOL    HW121395   2.767   2.436   0.667
 6832SOL    HW221396   2.827   2.396   0.520
 6833SOL     OW21397   3.578   5.539   6.281
 6833SOL    HW121398   3.545   5.611   6.343
 6833SOL    HW221399   3.554   5.450   6.318
 6834SOL     OW21400   5.409   0.170   0.545
 6834SOL    HW121401   5.467   0.122   0.480
 6834SOL    HW221402   5.321   0.123   0.553
 6835SOL     OW21403   3.337   2.019   4.047
 6835SOL    HW121404   3.395   1.943   4.076
 6835SOL    HW221405   3.375   2.060   3.964
 6836SOL     OW21406   1.857   4.376   6.079
 6836SOL    HW121407   1.856   4.476   6.077
 6836SOL    HW221408   1.763   4.342   6.091
 6837SOL     OW21409   1.312   0.751   2.099
 6837SOL    HW121410   1.250   0.824   2.127
 6837SOL    HW221411   1.388   0.789   2.047
 6838SOL     OW21412   2.590   4.530   5.187
 6838SOL    HW121413   2.653   4.564   5.117
 6838SOL    HW221414   2.642   4.486   5.260
 6839SOL     OW21415   5.031   1.839   4.350
 6839SOL    HW121416   5.062   1.839   4.445
 6839SOL    HW221417   5.106   1.867   4.290
 6840SOL     OW21418   2.606   6.891   4.827
 6840SOL    HW121419   2.544   6.967   4.850
 6840SOL    HW221420   2.687   6.928   4.781
 6841SOL     OW21421   3.712   5.385   1.651
 6841SOL    HW121422   3.760   5.471   1.665
 6841SOL    HW221423   3.627   5.384   1.703
 6842SOL     OW21424   0.424   3.109   6.891
 6842SOL    HW121425   0.491   3.177   6.861
 6842SOL    HW221426   0.387   3.060   6.812
 6843SOL     OW21427   4.606   1.889   2.115
 6843SOL    HW121428   4.583   1.961   2.048
 6843SOL    HW221429   4.529   1.876   2.177
 6844SOL     OW21430   4.456   5.595   4.605
 6844SOL    HW121431   4.519   5.534   4.653
 6844SOL    HW221432   4.504   5.680   4.582
 6845SOL     OW21433   4.533   4.752   2.845
 6845SOL    HW121434   4.629   4.729   2.829
 6845SOL    HW221435   4.475   4.683   2.802
 6846SOL     OW21436   3.702   3.442   1.408
 6846SOL    HW121437   3.610   3.405   1.415
 6846SOL    HW221438   3.727   3.487   1.494
 6847SOL     OW21439   4.846   3.510   1.859
 6847SOL    HW121440   4.877   3.440   1.794
 6847SOL    HW221441   4.758   3.547   1.828
 6848SOL     OW21442   0.814   4.794   4.482
 6848SOL    HW121443   0.825   4.724   4.412
 6848SOL    HW221444   0.732   4.849   4.463
 6849SOL     OW21445   3.771   5.686   4.013
 6849SOL    HW121446   3.698   5.630   3.974
 6849SOL    HW221447   3.839   5.626   4.056
 6850SOL     OW21448   6.043   1.894   3.574
 6850SOL    HW121449   5.962   1.923   3.523
 6850SOL    HW221450   6.112   1.967   3.571
 6851SOL     OW21451   0.850   4.961   5.414
 6851SOL    HW121452   0.832   4.935   5.319
 6851SOL    HW221453   0.898   4.886   5.460
 6852SOL     OW21454   0.808   3.928   1.753
 6852SOL    HW121455   0.812   4.027   1.735
 6852SOL    HW221456   0.894   3.898   1.794
 6853SOL     OW21457   0.365   5.545   5.950
 6853SOL    HW121458   0.347   5.447   5.946
 6853SOL    HW221459   0.450   5.561   6.000
 6854SOL     OW21460   6.501   1.878   6.011
 6854SOL    HW121461   6.587   1.836   6.040
 6854SOL    HW221462   6.444   1.895   6.092
 6855SOL     OW21463   3.774   6.808   2.619
 6855SOL    HW121464   3.858   6.846   2.658
 6855SOL    HW221465   3.734   6.873   2.555
 6856SOL     OW21466   6.385   4.313   5.057
 6856SOL    HW121467   6.334   4.258   5.124
 6856SOL    HW221468   6.482   4.311   5.080
 6857SOL     OW21469   3.144   1.561   6.391
 6857SOL    HW121470   3.157   1.469   6.355
 6857SOL    HW221471   3.094   1.616   6.324
 6858SOL     OW21472   4.036   3.183   3.865
 6858SOL    HW121473   3.982   3.184   3.949
 6858SOL    HW221474   4.096   3.263   3.862
 6859SOL     OW21475   2.579   0.016   0.621
 6859SOL    HW121476   2.594   6.947   0.630
 6859SOL    HW221477   2.653   0.065   0.665
 6860SOL     OW21478   5.655   4.833   1.750
 6860SOL    HW121479   5.669   4.892   1.671
 6860SOL    HW221480   5.744   4.799   1.783
 6861SOL     OW21481   5.766   5.097   0.698
 6861SOL    HW121482   5.821   5.016   0.717
 6861SOL    HW221483   5.786   5.131   0.606
 6862SOL     OW21484   2.356   4.821   4.829
 6862SOL    HW121485   2.275   4.767   4.852
 6862SOL    HW221486   2.435   4.760   4.818
 6863SOL     OW21487   6.299   0.997   4.425
 6863SOL    HW121488   6.243   1.017   4.506
 6863SOL    HW221489   6.285   1.070   4.358
 6864SOL     OW21490   3.302   5.640   3.702
 6864SOL    HW121491   3.324   5.687   3.617
 6864SOL    HW221492   3.288   5.543   3.684
 6865SOL     OW21493   6.489   4.663   4.082
 6865SOL    HW121494   6.409   4.710   4.120
 6865SOL    HW221495   6.497   4.684   3.985
 6866SOL     OW21496   6.568   3.898   2.109
 6866SOL    HW121497   6.530   3.989   2.123
 6866SOL    HW221498   6.497   3.837   2.074
 6867SOL     OW21499   1.673   4.059   1.526
 6867SOL    HW121500   1.763   4.039   1.565
 6867SOL    HW221501   1.676   4.047   1.427
 6868SOL     OW21502   1.638   6.224   4.656
 6868SOL    HW121503   1.581   6.185   4.584
 6868SOL    HW221504   1.590   6.300   4.699
 6869SOL     OW21505   5.972   3.257   4.871
 6869SOL    HW121506   5.961   3.182   4.806
 6869SOL    HW221507   6.043   3.319   4.838
 6870SOL     OW21508   5.517   3.713   3.134
 6870SOL    HW121509   5.529   3.724   3.035
 6870SOL    HW221510   5.573   3.780   3.182
 6871SOL     OW21511   6.245   4.842   1.636
 6871SOL    HW121512   6.345   4.854   1.641
 6871SOL    HW221513   6.212   4.872   1.547
 6872SOL     OW21514   1.954   3.523   0.802
 6872SOL    HW121515   1.856   3.543   0.800
 6872SOL    HW221516   1.971   3.447   0.866
 6873SOL     OW21517   6.077   3.139   6.091
 6873SOL    HW121518   6.046   3.046   6.109
 6873SOL    HW221519   6.104   3.147   5.995
 6874SOL     OW21520   0.229   3.898   3.684
 6874SOL    HW121521   0.289   3.896   3.604
 6874SOL    HW221522   0.147   3.843   3.666
 6875SOL     OW21523   1.469   1.726   3.291
 6875SOL    HW121524   1.506   1.730   3.384
 6875SOL    HW221525   1.518   1.791   3.233
 6876SOL     OW21526   3.719   5.774   6.574
 6876SOL    HW121527   3.755   5.856   6.529
 6876SOL    HW221528   3.788   5.702   6.572
 6877SOL     OW21529   2.528   4.410   0.114
 6877SOL    HW121530   2.545   4.423   0.212
 6877SOL    HW221531   2.525   4.500   0.069
 6878SOL     OW21532   2.283   1.780   6.004
 6878SOL    HW121533   2.314   1.729   6.084
 6878SOL    HW221534   2.306   1.877   6.015
 6879SOL     OW21535   0.220   1.888   0.504
 6879SOL    HW121536   0.309   1.850   0.480
 6879SOL    HW221537   0.231   1.952   0.580
 6880SOL     OW21538   2.115   3.576   4.964
 6880SOL    HW121539   2.077   3.628   4.887
 6880SOL    HW221540   2.152   3.639   5.032
 6881SOL     OW21541   6.779   4.482   2.009
 6881SOL    HW121542   6.764   4.395   1.962
 6881SOL    HW221543   6.853   4.533   1.965
 6882SOL     OW21544   2.181   0.456   5.318
 6882SOL    HW121545   2.218   0.368   5.287
 6882SOL    HW221546   2.138   0.444   5.407
 6883SOL     OW21547   3.367   0.240   1.021
 6883SOL    HW121548   3.385   0.292   1.104
 6883SOL    HW221549   3.453   0.205   0.984
 6884SOL     OW21550   2.401   4.418   3.927
 6884SOL    HW121551   2.490   4.457   3.949
 6884SOL    HW221552   2.377   4.350   3.997
 6885SOL     OW21553   2.661   5.452   3.329
 6885SOL    HW121554   2.679   5.395   3.249
 6885SOL    HW221555   2.748   5.481   3.370
 6886SOL     OW21556   5.544   1.559   2.106
 6886SOL    HW121557   5.567   1.623   2.179
 6886SOL    HW221558   5.508   1.610   2.028
 6887SOL     OW21559   5.639   0.717   5.004
 6887SOL    HW121560   5.563   0.721   4.940
 6887SOL    HW221561   5.676   0.809   5.018
 6888SOL     OW21562   5.962   0.092   5.703
 6888SOL    HW121563   6.011   0.155   5.763
 6888SOL    HW221564   5.896   0.040   5.756
 6889SOL     OW21565   0.942   3.098   5.711
 6889SOL    HW121566   1.003   3.028   5.748
 6889SOL    HW221567   0.875   3.056   5.651
 6890SOL     OW21568   2.159   0.449   0.792
 6890SOL    HW121569   2.073   0.414   0.755
 6890SOL    HW221570   2.215   0.487   0.718
 6891SOL     OW21571   2.110   3.383   4.652
 6891SOL    HW121572   2.114   3.391   4.752
 6891SOL    HW221573   2.166   3.455   4.611
 6892SOL     OW21574   4.180   0.189   4.002
 6892SOL    HW121575   4.156   0.248   3.924
 6892SOL    HW221576   4.151   0.095   3.983
 6893SOL     OW21577   5.515   6.370   2.188
 6893SOL    HW121578   5.511   6.353   2.287
 6893SOL    HW221579   5.427   6.407   2.157
 6894SOL     OW21580   6.447   5.506   0.687
 6894SOL    HW121581   6.439   5.600   0.654
 6894SOL    HW221582   6.388   5.447   0.632
 6895SOL     OW21583   2.933   4.632   6.726
 6895SOL    HW121584   2.928   4.538   6.690
 6895SOL    HW221585   2.924   4.697   6.650
 6896SOL     OW21586   4.036   0.168   3.410
 6896SOL    HW121587   3.985   0.230   3.351
 6896SOL    HW221588   3.984   0.150   3.493
 6897SOL     OW21589   2.453   3.466   0.126
 6897SOL    HW121590   2.507   3.527   0.185
 6897SOL    HW221591   2.454   3.374   0.164
 6898SOL     OW21592   4.608   1.429   1.998
 6898SOL    HW121593   4.613   1.495   1.922
 6898SOL    HW221594   4.553   1.351   1.970
 6899SOL     OW21595   5.315   6.939   6.529
 6899SOL    HW121596   5.255   7.003   6.576
 6899SOL    HW221597   5.410   6.963   6.548
 6900SOL     OW21598   5.944   0.730   6.533
 6900SOL    HW121599   5.963   0.675   6.452
 6900SOL    HW221600   5.912   0.821   6.505
 6901SOL     OW21601   0.147   0.176   6.454
 6901SOL    HW121602   0.241   0.147   6.471
 6901SOL    HW221603   0.135   0.197   6.357
 6902SOL     OW21604   0.772   6.633   0.278
 6902SOL    HW121605   0.726   6.705   0.331
 6902SOL    HW221606   0.776   6.549   0.331
 6903SOL     OW21607   3.410   3.560   0.198
 6903SOL    HW121608   3.421   3.553   0.297
 6903SOL    HW221609   3.417   3.656   0.170
 6904SOL     OW21610   6.632   1.382   3.788
 6904SOL    HW121611   6.680   1.296   3.771
 6904SOL    HW221612   6.543   1.380   3.744
 6905SOL     OW21613   5.888   6.297   0.347
 6905SOL    HW121614   5.885   6.353   0.265
 6905SOL    HW221615   5.979   6.303   0.388
 6906SOL     OW21616   3.570   1.375   4.478
 6906SOL    HW121617   3.598   1.280   4.487
 6906SOL    HW221618   3.626   1.433   4.537
 6907SOL     OW21619   3.854   2.198   0.746
 6907SOL    HW121620   3.769   2.250   0.748
 6907SOL    HW221621   3.921   2.244   0.688
 6908SOL     OW21622   1.451   7.027   5.462
 6908SOL    HW121623   1.501   0.034   5.383
 6908SOL    HW221624   1.459   0.060   5.539
 6909SOL     OW21625   4.511   4.664   0.920
 6909SOL    HW121626   4.570   4.665   0.838
 6909SOL    HW221627   4.528   4.747   0.973
 6910SOL     OW21628   6.402   1.840   2.867
 6910SOL    HW121629   6.459   1.768   2.908
 6910SOL    HW221630   6.317   1.848   2.919
 6911SOL     OW21631   4.313   0.126   3.417
 6911SOL    HW121632   4.216   0.135   3.394
 6911SOL    HW221633   4.340   0.202   3.476
 6912SOL     OW21634   5.030   5.059   1.206
 6912SOL    HW121635   4.938   5.079   1.175
 6912SOL    HW221636   5.044   4.960   1.211
 6913SOL     OW21637   5.454   4.257   5.611
 6913SOL    HW121638   5.520   4.215   5.549
 6913SOL    HW221639   5.386   4.308   5.559
 6914SOL     OW21640   5.543   5.524   6.948
 6914SOL    HW121641   5.556   5.614   6.908
 6914SOL    HW221642   5.449   5.493   6.931
 6915SOL     OW21643   0.343   4.913   1.848
 6915SOL    HW121644   0.267   4.858   1.815
 6915SOL    HW221645   0.376   4.876   1.935
 6916SOL     OW21646   6.488   4.153   6.835
 6916SOL    HW121647   6.434   4.191   6.760
 6916SOL    HW221648   6.430   4.093   6.890
 6917SOL     OW21649   4.506   4.977   6.679
 6917SOL    HW121650   4.473   5.043   6.747
 6917SOL    HW221651   4.526   4.890   6.724
 6918SOL     OW21652   0.408   4.120   4.231
 6918SOL    HW121653   0.496   4.133   4.186
 6918SOL    HW221654   0.370   4.209   4.255
 6919SOL     OW21655   2.042   5.469   2.368
 6919SOL    HW121656   2.013   5.434   2.458
 6919SOL    HW221657   1.977   5.438   2.298
 6920SOL     OW21658   5.226   5.246   5.908
 6920SOL    HW121659   5.134   5.234   5.943
 6920SOL    HW221660   5.284   5.286   5.979
 6921SOL     OW21661   5.836   5.922   3.233
 6921SOL    HW121662   5.876   5.974   3.308
 6921SOL    HW221663   5.841   5.976   3.149
 6922SOL     OW21664   1.967   5.865   0.155
 6922SOL    HW121665   1.873   5.835   0.138
 6922SOL    HW221666   2.031   5.791   0.133
 6923SOL     OW21667   4.904   6.707   3.999
 6923SOL    HW121668   4.840   6.739   3.928
 6923SOL    HW221669   4.988   6.761   3.995
 6924SOL     OW21670   0.653   3.808   0.515
 6924SOL    HW121671   0.661   3.711   0.491
 6924SOL    HW221672   0.699   3.862   0.445
 6925SOL     OW21673   3.876   6.159   3.903
 6925SOL    HW121674   3.884   6.254   3.872
 6925SOL    HW221675   3.780   6.139   3.922
 6926SOL     OW21676   3.499   3.603   2.914
 6926SOL    HW121677   3.444   3.621   2.996
 6926SOL    HW221678   3.446   3.629   2.833
 6927SOL     OW21679   5.336   3.352   5.668
 6927SOL    HW121680   5.252   3.393   5.633
 6927SOL    HW221681   5.352   3.264   5.623
 6928SOL     OW21682   4.391   0.012   6.567
 6928SOL    HW121683   4.372   0.072   6.488
 6928SOL    HW221684   4.477   6.993   6.552
 6929SOL     OW21685   4.269   5.925   0.173
 6929SOL    HW121686   4.305   5.853   0.114
 6929SOL    HW221687   4.343   5.989   0.196
 6930SOL     OW21688   0.104   6.579   1.661
 6930SOL    HW121689   0.164   6.591   1.582
 6930SOL    HW221690   0.024   6.639   1.652
 6931SOL     OW21691   0.933   0.683   1.621
 6931SOL    HW121692   0.993   0.734   1.682
 6931SOL    HW221693   0.966   0.589   1.612
 6932SOL     OW21694   3.072   0.942   0.246
 6932SOL    HW121695   3.160   0.906   0.280
 6932SOL    HW221696   3.086   1.035   0.213
 6933SOL     OW21697   3.465   5.642   4.978
 6933SOL    HW121698   3.525   5.698   4.921
 6933SOL    HW221699   3.419   5.700   5.045
 6934SOL     OW21700   5.584   3.609   6.445
 6934SOL    HW121701   5.572   3.575   6.538
 6934SOL    HW221702   5.599   3.708   6.447
 6935SOL     OW21703   4.304   6.271   2.833
 6935SOL    HW121704   4.285   6.350   2.775
 6935SOL    HW221705   4.331   6.302   2.924
 6936SOL     OW21706   6.796   2.115   2.944
 6936SOL    HW121707   6.896   2.117   2.946
 6936SOL    HW221708   6.765   2.033   2.896
 6937SOL     OW21709   5.231   6.692   6.920
 6937SOL    HW121710   5.229   6.630   6.841
 6937SOL    HW221711   5.298   6.764   6.904
 6938SOL     OW21712   4.839   4.016   5.274
 6938SOL    HW121713   4.917   4.076   5.259
 6938SOL    HW221714   4.870   3.921   5.278
 6939SOL     OW21715   6.891   5.053   2.956
 6939SOL    HW121716   6.820   5.070   2.887
 6939SOL    HW221717   6.978   5.036   2.910
 6940SOL     OW21718   4.225   0.953   0.754
 6940SOL    HW121719   4.192   1.036   0.709
 6940SOL    HW221720   4.282   0.978   0.832
 6941SOL     OW21721   4.028   3.395   2.002
 6941SOL    HW121722   4.037   3.394   1.902
 6941SOL    HW221723   4.086   3.324   2.041
 6942SOL     OW21724   0.273   2.870   1.159
 6942SOL    HW121725   0.368   2.839   1.167
 6942SOL    HW221726   0.211   2.793   1.177
 6943SOL     OW21727   5.114   6.706   6.604
 6943SOL    HW121728   5.071   6.713   6.514
 6943SOL    HW221729   5.159   6.793   6.626
 6944SOL     OW21730   1.356   5.293   5.167
 6944SOL    HW121731   1.380   5.250   5.080
 6944SOL    HW221732   1.314   5.382   5.150
 6945SOL     OW21733   6.361   2.952   6.949
 6945SOL    HW121734   6.313   3.038   6.934
 6945SOL    HW221735   6.429   2.964   7.021
 6946SOL     OW21736   6.175   5.332   2.548
 6946SOL    HW121737   6.255   5.272   2.544
 6946SOL    HW221738   6.200   5.424   2.519
 6947SOL     OW21739   4.117   0.059   4.368
 6947SOL    HW121740   4.075   0.015   4.447
 6947SOL    HW221741   4.114   7.026   4.290
 6948SOL     OW21742   5.686   0.477   0.360
 6948SOL    HW121743   5.785   0.478   0.377
 6948SOL    HW221744   5.638   0.455   0.444
 6949SOL     OW21745   4.948   6.289   3.197
 6949SOL    HW121746   4.929   6.386   3.214
 6949SOL    HW221747   4.862   6.238   3.197
 6950SOL     OW21748   2.545   0.186   3.245
 6950SOL    HW121749   2.563   0.274   3.289
 6950SOL    HW221750   2.562   0.194   3.147
 6951SOL     OW21751   6.150   6.763   6.106
 6951SOL    HW121752   6.185   6.806   6.023
 6951SOL    HW221753   6.161   6.663   6.099
 6952SOL     OW21754   0.100   5.252   3.383
 6952SOL    HW121755   0.059   5.239   3.473
 6952SOL    HW221756   0.110   5.350   3.364
 6953SOL     OW21757   5.229   0.499   6.072
 6953SOL    HW121758   5.139   0.473   6.109
 6953SOL    HW221759   5.264   0.424   6.016
 6954SOL     OW21760   1.335   3.903   4.090
 6954SOL    HW121761   1.427   3.894   4.051
 6954SOL    HW221762   1.310   4.000   4.093
 6955SOL     OW21763   6.798   0.460   1.872
 6955SOL    HW121764   6.865   0.386   1.881
 6955SOL    HW221765   6.754   0.454   1.782
 6956SOL     OW21766   4.070   5.902   2.721
 6956SOL    HW121767   4.027   5.967   2.658
 6956SOL    HW221768   4.010   5.824   2.734
 6957SOL     OW21769   6.850   4.598   1.483
 6957SOL    HW121770   6.922   4.544   1.526
 6957SOL    HW221771   6.878   4.622   1.390
 6958SOL     OW21772   2.553   3.435   5.810
 6958SOL    HW121773   2.640   3.435   5.859
 6958SOL    HW221774   2.564   3.389   5.721
 6959SOL     OW21775   1.993   1.223   4.883
 6959SOL    HW121776   1.894   1.224   4.900
 6959SOL    HW221777   2.037   1.292   4.940
 6960SOL     OW21778   0.692   5.378   0.285
 6960SOL    HW121779   0.723   5.470   0.310
 6960SOL    HW221780   0.623   5.347   0.351
 6961SOL     OW21781   0.577   2.494   4.123
 6961SOL    HW121782   0.618   2.506   4.033
 6961SOL    HW221783   0.486   2.535   4.124
 6962SOL     OW21784   5.546   5.483   2.874
 6962SOL    HW121785   5.486   5.548   2.921
 6962SOL    HW221786   5.526   5.390   2.907
 6963SOL     OW21787   0.310   5.655   1.066
 6963SOL    HW121788   0.248   5.579   1.084
 6963SOL    HW221789   0.403   5.629   1.093
 6964SOL     OW21790   5.067   4.941   5.066
 6964SOL    HW121791   5.063   4.881   4.986
 6964SOL    HW221792   4.988   5.003   5.064
 6965SOL     OW21793   0.438   3.740   6.329
 6965SOL    HW121794   0.358   3.734   6.389
 6965SOL    HW221795   0.465   3.647   6.301
 6966SOL     OW21796   5.589   2.606   2.906
 6966SOL    HW121797   5.658   2.669   2.941
 6966SOL    HW221798   5.520   2.657   2.854
 6967SOL     OW21799   1.464   1.984   5.232
 6967SOL    HW121800   1.555   1.959   5.198
 6967SOL    HW221801   1.405   2.007   5.155
 6968SOL     OW21802   3.867   6.395   1.416
 6968SOL    HW121803   3.913   6.319   1.462
 6968SOL    HW221804   3.837   6.366   1.325
 6969SOL     OW21805   4.114   1.751   1.881
 6969SOL    HW121806   4.015   1.752   1.866
 6969SOL    HW221807   4.161   1.781   1.798
 6970SOL     OW21808   4.199   4.052   0.638
 6970SOL    HW121809   4.225   4.013   0.550
 6970SOL    HW221810   4.105   4.025   0.660
 6971SOL     OW21811   6.281   3.319   2.402
 6971SOL    HW121812   6.289   3.330   2.303
 6971SOL    HW221813   6.218   3.388   2.438
 6972SOL     OW21814   6.007   4.877   4.346
 6972SOL    HW121815   5.964   4.965   4.324
 6972SOL    HW221816   6.102   4.892   4.374
 6973SOL     OW21817   1.235   4.671   4.815
 6973SOL    HW121818   1.193   4.641   4.901
 6973SOL    HW221819   1.251   4.591   4.757
 6974SOL     OW21820   3.858   2.959   3.463
 6974SOL    HW121821   3.929   3.023   3.494
 6974SOL    HW221822   3.873   2.937   3.367
 6975SOL     OW21823   3.214   6.057   5.699
 6975SOL    HW121824   3.204   5.988   5.770
 6975SOL    HW221825   3.128   6.068   5.650
 6976SOL     OW21826   3.880   4.420   6.200
 6976SOL    HW121827   3.883   4.324   6.230
 6976SOL    HW221828   3.805   4.467   6.246
 6977SOL     OW21829   5.634   2.214   1.568
 6977SOL    HW121830   5.682   2.191   1.652
 6977SOL    HW221831   5.678   2.292   1.524
 6978SOL     OW21832   6.239   1.281   1.539
 6978SOL    HW121833   6.321   1.338   1.540
 6978SOL    HW221834   6.169   1.323   1.480
 6979SOL     OW21835   1.831   5.155   1.789
 6979SOL    HW121836   1.750   5.200   1.752
 6979SOL    HW221837   1.868   5.209   1.865
 6980SOL     OW21838   1.754   0.714   4.081
 6980SOL    HW121839   1.745   0.652   4.003
 6980SOL    HW221840   1.726   0.806   4.054
 6981SOL     OW21841   2.541   3.738   6.641
 6981SOL    HW121842   2.592   3.656   6.616
 6981SOL    HW221843   2.605   3.811   6.665
 6982SOL     OW21844   1.385   1.796   3.857
 6982SOL    HW121845   1.341   1.710   3.883
 6982SOL    HW221846   1.480   1.796   3.889
 6983SOL     OW21847   0.044   1.870   3.788
 6983SOL    HW121848   7.028   1.948   3.745
 6983SOL    HW221849   0.069   1.803   3.718
 6984SOL     OW21850   2.868   1.303   5.279
 6984SOL    HW121851   2.814   1.387   5.265
 6984SOL    HW221852   2.852   1.240   5.203
 6985SOL     OW21853   3.474   5.186   2.649
 6985SOL    HW121854   3.400   5.196   2.716
 6985SOL    HW221855   3.496   5.089   2.639
 6986SOL     OW21856   1.855   5.937   5.749
 6986SOL    HW121857   1.895   5.994   5.820
 6986SOL    HW221858   1.775   5.983   5.710
 6987SOL     OW21859   0.828   1.832   6.293
 6987SOL    HW121860   0.927   1.819   6.302
 6987SOL    HW221861   0.800   1.910   6.348
 6988SOL     OW21862   6.357   0.758   5.088
 6988SOL    HW121863   6.311   0.827   5.032
 6988SOL    HW221864   6.370   0.794   5.180
 6989SOL     OW21865   0.984   2.082   3.288
 6989SOL    HW121866   0.985   2.144   3.210
 6989SOL    HW221867   1.072   2.087   3.335
 6990SOL     OW21868   5.156   1.945   0.403
 6990SOL    HW121869   5.221   1.889   0.455
 6990SOL    HW221870   5.118   1.889   0.329
 6991SOL     OW21871   2.527   4.605   4.820
 6991SOL    HW121872   2.459   4.537   4.848
 6991SOL    HW221873   2.598   4.613   4.890
 6992SOL     OW21874   5.640   5.924   5.366
 6992SOL    HW121875   5.708   5.997   5.358
 6992SOL    HW221876   5.639   5.869   5.283
 6993SOL     OW21877   5.892   6.503   2.983
 6993SOL    HW121878   5.875   6.595   3.018
 6993SOL    HW221879   5.977   6.467   3.023
 6994SOL     OW21880   0.467   3.254   4.890
 6994SOL    HW121881   0.525   3.186   4.934
 6994SOL    HW221882   0.511   3.285   4.805
 6995SOL     OW21883   6.388   5.443   4.629
 6995SOL    HW121884   6.359   5.351   4.656
 6995SOL    HW221885   6.346   5.511   4.691
 6996SOL     OW21886   2.355   1.101   5.188
 6996SOL    HW121887   2.293   1.023   5.187
 6996SOL    HW221888   2.437   1.078   5.241
 6997SOL     OW21889   4.872   5.906   5.516
 6997SOL    HW121890   4.881   5.812   5.484
 6997SOL    HW221891   4.906   5.912   5.610
 6998SOL     OW21892   1.709   2.643   1.465
 6998SOL    HW121893   1.756   2.688   1.540
 6998SOL    HW221894   1.740   2.681   1.378
 6999SOL     OW21895   2.397   1.774   6.765
 6999SOL    HW121896   2.370   1.694   6.819
 6999SOL    HW221897   2.487   1.759   6.725
 7000SOL     OW21898   0.335   6.396   2.615
 7000SOL    HW121899   0.410   6.351   2.664
 7000SOL    HW221900   0.261   6.331   2.601
 7001SOL     OW21901   2.835   2.688   5.472
 7001SOL    HW121902   2.764   2.634   5.517
 7001SOL    HW221903   2.887   2.629   5.410
 7002SOL     OW21904   2.549   4.729   2.710
 7002SOL    HW121905   2.520   4.643   2.753
 7002SOL    HW221906   2.548   4.719   2.611
 7003SOL     OW21907   3.397   7.015   6.949
 7003SOL    HW121908   3.416   0.073   6.994
 7003SOL    HW221909   3.483   6.969   6.927
 7004SOL     OW21910   2.092   5.321   1.785
 7004SOL    HW121911   2.097   5.297   1.688
 7004SOL    HW221912   2.005   5.365   1.804
 7005SOL     OW21913   0.369   6.004   5.471
 7005SOL    HW121914   0.349   6.078   5.406
 7005SOL    HW221915   0.291   5.992   5.532
 7006SOL     OW21916   5.494   5.037   4.921
 7006SOL    HW121917   5.498   5.134   4.947
 7006SOL    HW221918   5.470   4.982   5.001
 7007SOL     OW21919   5.214   6.545   3.343
 7007SOL    HW121920   5.229   6.476   3.272
 7007SOL    HW221921   5.272   6.525   3.422
 7008SOL     OW21922   2.492   4.882   4.152
 7008SOL    HW121923   2.400   4.855   4.124
 7008SOL    HW221924   2.489   4.976   4.186
 7009SOL     OW21925   6.212   5.265   2.248
 7009SOL    HW121926   6.158   5.347   2.269
 7009SOL    HW221927   6.187   5.191   2.310
 7010SOL     OW21928   4.721   4.271   6.099
 7010SOL    HW121929   4.762   4.355   6.136
 7010SOL    HW221930   4.790   4.198   6.097
 7011SOL     OW21931   1.647   0.279   6.312
 7011SOL    HW121932   1.730   0.310   6.359
 7011SOL    HW221933   1.596   0.218   6.372
 7012SOL     OW21934   1.812   0.749   2.254
 7012SOL    HW121935   1.908   0.730   2.277
 7012SOL    HW221936   1.807   0.828   2.193
 7013SOL     OW21937   0.227   6.759   0.319
 7013SOL    HW121938   0.234   6.681   0.381
 7013SOL    HW221939   0.266   6.840   0.364
 7014SOL     OW21940   4.802   3.947   1.308
 7014SOL    HW121941   4.765   3.887   1.238
 7014SOL    HW221942   4.742   4.025   1.321
 7015SOL     OW21943   5.483   4.285   1.960
 7015SOL    HW121944   5.435   4.208   2.003
 7015SOL    HW221945   5.475   4.366   2.018
 7016SOL     OW21946   3.457   4.946   2.073
 7016SOL    HW121947   3.367   4.910   2.099
 7016SOL    HW221948   3.513   4.871   2.037
 7017SOL     OW21949   2.586   0.467   2.074
 7017SOL    HW121950   2.590   0.500   1.980
 7017SOL    HW221951   2.665   0.501   2.125
 7018SOL     OW21952   6.720   4.577   4.646
 7018SOL    HW121953   6.733   4.653   4.709
 7018SOL    HW221954   6.785   4.584   4.571
 7019SOL     OW21955   2.976   4.458   6.263
 7019SOL    HW121956   2.946   4.541   6.217
 7019SOL    HW221957   2.969   4.380   6.200
 7020SOL     OW21958   6.098   6.686   0.051
 7020SOL    HW121959   6.183   6.723   0.089
 7020SOL    HW221960   6.115   6.594   0.017
 7021SOL     OW21961   2.737   0.812   5.804
 7021SOL    HW121962   2.684   0.825   5.721
 7021SOL    HW221963   2.754   0.714   5.818
 7022SOL     OW21964   5.154   4.367   0.410
 7022SOL    HW121965   5.096   4.299   0.365
 7022SOL    HW221966   5.096   4.440   0.448
 7023SOL     OW21967   0.428   2.176   3.418
 7023SOL    HW121968   0.461   2.160   3.326
 7023SOL    HW221969   0.400   2.090   3.460
 7024SOL     OW21970   1.295   5.950   5.994
 7024SOL    HW121971   1.254   6.033   5.956
 7024SOL    HW221972   1.368   5.975   6.058
 7025SOL     OW21973   3.651   1.539   0.222
 7025SOL    HW121974   3.601   1.463   0.264
 7025SOL    HW221975   3.700   1.590   0.293
 7026SOL     OW21976   2.804   1.360   2.014
 7026SOL    HW121977   2.766   1.303   1.942
 7026SOL    HW221978   2.883   1.411   1.978
 7027SOL     OW21979   3.115   5.429   2.217
 7027SOL    HW121980   3.168   5.345   2.232
 7027SOL    HW221981   3.041   5.434   2.284
 7028SOL     OW21982   5.451   6.192   4.679
 7028SOL    HW121983   5.495   6.282   4.675
 7028SOL    HW221984   5.506   6.125   4.630
 7029SOL     OW21985   3.670   6.898   6.971
 7029SOL    HW121986   3.733   6.882   0.018
 7029SOL    HW221987   3.651   6.811   6.926
 7030SOL     OW21988   0.146   2.817   5.477
 7030SOL    HW121989   0.136   2.916   5.493
 7030SOL    HW221990   0.089   2.790   5.400
 7031SOL     OW21991   1.803   6.018   3.447
 7031SOL    HW121992   1.857   5.971   3.516
 7031SOL    HW221993   1.772   5.952   3.378
 7032SOL     OW21994   3.580   6.901   4.012
 7032SOL    HW121995   3.522   6.937   4.084
 7032SOL    HW221996   3.661   6.859   4.053
 7033SOL     OW21997   6.861   1.691   4.305
 7033SOL    HW121998   6.867   1.787   4.278
 7033SOL    HW221999   6.824   1.638   4.230
 7034SOL     OW22000   6.060   0.813   3.121
 7034SOL    HW122001   6.019   0.804   3.030
 7034SOL    HW222002   6.026   0.895   3.165
 7035SOL     OW22003   0.842   6.663   1.888
 7035SOL    HW122004   0.880   6.671   1.980
 7035SOL    HW222005   0.854   6.569   1.855
 7036SOL     OW22006   6.559   6.496   1.764
 7036SOL    HW122007   6.487   6.550   1.806
 7036SOL    HW222008   6.544   6.399   1.784
 7037SOL     OW22009   0.223   6.913   6.254
 7037SOL    HW122010   0.307   6.910   6.200
 7037SOL    HW222011   0.179   6.823   6.251
 7038SOL     OW22012   2.123   3.691   4.607
 7038SOL    HW122013   2.172   3.736   4.682
 7038SOL    HW222014   2.027   3.679   4.632
 7039SOL     OW22015   2.909   6.335   0.315
 7039SOL    HW122016   2.817   6.349   0.278
 7039SOL    HW222017   2.907   6.348   0.414
 7040SOL     OW22018   4.452   2.632   5.413
 7040SOL    HW122019   4.427   2.614   5.509
 7040SOL    HW222020   4.517   2.562   5.383
 7041SOL     OW22021   0.955   1.784   3.695
 7041SOL    HW122022   0.870   1.738   3.668
 7041SOL    HW222023   0.968   1.865   3.638
 7042SOL     OW22024   5.074   5.068   6.769
 7042SOL    HW122025   5.022   5.040   6.850
 7042SOL    HW222026   5.113   4.987   6.725
 7043SOL     OW22027   2.255   2.566   2.866
 7043SOL    HW122028   2.282   2.661   2.875
 7043SOL    HW222029   2.183   2.558   2.796
 7044SOL     OW22030   4.736   4.431   2.971
 7044SOL    HW122031   4.664   4.438   3.039
 7044SOL    HW222032   4.756   4.335   2.951
 7045SOL     OW22033   4.526   6.456   1.678
 7045SOL    HW122034   4.475   6.471   1.763
 7045SOL    HW222035   4.542   6.544   1.633
 7046SOL     OW22036   3.370   2.123   3.781
 7046SOL    HW122037   3.280   2.124   3.824
 7046SOL    HW222038   3.361   2.099   3.685
 7047SOL     OW22039   0.881   2.488   2.934
 7047SOL    HW122040   0.915   2.426   2.863
 7047SOL    HW222041   0.941   2.568   2.940
 7048SOL     OW22042   0.616   6.286   1.410
 7048SOL    HW122043   0.655   6.219   1.347
 7048SOL    HW222044   0.621   6.250   1.504
 7049SOL     OW22045   2.375   1.065   0.552
 7049SOL    HW122046   2.298   1.090   0.493
 7049SOL    HW222047   2.389   1.137   0.620
 7050SOL     OW22048   3.841   4.089   4.016
 7050SOL    HW122049   3.908   4.017   4.036
 7050SOL    HW222050   3.797   4.117   4.100
 7051SOL     OW22051   0.660   0.571   0.905
 7051SOL    HW122052   0.599   0.497   0.879
 7051SOL    HW222053   0.754   0.536   0.912
 7052SOL     OW22054   6.315   2.800   4.569
 7052SOL    HW122055   6.281   2.712   4.536
 7052SOL    HW222056   6.302   2.806   4.668
 7053SOL     OW22057   0.565   2.972   5.320
 7053SOL    HW122058   0.489   2.920   5.281
 7053SOL    HW222059   0.648   2.916   5.321
 7054SOL     OW22060   1.375   6.229   1.309
 7054SOL    HW122061   1.397   6.139   1.346
 7054SOL    HW222062   1.305   6.272   1.365
 7055SOL     OW22063   3.623   6.348   5.099
 7055SOL    HW122064   3.710   6.320   5.059
 7055SOL    HW222065   3.624   6.327   5.197
 7056SOL     OW22066   5.463   5.148   3.468
 7056SOL    HW122067   5.472   5.071   3.404
 7056SOL    HW222068   5.366   5.170   3.481
 7057SOL     OW22069   1.220   4.245   4.309
 7057SOL    HW122070   1.222   4.234   4.210
 7057SOL    HW222071   1.273   4.172   4.352
 7058SOL     OW22072   6.702   5.524   5.686
 7058SOL    HW122073   6.637   5.579   5.739
 7058SOL    HW222074   6.659   5.496   5.600
 7059SOL     OW22075   0.471   0.117   2.886
 7059SOL    HW122076   0.468   0.217   2.882
 7059SOL    HW222077   0.511   0.088   2.973
 7060SOL     OW22078   3.273   0.399   1.459
 7060SOL    HW122079   3.334   0.465   1.415
 7060SOL    HW222080   3.303   0.306   1.439
 7061SOL     OW22081   0.345   1.943   3.890
 7061SOL    HW122082   0.279   1.929   3.964
 7061SOL    HW222083   0.313   2.017   3.830
 7062SOL     OW22084   5.658   1.427   6.002
 7062SOL    HW122085   5.695   1.520   6.005
 7062SOL    HW222086   5.587   1.418   6.072
 7063SOL     OW22087   0.970   0.134   0.700
 7063SOL    HW122088   0.953   0.097   0.609
 7063SOL    HW222089   1.039   0.207   0.694
 7064SOL     OW22090   4.005   2.106   1.902
 7064SOL    HW122091   3.913   2.069   1.912
 7064SOL    HW222092   4.001   2.193   1.853
 7065SOL     OW22093   4.461   3.743   1.023
 7065SOL    HW122094   4.400   3.736   1.102
 7065SOL    HW222095   4.438   3.672   0.957
 7066SOL     OW22096   4.033   0.532   0.668
 7066SOL    HW122097   4.057   0.612   0.723
 7066SOL    HW222098   4.097   0.457   0.687
 7067SOL     OW22099   1.293   2.070   5.004
 7067SOL    HW122100   1.256   2.162   4.999
 7067SOL    HW222101   1.378   2.065   4.952
 7068SOL     OW22102   0.579   4.234   3.354
 7068SOL    HW122103   0.555   4.308   3.292
 7068SOL    HW222104   0.571   4.266   3.449
 7069SOL     OW22105   6.237   2.476   4.472
 7069SOL    HW122106   6.214   2.397   4.415
 7069SOL    HW222107   6.162   2.496   4.535
 7070SOL     OW22108   6.607   6.256   5.164
 7070SOL    HW122109   6.635   6.342   5.123
 7070SOL    HW222110   6.516   6.266   5.205
 7071SOL     OW22111   0.377   6.614   5.675
 7071SOL    HW122112   0.444   6.659   5.734
 7071SOL    HW222113   0.285   6.645   5.700
 7072SOL     OW22114   6.456   6.843   6.057
 7072SOL    HW122115   6.491   6.934   6.036
 7072SOL    HW222116   6.420   6.842   6.150
 7073SOL     OW22117   6.209   0.506   4.264
 7073SOL    HW122118   6.142   0.550   4.204
 7073SOL    HW222119   6.167   0.427   4.308
 7074SOL     OW22120   3.852   3.149   1.566
 7074SOL    HW122121   3.847   3.197   1.479
 7074SOL    HW222122   3.880   3.054   1.551
 7075SOL     OW22123   0.827   6.678   4.733
 7075SOL    HW122124   0.907   6.686   4.674
 7075SOL    HW222125   0.849   6.619   4.811
 7076SOL     OW22126   4.294   2.644   6.793
 7076SOL    HW122127   4.388   2.656   6.823
 7076SOL    HW222128   4.241   2.727   6.813
 7077SOL     OW22129   1.981   5.072   5.482
 7077SOL    HW122130   1.911   5.091   5.550
 7077SOL    HW222131   1.967   5.130   5.402
 7078SOL     OW22132   6.000   0.192   1.594
 7078SOL    HW122133   5.911   0.152   1.570
 7078SOL    HW222134   6.053   0.125   1.645
 7079SOL     OW22135   6.816   6.035   5.569
 7079SOL    HW122136   6.802   6.066   5.474
 7079SOL    HW222137   6.800   6.112   5.631
 7080SOL     OW22138   3.945   2.193   3.707
 7080SOL    HW122139   3.863   2.196   3.764
 7080SOL    HW222140   4.016   2.249   3.748
 7081SOL     OW22141   3.414   0.322   5.881
 7081SOL    HW122142   3.413   0.250   5.951
 7081SOL    HW222143   3.402   0.281   5.791
 7082SOL     OW22144   5.725   6.222   6.757
 7082SOL    HW122145   5.744   6.320   6.765
 7082SOL    HW222146   5.644   6.208   6.701
 7083SOL     OW22147   3.019   1.442   6.884
 7083SOL    HW122148   3.019   1.445   6.984
 7083SOL    HW222149   3.018   1.347   6.853
 7084SOL     OW22150   0.016   6.918   5.616
 7084SOL    HW122151   0.112   6.888   5.615
 7084SOL    HW222152   0.008   7.006   5.664
 7085SOL     OW22153   2.447   0.781   3.296
 7085SOL    HW122154   2.442   0.686   3.327
 7085SOL    HW222155   2.430   0.842   3.374
 7086SOL     OW22156   5.136   1.406   6.216
 7086SOL    HW122157   5.208   1.340   6.193
 7086SOL    HW222158   5.131   1.476   6.144
 7087SOL     OW22159   6.247   4.307   3.623
 7087SOL    HW122160   6.265   4.272   3.715
 7087SOL    HW222161   6.271   4.237   3.555
 7088SOL     OW22162   5.002   3.016   3.987
 7088SOL    HW122163   5.086   2.994   3.939
 7088SOL    HW222164   4.982   2.944   4.054
 7089SOL     OW22165   3.016   2.206   6.021
 7089SOL    HW122166   2.949   2.280   6.030
 7089SOL    HW222167   3.097   2.227   6.076
 7090SOL     OW22168   2.863   1.514   6.489
 7090SOL    HW122169   2.899   1.428   6.455
 7090SOL    HW222170   2.808   1.558   6.418
 7091SOL     OW22171   7.011   2.299   7.000
 7091SOL    HW122172   6.994   2.360   6.923
 7091SOL    HW222173   6.926   2.251   7.023
 7092SOL     OW22174   4.412   2.715   6.117
 7092SOL    HW122175   4.399   2.623   6.152
 7092SOL    HW222176   4.426   2.712   6.018
 7093SOL     OW22177   3.065   3.977   3.929
 7093SOL    HW122178   3.040   3.968   3.833
 7093SOL    HW222179   3.030   3.899   3.980
 7094SOL     OW22180   0.860   5.992   5.911
 7094SOL    HW122181   0.815   6.078   5.887
 7094SOL    HW222182   0.861   5.981   6.011
 7095SOL     OW22183   2.599   2.922   0.159
 7095SOL    HW122184   2.687   2.930   0.112
 7095SOL    HW222185   2.535   2.870   0.102
 7096SOL     OW22186   5.990   0.774   3.649
 7096SOL    HW122187   5.948   0.683   3.646
 7096SOL    HW222188   5.988   0.815   3.559
 7097SOL     OW22189   6.391   0.389   1.933
 7097SOL    HW122190   6.422   0.386   1.838
 7097SOL    HW222191   6.427   0.310   1.983
 7098SOL     OW22192   1.128   6.492   4.483
 7098SOL    HW122193   1.029   6.480   4.476
 7098SOL    HW222194   1.170   6.475   4.394
 7099SOL     OW22195   2.247   0.577   4.794
 7099SOL    HW122196   2.180   0.644   4.762
 7099SOL    HW222197   2.222   0.547   4.886
 7100SOL     OW22198   5.423   3.147   1.094
 7100SOL    HW122199   5.391   3.135   1.189
 7100SOL    HW222200   5.344   3.164   1.035
 7101SOL     OW22201   1.991   6.911   4.875
 7101SOL    HW122202   2.030   6.975   4.942
 7101SOL    HW222203   1.930   6.847   4.922
 7102SOL     OW22204   4.638   0.612   1.049
 7102SOL    HW122205   4.720   0.644   1.001
 7102SOL    HW222206   4.557   0.649   1.004
 7103SOL     OW22207   3.918   5.407   0.356
 7103SOL    HW122208   3.838   5.462   0.331
 7103SOL    HW222209   4.001   5.457   0.331
 7104SOL     OW22210   1.192   2.932   4.374
 7104SOL    HW122211   1.257   2.924   4.449
 7104SOL    HW222212   1.241   2.954   4.289
 7105SOL     OW22213   3.085   2.717   5.552
 7105SOL    HW122214   3.063   2.663   5.633
 7105SOL    HW222215   3.006   2.721   5.492
 7106SOL     OW22216   3.441   2.888   3.285
 7106SOL    HW122217   3.447   2.865   3.188
 7106SOL    HW222218   3.355   2.936   3.303
 7107SOL     OW22219   2.679   0.985   0.951
 7107SOL    HW122220   2.672   0.886   0.947
 7107SOL    HW222221   2.764   1.011   0.999
 7108SOL     OW22222   3.898   6.139   1.537
 7108SOL    HW122223   3.988   6.098   1.556
 7108SOL    HW222224   3.868   6.192   1.616
 7109SOL     OW22225   3.404   0.124   6.375
 7109SOL    HW122226   3.486   0.082   6.337
 7109SOL    HW222227   3.425   0.163   6.465
 7110SOL     OW22228   4.892   5.580   3.864
 7110SOL    HW122229   4.865   5.661   3.915
 7110SOL    HW222230   4.988   5.559   3.882
 7111SOL     OW22231   1.887   2.241   4.607
 7111SOL    HW122232   1.964   2.272   4.551
 7111SOL    HW222233   1.820   2.195   4.549
 7112SOL     OW22234   2.178   5.715   3.637
 7112SOL    HW122235   2.230   5.653   3.577
 7112SOL    HW222236   2.236   5.790   3.666
 7113SOL     OW22237   3.075   4.021   5.029
 7113SOL    HW122238   3.044   4.103   5.077
 7113SOL    HW222239   3.166   4.037   4.990
 7114SOL     OW22240   4.001   7.004   2.290
 7114SOL    HW122241   4.007   6.985   2.192
 7114SOL    HW222242   3.979   0.071   2.305
 7115SOL     OW22243   4.930   2.736   1.881
 7115SOL    HW122244   4.955   2.832   1.873
 7115SOL    HW222245   4.838   2.729   1.919
 7116SOL     OW22246   5.648   3.149   3.451
 7116SOL    HW122247   5.689   3.213   3.386
 7116SOL    HW222248   5.677   3.172   3.543
 7117SOL     OW22249   0.167   6.989   4.474
 7117SOL    HW122250   0.194   0.040   4.420
 7117SOL    HW222251   0.239   6.920   4.470
 7118SOL     OW22252   3.736   3.776   0.852
 7118SOL    HW122253   3.651   3.814   0.815
 7118SOL    HW222254   3.779   3.718   0.783
 7119SOL     OW22255   5.150   1.563   3.489
 7119SOL    HW122256   5.216   1.627   3.528
 7119SOL    HW222257   5.078   1.615   3.443
 7120SOL     OW22258   4.093   1.719   2.937
 7120SOL    HW122259   4.177   1.685   2.893
 7120SOL    HW222260   4.071   1.660   3.014
 7121SOL     OW22261   3.213   6.961   2.428
 7121SOL    HW122262   3.224   6.912   2.341
 7121SOL    HW222263   3.230   0.029   2.413
 7122SOL     OW22264   6.610   1.452   6.435
 7122SOL    HW122265   6.666   1.507   6.496
 7122SOL    HW222266   6.666   1.382   6.391
 7123SOL     OW22267   2.861   4.762   1.372
 7123SOL    HW122268   2.822   4.840   1.421
 7123SOL    HW222269   2.958   4.755   1.393
 7124SOL     OW22270   0.863   3.496   0.367
 7124SOL    HW122271   0.906   3.417   0.410
 7124SOL    HW222272   0.794   3.534   0.428
 7125SOL     OW22273   6.708   6.535   1.541
 7125SOL    HW122274   6.635   6.523   1.608
 7125SOL    HW222275   6.698   6.625   1.498
 7126SOL     OW22276   3.096   4.788   6.392
 7126SOL    HW122277   3.165   4.720   6.366
 7126SOL    HW222278   3.139   4.861   6.445
 7127SOL     OW22279   2.664   5.789   4.303
 7127SOL    HW122280   2.747   5.820   4.349
 7127SOL    HW222281   2.594   5.860   4.309
 7128SOL     OW22282   2.352   5.242   6.998
 7128SOL    HW122283   2.377   5.164   0.026
 7128SOL    HW222284   2.419   5.253   6.925
 7129SOL     OW22285   3.432   0.494   0.477
 7129SOL    HW122286   3.375   0.575   0.488
 7129SOL    HW222287   3.376   0.416   0.453
 7130SOL     OW22288   3.023   4.972   4.919
 7130SOL    HW122289   2.949   4.937   4.862
 7130SOL    HW222290   3.110   4.962   4.870
 7131SOL     OW22291   3.087   1.589   0.693
 7131SOL    HW122292   3.008   1.545   0.652
 7131SOL    HW222293   3.057   1.644   0.771
 7132SOL     OW22294   2.998   4.155   1.088
 7132SOL    HW122295   2.947   4.228   1.133
 7132SOL    HW222296   3.068   4.121   1.149
 7133SOL     OW22297   4.766   5.288   3.957
 7133SOL    HW122298   4.782   5.368   4.015
 7133SOL    HW222299   4.848   5.269   3.903
 7134SOL     OW22300   6.447   5.850   2.532
 7134SOL    HW122301   6.418   5.942   2.506
 7134SOL    HW222302   6.393   5.818   2.609
 7135SOL     OW22303   1.767   1.624   3.281
 7135SOL    HW122304   1.739   1.719   3.295
 7135SOL    HW222305   1.751   1.598   3.185
 7136SOL     OW22306   1.617   2.935   1.002
 7136SOL    HW122307   1.534   2.882   0.987
 7136SOL    HW222308   1.690   2.900   0.944
 7137SOL     OW22309   4.927   0.871   6.293
 7137SOL    HW122310   4.901   0.880   6.197
 7137SOL    HW222311   4.933   0.962   6.334
 7138SOL     OW22312   2.305   2.819   0.590
 7138SOL    HW122313   2.304   2.901   0.647
 7138SOL    HW222314   2.263   2.743   0.641
 7139SOL     OW22315   4.952   3.939   2.585
 7139SOL    HW122316   5.047   3.962   2.564
 7139SOL    HW222317   4.937   3.841   2.571
 7140SOL     OW22318   6.418   3.055   4.589
 7140SOL    HW122319   6.370   2.971   4.563
 7140SOL    HW222320   6.486   3.078   4.520
 7141SOL     OW22321   3.187   6.368   0.666
 7141SOL    HW122322   3.143   6.278   0.664
 7141SOL    HW222323   3.267   6.367   0.605
 7142SOL     OW22324   4.583   6.460   3.181
 7142SOL    HW122325   4.658   6.520   3.153
 7142SOL    HW222326   4.543   6.495   3.266
 7143SOL     OW22327   1.730   2.495   6.079
 7143SOL    HW122328   1.811   2.552   6.065
 7143SOL    HW222329   1.648   2.548   6.056
 7144SOL     OW22330   1.857   1.397   3.623
 7144SOL    HW122331   1.769   1.446   3.624
 7144SOL    HW222332   1.892   1.393   3.530
 7145SOL     OW22333   4.505   6.160   5.809
 7145SOL    HW122334   4.577   6.164   5.740
 7145SOL    HW222335   4.416   6.173   5.766
 7146SOL     OW22336   1.904   0.152   6.990
 7146SOL    HW122337   1.919   0.198   6.903
 7146SOL    HW222338   1.978   0.086   7.006
 7147SOL     OW22339   6.327   6.326   2.960
 7147SOL    HW122340   6.264   6.363   3.027
 7147SOL    HW222341   6.282   6.253   2.908
 7148SOL     OW22342   6.633   6.179   1.423
 7148SOL    HW122343   6.601   6.232   1.345
 7148SOL    HW222344   6.561   6.116   1.453
 7149SOL     OW22345   6.679   6.875   3.249
 7149SOL    HW122346   6.719   6.933   3.321
 7149SOL    HW222347   6.628   6.933   3.185
 7150SOL     OW22348   4.669   2.461   1.523
 7150SOL    HW122349   4.634   2.488   1.613
 7150SOL    HW222350   4.704   2.542   1.476
 7151SOL     OW22351   1.102   5.774   0.871
 7151SOL    HW122352   1.122   5.680   0.898
 7151SOL    HW222353   1.169   5.835   0.913
 7152SOL     OW22354   0.697   2.527   5.146
 7152SOL    HW122355   0.623   2.579   5.188
 7152SOL    HW222356   0.743   2.585   5.077
 7153SOL     OW22357   3.616   6.082   3.283
 7153SOL    HW122358   3.550   6.150   3.315
 7153SOL    HW222359   3.580   6.037   3.201
 7154SOL     OW22360   3.783   6.779   5.008
 7154SOL    HW122361   3.839   6.716   4.954
 7154SOL    HW222362   3.687   6.761   4.991
 7155SOL     OW22363   2.547   5.782   1.674
 7155SOL    HW122364   2.528   5.850   1.603
 7155SOL    HW222365   2.478   5.711   1.672
 7156SOL     OW22366   0.756   4.595   4.682
 7156SOL    HW122367   0.776   4.676   4.627
 7156SOL    HW222368   0.718   4.523   4.623
 7157SOL     OW22369   6.377   4.208   1.008
 7157SOL    HW122370   6.309   4.134   1.009
 7157SOL    HW222371   6.469   4.169   1.002
 7158SOL     OW22372   0.940   0.104   3.007
 7158SOL    HW122373   0.972   0.034   2.944
 7158SOL    HW222374   0.937   0.193   2.960
 7159SOL     OW22375   0.265   4.487   2.665
 7159SOL    HW122376   0.166   4.485   2.656
 7159SOL    HW222377   0.290   4.482   2.761
 7160SOL     OW22378   6.187   0.002   2.959
 7160SOL    HW122379   6.231   0.009   3.049
 7160SOL    HW222380   6.200   0.087   2.909
 7161SOL     OW22381   3.401   4.045   5.014
 7161SOL    HW122382   3.463   4.122   5.000
 7161SOL    HW222383   3.378   4.038   5.111
 7162SOL     OW22384   2.864   6.111   5.974
 7162SOL    HW122385   2.777   6.156   5.992
 7162SOL    HW222386   2.911   6.157   5.899
 7163SOL     OW22387   2.890   6.458   3.693
 7163SOL    HW122388   2.892   6.557   3.677
 7163SOL    HW222389   2.916   6.410   3.610
 7164SOL     OW22390   2.074   1.704   3.517
 7164SOL    HW122391   2.156   1.728   3.464
 7164SOL    HW222392   2.048   1.610   3.496
 7165SOL     OW22393   6.663   1.271   1.407
 7165SOL    HW122394   6.602   1.300   1.481
 7165SOL    HW222395   6.710   1.350   1.369
 7166SOL     OW22396   5.076   3.150   0.338
 7166SOL    HW122397   5.029   3.217   0.395
 7166SOL    HW222398   5.084   3.186   0.245
 7167SOL     OW22399   5.327   3.688   4.911
 7167SOL    HW122400   5.305   3.592   4.929
 7167SOL    HW222401   5.409   3.713   4.963
 7168SOL     OW22402   1.119   2.417   3.886
 7168SOL    HW122403   1.201   2.396   3.939
 7168SOL    HW222404   1.061   2.480   3.939
 7169SOL     OW22405   0.684   3.389   5.140
 7169SOL    HW122406   0.603   3.438   5.171
 7169SOL    HW222407   0.748   3.452   5.098
 7170SOL     OW22408   4.821   6.059   3.961
 7170SOL    HW122409   4.807   5.996   3.884
 7170SOL    HW222410   4.895   6.025   4.018
 7171SOL     OW22411   5.591   4.191   6.449
 7171SOL    HW122412   5.661   4.202   6.520
 7171SOL    HW222413   5.584   4.275   6.396
 7172SOL     OW22414   1.481   0.127   5.704
 7172SOL    HW122415   1.497   0.222   5.728
 7172SOL    HW222416   1.530   0.068   5.770
 7173SOL     OW22417   6.902   4.974   5.429
 7173SOL    HW122418   6.878   4.934   5.517
 7173SOL    HW222419   6.922   5.071   5.440
 7174SOL     OW22420   0.806   5.315   6.466
 7174SOL    HW122421   0.900   5.343   6.442
 7174SOL    HW222422   0.797   5.311   6.565
 7175SOL     OW22423   5.680   3.697   0.431
 7175SOL    HW122424   5.667   3.783   0.380
 7175SOL    HW222425   5.771   3.661   0.412
 7176SOL     OW22426   0.432   5.517   3.165
 7176SOL    HW122427   0.461   5.427   3.132
 7176SOL    HW222428   0.332   5.521   3.168
 7177SOL     OW22429   2.429   0.295   4.228
 7177SOL    HW122430   2.485   0.221   4.192
 7177SOL    HW222431   2.400   0.355   4.154
 7178SOL     OW22432   2.519   2.986   5.636
 7178SOL    HW122433   2.488   2.985   5.541
 7178SOL    HW222434   2.595   2.922   5.647
 7179SOL     OW22435   1.437   3.130   4.858
 7179SOL    HW122436   1.522   3.178   4.882
 7179SOL    HW222437   1.439   3.038   4.898
 7180SOL     OW22438   1.264   4.951   6.324
 7180SOL    HW122439   1.227   5.044   6.325
 7180SOL    HW222440   1.354   4.951   6.281
 7181SOL     OW22441   2.502   6.171   0.603
 7181SOL    HW122442   2.569   6.097   0.595
 7181SOL    HW222443   2.531   6.235   0.674
 7182SOL     OW22444   2.029   3.371   5.240
 7182SOL    HW122445   1.987   3.348   5.152
 7182SOL    HW222446   2.128   3.354   5.235
 7183SOL     OW22447   1.898   5.365   1.149
 7183SOL    HW122448   1.823   5.431   1.149
 7183SOL    HW222449   1.873   5.285   1.204
 7184SOL     OW22450   1.024   0.316   3.186
 7184SOL    HW122451   1.119   0.332   3.212
 7184SOL    HW222452   1.010   0.219   3.166
 7185SOL     OW22453   5.160   1.707   5.719
 7185SOL    HW122454   5.188   1.633   5.659
 7185SOL    HW222455   5.237   1.735   5.776
 7186SOL     OW22456   6.988   0.000   6.302
 7186SOL    HW122457   6.930   6.951   6.281
 7186SOL    HW222458   0.055   7.003   6.299
 7187SOL     OW22459   2.438   4.951   0.954
 7187SOL    HW122460   2.443   4.873   1.016
 7187SOL    HW222461   2.345   4.987   0.952
 7188SOL     OW22462   5.364   6.796   0.470
 7188SOL    HW122463   5.297   6.865   0.442
 7188SOL    HW222464   5.456   6.833   0.461
 7189SOL     OW22465   6.352   1.540   6.441
 7189SOL    HW122466   6.446   1.513   6.423
 7189SOL    HW222467   6.290   1.487   6.383
 7190SOL     OW22468   5.721   3.889   3.279
 7190SOL    HW122469   5.809   3.850   3.305
 7190SOL    HW222470   5.736   3.980   3.238
 7191SOL     OW22471   0.332   4.683   2.459
 7191SOL    HW122472   0.371   4.741   2.530
 7191SOL    HW222473   0.351   4.587   2.479
 7192SOL     OW22474   2.302   5.286   4.972
 7192SOL    HW122475   2.296   5.293   5.071
 7192SOL    HW222476   2.210   5.278   4.934
 7193SOL     OW22477   2.870   1.580   3.198
 7193SOL    HW122478   2.833   1.650   3.137
 7193SOL    HW222479   2.836   1.596   3.291
 7194SOL     OW22480   2.575   2.514   0.999
 7194SOL    HW122481   2.589   2.525   1.098
 7194SOL    HW222482   2.535   2.598   0.962
 7195SOL     OW22483   0.836   5.053   6.351
 7195SOL    HW122484   0.858   5.110   6.431
 7195SOL    HW222485   0.755   5.089   6.305
 7196SOL     OW22486   3.218   3.974   2.153
 7196SOL    HW122487   3.313   3.998   2.136
 7196SOL    HW222488   3.160   4.018   2.084
 7197SOL     OW22489   0.184   2.466   6.073
 7197SOL    HW122490   0.238   2.550   6.082
 7197SOL    HW222491   0.162   2.450   5.977
 7198SOL     OW22492   1.135   1.097   5.905
 7198SOL    HW122493   1.150   1.087   5.806
 7198SOL    HW222494   1.058   1.159   5.921
 7199SOL     OW22495   2.320   0.667   2.056
 7199SOL    HW122496   2.322   0.713   1.967
 7199SOL    HW222497   2.383   0.590   2.054
 7200SOL     OW22498   2.366   1.603   0.470
 7200SOL    HW122499   2.399   1.635   0.381
 7200SOL    HW222500   2.427   1.636   0.542
 7201SOL     OW22501   1.772   5.500   3.786
 7201SOL    HW122502   1.742   5.492   3.881
 7201SOL    HW222503   1.745   5.589   3.749
 7202SOL     OW22504   3.961   7.013   5.717
 7202SOL    HW122505   3.870   6.995   5.754
 7202SOL    HW222506   4.029   6.959   5.767
 7203SOL     OW22507   6.977   1.041   1.076
 7203SOL    HW122508   6.925   1.122   1.049
 7203SOL    HW222509   0.043   1.050   1.047
 7204SOL     OW22510   6.561   6.676   4.823
 7204SOL    HW122511   6.573   6.581   4.794
 7204SOL    HW222512   6.464   6.695   4.837
 7205SOL     OW22513   2.000   5.886   3.194
 7205SOL    HW122514   2.089   5.849   3.221
 7205SOL    HW222515   1.997   5.984   3.213
 7206SOL     OW22516   1.810   0.511   1.629
 7206SOL    HW122517   1.710   0.513   1.631
 7206SOL    HW222518   1.846   0.580   1.692
 7207SOL     OW22519   3.479   6.610   1.201
 7207SOL    HW122520   3.459   6.707   1.192
 7207SOL    HW222521   3.559   6.587   1.146
 7208SOL     OW22522   4.448   6.557   4.525
 7208SOL    HW122523   4.469   6.532   4.431
 7208SOL    HW222524   4.520   6.616   4.561
 7209SOL     OW22525   2.921   3.603   2.991
 7209SOL    HW122526   3.006   3.652   3.011
 7209SOL    HW222527   2.849   3.669   2.967
 7210SOL     OW22528   4.659   6.917   4.113
 7210SOL    HW122529   4.685   7.012   4.131
 7210SOL    HW222530   4.711   6.882   4.035
 7211SOL     OW22531   2.375   5.764   3.824
 7211SOL    HW122532   2.348   5.681   3.871
 7211SOL    HW222533   2.430   5.821   3.885
 7212SOL     OW22534   0.898   6.139   3.307
 7212SOL    HW122535   0.824   6.071   3.311
 7212SOL    HW222536   0.944   6.144   3.395
 7213SOL     OW22537   5.711   0.682   6.693
 7213SOL    HW122538   5.681   0.589   6.712
 7213SOL    HW222539   5.799   0.680   6.646
 7214SOL     OW22540   2.007   5.341   4.207
 7214SOL    HW122541   1.913   5.309   4.193
 7214SOL    HW222542   2.059   5.269   4.253
 7215SOL     OW22543   0.663   3.383   3.910
 7215SOL    HW122544   0.648   3.429   3.997
 7215SOL    HW222545   0.713   3.298   3.925
 7216SOL     OW22546   2.273   5.695   6.774
 7216SOL    HW122547   2.251   5.598   6.766
 7216SOL    HW222548   2.372   5.705   6.782
 7217SOL     OW22549   2.236   4.098   1.800
 7217SOL    HW122550   2.305   4.066   1.735
 7217SOL    HW222551   2.245   4.196   1.814
 7218SOL     OW22552   4.472   2.884   5.294
 7218SOL    HW122553   4.499   2.818   5.365
 7218SOL    HW222554   4.502   2.975   5.321
 7219SOL     OW22555   5.356   5.732   3.964
 7219SOL    HW122556   5.437   5.697   3.918
 7219SOL    HW222557   5.304   5.656   4.002
 7220SOL     OW22558   0.296   5.467   4.069
 7220SOL    HW122559   0.237   5.545   4.048
 7220SOL    HW222560   0.353   5.489   4.148
 7221SOL     OW22561   5.219   4.956   5.431
 7221SOL    HW122562   5.291   5.023   5.453
 7221SOL    HW222563   5.255   4.864   5.441
 7222SOL     OW22564   6.210   6.789   1.334
 7222SOL    HW122565   6.286   6.725   1.334
 7222SOL    HW222566   6.242   6.879   1.363
 7223SOL     OW22567   2.703   1.961   1.502
 7223SOL    HW122568   2.771   2.011   1.555
 7223SOL    HW222569   2.704   1.865   1.529
 7224SOL     OW22570   5.821   2.127   4.450
 7224SOL    HW122571   5.895   2.091   4.394
 7224SOL    HW222572   5.796   2.060   4.521
 7225SOL     OW22573   1.391   6.466   6.406
 7225SOL    HW122574   1.415   6.533   6.336
 7225SOL    HW222575   1.292   6.464   6.419
 7226SOL     OW22576   1.096   0.393   0.460
 7226SOL    HW122577   1.186   0.382   0.419
 7226SOL    HW222578   1.034   0.435   0.393
 7227SOL     OW22579   0.826   2.546   1.283
 7227SOL    HW122580   0.741   2.499   1.256
 7227SOL    HW222581   0.814   2.644   1.273
 7228SOL     OW22582   0.069   1.172   2.063
 7228SOL    HW122583   0.145   1.191   2.125
 7228SOL    HW222584   0.104   1.157   1.970
 7229SOL     OW22585   1.187   0.855   3.690
 7229SOL    HW122586   1.240   0.772   3.707
 7229SOL    HW222587   1.090   0.837   3.706
 7230SOL     OW22588   4.549   5.910   4.800
 7230SOL    HW122589   4.515   5.983   4.859
 7230SOL    HW222590   4.642   5.885   4.828
 7231SOL     OW22591   4.618   0.095   6.935
 7231SOL    HW122592   4.672   0.162   6.986
 7231SOL    HW222593   4.587   0.023   6.997
 7232SOL     OW22594   3.852   4.848   3.367
 7232SOL    HW122595   3.780   4.888   3.423
 7232SOL    HW222596   3.812   4.805   3.286
 7233SOL     OW22597   0.492   2.799   4.461
 7233SOL    HW122598   0.474   2.797   4.559
 7233SOL    HW222599   0.449   2.720   4.418
 7234SOL     OW22600   5.910   2.781   2.719
 7234SOL    HW122601   5.986   2.840   2.743
 7234SOL    HW222602   5.912   2.763   2.620
 7235SOL     OW22603   6.424   4.480   2.912
 7235SOL    HW122604   6.506   4.517   2.955
 7235SOL    HW222605   6.348   4.479   2.978
 7236SOL     OW22606   2.872   1.809   2.823
 7236SOL    HW122607   2.921   1.728   2.789
 7236SOL    HW222608   2.797   1.831   2.762
 7237SOL     OW22609   6.604   6.569   5.153
 7237SOL    HW122610   6.604   6.666   5.178
 7237SOL    HW222611   6.562   6.557   5.064
 7238SOL     OW22612   2.280   2.258   1.179
 7238SOL    HW122613   2.297   2.260   1.080
 7238SOL    HW222614   2.182   2.260   1.196
 7239SOL     OW22615   2.876   1.746   3.802
 7239SOL    HW122616   2.782   1.753   3.837
 7239SOL    HW222617   2.899   1.830   3.753
 7240SOL     OW22618   2.627   4.242   6.482
 7240SOL    HW122619   2.703   4.228   6.545
 7240SOL    HW222620   2.546   4.270   6.532
 7241SOL     OW22621   2.960   0.436   6.789
 7241SOL    HW122622   3.047   0.411   6.831
 7241SOL    HW222623   2.976   0.499   6.713
 7242SOL     OW22624   6.469   4.929   6.694
 7242SOL    HW122625   6.533   4.893   6.626
 7242SOL    HW222626   6.427   4.852   6.743
 7243SOL     OW22627   0.680   4.794   6.839
 7243SOL    HW122628   0.612   4.867   6.848
 7243SOL    HW222629   0.741   4.795   6.919
 7244SOL     OW22630   4.399   0.487   1.212
 7244SOL    HW122631   4.346   0.558   1.258
 7244SOL    HW222632   4.406   0.508   1.115
 7245SOL     OW22633   0.607   2.391   4.877
 7245SOL    HW122634   0.550   2.397   4.959
 7245SOL    HW222635   0.619   2.483   4.838
 7246SOL     OW22636   6.571   6.956   4.751
 7246SOL    HW122637   6.493   6.954   4.689
 7246SOL    HW222638   6.589   6.863   4.785
 7247SOL     OW22639   2.714   6.597   2.932
 7247SOL    HW122640   2.669   6.637   3.011
 7247SOL    HW222641   2.660   6.521   2.897
 7248SOL     OW22642   3.621   1.179   3.686
 7248SOL    HW122643   3.651   1.087   3.663
 7248SOL    HW222644   3.648   1.242   3.613
 7249SOL     OW22645   5.784   5.042   2.030
 7249SOL    HW122646   5.860   4.992   2.072
 7249SOL    HW222647   5.733   4.981   1.970
 7250SOL     OW22648   2.930   5.131   6.128
 7250SOL    HW122649   2.960   5.036   6.136
 7250SOL    HW222650   2.834   5.138   6.157
 7251SOL     OW22651   7.018   6.532   5.490
 7251SOL    HW122652   6.939   6.552   5.432
 7251SOL    HW222653   6.994   6.547   5.586
 7252SOL     OW22654   3.244   3.069   4.310
 7252SOL    HW122655   3.312   3.117   4.253
 7252SOL    HW222656   3.291   3.002   4.367
 7253SOL     OW22657   1.296   6.405   0.213
 7253SOL    HW122658   1.277   6.452   0.127
 7253SOL    HW222659   1.370   6.339   0.200
 7254SOL     OW22660   3.914   5.447   5.063
 7254SOL    HW122661   3.932   5.545   5.073
 7254SOL    HW222662   3.949   5.398   5.143
 7255SOL     OW22663   3.356   3.709   2.109
 7255SOL    HW122664   3.437   3.652   2.122
 7255SOL    HW222665   3.331   3.751   2.197
 7256SOL     OW22666   4.919   5.076   4.664
 7256SOL    HW122667   4.849   5.065   4.735
 7256SOL    HW222668   4.988   5.141   4.696
 7257SOL     OW22669   6.017   3.103   3.290
 7257SOL    HW122670   5.926   3.145   3.285
 7257SOL    HW222671   6.084   3.173   3.316
 7258SOL     OW22672   4.543   0.160   4.507
 7258SOL    HW122673   4.581   0.211   4.584
 7258SOL    HW222674   4.572   0.202   4.421
 7259SOL     OW22675   3.251   4.043   1.283
 7259SOL    HW122676   3.350   4.048   1.275
 7259SOL    HW222677   3.223   3.948   1.294
 7260SOL     OW22678   3.690   1.979   2.964
 7260SOL    HW122679   3.687   1.935   2.875
 7260SOL    HW222680   3.770   2.040   2.969
 7261SOL     OW22681   3.243   2.757   1.802
 7261SOL    HW122682   3.331   2.757   1.756
 7261SOL    HW222683   3.179   2.698   1.753
 7262SOL     OW22684   6.068   2.199   3.956
 7262SOL    HW122685   5.999   2.249   4.008
 7262SOL    HW222686   6.070   2.233   3.862
 7263SOL     OW22687   0.746   5.558   1.824
 7263SOL    HW122688   0.777   5.520   1.911
 7263SOL    HW222689   0.668   5.505   1.790
 7264SOL     OW22690   6.904   1.883   6.923
 7264SOL    HW122691   6.854   1.970   6.931
 7264SOL    HW222692   6.863   1.828   6.850
 7265SOL     OW22693   5.611   5.249   6.252
 7265SOL    HW122694   5.656   5.188   6.186
 7265SOL    HW222695   5.661   5.336   6.257
 7266SOL     OW22696   4.373   0.587   0.957
 7266SOL    HW122697   4.289   0.641   0.949
 7266SOL    HW222698   4.378   0.522   0.881
 7267SOL     OW22699   6.412   4.844   5.407
 7267SOL    HW122700   6.481   4.794   5.354
 7267SOL    HW222701   6.363   4.906   5.347
 7268SOL     OW22702   4.132   5.002   2.971
 7268SOL    HW122703   4.099   4.908   2.967
 7268SOL    HW222704   4.101   5.045   3.056
 7269SOL     OW22705   0.329   6.123   1.734
 7269SOL    HW122706   0.359   6.216   1.711
 7269SOL    HW222707   0.255   6.128   1.802
 7270SOL     OW22708   2.213   1.855   3.301
 7270SOL    HW122709   2.211   1.888   3.206
 7270SOL    HW222710   2.308   1.843   3.330
 7271SOL     OW22711   0.625   4.377   3.112
 7271SOL    HW122712   0.685   4.446   3.152
 7271SOL    HW222713   0.635   4.379   3.012
 7272SOL     OW22714   5.434   3.083   2.870
 7272SOL    HW122715   5.350   3.130   2.896
 7272SOL    HW222716   5.449   3.095   2.771
 7273SOL     OW22717   5.834   4.376   1.497
 7273SOL    HW122718   5.905   4.369   1.427
 7273SOL    HW222719   5.840   4.297   1.558
 7274SOL     OW22720   6.943   5.603   6.306
 7274SOL    HW122721   7.026   5.610   6.251
 7274SOL    HW222722   6.888   5.687   6.295
 7275SOL     OW22723   6.119   0.733   0.513
 7275SOL    HW122724   6.200   0.750   0.569
 7275SOL    HW222725   6.146   0.696   0.424
 7276SOL     OW22726   3.181   1.361   3.639
 7276SOL    HW122727   3.145   1.328   3.551
 7276SOL    HW222728   3.281   1.363   3.635
 7277SOL     OW22729   4.974   1.127   5.646
 7277SOL    HW122730   5.017   1.039   5.623
 7277SOL    HW222731   5.022   1.168   5.723
 7278SOL     OW22732   3.913   2.144   2.976
 7278SOL    HW122733   3.991   2.172   3.032
 7278SOL    HW222734   3.945   2.084   2.902
 7279SOL     OW22735   4.342   4.271   0.742
 7279SOL    HW122736   4.405   4.228   0.808
 7279SOL    HW222737   4.278   4.202   0.708
 7280SOL     OW22738   5.353   2.413   5.326
 7280SOL    HW122739   5.380   2.480   5.395
 7280SOL    HW222740   5.283   2.453   5.267
 7281SOL     OW22741   3.187   6.988   0.895
 7281SOL    HW122742   3.241   6.904   0.885
 7281SOL    HW222743   3.211   0.004   0.981
 7282SOL     OW22744   6.687   5.790   1.653
 7282SOL    HW122745   6.773   5.840   1.667
 7282SOL    HW222746   6.611   5.846   1.686
 7283SOL     OW22747   3.316   6.662   1.972
 7283SOL    HW122748   3.309   6.567   2.003
 7283SOL    HW222749   3.412   6.690   1.974
 7284SOL     OW22750   6.774   2.690   3.665
 7284SOL    HW122751   6.710   2.761   3.636
 7284SOL    HW222752   6.835   2.726   3.735
 7285SOL     OW22753   5.095   2.685   1.340
 7285SOL    HW122754   5.056   2.694   1.431
 7285SOL    HW222755   5.172   2.621   1.343
 7286SOL     OW22756   1.187   1.212   0.470
 7286SOL    HW122757   1.107   1.206   0.410
 7286SOL    HW222758   1.161   1.188   0.563
 7287SOL     OW22759   0.098   2.752   3.782
 7287SOL    HW122760   0.108   2.822   3.712
 7287SOL    HW222761   0.018   2.773   3.839
 7288SOL     OW22762   2.405   2.362   2.754
 7288SOL    HW122763   2.372   2.453   2.779
 7288SOL    HW222764   2.485   2.340   2.810
 7289SOL     OW22765   5.383   2.674   2.016
 7289SOL    HW122766   5.338   2.600   2.066
 7289SOL    HW222767   5.350   2.677   1.922
 7290SOL     OW22768   3.947   0.661   5.680
 7290SOL    HW122769   3.860   0.702   5.706
 7290SOL    HW222770   4.011   0.667   5.756
 7291SOL     OW22771   3.331   0.237   0.113
 7291SOL    HW122772   3.300   0.332   0.117
 7291SOL    HW222773   3.251   0.176   0.116
 7292SOL     OW22774   1.798   6.754   3.810
 7292SOL    HW122775   1.769   6.751   3.714
 7292SOL    HW222776   1.897   6.765   3.815
 7293SOL     OW22777   1.083   1.403   5.743
 7293SOL    HW122778   1.151   1.395   5.816
 7293SOL    HW222779   1.024   1.323   5.744
 7294SOL     OW22780   3.060   4.582   1.651
 7294SOL    HW122781   3.003   4.543   1.724
 7294SOL    HW222782   3.156   4.573   1.676
 7295SOL     OW22783   6.217   4.994   1.387
 7295SOL    HW122784   6.118   5.006   1.381
 7295SOL    HW222785   6.258   5.080   1.417
 7296SOL     OW22786   3.534   4.905   2.632
 7296SOL    HW122787   3.519   4.890   2.535
 7296SOL    HW222788   3.630   4.892   2.654
 7297SOL     OW22789   3.382   6.325   1.837
 7297SOL    HW122790   3.413   6.392   1.769
 7297SOL    HW222791   3.442   6.245   1.834
 7298SOL     OW22792   4.561   6.220   6.776
 7298SOL    HW122793   4.464   6.219   6.751
 7298SOL    HW222794   4.615   6.181   6.700
 7299SOL     OW22795   1.167   2.525   0.228
 7299SOL    HW122796   1.189   2.442   0.177
 7299SOL    HW222797   1.176   2.507   0.326
 7300SOL     OW22798   0.897   5.082   1.961
 7300SOL    HW122799   0.971   5.114   2.021
 7300SOL    HW222800   0.813   5.131   1.983
 7301SOL     OW22801   6.874   0.596   5.864
 7301SOL    HW122802   6.805   0.561   5.928
 7301SOL    HW222803   6.964   0.595   5.908
 7302SOL     OW22804   5.871   2.921   6.125
 7302SOL    HW122805   5.817   2.990   6.172
 7302SOL    HW222806   5.826   2.832   6.134
 7303SOL     OW22807   3.333   1.677   0.704
 7303SOL    HW122808   3.411   1.618   0.682
 7303SOL    HW222809   3.248   1.629   0.684
 7304SOL     OW22810   2.541   5.391   1.998
 7304SOL    HW122811   2.483   5.322   2.043
 7304SOL    HW222812   2.531   5.478   2.045
 7305SOL     OW22813   5.522   2.541   0.406
 7305SOL    HW122814   5.509   2.485   0.488
 7305SOL    HW222815   5.544   2.635   0.432
 7306SOL     OW22816   3.365   1.722   1.161
 7306SOL    HW122817   3.442   1.753   1.219
 7306SOL    HW222818   3.366   1.773   1.075
 7307SOL     OW22819   3.871   6.348   1.759
 7307SOL    HW122820   3.816   6.422   1.722
 7307SOL    HW222821   3.860   6.344   1.858
 7308SOL     OW22822   6.167   0.820   2.277
 7308SOL    HW122823   6.219   0.826   2.362
 7308SOL    HW222824   6.230   0.821   2.200
 7309SOL     OW22825   2.488   5.968   3.078
 7309SOL    HW122826   2.478   5.984   3.176
 7309SOL    HW222827   2.397   5.958   3.036
 7310SOL     OW22828   1.405   3.020   0.206
 7310SOL    HW122829   1.443   2.969   0.128
 7310SOL    HW222830   1.306   3.027   0.197
 7311SOL     OW22831   0.987   0.580   0.285
 7311SOL    HW122832   1.031   0.565   0.196
 7311SOL    HW222833   0.968   0.678   0.296
 7312SOL     OW22834   0.321   1.655   5.088
 7312SOL    HW122835   0.281   1.660   5.179
 7312SOL    HW222836   0.275   1.583   5.035
 7313SOL     OW22837   2.624   0.967   1.284
 7313SOL    HW122838   2.657   0.877   1.259
 7313SOL    HW222839   2.648   1.033   1.213
 7314SOL     OW22840   0.215   4.031   6.952
 7314SOL    HW122841   0.143   4.007   6.887
 7314SOL    HW222842   0.288   3.963   6.947
 7315SOL     OW22843   6.464   5.654   2.357
 7315SOL    HW122844   6.444   5.737   2.410
 7315SOL    HW222845   6.454   5.674   2.259
 7316SOL     OW22846   3.155   2.139   6.482
 7316SOL    HW122847   3.153   2.239   6.493
 7316SOL    HW222848   3.064   2.102   6.500
 7317SOL     OW22849   3.411   1.740   1.973
 7317SOL    HW122850   3.483   1.677   2.002
 7317SOL    HW222851   3.432   1.832   2.005
 7318SOL     OW22852   3.928   6.747   2.349
 7318SOL    HW122853   3.973   6.835   2.334
 7318SOL    HW222854   3.903   6.738   2.445
 7319SOL     OW22855   6.925   3.577   6.647
 7319SOL    HW122856   6.844   3.521   6.630
 7319SOL    HW222857   7.007   3.521   6.641
 7320SOL     OW22858   6.768   3.785   1.031
 7320SOL    HW122859   6.753   3.687   1.041
 7320SOL    HW222860   6.851   3.800   0.976
 7321SOL     OW22861   1.893   6.259   6.428
 7321SOL    HW122862   1.966   6.191   6.421
 7321SOL    HW222863   1.868   6.271   6.524
 7322SOL     OW22864   1.017   1.614   3.045
 7322SOL    HW122865   0.926   1.586   3.075
 7322SOL    HW222866   1.013   1.707   3.009
 7323SOL     OW22867   2.268   1.311   1.954
 7323SOL    HW122868   2.348   1.369   1.969
 7323SOL    HW222869   2.185   1.367   1.958
 7324SOL     OW22870   5.948   4.498   1.946
 7324SOL    HW122871   5.931   4.424   1.881
 7324SOL    HW222872   5.926   4.467   2.038
 7325SOL     OW22873   3.621   0.496   5.848
 7325SOL    HW122874   3.652   0.449   5.766
 7325SOL    HW222875   3.537   0.452   5.882
 7326SOL     OW22876   3.272   0.897   6.388
 7326SOL    HW122877   3.237   0.893   6.294
 7326SOL    HW222878   3.326   0.980   6.400
 7327SOL     OW22879   5.795   3.820   3.008
 7327SOL    HW122880   5.778   3.903   3.061
 7327SOL    HW222881   5.840   3.752   3.066
 7328SOL     OW22882   3.902   5.142   5.694
 7328SOL    HW122883   3.874   5.071   5.759
 7328SOL    HW222884   3.971   5.104   5.631
 7329SOL     OW22885   1.153   2.626   6.992
 7329SOL    HW122886   1.235   2.629   6.935
 7329SOL    HW222887   1.179   2.620   0.059
 7330SOL     OW22888   2.840   3.085   1.163
 7330SOL    HW122889   2.780   3.150   1.211
 7330SOL    HW222890   2.889   3.132   1.090
 7331SOL     OW22891   4.789   0.387   1.904
 7331SOL    HW122892   4.759   0.469   1.952
 7331SOL    HW222893   4.749   0.306   1.948
 7332SOL     OW22894   4.047   4.187   0.264
 7332SOL    HW122895   4.036   4.162   0.168
 7332SOL    HW222896   4.034   4.286   0.274
 7333SOL     OW22897   5.972   3.595   3.120
 7333SOL    HW122898   6.051   3.574   3.063
 7333SOL    HW222899   5.914   3.514   3.129
 7334SOL     OW22900   2.945   6.375   6.274
 7334SOL    HW122901   2.924   6.413   6.184
 7334SOL    HW222902   3.037   6.404   6.303
 7335SOL     OW22903   6.678   3.483   2.955
 7335SOL    HW122904   6.618   3.496   2.876
 7335SOL    HW222905   6.722   3.393   2.949
 7336SOL     OW22906   1.649   6.360   0.964
 7336SOL    HW122907   1.618   6.265   0.960
 7336SOL    HW222908   1.695   6.376   1.051
 7337SOL     OW22909   3.491   2.707   1.708
 7337SOL    HW122910   3.538   2.792   1.732
 7337SOL    HW222911   3.559   2.638   1.682
 7338SOL     OW22912   5.760   2.405   1.426
 7338SOL    HW122913   5.859   2.409   1.441
 7338SOL    HW222914   5.740   2.421   1.330
 7339SOL     OW22915   6.984   6.114   4.886
 7339SOL    HW122916   0.026   6.177   4.854
 7339SOL    HW222917   6.974   6.039   4.821
 7340SOL     OW22918   3.503   1.203   0.137
 7340SOL    HW122919   3.527   1.106   0.139
 7340SOL    HW222920   3.464   1.226   0.048
 7341SOL     OW22921   0.865   5.170   4.163
 7341SOL    HW122922   0.958   5.167   4.126
 7341SOL    HW222923   0.843   5.264   4.190
 7342SOL     OW22924   6.623   0.724   0.714
 7342SOL    HW122925   6.594   0.701   0.806
 7342SOL    HW222926   6.556   0.783   0.671
 7343SOL     OW22927   5.779   3.586   1.722
 7343SOL    HW122928   5.838   3.666   1.710
 7343SOL    HW222929   5.816   3.527   1.794
 7344SOL     OW22930   1.427   6.745   6.518
 7344SOL    HW122931   1.501   6.728   6.584
 7344SOL    HW222932   1.455   6.712   6.428
 7345SOL     OW22933   4.477   4.858   5.679
 7345SOL    HW122934   4.498   4.884   5.773
 7345SOL    HW222935   4.435   4.767   5.678
 7346SOL     OW22936   3.679   4.107   1.131
 7346SOL    HW122937   3.703   4.183   1.192
 7346SOL    HW222938   3.604   4.055   1.171
 7347SOL     OW22939   5.995   2.569   2.269
 7347SOL    HW122940   6.002   2.642   2.201
 7347SOL    HW222941   6.029   2.601   2.357
 7348SOL     OW22942   1.353   3.310   3.844
 7348SOL    HW122943   1.444   3.275   3.866
 7348SOL    HW222944   1.321   3.368   3.919
 7349SOL     OW22945   3.564   1.886   1.294
 7349SOL    HW122946   3.578   1.872   1.392
 7349SOL    HW222947   3.648   1.924   1.255
 7350SOL     OW22948   0.407   2.905   3.560
 7350SOL    HW122949   0.456   2.992   3.564
 7350SOL    HW222950   0.310   2.921   3.579
 7351SOL     OW22951   4.247   4.454   6.846
 7351SOL    HW122952   4.272   4.550   6.833
 7351SOL    HW222953   4.330   4.399   6.860
 7352SOL     OW22954   1.374   1.487   3.207
 7352SOL    HW122955   1.422   1.572   3.226
 7352SOL    HW222956   1.344   1.445   3.294
 7353SOL     OW22957   0.030   1.924   5.379
 7353SOL    HW122958   0.048   1.974   5.295
 7353SOL    HW222959   0.062   1.830   5.369
 7354SOL     OW22960   6.548   1.208   5.893
 7354SOL    HW122961   6.635   1.216   5.943
 7354SOL    HW222962   6.491   1.288   5.914
 7355SOL     OW22963   1.736   5.516   1.609
 7355SOL    HW122964   1.818   5.551   1.563
 7355SOL    HW222965   1.664   5.585   1.607
 7356SOL     OW22966   5.592   2.551   6.591
 7356SOL    HW122967   5.541   2.605   6.658
 7356SOL    HW222968   5.565   2.579   6.499
 7357SOL     OW22969   4.938   0.885   1.354
 7357SOL    HW122970   4.841   0.911   1.355
 7357SOL    HW222971   4.975   0.903   1.263
 7358SOL     OW22972   3.087   1.850   3.032
 7358SOL    HW122973   3.122   1.934   3.072
 7358SOL    HW222974   2.988   1.845   3.045
 7359SOL     OW22975   3.341   2.691   1.462
 7359SOL    HW122976   3.309   2.599   1.436
 7359SOL    HW222977   3.395   2.684   1.546
 7360SOL     OW22978   1.351   2.494   5.061
 7360SOL    HW122979   1.280   2.424   5.066
 7360SOL    HW222980   1.401   2.486   4.975
 7361SOL     OW22981   5.059   0.219   0.843
 7361SOL    HW122982   5.040   0.309   0.804
 7361SOL    HW222983   5.044   0.148   0.775
 7362SOL     OW22984   0.781   0.074   5.346
 7362SOL    HW122985   0.797   0.159   5.396
 7362SOL    HW222986   0.716   0.091   5.272
 7363SOL     OW22987   5.429   2.201   0.487
 7363SOL    HW122988   5.521   2.225   0.516
 7363SOL    HW222989   5.365   2.217   0.563
 7364SOL     OW22990   4.243   6.285   1.346
 7364SOL    HW122991   4.160   6.238   1.315
 7364SOL    HW222992   4.264   6.257   1.440
 7365SOL     OW22993   3.380   6.503   2.592
 7365SOL    HW122994   3.398   6.420   2.645
 7365SOL    HW222995   3.439   6.577   2.625
 7366SOL     OW22996   0.936   5.341   0.146
 7366SOL    HW122997   0.851   5.367   0.191
 7366SOL    HW222998   0.945   5.394   0.061
 7367SOL     OW22999   4.309   4.037   1.468
 7367SOL    HW123000   4.272   4.093   1.542
 7367SOL    HW223001   4.299   4.085   1.382
 7368SOL     OW23002   3.020   3.205   4.263
 7368SOL    HW123003   3.051   3.293   4.298
 7368SOL    HW223004   3.088   3.135   4.282
 7369SOL     OW23005   4.883   3.124   0.927
 7369SOL    HW123006   4.827   3.066   0.868
 7369SOL    HW223007   4.888   3.216   0.888
 7370SOL     OW23008   1.758   0.545   6.617
 7370SOL    HW123009   1.781   0.623   6.675
 7370SOL    HW223010   1.675   0.501   6.651
 7371SOL     OW23011   2.860   5.495   4.184
 7371SOL    HW123012   2.840   5.573   4.124
 7371SOL    HW223013   2.816   5.509   4.272
 7372SOL     OW23014   3.289   0.048   5.398
 7372SOL    HW123015   3.198   0.091   5.394
 7372SOL    HW223016   3.278   6.977   5.398
 7373SOL     OW23017   4.821   1.189   3.473
 7373SOL    HW123018   4.822   1.144   3.562
 7373SOL    HW223019   4.911   1.230   3.456
 7374SOL     OW23020   2.111   2.764   5.451
 7374SOL    HW123021   2.019   2.757   5.412
 7374SOL    HW223022   2.152   2.852   5.424
 7375SOL     OW23023   1.670   1.785   3.915
 7375SOL    HW123024   1.704   1.822   4.002
 7375SOL    HW223025   1.680   1.685   3.915
 7376SOL     OW23026   3.117   2.491   6.887
 7376SOL    HW123027   3.128   2.467   6.983
 7376SOL    HW223028   3.048   2.564   6.879
 7377SOL     OW23029   4.676   5.586   1.992
 7377SOL    HW123030   4.761   5.637   1.997
 7377SOL    HW223031   4.690   5.504   1.937
 7378SOL     OW23032   6.630   1.934   4.308
 7378SOL    HW123033   6.572   2.015   4.299
 7378SOL    HW223034   6.580   1.853   4.277
 7379SOL     OW23035   4.427   1.105   2.591
 7379SOL    HW123036   4.464   1.197   2.604
 7379SOL    HW223037   4.349   1.091   2.652
 7380SOL     OW23038   7.028   3.329   6.133
 7380SOL    HW123039   0.059   3.249   6.131
 7380SOL    HW223040   6.958   3.316   6.202
 7381SOL     OW23041   4.678   2.713   2.850
 7381SOL    HW123042   4.708   2.698   2.756
 7381SOL    HW223043   4.582   2.686   2.858
 7382SOL     OW23044   0.323   4.873   4.819
 7382SOL    HW123045   0.349   4.922   4.902
 7382SOL    HW223046   0.285   4.784   4.843
 7383SOL     OW23047   6.514   6.851   2.458
 7383SOL    HW123048   6.614   6.847   2.470
 7383SOL    HW223049   6.481   6.940   2.489
 7384SOL     OW23050   5.378   1.117   1.884
 7384SOL    HW123051   5.407   1.029   1.846
 7384SOL    HW223052   5.433   1.190   1.842
 7385SOL     OW23053   4.244   5.441   2.138
 7385SOL    HW123054   4.248   5.376   2.214
 7385SOL    HW223055   4.197   5.524   2.168
 7386SOL     OW23056   0.859   2.885   5.312
 7386SOL    HW123057   0.880   2.912   5.218
 7386SOL    HW223058   0.884   2.789   5.325
 7387SOL     OW23059   4.201   6.424   4.577
 7387SOL    HW123060   4.290   6.460   4.552
 7387SOL    HW223061   4.210   6.328   4.602
 7388SOL     OW23062   6.795   5.927   4.339
 7388SOL    HW123063   6.888   5.946   4.307
 7388SOL    HW223064   6.739   5.895   4.262
 7389SOL     OW23065   1.368   4.413   6.778
 7389SOL    HW123066   1.274   4.388   6.802
 7389SOL    HW223067   1.389   4.505   6.812
 7390SOL     OW23068   1.450   1.882   6.370
 7390SOL    HW123069   1.493   1.949   6.309
 7390SOL    HW223070   1.389   1.823   6.317
 7391SOL     OW23071   4.629   4.180   5.184
 7391SOL    HW123072   4.542   4.179   5.233
 7391SOL    HW223073   4.696   4.127   5.235
 7392SOL     OW23074   2.282   5.550   5.757
 7392SOL    HW123075   2.257   5.605   5.678
 7392SOL    HW223076   2.284   5.608   5.839
 7393SOL     OW23077   5.810   5.588   1.659
 7393SOL    HW123078   5.715   5.613   1.640
 7393SOL    HW223079   5.869   5.624   1.587
 7394SOL     OW23080   3.548   3.048   5.968
 7394SOL    HW123081   3.572   2.951   5.965
 7394SOL    HW223082   3.627   3.101   5.998
 7395SOL     OW23083   0.801   0.779   6.915
 7395SOL    HW123084   0.736   0.723   6.966
 7395SOL    HW223085   0.811   0.744   6.822
 7396SOL     OW23086   1.718   1.036   6.526
 7396SOL    HW123087   1.644   1.080   6.576
 7396SOL    HW223088   1.790   1.009   6.590
 7397SOL     OW23089   6.556   4.968   4.184
 7397SOL    HW123090   6.593   4.897   4.244
 7397SOL    HW223091   6.458   4.979   4.201
 7398SOL     OW23092   3.738   5.433   4.407
 7398SOL    HW123093   3.696   5.441   4.497
 7398SOL    HW223094   3.836   5.419   4.417
 7399SOL     OW23095   0.300   4.527   5.412
 7399SOL    HW123096   0.309   4.508   5.314
 7399SOL    HW223097   0.249   4.453   5.456
 7400SOL     OW23098   3.303   4.348   6.902
 7400SOL    HW123099   3.290   4.316   6.996
 7400SOL    HW223100   3.383   4.302   6.862
 7401SOL     OW23101   0.601   1.295   3.345
 7401SOL    HW123102   0.579   1.324   3.252
 7401SOL    HW223103   0.587   1.371   3.408
 7402SOL     OW23104   2.064   0.027   4.232
 7402SOL    HW123105   2.127   7.008   4.171
 7402SOL    HW223106   2.111   0.103   4.277
 7403SOL     OW23107   2.311   2.850   3.099
 7403SOL    HW123108   2.292   2.946   3.117
 7403SOL    HW223109   2.232   2.795   3.127
 7404SOL     OW23110   2.298   0.332   1.261
 7404SOL    HW123111   2.255   0.416   1.293
 7404SOL    HW223112   2.259   0.307   1.172
 7405SOL     OW23113   1.066   4.653   4.059
 7405SOL    HW123114   1.155   4.660   4.104
 7405SOL    HW223115   1.005   4.723   4.096
 7406SOL     OW23116   1.323   3.748   2.710
 7406SOL    HW123117   1.300   3.651   2.709
 7406SOL    HW223118   1.392   3.765   2.780
 7407SOL     OW23119   0.296   6.161   4.595
 7407SOL    HW123120   0.257   6.221   4.666
 7407SOL    HW223121   0.394   6.177   4.588
 7408SOL     OW23122   1.517   4.208   5.134
 7408SOL    HW123123   1.596   4.224   5.075
 7408SOL    HW223124   1.435   4.246   5.091
 7409SOL     OW23125   0.706   0.964   4.697
 7409SOL    HW123126   0.641   1.010   4.758
 7409SOL    HW223127   0.784   0.930   4.751
 7410SOL     OW23128   6.883   4.907   1.123
 7410SOL    HW123129   6.810   4.959   1.168
 7410SOL    HW223130   6.902   4.946   1.033
 7411SOL     OW23131   2.461   0.207   4.633
 7411SOL    HW123132   2.528   0.275   4.600
 7411SOL    HW223133   2.504   0.117   4.634
 7412SOL     OW23134   3.285   1.293   1.193
 7412SOL    HW123135   3.243   1.328   1.110
 7412SOL    HW223136   3.320   1.370   1.247
 7413SOL     OW23137   0.632   4.605   3.746
 7413SOL    HW123138   0.535   4.582   3.759
 7413SOL    HW223139   0.641   4.669   3.670
 7414SOL     OW23140   0.062   0.441   2.637
 7414SOL    HW123141   0.045   0.385   2.718
 7414SOL    HW223142   0.100   0.529   2.664
 7415SOL     OW23143   0.515   3.639   3.346
 7415SOL    HW123144   0.586   3.708   3.357
 7415SOL    HW223145   0.443   3.674   3.286
 7416SOL     OW23146   3.790   0.858   3.970
 7416SOL    HW123147   3.733   0.848   3.888
 7416SOL    HW223148   3.820   0.953   3.978
 7417SOL     OW23149   1.120   6.924   5.767
 7417SOL    HW123150   1.109   6.986   5.845
 7417SOL    HW223151   1.209   6.879   5.772
 7418SOL     OW23152   3.504   4.424   0.832
 7418SOL    HW123153   3.447   4.418   0.914
 7418SOL    HW223154   3.545   4.515   0.826
 7419SOL     OW23155   6.077   2.137   4.944
 7419SOL    HW123156   6.074   2.131   4.845
 7419SOL    HW223157   5.988   2.113   4.983
 7420SOL     OW23158   6.178   6.483   2.526
 7420SOL    HW123159   6.272   6.515   2.543
 7420SOL    HW223160   6.124   6.492   2.610
 7421SOL     OW23161   2.581   2.938   1.141
 7421SOL    HW123162   2.676   2.971   1.143
 7421SOL    HW223163   2.538   2.952   1.230
 7422SOL     OW23164   7.004   3.380   2.258
 7422SOL    HW123165   7.009   3.366   2.357
 7422SOL    HW223166   6.943   3.457   2.238
 7423SOL     OW23167   0.467   4.537   6.229
 7423SOL    HW123168   0.550   4.497   6.267
 7423SOL    HW223169   0.490   4.587   6.145
 7424SOL     OW23170   5.990   1.401   4.126
 7424SOL    HW123171   5.921   1.408   4.054
 7424SOL    HW223172   6.079   1.382   4.085
 7425SOL     OW23173   3.900   5.017   6.985
 7425SOL    HW123174   3.857   4.928   6.993
 7425SOL    HW223175   3.847   5.085   0.006
 7426SOL     OW23176   0.713   1.956   6.637
 7426SOL    HW123177   0.671   1.998   6.557
 7426SOL    HW223178   0.780   2.019   6.676
 7427SOL     OW23179   3.002   5.781   4.673
 7427SOL    HW123180   2.931   5.851   4.683
 7427SOL    HW223181   3.016   5.735   4.761
 7428SOL     OW23182   3.725   1.681   5.526
 7428SOL    HW123183   3.729   1.776   5.494
 7428SOL    HW223184   3.758   1.677   5.621
 7429SOL     OW23185   6.226   0.259   2.849
 7429SOL    HW123186   6.223   0.220   2.757
 7429SOL    HW223187   6.133   0.283   2.878
 7430SOL     OW23188   0.306   4.796   5.385
 7430SOL    HW123189   0.397   4.810   5.347
 7430SOL    HW223190   0.292   4.698   5.402
 7431SOL     OW23191   0.819   3.933   2.171
 7431SOL    HW123192   0.813   4.033   2.168
 7431SOL    HW223193   0.904   3.903   2.126
 7432SOL     OW23194   0.239   6.464   3.874
 7432SOL    HW123195   0.269   6.557   3.891
 7432SOL    HW223196   0.298   6.422   3.805
 7433SOL     OW23197   6.761   5.384   0.757
 7433SOL    HW123198   6.735   5.288   0.744
 7433SOL    HW223199   6.679   5.438   0.776
 7434SOL     OW23200   3.400   0.925   6.859
 7434SOL    HW123201   3.380   0.867   6.938
 7434SOL    HW223202   3.427   0.867   6.781
 7435SOL     OW23203   3.478   6.442   6.613
 7435SOL    HW123204   3.523   6.354   6.599
 7435SOL    HW223205   3.400   6.451   6.552
 7436SOL     OW23206   6.753   2.831   6.414
 7436SOL    HW123207   6.841   2.875   6.398
 7436SOL    HW223208   6.680   2.888   6.376
 7437SOL     OW23209   6.863   5.691   0.097
 7437SOL    HW123210   6.823   5.760   0.158
 7437SOL    HW223211   6.962   5.698   0.099
 7438SOL     OW23212   1.482   4.048   1.286
 7438SOL    HW123213   1.405   4.080   1.231
 7438SOL    HW223214   1.448   4.003   1.368
 7439SOL     OW23215   2.649   6.565   4.175
 7439SOL    HW123216   2.704   6.571   4.258
 7439SOL    HW223217   2.662   6.648   4.120
 7440SOL     OW23218   0.910   3.099   4.646
 7440SOL    HW123219   0.865   3.011   4.630
 7440SOL    HW223220   0.882   3.134   4.736
 7441SOL     OW23221   5.608   6.430   4.425
 7441SOL    HW123222   5.678   6.495   4.456
 7441SOL    HW223223   5.648   6.338   4.423
 7442SOL     OW23224   1.239   0.623   6.442
 7442SOL    HW123225   1.225   0.715   6.478
 7442SOL    HW223226   1.317   0.622   6.380
 7443SOL     OW23227   0.204   1.396   0.897
 7443SOL    HW123228   0.281   1.348   0.854
 7443SOL    HW223229   0.238   1.456   0.969
 7444SOL     OW23230   0.506   3.237   6.002
 7444SOL    HW123231   0.575   3.302   5.971
 7444SOL    HW223232   0.547   3.147   6.015
 7445SOL     OW23233   4.103   1.483   1.616
 7445SOL    HW123234   4.119   1.493   1.714
 7445SOL    HW223235   4.150   1.401   1.583
 7446SOL     OW23236   5.716   4.788   0.243
 7446SOL    HW123237   5.679   4.735   0.319
 7446SOL    HW223238   5.776   4.860   0.278
 7447SOL     OW23239   2.772   3.876   6.169
 7447SOL    HW123240   2.736   3.954   6.220
 7447SOL    HW223241   2.698   3.810   6.152
 7448SOL     OW23242   5.645   6.765   5.991
 7448SOL    HW123243   5.699   6.684   5.968
 7448SOL    HW223244   5.607   6.805   5.907
 7449SOL     OW23245   4.687   2.723   2.560
 7449SOL    HW123246   4.782   2.699   2.541
 7449SOL    HW223247   4.627   2.677   2.495
 7450SOL     OW23248   5.006   2.825   4.643
 7450SOL    HW123249   5.040   2.764   4.715
 7450SOL    HW223250   5.061   2.909   4.643
 7451SOL     OW23251   1.308   0.604   3.773
 7451SOL    HW123252   1.367   0.540   3.724
 7451SOL    HW223253   1.357   0.642   3.852
 7452SOL     OW23254   1.369   0.384   4.796
 7452SOL    HW123255   1.304   0.393   4.871
 7452SOL    HW223256   1.320   0.357   4.713
 7453SOL     OW23257   5.149   5.765   5.394
 7453SOL    HW123258   5.235   5.789   5.438
 7453SOL    HW223259   5.135   5.824   5.314
 7454SOL     OW23260   1.222   3.330   2.042
 7454SOL    HW123261   1.133   3.285   2.034
 7454SOL    HW223262   1.287   3.268   2.087
 7455SOL     OW23263   0.152   1.136   1.606
 7455SOL    HW123264   0.192   1.098   1.523
 7455SOL    HW223265   0.057   1.108   1.614
 7456SOL     OW23266   1.530   1.939   4.609
 7456SOL    HW123267   1.435   1.947   4.641
 7456SOL    HW223268   1.540   1.854   4.558
 7457SOL     OW23269   4.592   0.409   6.276
 7457SOL    HW123270   4.527   0.426   6.350
 7457SOL    HW223271   4.542   0.385   6.193
 7458SOL     OW23272   1.593   6.982   6.776
 7458SOL    HW123273   1.623   0.015   6.848
 7458SOL    HW223274   1.607   7.024   6.686
 7459SOL     OW23275   4.376   7.021   0.228
 7459SOL    HW123276   4.418   0.080   0.248
 7459SOL    HW223277   4.436   6.968   0.168
 7460SOL     OW23278   1.926   5.095   6.917
 7460SOL    HW123279   1.975   5.009   6.934
 7460SOL    HW223280   1.955   5.164   6.984
 7461SOL     OW23281   5.278   1.509   5.533
 7461SOL    HW123282   5.281   1.433   5.598
 7461SOL    HW223283   5.367   1.519   5.489
 7462SOL     OW23284   1.498   2.610   2.304
 7462SOL    HW123285   1.533   2.547   2.374
 7462SOL    HW223286   1.463   2.692   2.349
 7463SOL     OW23287   3.762   3.603   1.063
 7463SOL    HW123288   3.784   3.653   1.147
 7463SOL    HW223289   3.763   3.665   0.985
 7464SOL     OW23290   4.070   6.164   6.798
 7464SOL    HW123291   3.978   6.202   6.783
 7464SOL    HW223292   4.069   6.066   6.780
 7465SOL     OW23293   1.931   0.026   1.089
 7465SOL    HW123294   1.993   7.024   1.162
 7465SOL    HW223295   1.861   6.985   1.073
 7466SOL     OW23296   0.489   0.659   6.789
 7466SOL    HW123297   0.458   0.606   6.710
 7466SOL    HW223298   0.418   0.725   6.814
 7467SOL     OW23299   6.059   2.140   1.083
 7467SOL    HW123300   6.052   2.240   1.088
 7467SOL    HW223301   6.127   2.108   1.149
 7468SOL     OW23302   4.805   2.318   2.384
 7468SOL    HW123303   4.871   2.383   2.347
 7468SOL    HW223304   4.847   2.227   2.392
 7469SOL     OW23305   1.203   0.093   0.169
 7469SOL    HW123306   1.189   0.128   0.076
 7469SOL    HW223307   1.289   0.043   0.173
 7470SOL     OW23308   0.253   3.159   3.662
 7470SOL    HW123309   0.312   3.208   3.727
 7470SOL    HW223310   0.269   3.194   3.570
 7471SOL     OW23311   6.029   6.975   4.310
 7471SOL    HW123312   6.019   6.978   4.210
 7471SOL    HW223313   6.072   0.031   4.341
 7472SOL     OW23314   5.264   6.669   4.199
 7472SOL    HW123315   5.327   6.647   4.125
 7472SOL    HW223316   5.315   6.698   4.280
 7473SOL     OW23317   6.970   4.574   2.940
 7473SOL    HW123318   7.023   4.641   2.991
 7473SOL    HW223319   7.028   4.530   2.871
 7474SOL     OW23320   2.756   0.766   4.927
 7474SOL    HW123321   2.776   0.704   4.851
 7474SOL    HW223322   2.836   0.825   4.943
 7475SOL     OW23323   4.564   1.611   2.812
 7475SOL    HW123324   4.630   1.684   2.792
 7475SOL    HW223325   4.607   1.543   2.871
 7476SOL     OW23326   3.798   6.573   4.256
 7476SOL    HW123327   3.812   6.639   4.182
 7476SOL    HW223328   3.758   6.489   4.219
 7477SOL     OW23329   5.112   0.828   3.925
 7477SOL    HW123330   5.098   0.920   3.962
 7477SOL    HW223331   5.095   0.829   3.827
 7478SOL     OW23332   3.597   3.737   6.269
 7478SOL    HW123333   3.538   3.731   6.349
 7478SOL    HW223334   3.596   3.649   6.221
 7479SOL     OW23335   3.694   1.869   0.812
 7479SOL    HW123336   3.640   1.947   0.783
 7479SOL    HW223337   3.777   1.901   0.858
 7480SOL     OW23338   6.142   5.510   1.219
 7480SOL    HW123339   6.168   5.455   1.299
 7480SOL    HW223340   6.158   5.607   1.239
 7481SOL     OW23341   5.563   5.630   1.553
 7481SOL    HW123342   5.498   5.682   1.608
 7481SOL    HW223343   5.583   5.680   1.469
 7482SOL     OW23344   4.648   1.500   2.264
 7482SOL    HW123345   4.652   1.484   2.166
 7482SOL    HW223346   4.555   1.486   2.297
 7483SOL     OW23347   4.036   2.162   4.602
 7483SOL    HW123348   3.978   2.154   4.683
 7483SOL    HW223349   4.057   2.070   4.568
 7484SOL     OW23350   6.622   0.083   1.988
 7484SOL    HW123351   6.584   0.017   2.052
 7484SOL    HW223352   6.699   0.131   2.031
 7485SOL     OW23353   2.529   6.303   4.974
 7485SOL    HW123354   2.452   6.293   4.911
 7485SOL    HW223355   2.497   6.298   5.068
 7486SOL     OW23356   1.998   6.667   5.792
 7486SOL    HW123357   1.927   6.636   5.729
 7486SOL    HW223358   1.991   6.766   5.804
 7487SOL     OW23359   2.426   6.662   2.790
 7487SOL    HW123360   2.473   6.736   2.839
 7487SOL    HW223361   2.335   6.695   2.762
 7488SOL     OW23362   1.909   6.460   5.268
 7488SOL    HW123363   1.933   6.546   5.222
 7488SOL    HW223364   1.815   6.434   5.242
 7489SOL     OW23365   4.878   2.603   4.969
 7489SOL    HW123366   4.835   2.690   4.946
 7489SOL    HW223367   4.865   2.583   5.066
 7490SOL     OW23368   0.945   1.451   1.093
 7490SOL    HW123369   1.008   1.405   1.156
 7490SOL    HW223370   0.851   1.430   1.119
 7491SOL     OW23371   0.516   5.236   6.638
 7491SOL    HW123372   0.453   5.292   6.691
 7491SOL    HW223373   0.609   5.246   6.676
 7492SOL     OW23374   2.749   1.573   5.043
 7492SOL    HW123375   2.782   1.656   4.998
 7492SOL    HW223376   2.683   1.527   4.984
 7493SOL     OW23377   6.102   4.503   6.433
 7493SOL    HW123378   6.118   4.520   6.530
 7493SOL    HW223379   6.157   4.566   6.378
 7494SOL     OW23380   5.975   1.129   2.483
 7494SOL    HW123381   5.900   1.181   2.523
 7494SOL    HW223382   5.938   1.050   2.433
 7495SOL     OW23383   2.403   1.118   1.536
 7495SOL    HW123384   2.370   1.163   1.453
 7495SOL    HW223385   2.502   1.108   1.530
 7496SOL     OW23386   0.656   3.941   6.172
 7496SOL    HW123387   0.732   3.985   6.123
 7496SOL    HW223388   0.677   3.845   6.187
 7497SOL     OW23389   3.239   4.807   1.176
 7497SOL    HW123390   3.272   4.902   1.172
 7497SOL    HW223391   3.179   4.795   1.255
 7498SOL     OW23392   2.511   0.796   3.944
 7498SOL    HW123393   2.549   0.840   3.862
 7498SOL    HW223394   2.498   0.865   4.016
 7499SOL     OW23395   6.336   1.032   3.112
 7499SOL    HW123396   6.290   1.117   3.138
 7499SOL    HW223397   6.277   0.955   3.135
 7500SOL     OW23398   4.134   6.082   2.914
 7500SOL    HW123399   4.117   6.014   2.843
 7500SOL    HW223400   4.174   6.164   2.873
 7501SOL     OW23401   6.314   4.590   4.341
 7501SOL    HW123402   6.301   4.586   4.440
 7501SOL    HW223403   6.402   4.634   4.322
 7502SOL     OW23404   1.292   1.393   5.058
 7502SOL    HW123405   1.301   1.301   5.020
 7502SOL    HW223406   1.275   1.457   4.984
 7503SOL     OW23407   2.593   1.175   0.004
 7503SOL    HW123408   2.655   1.140   0.074
 7503SOL    HW223409   2.553   1.098   6.983
 7504SOL     OW23410   3.551   6.822   3.591
 7504SOL    HW123411   3.595   6.755   3.531
 7504SOL    HW223412   3.455   6.832   3.564
 7505SOL     OW23413   2.544   0.663   5.156
 7505SOL    HW123414   2.635   0.705   5.149
 7505SOL    HW223415   2.509   0.673   5.249
 7506SOL     OW23416   4.080   0.256   2.783
 7506SOL    HW123417   4.009   0.297   2.725
 7506SOL    HW223418   4.128   0.185   2.730
 7507SOL     OW23419   0.055   6.821   0.626
 7507SOL    HW123420   0.111   6.893   0.669
 7507SOL    HW223421   6.990   6.828   0.660
 7508SOL     OW23422   5.409   6.977   2.573
 7508SOL    HW123423   5.357   6.937   2.498
 7508SOL    HW223424   5.346   7.018   2.639
 7509SOL     OW23425   5.318   4.580   0.686
 7509SOL    HW123426   5.336   4.495   0.636
 7509SOL    HW223427   5.404   4.627   0.705
 7510SOL     OW23428   2.799   4.098   5.284
 7510SOL    HW123429   2.804   3.999   5.298
 7510SOL    HW223430   2.704   4.127   5.281
 7511SOL     OW23431   1.708   0.972   2.674
 7511SOL    HW123432   1.747   0.964   2.766
 7511SOL    HW223433   1.781   0.988   2.607
 7512SOL     OW23434   3.134   4.286   1.334
 7512SOL    HW123435   3.044   4.253   1.360
 7512SOL    HW223436   3.192   4.208   1.309
 7513SOL     OW23437   1.764   2.266   0.605
 7513SOL    HW123438   1.831   2.194   0.625
 7513SOL    HW223439   1.811   2.353   0.594
 7514SOL     OW23440   3.165   5.915   2.502
 7514SOL    HW123441   3.175   5.849   2.427
 7514SOL    HW223442   3.069   5.920   2.529
 7515SOL     OW23443   1.542   6.611   2.390
 7515SOL    HW123444   1.454   6.644   2.354
 7515SOL    HW223445   1.616   6.663   2.348
 7516SOL     OW23446   6.921   5.666   4.557
 7516SOL    HW123447   6.843   5.623   4.604
 7516SOL    HW223448   6.955   5.742   4.613
 7517SOL     OW23449   6.727   3.142   2.029
 7517SOL    HW123450   6.698   3.047   2.039
 7517SOL    HW223451   6.718   3.188   2.117
 7518SOL     OW23452   3.789   5.528   3.698
 7518SOL    HW123453   3.851   5.594   3.740
 7518SOL    HW223454   3.801   5.439   3.741
 7519SOL     OW23455   0.176   6.768   3.770
 7519SOL    HW123456   0.216   6.779   3.860
 7519SOL    HW223457   0.214   6.836   3.707
 7520SOL     OW23458   3.007   0.382   1.895
 7520SOL    HW123459   3.070   0.304   1.895
 7520SOL    HW223460   3.012   0.429   1.806
 7521SOL     OW23461   4.560   4.765   5.288
 7521SOL    HW123462   4.542   4.861   5.310
 7521SOL    HW223463   4.600   4.719   5.368
 7522SOL     OW23464   2.612   0.827   6.507
 7522SOL    HW123465   2.650   0.859   6.594
 7522SOL    HW223466   2.684   0.825   6.437
 7523SOL     OW23467   5.234   1.340   5.829
 7523SOL    HW123468   5.169   1.413   5.851
 7523SOL    HW223469   5.213   1.258   5.883
 7524SOL     OW23470   0.513   2.371   5.888
 7524SOL    HW123471   0.529   2.430   5.808
 7524SOL    HW223472   0.555   2.282   5.872
 7525SOL     OW23473   2.758   6.634   6.202
 7525SOL    HW123474   2.798   6.605   6.116
 7525SOL    HW223475   2.684   6.571   6.228
 7526SOL     OW23476   3.705   3.172   2.298
 7526SOL    HW123477   3.756   3.158   2.382
 7526SOL    HW223478   3.747   3.120   2.224
 7527SOL     OW23479   4.702   5.159   3.168
 7527SOL    HW123480   4.780   5.118   3.122
 7527SOL    HW223481   4.643   5.087   3.205
 7528SOL     OW23482   4.623   2.623   0.129
 7528SOL    HW123483   4.547   2.587   0.183
 7528SOL    HW223484   4.587   2.666   0.046
 7529SOL     OW23485   5.340   1.354   4.509
 7529SOL    HW123486   5.366   1.319   4.419
 7529SOL    HW223487   5.422   1.385   4.557
 7530SOL     OW23488   6.008   3.393   2.436
 7530SOL    HW123489   5.938   3.442   2.385
 7530SOL    HW223490   6.021   3.302   2.397
 7531SOL     OW23491   4.182   2.308   3.792
 7531SOL    HW123492   4.217   2.273   3.879
 7531SOL    HW223493   4.259   2.327   3.731
 7532SOL     OW23494   5.404   5.772   1.762
 7532SOL    HW123495   5.380   5.824   1.844
 7532SOL    HW223496   5.344   5.692   1.754
 7533SOL     OW23497   2.431   0.974   3.504
 7533SOL    HW123498   2.357   1.039   3.484
 7533SOL    HW223499   2.518   1.023   3.510
 7534SOL     OW23500   3.550   6.804   4.649
 7534SOL    HW123501   3.453   6.811   4.626
 7534SOL    HW223502   3.581   6.889   4.691
 7535SOL     OW23503   2.941   0.927   5.690
 7535SOL    HW123504   2.918   0.948   5.594
 7535SOL    HW223505   2.862   0.885   5.734
 7536SOL     OW23506   5.360   4.972   4.681
 7536SOL    HW123507   5.424   5.034   4.727
 7536SOL    HW223508   5.302   4.927   4.748
 7537SOL     OW23509   1.868   4.458   4.827
 7537SOL    HW123510   1.950   4.432   4.776
 7537SOL    HW223511   1.885   4.543   4.877
 7538SOL     OW23512   2.961   3.672   2.280
 7538SOL    HW123513   3.007   3.600   2.228
 7538SOL    HW223514   2.918   3.737   2.217
 7539SOL     OW23515   2.494   2.465   4.782
 7539SOL    HW123516   2.495   2.508   4.872
 7539SOL    HW223517   2.570   2.400   4.776
 7540SOL     OW23518   3.323   1.152   5.823
 7540SOL    HW123519   3.241   1.147   5.880
 7540SOL    HW223520   3.316   1.231   5.761
 7541SOL     OW23521   6.653   3.577   4.960
 7541SOL    HW123522   6.672   3.674   4.943
 7541SOL    HW223523   6.560   3.567   4.996
 7542SOL     OW23524   0.174   6.625   6.443
 7542SOL    HW123525   0.267   6.623   6.479
 7542SOL    HW223526   0.169   6.570   6.360
 7543SOL     OW23527   4.192   1.967   1.001
 7543SOL    HW123528   4.205   1.961   0.902
 7543SOL    HW223529   4.218   2.057   1.033
 7544SOL     OW23530   0.559   2.285   3.631
 7544SOL    HW123531   0.613   2.364   3.604
 7544SOL    HW223532   0.518   2.243   3.550
 7545SOL     OW23533   5.280   6.703   2.771
 7545SOL    HW123534   5.252   6.613   2.805
 7545SOL    HW223535   5.201   6.748   2.729
 7546SOL     OW23536   4.232   0.768   1.196
 7546SOL    HW123537   4.247   0.813   1.284
 7546SOL    HW223538   4.134   0.760   1.180
 7547SOL     OW23539   3.576   6.234   0.328
 7547SOL    HW123540   3.489   6.282   0.327
 7547SOL    HW223541   3.606   6.218   0.234
 7548SOL     OW23542   2.728   2.123   0.714
 7548SOL    HW123543   2.783   2.106   0.796
 7548SOL    HW223544   2.750   2.214   0.678
 7549SOL     OW23545   5.926   2.007   1.519
 7549SOL    HW123546   5.879   2.013   1.607
 7549SOL    HW223547   5.955   2.098   1.491
 7550SOL     OW23548   2.641   5.041   2.039
 7550SOL    HW123549   2.640   4.947   2.072
 7550SOL    HW223550   2.721   5.089   2.076
 7551SOL     OW23551   4.557   4.014   0.053
 7551SOL    HW123552   4.628   3.953   0.090
 7551SOL    HW223553   4.579   4.038   6.988
 7552SOL     OW23554   1.761   5.650   4.045
 7552SOL    HW123555   1.765   5.678   4.141
 7552SOL    HW223556   1.853   5.649   4.007
 7553SOL     OW23557   3.648   4.749   5.704
 7553SOL    HW123558   3.604   4.664   5.675
 7553SOL    HW223559   3.656   4.750   5.804
 7554SOL     OW23560   5.313   0.988   0.766
 7554SOL    HW123561   5.354   1.066   0.719
 7554SOL    HW223562   5.365   0.906   0.746
 7555SOL     OW23563   1.216   5.199   4.808
 7555SOL    HW123564   1.142   5.258   4.838
 7555SOL    HW223565   1.231   5.127   4.876
 7556SOL     OW23566   0.590   2.077   5.828
 7556SOL    HW123567   0.539   2.019   5.765
 7556SOL    HW223568   0.658   2.022   5.877
 7557SOL     OW23569   5.513   3.337   6.409
 7557SOL    HW123570   5.544   3.431   6.426
 7557SOL    HW223571   5.418   3.339   6.376
 7558SOL     OW23572   2.476   2.624   3.741
 7558SOL    HW123573   2.485   2.601   3.838
 7558SOL    HW223574   2.432   2.713   3.732
 7559SOL     OW23575   6.522   5.476   1.231
 7559SOL    HW123576   6.514   5.515   1.140
 7559SOL    HW223577   6.618   5.457   1.252
 7560SOL     OW23578   5.584   6.521   6.901
 7560SOL    HW123579   5.623   6.546   6.990
 7560SOL    HW223580   5.508   6.582   6.880
 7561SOL     OW23581   0.903   3.310   0.160
 7561SOL    HW123582   0.899   3.377   0.233
 7561SOL    HW223583   0.817   3.258   0.158
 7562SOL     OW23584   4.441   6.422   4.816
 7562SOL    HW123585   4.522   6.451   4.868
 7562SOL    HW223586   4.366   6.406   4.880
 7563SOL     OW23587   2.726   0.156   0.330
 7563SOL    HW123588   2.701   0.188   0.238
 7563SOL    HW223589   2.662   0.084   0.358
 7564SOL     OW23590   4.532   0.833   2.864
 7564SOL    HW123591   4.466   0.908   2.856
 7564SOL    HW223592   4.533   0.781   2.779
 7565SOL     OW23593   4.915   4.146   6.587
 7565SOL    HW123594   4.975   4.109   6.517
 7565SOL    HW223595   4.848   4.207   6.545
 7566SOL     OW23596   0.776   4.974   3.499
 7566SOL    HW123597   0.800   5.018   3.585
 7566SOL    HW223598   0.825   4.887   3.491
 7567SOL     OW23599   1.721   2.502   5.399
 7567SOL    HW123600   1.651   2.562   5.360
 7567SOL    HW223601   1.700   2.485   5.495
 7568SOL     OW23602   5.909   5.905   4.321
 7568SOL    HW123603   5.884   5.974   4.254
 7568SOL    HW223604   5.987   5.853   4.288
 7569SOL     OW23605   4.270   4.631   6.398
 7569SOL    HW123606   4.248   4.598   6.306
 7569SOL    HW223607   4.186   4.638   6.452
 7570SOL     OW23608   5.381   4.733   5.452
 7570SOL    HW123609   5.424   4.644   5.469
 7570SOL    HW223610   5.434   4.805   5.498
 7571SOL     OW23611   5.578   4.738   2.209
 7571SOL    HW123612   5.545   4.792   2.287
 7571SOL    HW223613   5.510   4.740   2.136
 7572SOL     OW23614   5.227   0.956   3.474
 7572SOL    HW123615   5.163   1.027   3.503
 7572SOL    HW223616   5.213   0.874   3.530
 7573SOL     OW23617   5.743   5.775   4.626
 7573SOL    HW123618   5.701   5.854   4.582
 7573SOL    HW223619   5.824   5.747   4.573
 7574SOL     OW23620   6.477   1.010   4.653
 7574SOL    HW123621   6.519   1.098   4.673
 7574SOL    HW223622   6.421   1.018   4.571
 7575SOL     OW23623   4.505   0.343   5.797
 7575SOL    HW123624   4.419   0.391   5.815
 7575SOL    HW223625   4.577   0.410   5.778
 7576SOL     OW23626   6.487   5.873   0.333
 7576SOL    HW123627   6.585   5.888   0.337
 7576SOL    HW223628   6.464   5.822   0.249
 7577SOL     OW23629   6.870   6.903   5.365
 7577SOL    HW123630   6.896   6.947   5.279
 7577SOL    HW223631   6.919   6.948   5.441
 7578SOL     OW23632   1.804   6.226   3.856
 7578SOL    HW123633   1.795   6.248   3.759
 7578SOL    HW223634   1.882   6.166   3.870
 7579SOL     OW23635   4.321   1.499   2.309
 7579SOL    HW123636   4.308   1.533   2.216
 7579SOL    HW223637   4.232   1.487   2.353
 7580SOL     OW23638   1.592   3.986   4.130
 7580SOL    HW123639   1.619   4.077   4.160
 7580SOL    HW223640   1.524   3.948   4.193
 7581SOL     OW23641   4.691   1.023   1.274
 7581SOL    HW123642   4.727   1.070   1.194
 7581SOL    HW223643   4.614   0.965   1.247
 7582SOL     OW23644   3.601   0.959   0.235
 7582SOL    HW123645   3.546   1.006   0.305
 7582SOL    HW223646   3.644   0.878   0.274
 7583SOL     OW23647   5.874   3.838   1.693
 7583SOL    HW123648   5.795   3.873   1.742
 7583SOL    HW223649   5.919   3.912   1.644
 7584SOL     OW23650   3.644   6.511   0.992
 7584SOL    HW123651   3.685   6.466   1.072
 7584SOL    HW223652   3.589   6.445   0.941
 7585SOL     OW23653   1.585   2.812   5.760
 7585SOL    HW123654   1.538   2.839   5.676
 7585SOL    HW223655   1.678   2.782   5.738
 7586SOL     OW23656   3.654   0.680   3.374
 7586SOL    HW123657   3.713   0.629   3.436
 7586SOL    HW223658   3.614   0.758   3.421
 7587SOL     OW23659   3.312   1.766   6.535
 7587SOL    HW123660   3.349   1.768   6.628
 7587SOL    HW223661   3.259   1.682   6.521
 7588SOL     OW23662   0.318   3.235   2.205
 7588SOL    HW123663   0.395   3.279   2.158
 7588SOL    HW223664   0.260   3.189   2.138
 7589SOL     OW23665   6.108   7.018   0.595
 7589SOL    HW123666   6.049   6.951   0.638
 7589SOL    HW223667   6.052   0.056   0.546
 7590SOL     OW23668   2.867   1.877   6.506
 7590SOL    HW123669   2.786   1.906   6.557
 7590SOL    HW223670   2.931   1.833   6.568
 7591SOL     OW23671   0.368   5.065   0.558
 7591SOL    HW123672   0.314   5.038   0.638
 7591SOL    HW223673   0.358   4.997   0.486
 7592SOL     OW23674   0.420   4.906   6.375
 7592SOL    HW123675   0.515   4.877   6.386
 7592SOL    HW223676   0.376   4.913   6.465
 7593SOL     OW23677   5.595   2.365   0.209
 7593SOL    HW123678   5.580   2.411   0.296
 7593SOL    HW223679   5.621   2.432   0.140
 7594SOL     OW23680   6.804   4.017   2.013
 7594SOL    HW123681   6.753   3.938   2.047
 7594SOL    HW223682   6.895   4.019   2.054
 7595SOL     OW23683   0.221   2.582   5.615
 7595SOL    HW123684   0.320   2.580   5.631
 7595SOL    HW223685   0.195   2.669   5.575
 7596SOL     OW23686   4.509   5.288   3.010
 7596SOL    HW123687   4.471   5.207   2.967
 7596SOL    HW223688   4.589   5.263   3.064
 7597SOL     OW23689   3.065   5.678   1.729
 7597SOL    HW123690   2.968   5.677   1.702
 7597SOL    HW223691   3.077   5.619   1.809
 7598SOL     OW23692   6.707   1.208   2.847
 7598SOL    HW123693   6.762   1.130   2.817
 7598SOL    HW223694   6.737   1.237   2.938
 7599SOL     OW23695   5.433   1.195   3.559
 7599SOL    HW123696   5.373   1.125   3.596
 7599SOL    HW223697   5.469   1.252   3.634
 7600SOL     OW23698   2.107   0.478   2.720
 7600SOL    HW123699   2.148   0.405   2.774
 7600SOL    HW223700   2.082   0.443   2.630
 7601SOL     OW23701   2.001   5.558   2.817
 7601SOL    HW123702   1.908   5.594   2.825
 7601SOL    HW223703   2.066   5.635   2.810
 7602SOL     OW23704   1.973   3.558   5.761
 7602SOL    HW123705   2.034   3.530   5.836
 7602SOL    HW223706   1.994   3.504   5.680
 7603SOL     OW23707   1.208   5.856   6.460
 7603SOL    HW123708   1.124   5.871   6.513
 7603SOL    HW223709   1.279   5.821   6.521
 7604SOL     OW23710   2.205   5.135   3.992
 7604SOL    HW123711   2.214   5.211   3.928
 7604SOL    HW223712   2.185   5.171   4.084
 7605SOL     OW23713   1.473   6.035   0.710
 7605SOL    HW123714   1.506   6.042   0.805
 7605SOL    HW223715   1.521   5.961   0.664
 7606SOL     OW23716   6.869   2.514   2.947
 7606SOL    HW123717   6.961   2.476   2.950
 7606SOL    HW223718   6.810   2.454   2.892
 7607SOL     OW23719   3.947   6.078   0.289
 7607SOL    HW123720   3.860   6.127   0.279
 7607SOL    HW223721   3.999   6.085   0.204
 7608SOL     OW23722   3.435   3.811   3.318
 7608SOL    HW123723   3.468   3.865   3.241
 7608SOL    HW223724   3.513   3.775   3.370
 7609SOL     OW23725   0.205   4.530   3.494
 7609SOL    HW123726   0.193   4.483   3.407
 7609SOL    HW223727   0.122   4.521   3.549
 7610SOL     OW23728   6.291   0.417   6.997
 7610SOL    HW123729   6.259   0.423   6.902
 7610SOL    HW223730   6.213   0.411   0.029
 7611SOL     OW23731   1.011   2.136   0.001
 7611SOL    HW123732   1.063   2.216   0.029
 7611SOL    HW223733   0.952   2.106   0.076
 7612SOL     OW23734   4.365   2.365   4.697
 7612SOL    HW123735   4.420   2.404   4.771
 7612SOL    HW223736   4.290   2.427   4.676
 7613SOL     OW23737   5.004   2.053   1.980
 7613SOL    HW123738   4.958   2.048   2.068
 7613SOL    HW223739   5.098   2.018   1.989
 7614SOL     OW23740   4.895   2.918   1.607
 7614SOL    HW123741   4.973   2.882   1.657
 7614SOL    HW223742   4.810   2.880   1.644
 7615SOL     OW23743   5.232   3.975   5.901
 7615SOL    HW123744   5.195   4.048   5.843
 7615SOL    HW223745   5.226   4.002   5.997
 7616SOL     OW23746   6.911   4.140   4.515
 7616SOL    HW123747   6.935   4.066   4.578
 7616SOL    HW223748   6.860   4.211   4.564
 7617SOL     OW23749   3.022   5.722   2.717
 7617SOL    HW123750   2.982   5.723   2.809
 7617SOL    HW223751   3.016   5.814   2.677
 7618SOL     OW23752   0.857   2.910   0.094
 7618SOL    HW123753   0.920   2.977   0.054
 7618SOL    HW223754   0.902   2.863   0.170
 7619SOL     OW23755   5.920   3.612   4.658
 7619SOL    HW123756   5.929   3.603   4.757
 7619SOL    HW223757   5.975   3.689   4.626
 7620SOL     OW23758   3.803   5.215   0.113
 7620SOL    HW123759   3.845   5.201   0.202
 7620SOL    HW223760   3.703   5.217   0.123
 7621SOL     OW23761   0.885   1.314   0.808
 7621SOL    HW123762   0.894   1.409   0.837
 7621SOL    HW223763   0.870   1.312   0.709
 7622SOL     OW23764   5.001   4.783   1.546
 7622SOL    HW123765   4.967   4.864   1.595
 7622SOL    HW223766   5.088   4.754   1.587
 7623SOL     OW23767   4.754   4.351   6.481
 7623SOL    HW123768   4.835   4.407   6.465
 7623SOL    HW223769   4.721   4.367   6.574
 7624SOL     OW23770   0.010   3.038   4.398
 7624SOL    HW123771   0.106   3.010   4.407
 7624SOL    HW223772   0.003   3.137   4.412
 7625SOL     OW23773   4.195   0.582   1.871
 7625SOL    HW123774   4.097   0.569   1.881
 7625SOL    HW223775   4.213   0.641   1.792
 7626SOL     OW23776   6.908   6.455   5.054
 7626SOL    HW123777   6.989   6.514   5.054
 7626SOL    HW223778   6.840   6.492   5.117
 7627SOL     OW23779   5.772   3.363   0.114
 7627SOL    HW123780   5.756   3.284   0.054
 7627SOL    HW223781   5.759   3.335   0.209
 7628SOL     OW23782   3.022   0.793   1.377
 7628SOL    HW123783   3.028   0.693   1.378
 7628SOL    HW223784   3.009   0.825   1.471
 7629SOL     OW23785   6.424   6.542   2.820
 7629SOL    HW123786   6.490   6.606   2.860
 7629SOL    HW223787   6.412   6.465   2.882
 7630SOL     OW23788   5.364   6.656   2.288
 7630SOL    HW123789   5.392   6.752   2.300
 7630SOL    HW223790   5.396   6.602   2.365
 7631SOL     OW23791   0.655   1.217   5.375
 7631SOL    HW123792   0.672   1.140   5.437
 7631SOL    HW223793   0.737   1.232   5.319
 7632SOL     OW23794   3.617   2.414   1.688
 7632SOL    HW123795   3.693   2.388   1.628
 7632SOL    HW223796   3.622   2.362   1.773
 7633SOL     OW23797   4.832   2.682   6.967
 7633SOL    HW123798   4.801   2.634   0.020
 7633SOL    HW223799   4.913   2.737   6.989
 7634SOL     OW23800   1.489   1.351   2.359
 7634SOL    HW123801   1.578   1.387   2.330
 7634SOL    HW223802   1.504   1.269   2.415
 7635SOL     OW23803   2.593   5.465   5.179
 7635SOL    HW123804   2.566   5.517   5.098
 7635SOL    HW223805   2.602   5.368   5.155
 7636SOL     OW23806   1.367   1.219   3.110
 7636SOL    HW123807   1.370   1.312   3.145
 7636SOL    HW223808   1.274   1.197   3.081
 7637SOL     OW23809   2.952   6.631   2.447
 7637SOL    HW123810   2.929   6.615   2.543
 7637SOL    HW223811   3.041   6.678   2.442
 7638SOL     OW23812   4.438   5.970   1.899
 7638SOL    HW123813   4.351   5.993   1.855
 7638SOL    HW223814   4.425   5.893   1.962
 7639SOL     OW23815   1.510   2.372   0.730
 7639SOL    HW123816   1.481   2.337   0.819
 7639SOL    HW223817   1.605   2.345   0.713
 7640SOL     OW23818   3.227   2.101   0.494
 7640SOL    HW123819   3.153   2.066   0.437
 7640SOL    HW223820   3.308   2.044   0.483
 7641SOL     OW23821   0.572   4.427   1.626
 7641SOL    HW123822   0.655   4.482   1.627
 7641SOL    HW223823   0.496   4.482   1.590
 7642SOL     OW23824   2.665   1.457   2.926
 7642SOL    HW123825   2.673   1.514   3.008
 7642SOL    HW223826   2.751   1.407   2.912
 7643SOL     OW23827   5.006   2.670   4.205
 7643SOL    HW123828   5.013   2.581   4.160
 7643SOL    HW223829   5.069   2.674   4.282
 7644SOL     OW23830   6.153   2.512   2.651
 7644SOL    HW123831   6.226   2.446   2.635
 7644SOL    HW223832   6.079   2.468   2.702
 7645SOL     OW23833   4.462   4.169   5.384
 7645SOL    HW123834   4.373   4.140   5.348
 7645SOL    HW223835   4.477   4.124   5.472
 7646SOL     OW23836   2.055   2.310   2.291
 7646SOL    HW123837   2.114   2.259   2.230
 7646SOL    HW223838   2.015   2.248   2.359
 7647SOL     OW23839   0.743   2.829   1.709
 7647SOL    HW123840   0.712   2.886   1.633
 7647SOL    HW223841   0.719   2.872   1.796
 7648SOL     OW23842   3.906   1.901   3.606
 7648SOL    HW123843   3.920   1.990   3.649
 7648SOL    HW223844   3.867   1.914   3.515
 7649SOL     OW23845   0.982   0.960   2.836
 7649SOL    HW123846   0.889   0.991   2.859
 7649SOL    HW223847   1.028   1.030   2.782
 7650SOL     OW23848   5.400   2.671   1.724
 7650SOL    HW123849   5.398   2.571   1.719
 7650SOL    HW223850   5.493   2.704   1.710
 7651SOL     OW23851   2.610   6.628   4.755
 7651SOL    HW123852   2.645   6.704   4.810
 7651SOL    HW223853   2.546   6.663   4.687
 7652SOL     OW23854   0.411   4.289   3.955
 7652SOL    HW123855   0.410   4.244   3.866
 7652SOL    HW223856   0.364   4.377   3.949
 7653SOL     OW23857   2.494   1.937   0.706
 7653SOL    HW123858   2.463   1.959   0.799
 7653SOL    HW223859   2.584   1.976   0.691
 7654SOL     OW23860   4.920   3.546   3.864
 7654SOL    HW123861   5.012   3.513   3.885
 7654SOL    HW223862   4.895   3.517   3.772
 7655SOL     OW23863   3.698   0.161   3.342
 7655SOL    HW123864   3.620   0.216   3.370
 7655SOL    HW223865   3.761   0.216   3.288
 7656SOL     OW23866   1.564   5.273   6.456
 7656SOL    HW123867   1.657   5.283   6.492
 7656SOL    HW223868   1.567   5.260   6.357
 7657SOL     OW23869   2.423   2.599   3.195
 7657SOL    HW123870   2.410   2.687   3.150
 7657SOL    HW223871   2.452   2.613   3.290
 7658SOL     OW23872   4.158   6.064   5.871
 7658SOL    HW123873   4.087   6.004   5.907
 7658SOL    HW223874   4.189   6.031   5.782
 7659SOL     OW23875   5.205   5.619   6.549
 7659SOL    HW123876   5.131   5.685   6.558
 7659SOL    HW223877   5.249   5.606   6.638
 7660SOL     OW23878   6.135   6.516   4.202
 7660SOL    HW123879   6.229   6.541   4.179
 7660SOL    HW223880   6.122   6.521   4.301
 7661SOL     OW23881   5.900   2.331   4.594
 7661SOL    HW123882   5.860   2.266   4.529
 7661SOL    HW223883   5.878   2.424   4.566
 7662SOL     OW23884   0.728   2.430   2.624
 7662SOL    HW123885   0.692   2.343   2.660
 7662SOL    HW223886   0.824   2.418   2.599
 7663SOL     OW23887   6.588   7.001   6.600
 7663SOL    HW123888   6.679   6.962   6.619
 7663SOL    HW223889   6.520   6.928   6.598
 7664SOL     OW23890   3.797   1.199   2.428
 7664SOL    HW123891   3.755   1.212   2.337
 7664SOL    HW223892   3.896   1.189   2.418
 7665SOL     OW23893   4.382   0.048   4.272
 7665SOL    HW123894   4.289   0.081   4.290
 7665SOL    HW223895   4.441   0.072   4.350
 7666SOL     OW23896   0.783   6.778   1.305
 7666SOL    HW123897   0.752   6.763   1.211
 7666SOL    HW223898   0.719   6.839   1.352
 7667SOL     OW23899   4.479   5.837   1.594
 7667SOL    HW123900   4.471   5.796   1.684
 7667SOL    HW223901   4.559   5.897   1.591
 7668SOL     OW23902   2.842   4.334   1.232
 7668SOL    HW123903   2.752   4.295   1.212
 7668SOL    HW223904   2.849   4.355   1.330
 7669SOL     OW23905   5.314   2.092   5.757
 7669SOL    HW123906   5.301   2.115   5.660
 7669SOL    HW223907   5.371   2.010   5.764
 7670SOL     OW23908   1.493   5.352   6.203
 7670SOL    HW123909   1.505   5.376   6.107
 7670SOL    HW223910   1.526   5.428   6.261
 7671SOL     OW23911   4.374   0.877   5.147
 7671SOL    HW123912   4.446   0.826   5.101
 7671SOL    HW223913   4.315   0.921   5.080
 7672SOL     OW23914   5.794   6.328   3.801
 7672SOL    HW123915   5.861   6.397   3.830
 7672SOL    HW223916   5.829   6.237   3.821
 7673SOL     OW23917   1.978   5.280   0.054
 7673SOL    HW123918   1.932   5.365   0.079
 7673SOL    HW223919   2.074   5.298   0.036
 7674SOL     OW23920   6.434   2.671   3.979
 7674SOL    HW123921   6.433   2.612   4.059
 7674SOL    HW223922   6.518   2.726   3.978
 7675SOL     OW23923   4.731   0.854   3.038
 7675SOL    HW123924   4.693   0.800   3.113
 7675SOL    HW223925   4.659   0.872   2.970
 7676SOL     OW23926   1.555   2.594   0.380
 7676SOL    HW123927   1.653   2.575   0.377
 7676SOL    HW223928   1.527   2.612   0.474
 7677SOL     OW23929   0.059   4.003   2.069
 7677SOL    HW123930   0.086   4.092   2.033
 7677SOL    HW223931   0.140   3.943   2.072
 7678SOL     OW23932   1.835   1.259   5.723
 7678SOL    HW123933   1.892   1.307   5.790
 7678SOL    HW223934   1.743   1.247   5.761
 7679SOL     OW23935   1.796   5.942   5.463
 7679SOL    HW123936   1.853   5.998   5.403
 7679SOL    HW223937   1.838   5.852   5.475
 7680SOL     OW23938   1.988   2.702   0.123
 7680SOL    HW123939   1.979   2.796   0.089
 7680SOL    HW223940   1.957   2.638   0.053
 7681SOL     OW23941   2.854   6.876   0.138
 7681SOL    HW123942   2.759   6.907   0.127
 7681SOL    HW223943   2.882   6.890   0.233
 7682SOL     OW23944   3.456   0.289   1.806
 7682SOL    HW123945   3.445   0.370   1.863
 7682SOL    HW223946   3.371   0.237   1.804
 7683SOL     OW23947   6.887   1.955   4.497
 7683SOL    HW123948   6.812   1.889   4.495
 7683SOL    HW223949   6.974   1.907   4.506
 7684SOL     OW23950   4.635   1.775   0.624
 7684SOL    HW123951   4.710   1.820   0.577
 7684SOL    HW223952   4.582   1.843   0.676
 7685SOL     OW23953   3.437   3.130   0.120
 7685SOL    HW123954   3.436   3.038   0.159
 7685SOL    HW223955   3.510   3.137   0.053
 7686SOL     OW23956   5.201   0.298   3.105
 7686SOL    HW123957   5.270   0.360   3.144
 7686SOL    HW223958   5.116   0.349   3.089
 7687SOL     OW23959   6.027   5.226   5.319
 7687SOL    HW123960   5.995   5.291   5.388
 7687SOL    HW223961   6.101   5.171   5.357
 7688SOL     OW23962   0.539   0.475   5.904
 7688SOL    HW123963   0.573   0.537   5.833
 7688SOL    HW223964   0.568   0.381   5.882
 7689SOL     OW23965   5.016   5.821   3.255
 7689SOL    HW123966   5.097   5.805   3.200
 7689SOL    HW223967   4.980   5.733   3.287
 7690SOL     OW23968   6.306   5.084   1.060
 7690SOL    HW123969   6.317   4.985   1.060
 7690SOL    HW223970   6.236   5.110   0.994
 7691SOL     OW23971   5.381   3.015   4.365
 7691SOL    HW123972   5.337   3.080   4.303
 7691SOL    HW223973   5.322   2.999   4.444
 7692SOL     OW23974   1.081   6.879   1.788
 7692SOL    HW123975   0.989   6.854   1.820
 7692SOL    HW223976   1.114   6.809   1.724
 7693SOL     OW23977   4.052   6.859   1.002
 7693SOL    HW123978   4.018   6.766   1.013
 7693SOL    HW223979   4.150   6.862   1.019
 7694SOL     OW23980   6.748   4.424   4.202
 7694SOL    HW123981   6.648   4.422   4.192
 7694SOL    HW223982   6.784   4.331   4.192
 7695SOL     OW23983   3.630   6.587   0.146
 7695SOL    HW123984   3.640   6.673   0.196
 7695SOL    HW223985   3.533   6.575   0.122
 7696SOL     OW23986   6.612   1.248   4.698
 7696SOL    HW123987   6.696   1.257   4.645
 7696SOL    HW223988   6.554   1.328   4.682
 7697SOL     OW23989   3.166   0.719   2.876
 7697SOL    HW123990   3.250   0.676   2.844
 7697SOL    HW223991   3.089   0.658   2.858
 7698SOL     OW23992   0.045   2.774   4.539
 7698SOL    HW123993   7.002   2.711   4.511
 7698SOL    HW223994   0.015   2.868   4.526
 7699SOL     OW23995   4.078   5.417   6.872
 7699SOL    HW123996   4.109   5.404   6.966
 7699SOL    HW223997   4.060   5.329   6.831
 7700SOL     OW23998   4.548   6.237   5.298
 7700SOL    HW123999   4.459   6.283   5.291
 7700SOL    HW224000   4.533   6.140   5.319
 7701SOL     OW24001   6.720   1.902   6.409
 7701SOL    HW124002   6.771   1.985   6.434
 7701SOL    HW224003   6.623   1.923   6.407
 7702SOL     OW24004   3.212   6.296   5.842
 7702SOL    HW124005   3.224   6.203   5.808
 7702SOL    HW224006   3.116   6.322   5.837
 7703SOL     OW24007   6.806   1.189   4.493
 7703SOL    HW124008   6.785   1.201   4.396
 7703SOL    HW224009   6.780   1.097   4.522
 7704SOL     OW24010   5.136   4.602   5.239
 7704SOL    HW124011   5.189   4.684   5.262
 7704SOL    HW224012   5.194   4.521   5.252
 7705SOL     OW24013   3.944   5.068   6.213
 7705SOL    HW124014   4.034   5.104   6.191
 7705SOL    HW224015   3.891   5.056   6.128
 7706SOL     OW24016   4.588   1.652   5.801
 7706SOL    HW124017   4.640   1.662   5.716
 7706SOL    HW224018   4.492   1.636   5.780
 7707SOL     OW24019   1.101   6.242   6.153
 7707SOL    HW124020   1.183   6.192   6.178
 7707SOL    HW224021   1.036   6.241   6.229
 7708SOL     OW24022   4.929   6.137   5.405
 7708SOL    HW124023   5.022   6.169   5.422
 7708SOL    HW224024   4.918   6.045   5.443
 7709SOL     OW24025   5.646   4.132   1.318
 7709SOL    HW124026   5.648   4.228   1.344
 7709SOL    HW224027   5.639   4.075   1.400
 7710SOL     OW24028   3.351   0.839   0.971
 7710SOL    HW124029   3.304   0.862   0.886
 7710SOL    HW224030   3.424   0.905   0.987
 7711SOL     OW24031   6.004   6.408   5.318
 7711SOL    HW124032   5.927   6.359   5.358
 7711SOL    HW224033   6.089   6.360   5.342
 7712SOL     OW24034   5.916   4.046   1.318
 7712SOL    HW124035   5.957   4.138   1.321
 7712SOL    HW224036   5.818   4.054   1.301
 7713SOL     OW24037   1.573   4.377   0.132
 7713SOL    HW124038   1.623   4.415   0.210
 7713SOL    HW224039   1.637   4.329   0.072
 7714SOL     OW24040   6.232   5.552   5.330
 7714SOL    HW124041   6.151   5.563   5.272
 7714SOL    HW224042   6.230   5.620   5.403
 7715SOL     OW24043   4.815   1.482   0.995
 7715SOL    HW124044   4.798   1.471   0.897
 7715SOL    HW224045   4.869   1.565   1.010
 7716SOL     OW24046   6.299   4.049   3.486
 7716SOL    HW124047   6.273   3.959   3.450
 7716SOL    HW224048   6.351   4.037   3.571
 7717SOL     OW24049   2.353   1.031   4.929
 7717SOL    HW124050   2.370   1.079   5.015
 7717SOL    HW224051   2.360   0.932   4.944
 7718SOL     OW24052   1.877   1.816   2.897
 7718SOL    HW124053   1.826   1.735   2.927
 7718SOL    HW224054   1.943   1.791   2.827
 7719SOL     OW24055   7.009   4.232   4.114
 7719SOL    HW124056   0.033   4.177   4.049
 7719SOL    HW224057   6.931   4.179   4.147
 7720SOL     OW24058   0.024   0.061   0.433
 7720SOL    HW124059   7.019   7.028   0.362
 7720SOL    HW224060   6.976   0.110   0.474
 7721SOL     OW24061   1.219   4.886   2.299
 7721SOL    HW124062   1.209   4.848   2.390
 7721SOL    HW224063   1.164   4.969   2.291
 7722SOL     OW24064   0.145   5.586   2.321
 7722SOL    HW124065   0.203   5.512   2.287
 7722SOL    HW224066   0.121   5.647   2.246
 7723SOL     OW24067   6.925   3.832   6.983
 7723SOL    HW124068   6.901   3.746   6.939
 7723SOL    HW224069   7.009   3.819   0.008
 7724SOL     OW24070   2.287   4.410   2.108
 7724SOL    HW124071   2.352   4.372   2.042
 7724SOL    HW224072   2.256   4.337   2.169
 7725SOL     OW24073   5.165   2.735   3.457
 7725SOL    HW124074   5.086   2.680   3.431
 7725SOL    HW224075   5.149   2.830   3.432
 7726SOL     OW24076   0.408   5.501   4.331
 7726SOL    HW124077   0.399   5.407   4.363
 7726SOL    HW224078   0.505   5.525   4.325
 7727SOL     OW24079   6.740   1.234   3.161
 7727SOL    HW124080   6.769   1.228   3.256
 7727SOL    HW224081   6.659   1.292   3.154
 7728SOL     OW24082   0.798   4.582   3.222
 7728SOL    HW124083   0.839   4.558   3.310
 7728SOL    HW224084   0.865   4.568   3.149
 7729SOL     OW24085   5.862   3.058   1.583
 7729SOL    HW124086   5.824   3.008   1.505
 7729SOL    HW224087   5.904   3.142   1.551
 7730SOL     OW24088   5.996   5.603   1.861
 7730SOL    HW124089   6.024   5.692   1.898
 7730SOL    HW224090   5.934   5.618   1.784
 7731SOL     OW24091   6.554   1.064   0.792
 7731SOL    HW124092   6.599   1.015   0.866
 7731SOL    HW224093   6.544   1.160   0.816
 7732SOL     OW24094   4.537   5.980   1.059
 7732SOL    HW124095   4.546   6.039   1.140
 7732SOL    HW224096   4.450   5.931   1.064
 7733SOL     OW24097   4.189   6.642   2.177
 7733SOL    HW124098   4.114   6.699   2.211
 7733SOL    HW224099   4.254   6.699   2.127
 7734SOL     OW24100   2.262   4.163   3.560
 7734SOL    HW124101   2.250   4.194   3.654
 7734SOL    HW224102   2.301   4.238   3.506
 7735SOL     OW24103   4.120   5.912   6.437
 7735SOL    HW124104   4.196   5.977   6.442
 7735SOL    HW224105   4.155   5.819   6.449
 7736SOL     OW24106   4.628   4.111   6.829
 7736SOL    HW124107   4.589   4.084   6.741
 7736SOL    HW224108   4.722   4.077   6.837
 7737SOL     OW24109   3.926   0.678   1.505
 7737SOL    HW124110   4.000   0.720   1.559
 7737SOL    HW224111   3.857   0.641   1.567
 7738SOL     OW24112   1.834   5.697   6.636
 7738SOL    HW124113   1.907   5.650   6.687
 7738SOL    HW224114   1.774   5.744   6.699
 7739SOL     OW24115   0.473   1.616   1.833
 7739SOL    HW124116   0.533   1.558   1.889
 7739SOL    HW224117   0.433   1.561   1.759
 7740SOL     OW24118   1.505   0.613   3.194
 7740SOL    HW124119   1.487   0.521   3.160
 7740SOL    HW224120   1.595   0.615   3.238
 7741SOL     OW24121   1.486   6.187   4.287
 7741SOL    HW124122   1.439   6.105   4.254
 7741SOL    HW224123   1.443   6.218   4.371
 7742SOL     OW24124   6.173   1.989   3.216
 7742SOL    HW124125   6.105   2.051   3.177
 7742SOL    HW224126   6.240   2.042   3.268
 7743SOL     OW24127   4.615   2.564   6.390
 7743SOL    HW124128   4.704   2.538   6.353
 7743SOL    HW224129   4.628   2.613   6.477
 7744SOL     OW24130   0.267   6.071   3.868
 7744SOL    HW124131   0.204   6.145   3.843
 7744SOL    HW224132   0.359   6.094   3.835
 7745SOL     OW24133   3.437   1.391   5.988
 7745SOL    HW124134   3.412   1.296   5.973
 7745SOL    HW224135   3.530   1.407   5.955
 7746SOL     OW24136   2.200   6.711   6.666
 7746SOL    HW124137   2.274   6.691   6.731
 7746SOL    HW224138   2.223   6.671   6.578
 7747SOL     OW24139   4.285   5.927   1.092
 7747SOL    HW124140   4.214   5.991   1.122
 7747SOL    HW224141   4.257   5.885   1.005
 7748SOL     OW24142   3.534   4.159   5.889
 7748SOL    HW124143   3.573   4.094   5.954
 7748SOL    HW224144   3.588   4.243   5.888
 7749SOL     OW24145   3.296   3.310   5.597
 7749SOL    HW124146   3.205   3.285   5.563
 7749SOL    HW224147   3.316   3.260   5.681
 7750SOL     OW24148   0.179   6.022   1.498
 7750SOL    HW124149   0.131   6.098   1.542
 7750SOL    HW224150   0.257   5.995   1.555
 7751SOL     OW24151   1.483   1.073   2.478
 7751SOL    HW124152   1.423   0.993   2.481
 7751SOL    HW224153   1.576   1.047   2.503
 7752SOL     OW24154   5.321   0.240   5.707
 7752SOL    HW124155   5.390   0.299   5.749
 7752SOL    HW224156   5.255   0.211   5.777
 7753SOL     OW24157   2.248   1.787   4.846
 7753SOL    HW124158   2.150   1.772   4.863
 7753SOL    HW224159   2.259   1.854   4.773
 7754SOL     OW24160   3.915   5.856   1.710
 7754SOL    HW124161   3.892   5.914   1.632
 7754SOL    HW224162   3.930   5.914   1.791
 7755SOL     OW24163   1.374   2.993   6.263
 7755SOL    HW124164   1.474   2.985   6.264
 7755SOL    HW224165   1.348   3.088   6.278
 7756SOL     OW24166   3.308   6.258   1.407
 7756SOL    HW124167   3.332   6.248   1.311
 7756SOL    HW224168   3.262   6.175   1.439
 7757SOL     OW24169   6.781   4.762   1.695
 7757SOL    HW124170   6.805   4.858   1.679
 7757SOL    HW224171   6.798   4.710   1.612
 7758SOL     OW24172   1.472   6.269   6.634
 7758SOL    HW124173   1.415   6.187   6.635
 7758SOL    HW224174   1.440   6.331   6.562
 7759SOL     OW24175   2.977   1.758   5.790
 7759SOL    HW124176   2.921   1.817   5.847
 7759SOL    HW224177   2.945   1.762   5.695
 7760SOL     OW24178   5.089   2.399   2.037
 7760SOL    HW124179   5.110   2.331   1.967
 7760SOL    HW224180   5.138   2.376   2.121
 7761SOL     OW24181   5.927   6.195   4.823
 7761SOL    HW124182   5.907   6.228   4.916
 7761SOL    HW224183   5.883   6.106   4.809
 7762SOL     OW24184   1.679   0.579   3.863
 7762SOL    HW124185   1.649   0.661   3.814
 7762SOL    HW224186   1.702   0.507   3.796
 7763SOL     OW24187   2.335   6.796   6.118
 7763SOL    HW124188   2.250   6.847   6.134
 7763SOL    HW224189   2.326   6.742   6.035
 7764SOL     OW24190   2.878   4.650   6.112
 7764SOL    HW124191   2.941   4.708   6.060
 7764SOL    HW224192   2.816   4.709   6.164
 7765SOL     OW24193   6.631   3.298   4.239
 7765SOL    HW124194   6.533   3.290   4.255
 7765SOL    HW224195   6.650   3.301   4.141
 7766SOL     OW24196   0.317   3.961   0.300
 7766SOL    HW124197   0.264   4.030   0.250
 7766SOL    HW224198   0.410   3.957   0.263
 7767SOL     OW24199   4.344   6.743   2.538
 7767SOL    HW124200   4.379   6.697   2.457
 7767SOL    HW224201   4.409   6.731   2.613
 7768SOL     OW24202   4.893   4.517   3.375
 7768SOL    HW124203   4.896   4.599   3.318
 7768SOL    HW224204   4.987   4.491   3.400
 7769SOL     OW24205   3.910   1.850   5.088
 7769SOL    HW124206   3.907   1.761   5.043
 7769SOL    HW224207   3.984   1.850   5.155
 7770SOL     OW24208   6.972   3.623   4.748
 7770SOL    HW124209   6.967   3.704   4.806
 7770SOL    HW224210   7.018   3.549   4.797
 7771SOL     OW24211   2.582   1.820   6.123
 7771SOL    HW124212   2.483   1.826   6.116
 7771SOL    HW224213   2.617   1.760   6.050
 7772SOL     OW24214   5.253   1.072   1.028
 7772SOL    HW124215   5.281   1.023   0.945
 7772SOL    HW224216   5.225   1.165   1.003
 7773SOL     OW24217   2.535   5.534   6.036
 7773SOL    HW124218   2.623   5.506   6.073
 7773SOL    HW224219   2.524   5.498   5.944
 7774SOL     OW24220   4.794   2.083   4.875
 7774SOL    HW124221   4.743   1.997   4.866
 7774SOL    HW224222   4.746   2.155   4.825
 7775SOL     OW24223   3.906   7.002   0.226
 7775SOL    HW124224   3.913   6.930   0.157
 7775SOL    HW224225   3.810   7.020   0.246
 7776SOL     OW24226   0.205   6.700   5.909
 7776SOL    HW124227   0.223   6.790   5.947
 7776SOL    HW224228   0.107   6.690   5.891
 7777SOL     OW24229   6.441   5.736   4.905
 7777SOL    HW124230   6.355   5.731   4.957
 7777SOL    HW224231   6.424   5.781   4.818
 7778SOL     OW24232   5.581   4.438   2.164
 7778SOL    HW124233   5.670   4.442   2.210
 7778SOL    HW224234   5.570   4.520   2.108
 7779SOL     OW24235   3.374   0.598   2.717
 7779SOL    HW124236   3.364   0.511   2.766
 7779SOL    HW224237   3.471   0.614   2.700
 7780SOL     OW24238   6.866   6.254   5.747
 7780SOL    HW124239   6.785   6.308   5.769
 7780SOL    HW224240   6.915   6.231   5.832
 7781SOL     OW24241   1.428   4.085   0.559
 7781SOL    HW124242   1.356   4.090   0.491
 7781SOL    HW224243   1.503   4.147   0.534
 7782SOL     OW24244   5.934   5.071   3.415
 7782SOL    HW124245   5.864   5.119   3.363
 7782SOL    HW224246   5.908   4.975   3.425
 7783SOL     OW24247   0.599   0.219   5.834
 7783SOL    HW124248   0.699   0.227   5.838
 7783SOL    HW224249   0.574   0.156   5.760
 7784SOL     OW24250   3.095   2.572   1.684
 7784SOL    HW124251   3.081   2.509   1.608
 7784SOL    HW224252   3.074   2.526   1.770
 7785SOL     OW24253   1.463   6.639   3.472
 7785SOL    HW124254   1.494   6.545   3.487
 7785SOL    HW224255   1.385   6.639   3.410
 7786SOL     OW24256   4.442   0.821   0.024
 7786SOL    HW124257   4.413   0.749   6.990
 7786SOL    HW224258   4.390   0.813   0.109
 7787SOL     OW24259   2.568   3.080   0.693
 7787SOL    HW124260   2.474   3.112   0.707
 7787SOL    HW224261   2.614   3.140   0.627
 7788SOL     OW24262   1.513   6.773   2.067
 7788SOL    HW124263   1.560   6.730   1.990
 7788SOL    HW224264   1.432   6.719   2.092
 7789SOL     OW24265   3.118   0.159   6.284
 7789SOL    HW124266   3.085   0.254   6.276
 7789SOL    HW224267   3.158   0.145   6.374
 7790SOL     OW24268   6.418   5.219   2.598
 7790SOL    HW124269   6.483   5.234   2.523
 7790SOL    HW224270   6.442   5.278   2.675
 7791SOL     OW24271   2.549   5.662   2.082
 7791SOL    HW124272   2.561   5.683   2.179
 7791SOL    HW224273   2.559   5.745   2.028
 7792SOL     OW24274   0.579   0.754   2.857
 7792SOL    HW124275   0.668   0.776   2.818
 7792SOL    HW224276   0.508   0.775   2.790
 7793SOL     OW24277   4.723   0.724   6.470
 7793SOL    HW124278   4.758   0.766   6.554
 7793SOL    HW224279   4.791   0.734   6.397
 7794SOL     OW24280   0.502   5.783   2.037
 7794SOL    HW124281   0.489   5.882   2.047
 7794SOL    HW224282   0.508   5.761   1.940
 7795SOL     OW24283   3.262   5.423   5.496
 7795SOL    HW124284   3.239   5.508   5.544
 7795SOL    HW224285   3.304   5.445   5.408
 7796SOL     OW24286   3.759   3.135   5.632
 7796SOL    HW124287   3.771   3.044   5.673
 7796SOL    HW224288   3.668   3.140   5.590
 7797SOL     OW24289   1.328   5.039   1.286
 7797SOL    HW124290   1.373   5.124   1.311
 7797SOL    HW224291   1.230   5.056   1.270
 7798SOL     OW24292   1.335   1.596   2.553
 7798SOL    HW124293   1.431   1.602   2.528
 7798SOL    HW224294   1.283   1.557   2.476
 7799SOL     OW24295   2.691   6.034   2.926
 7799SOL    HW124296   2.606   6.016   2.976
 7799SOL    HW224297   2.690   6.127   2.889
 7800SOL     OW24298   0.750   5.991   2.211
 7800SOL    HW124299   0.702   6.079   2.208
 7800SOL    HW224300   0.722   5.941   2.293
 7801SOL     OW24301   1.718   1.568   2.984
 7801SOL    HW124302   1.709   1.504   2.907
 7801SOL    HW224303   1.635   1.625   2.990
 7802SOL     OW24304   6.859   4.384   6.852
 7802SOL    HW124305   6.956   4.384   6.828
 7802SOL    HW224306   6.810   4.323   6.790
 7803SOL     OW24307   5.034   2.183   0.044
 7803SOL    HW124308   5.106   2.189   0.113
 7803SOL    HW224309   5.075   2.185   6.982
 7804SOL     OW24310   3.356   1.497   4.032
 7804SOL    HW124311   3.427   1.429   4.012
 7804SOL    HW224312   3.389   1.588   4.008
 7805SOL     OW24313   4.883   3.136   2.440
 7805SOL    HW124314   4.809   3.089   2.391
 7805SOL    HW224315   4.878   3.112   2.537
 7806SOL     OW24316   6.567   2.192   6.254
 7806SOL    HW124317   6.485   2.171   6.200
 7806SOL    HW224318   6.632   2.242   6.197
 7807SOL     OW24319   1.607   4.278   5.536
 7807SOL    HW124320   1.626   4.275   5.634
 7807SOL    HW224321   1.693   4.271   5.486
 7808SOL     OW24322   4.829   4.301   2.408
 7808SOL    HW124323   4.836   4.258   2.318
 7808SOL    HW224324   4.819   4.231   2.478
 7809SOL     OW24325   5.116   5.283   4.708
 7809SOL    HW124326   5.160   5.351   4.649
 7809SOL    HW224327   5.129   5.308   4.804
 7810SOL     OW24328   3.655   0.012   4.736
 7810SOL    HW124329   3.708   0.041   4.816
 7810SOL    HW224330   3.634   0.092   4.679
 7811SOL     OW24331   1.436   5.611   3.087
 7811SOL    HW124332   1.413   5.637   2.994
 7811SOL    HW224333   1.502   5.535   3.085
 7812SOL     OW24334   2.307   3.296   5.263
 7812SOL    HW124335   2.353   3.382   5.287
 7812SOL    HW224336   2.376   3.225   5.250
 7813SOL     OW24337   4.575   2.911   1.465
 7813SOL    HW124338   4.607   2.868   1.549
 7813SOL    HW224339   4.476   2.924   1.469
 7814SOL     OW24340   6.722   3.256   2.717
 7814SOL    HW124341   6.688   3.163   2.706
 7814SOL    HW224342   6.813   3.264   2.676
 7815SOL     OW24343   5.592   2.312   5.237
 7815SOL    HW124344   5.504   2.353   5.264
 7815SOL    HW224345   5.576   2.216   5.211
 7816SOL     OW24346   0.390   1.766   5.989
 7816SOL    HW124347   0.404   1.670   5.963
 7816SOL    HW224348   0.469   1.798   6.041
 7817SOL     OW24349   4.176   3.979   5.744
 7817SOL    HW124350   4.190   4.062   5.690
 7817SOL    HW224351   4.079   3.956   5.745
 7818SOL     OW24352   4.867   1.359   2.382
 7818SOL    HW124353   4.796   1.313   2.435
 7818SOL    HW224354   4.827   1.398   2.299
 7819SOL     OW24355   0.297   3.663   4.163
 7819SOL    HW124356   0.224   3.596   4.174
 7819SOL    HW224357   0.283   3.716   4.080
 7820SOL     OW24358   1.756   1.262   5.452
 7820SOL    HW124359   1.752   1.361   5.434
 7820SOL    HW224360   1.806   1.247   5.538
 7821SOL     OW24361   6.043   5.583   0.250
 7821SOL    HW124362   5.963   5.588   0.310
 7821SOL    HW224363   6.073   5.676   0.226
 7822SOL     OW24364   0.888   1.498   6.102
 7822SOL    HW124365   0.938   1.572   6.057
 7822SOL    HW224366   0.802   1.533   6.139
 7823SOL     OW24367   1.068   4.110   6.329
 7823SOL    HW124368   1.101   4.031   6.277
 7823SOL    HW224369   1.097   4.194   6.284
 7824SOL     OW24370   6.006   0.653   4.080
 7824SOL    HW124371   6.066   0.668   4.001
 7824SOL    HW224372   5.991   0.740   4.127
 7825SOL     OW24373   2.130   2.515   1.681
 7825SOL    HW124374   2.227   2.515   1.659
 7825SOL    HW224375   2.106   2.601   1.727
 7826SOL     OW24376   5.363   2.244   0.077
 7826SOL    HW124377   5.304   2.227   0.156
 7826SOL    HW224378   5.454   2.271   0.109
 7827SOL     OW24379   3.701   4.789   1.093
 7827SOL    HW124380   3.706   4.805   1.191
 7827SOL    HW224381   3.744   4.865   1.044
 7828SOL     OW24382   0.576   5.380   0.764
 7828SOL    HW124383   0.500   5.438   0.792
 7828SOL    HW224384   0.555   5.337   0.677
 7829SOL     OW24385   2.506   3.186   1.513
 7829SOL    HW124386   2.543   3.213   1.423
 7829SOL    HW224387   2.408   3.205   1.515
 7830SOL     OW24388   5.869   4.274   6.074
 7830SOL    HW124389   5.859   4.370   6.098
 7830SOL    HW224390   5.779   4.236   6.051
 7831SOL     OW24391   0.796   4.718   0.041
 7831SOL    HW124392   0.889   4.740   0.068
 7831SOL    HW224393   0.789   4.620   0.022
 7832SOL     OW24394   3.525   1.085   4.827
 7832SOL    HW124395   3.519   1.174   4.783
 7832SOL    HW224396   3.439   1.064   4.873
 7833SOL     OW24397   0.966   0.824   0.399
 7833SOL    HW124398   0.985   0.774   0.484
 7833SOL    HW224399   0.898   0.894   0.416
 7834SOL     OW24400   0.106   1.579   2.048
 7834SOL    HW124401   0.121   1.492   2.000
 7834SOL    HW224402   0.032   1.568   2.114
 7835SOL     OW24403   2.252   2.776   4.624
 7835SOL    HW124404   2.186   2.701   4.629
 7835SOL    HW224405   2.251   2.815   4.531
 7836SOL     OW24406   3.005   0.819   6.778
 7836SOL    HW124407   3.051   0.776   6.855
 7836SOL    HW224408   3.055   0.800   6.693
 7837SOL     OW24409   5.783   6.170   1.905
 7837SOL    HW124410   5.806   6.117   1.823
 7837SOL    HW224411   5.856   6.160   1.973
 7838SOL     OW24412   4.804   6.465   6.022
 7838SOL    HW124413   4.853   6.384   6.057
 7838SOL    HW224414   4.733   6.435   5.957
 7839SOL     OW24415   6.490   4.252   4.805
 7839SOL    HW124416   6.420   4.275   4.872
 7839SOL    HW224417   6.537   4.168   4.833
 7840SOL     OW24418   5.403   3.138   3.910
 7840SOL    HW124419   5.464   3.207   3.949
 7840SOL    HW224420   5.449   3.090   3.835
 7841SOL     OW24421   5.427   1.883   6.366
 7841SOL    HW124422   5.369   1.874   6.447
 7841SOL    HW224423   5.500   1.949   6.385
 7842SOL     OW24424   1.287   0.941   3.441
 7842SOL    HW124425   1.336   1.028   3.436
 7842SOL    HW224426   1.247   0.930   3.532
 7843SOL     OW24427   5.943   4.311   1.242
 7843SOL    HW124428   5.886   4.354   1.172
 7843SOL    HW224429   6.024   4.367   1.258
 7844SOL     OW24430   4.489   0.669   3.927
 7844SOL    HW124431   4.392   0.645   3.922
 7844SOL    HW224432   4.543   0.599   3.881
 7845SOL     OW24433   0.435   0.971   4.048
 7845SOL    HW124434   0.438   1.045   3.980
 7845SOL    HW224435   0.528   0.947   4.074
 7846SOL     OW24436   2.208   0.982   1.638
 7846SOL    HW124437   2.144   1.048   1.678
 7846SOL    HW224438   2.275   1.030   1.581
 7847SOL     OW24439   0.666   1.407   1.174
 7847SOL    HW124440   0.657   1.308   1.161
 7847SOL    HW224441   0.643   1.431   1.269
 7848SOL     OW24442   3.256   4.381   1.024
 7848SOL    HW124443   3.253   4.299   0.966
 7848SOL    HW224444   3.174   4.436   1.008
 7849SOL     OW24445   5.359   3.846   3.991
 7849SOL    HW124446   5.303   3.818   3.913
 7849SOL    HW224447   5.387   3.941   3.979
 7850SOL     OW24448   0.108   0.973   3.882
 7850SOL    HW124449   0.039   0.905   3.859
 7850SOL    HW224450   0.092   1.007   3.975
 7851SOL     OW24451   6.247   6.646   0.841
 7851SOL    HW124452   6.198   6.675   0.759
 7851SOL    HW224453   6.293   6.559   0.824
 7852SOL     OW24454   2.819   6.640   6.506
 7852SOL    HW124455   2.855   6.732   6.522
 7852SOL    HW224456   2.802   6.627   6.409
 7853SOL     OW24457   3.734   1.424   0.796
 7853SOL    HW124458   3.809   1.490   0.795
 7853SOL    HW224459   3.764   1.338   0.756
 7854SOL     OW24460   3.716   4.186   0.872
 7854SOL    HW124461   3.639   4.242   0.840
 7854SOL    HW224462   3.698   4.156   0.966
 7855SOL     OW24463   4.671   5.903   6.525
 7855SOL    HW124464   4.646   5.887   6.429
 7855SOL    HW224465   4.707   5.818   6.564
 7856SOL     OW24466   6.244   4.819   4.120
 7856SOL    HW124467   6.147   4.797   4.110
 7856SOL    HW224468   6.256   4.890   4.189
 7857SOL     OW24469   6.906   2.600   5.688
 7857SOL    HW124470   6.837   2.553   5.633
 7857SOL    HW224471   6.944   2.676   5.635
 7858SOL     OW24472   5.407   4.954   3.265
 7858SOL    HW124473   5.486   4.958   3.203
 7858SOL    HW224474   5.323   4.945   3.212
 7859SOL     OW24475   0.350   4.015   6.228
 7859SOL    HW124476   0.376   4.051   6.139
 7859SOL    HW224477   0.384   3.921   6.237
 7860SOL     OW24478   3.968   6.448   2.727
 7860SOL    HW124479   4.040   6.379   2.717
 7860SOL    HW224480   3.903   6.439   2.653
 7861SOL     OW24481   4.244   5.552   1.713
 7861SOL    HW124482   4.323   5.591   1.761
 7861SOL    HW224483   4.272   5.467   1.668
 7862SOL     OW24484   3.068   4.261   1.710
 7862SOL    HW124485   3.004   4.321   1.758
 7862SOL    HW224486   3.020   4.214   1.636
 7863SOL     OW24487   6.666   5.947   3.196
 7863SOL    HW124488   6.736   5.911   3.258
 7863SOL    HW224489   6.622   5.871   3.148
 7864SOL     OW24490   6.960   5.814   5.678
 7864SOL    HW124491   6.995   5.764   5.599
 7864SOL    HW224492   6.908   5.894   5.647
 7865SOL     OW24493   4.470   6.554   4.242
 7865SOL    HW124494   4.430   6.641   4.214
 7865SOL    HW224495   4.552   6.537   4.187
 7866SOL     OW24496   2.498   1.433   2.062
 7866SOL    HW124497   2.563   1.466   1.994
 7866SOL    HW224498   2.542   1.364   2.120
 7867SOL     OW24499   5.560   5.098   2.739
 7867SOL    HW124500   5.496   5.039   2.788
 7867SOL    HW224501   5.532   5.104   2.643
 7868SOL     OW24502   4.865   0.004   2.437
 7868SOL    HW124503   4.825   6.952   2.393
 7868SOL    HW224504   4.944   0.035   2.384
 7869SOL     OW24505   6.340   3.525   0.847
 7869SOL    HW124506   6.380   3.461   0.914
 7869SOL    HW224507   6.268   3.479   0.796
 7870SOL     OW24508   5.832   5.543   3.856
 7870SOL    HW124509   5.849   5.499   3.768
 7870SOL    HW224510   5.917   5.544   3.910
 7871SOL     OW24511   5.772   4.119   3.130
 7871SOL    HW124512   5.761   4.125   3.031
 7871SOL    HW224513   5.849   4.177   3.159
 7872SOL     OW24514   0.584   4.434   2.027
 7872SOL    HW124515   0.613   4.339   2.037
 7872SOL    HW224516   0.602   4.464   1.933
 7873SOL     OW24517   6.607   0.842   5.513
 7873SOL    HW124518   6.517   0.827   5.555
 7873SOL    HW224519   6.678   0.836   5.583
 7874SOL     OW24520   6.506   1.770   6.619
 7874SOL    HW124521   6.444   1.821   6.679
 7874SOL    HW224522   6.453   1.724   6.548
 7875SOL     OW24523   4.541   3.735   6.765
 7875SOL    HW124524   4.491   3.764   6.683
 7875SOL    HW224525   4.571   3.640   6.754
 7876SOL     OW24526   6.827   0.032   4.835
 7876SOL    HW124527   6.887   7.019   4.767
 7876SOL    HW224528   6.740   7.013   4.837
 7877SOL     OW24529   0.092   2.751   2.674
 7877SOL    HW124530   0.119   2.675   2.733
 7877SOL    HW224531   0.143   2.833   2.700
 7878SOL     OW24532   5.111   5.246   3.097
 7878SOL    HW124533   5.039   5.222   3.032
 7878SOL    HW224534   5.118   5.175   3.167
 7879SOL     OW24535   4.404   5.997   3.122
 7879SOL    HW124536   4.472   6.043   3.179
 7879SOL    HW224537   4.421   6.019   3.026
 7880SOL     OW24538   0.536   6.330   0.927
 7880SOL    HW124539   0.467   6.335   1.000
 7880SOL    HW224540   0.574   6.238   0.924
 7881SOL     OW24541   6.969   3.938   4.725
 7881SOL    HW124542   6.943   3.899   4.813
 7881SOL    HW224543   0.040   3.945   4.720
 7882SOL     OW24544   1.946   2.248   2.939
 7882SOL    HW124545   2.024   2.248   2.875
 7882SOL    HW224546   1.905   2.339   2.942
 7883SOL     OW24547   1.806   0.764   1.502
 7883SOL    HW124548   1.772   0.813   1.582
 7883SOL    HW224549   1.740   0.695   1.474
 7884SOL     OW24550   1.412   4.109   2.939
 7884SOL    HW124551   1.466   4.052   3.000
 7884SOL    HW224552   1.422   4.078   2.845
 7885SOL     OW24553   5.979   5.588   3.000
 7885SOL    HW124554   5.998   5.571   2.903
 7885SOL    HW224555   5.902   5.650   3.009
 7886SOL     OW24556   5.938   3.872   1.105
 7886SOL    HW124557   5.888   3.918   1.032
 7886SOL    HW224558   5.967   3.939   1.173
 7887SOL     OW24559   3.395   2.827   5.107
 7887SOL    HW124560   3.443   2.904   5.150
 7887SOL    HW224561   3.389   2.751   5.172
 7888SOL     OW24562   0.089   0.588   4.401
 7888SOL    HW124563   0.088   0.495   4.364
 7888SOL    HW224564   0.183   0.621   4.406
 7889SOL     OW24565   0.522   5.567   6.823
 7889SOL    HW124566   0.428   5.574   6.790
 7889SOL    HW224567   0.585   5.592   6.751
 7890SOL     OW24568   1.485   2.661   4.031
 7890SOL    HW124569   1.500   2.722   3.953
 7890SOL    HW224570   1.392   2.674   4.065
 7891SOL     OW24571   0.918   3.024   4.386
 7891SOL    HW124572   1.013   3.036   4.415
 7891SOL    HW224573   0.858   3.060   4.457
 7892SOL     OW24574   1.025   2.117   3.976
 7892SOL    HW124575   1.008   2.058   3.897
 7892SOL    HW224576   1.041   2.211   3.945
 7893SOL     OW24577   5.963   6.494   2.088
 7893SOL    HW124578   5.984   6.591   2.098
 7893SOL    HW224579   5.864   6.483   2.077
 7894SOL     OW24580   2.873   1.365   0.714
 7894SOL    HW124581   2.900   1.361   0.618
 7894SOL    HW224582   2.855   1.272   0.748
 7895SOL     OW24583   3.622   6.177   4.492
 7895SOL    HW124584   3.622   6.277   4.500
 7895SOL    HW224585   3.701   6.140   4.540
 7896SOL     OW24586   5.182   2.829   1.714
 7896SOL    HW124587   5.246   2.755   1.737
 7896SOL    HW224588   5.220   2.917   1.741
 7897SOL     OW24589   3.443   3.818   6.512
 7897SOL    HW124590   3.400   3.816   6.422
 7897SOL    HW224591   3.374   3.836   6.582
 7898SOL     OW24592   4.801   0.137   4.197
 7898SOL    HW124593   4.821   0.059   4.256
 7898SOL    HW224594   4.880   0.155   4.138
 7899SOL     OW24595   5.271   6.513   2.094
 7899SOL    HW124596   5.280   6.558   2.005
 7899SOL    HW224597   5.293   6.578   2.167
 7900SOL     OW24598   1.009   3.489   0.762
 7900SOL    HW124599   0.945   3.565   0.748
 7900SOL    HW224600   0.975   3.409   0.713
 7901SOL     OW24601   5.089   1.698   6.211
 7901SOL    HW124602   5.053   1.754   6.137
 7901SOL    HW224603   5.013   1.665   6.268
 7902SOL     OW24604   6.942   6.330   3.415
 7902SOL    HW124605   6.956   6.242   3.461
 7902SOL    HW224606   6.910   6.397   3.481
 7903SOL     OW24607   4.482   1.689   3.514
 7903SOL    HW124608   4.427   1.764   3.550
 7903SOL    HW224609   4.480   1.613   3.579
 7904SOL     OW24610   6.209   6.909   3.314
 7904SOL    HW124611   6.274   6.961   3.258
 7904SOL    HW224612   6.117   6.946   3.300
 7905SOL     OW24613   5.521   1.083   0.612
 7905SOL    HW124614   5.459   1.084   0.533
 7905SOL    HW224615   5.577   1.165   0.610
 7906SOL     OW24616   1.321   5.268   0.583
 7906SOL    HW124617   1.314   5.349   0.524
 7906SOL    HW224618   1.416   5.256   0.612
 7907SOL     OW24619   6.254   1.317   2.882
 7907SOL    HW124620   6.273   1.414   2.869
 7907SOL    HW224621   6.227   1.276   2.795
 7908SOL     OW24622   1.220   2.125   6.431
 7908SOL    HW124623   1.316   2.139   6.452
 7908SOL    HW224624   1.184   2.204   6.383
 7909SOL     OW24625   5.126   4.421   3.488
 7909SOL    HW124626   5.222   4.435   3.463
 7909SOL    HW224627   5.120   4.346   3.554
 7910SOL     OW24628   1.534   3.082   1.276
 7910SOL    HW124629   1.557   3.140   1.199
 7910SOL    HW224630   1.435   3.085   1.293
 7911SOL     OW24631   0.752   3.955   1.323
 7911SOL    HW124632   0.819   4.029   1.325
 7911SOL    HW224633   0.768   3.899   1.241
 7912SOL     OW24634   5.142   4.764   0.604
 7912SOL    HW124635   5.194   4.688   0.643
 7912SOL    HW224636   5.179   4.850   0.640
 7913SOL     OW24637   1.633   4.608   0.772
 7913SOL    HW124638   1.606   4.686   0.829
 7913SOL    HW224639   1.723   4.626   0.732
 7914SOL     OW24640   0.105   4.451   6.816
 7914SOL    HW124641   0.149   4.520   6.873
 7914SOL    HW224642   0.172   4.383   6.788
 7915SOL     OW24643   4.438   1.425   2.635
 7915SOL    HW124644   4.487   1.504   2.672
 7915SOL    HW224645   4.374   1.456   2.564
 7916SOL     OW24646   0.871   0.913   4.919
 7916SOL    HW124647   0.962   0.912   4.876
 7916SOL    HW224648   0.867   0.986   4.987
 7917SOL     OW24649   3.852   2.484   5.658
 7917SOL    HW124650   3.822   2.398   5.617
 7917SOL    HW224651   3.780   2.519   5.718
 7918SOL     OW24652   1.006   1.462   5.367
 7918SOL    HW124653   0.992   1.441   5.270
 7918SOL    HW224654   1.092   1.422   5.397
 7919SOL     OW24655   1.052   5.157   2.208
 7919SOL    HW124656   1.029   5.254   2.204
 7919SOL    HW224657   1.151   5.147   2.218
 7920SOL     OW24658   4.747   0.995   2.102
 7920SOL    HW124659   4.752   0.938   2.020
 7920SOL    HW224660   4.779   0.943   2.181
 7921SOL     OW24661   5.732   0.852   1.356
 7921SOL    HW124662   5.690   0.893   1.438
 7921SOL    HW224663   5.694   0.896   1.275
 7922SOL     OW24664   0.550   6.350   6.709
 7922SOL    HW124665   0.518   6.290   6.636
 7922SOL    HW224666   0.646   6.331   6.728
 7923SOL     OW24667   3.157   1.792   6.861
 7923SOL    HW124668   3.111   1.736   6.791
 7923SOL    HW224669   3.208   1.865   6.816
 7924SOL     OW24670   5.101   6.925   1.012
 7924SOL    HW124671   5.144   7.015   1.018
 7924SOL    HW224672   5.164   6.860   0.970
 7925SOL     OW24673   1.710   6.499   0.553
 7925SOL    HW124674   1.677   6.405   0.551
 7925SOL    HW224675   1.694   6.539   0.643
 7926SOL     OW24676   5.491   1.604   6.962
 7926SOL    HW124677   5.518   1.543   6.888
 7926SOL    HW224678   5.547   1.587   0.013
 7927SOL     OW24679   5.181   0.202   1.599
 7927SOL    HW124680   5.134   0.280   1.642
 7927SOL    HW224681   5.227   0.147   1.669
 7928SOL     OW24682   0.053   1.148   3.428
 7928SOL    HW124683   0.056   1.125   3.525
 7928SOL    HW224684   0.138   1.120   3.384
 7929SOL     OW24685   4.381   3.707   6.154
 7929SOL    HW124686   4.308   3.699   6.222
 7929SOL    HW224687   4.342   3.708   6.062
 7930SOL     OW24688   3.806   5.503   6.103
 7930SOL    HW124689   3.777   5.453   6.021
 7930SOL    HW224690   3.726   5.528   6.157
 7931SOL     OW24691   3.871   2.975   0.560
 7931SOL    HW124692   3.899   2.932   0.475
 7931SOL    HW224693   3.822   3.059   0.541
 7932SOL     OW24694   0.755   5.064   1.521
 7932SOL    HW124695   0.731   5.068   1.618
 7932SOL    HW224696   0.845   5.021   1.511
 7933SOL     OW24697   6.843   0.864   5.774
 7933SOL    HW124698   6.812   0.890   5.865
 7933SOL    HW224699   6.863   0.766   5.772
 7934SOL     OW24700   1.349   4.667   0.378
 7934SOL    HW124701   1.409   4.724   0.321
 7934SOL    HW224702   1.334   4.579   0.333
 7935SOL     OW24703   5.131   4.949   2.608
 7935SOL    HW124704   5.083   5.032   2.636
 7935SOL    HW224705   5.125   4.939   2.508
 7936SOL     OW24706   2.893   5.561   3.392
 7936SOL    HW124707   2.917   5.622   3.468
 7936SOL    HW224708   2.968   5.558   3.326
 7937SOL     OW24709   2.571   5.448   3.584
 7937SOL    HW124710   2.603   5.447   3.489
 7937SOL    HW224711   2.605   5.368   3.632
 7938SOL     OW24712   5.267   6.422   5.393
 7938SOL    HW124713   5.275   6.493   5.463
 7938SOL    HW224714   5.225   6.461   5.311
 7939SOL     OW24715   0.261   2.143   5.830
 7939SOL    HW124716   0.248   2.242   5.824
 7939SOL    HW224717   0.358   2.123   5.837
 7940SOL     OW24718   3.333   1.686   2.496
 7940SOL    HW124719   3.270   1.700   2.419
 7940SOL    HW224720   3.300   1.611   2.553
 7941SOL     OW24721   4.904   6.557   3.280
 7941SOL    HW124722   4.984   6.614   3.302
 7941SOL    HW224723   4.865   6.519   3.364
 7942SOL     OW24724   0.694   2.763   3.015
 7942SOL    HW124725   0.688   2.717   3.104
 7942SOL    HW224726   0.712   2.860   3.028
 7943SOL     OW24727   0.954   4.466   5.333
 7943SOL    HW124728   0.918   4.387   5.284
 7943SOL    HW224729   1.053   4.456   5.345
 7944SOL     OW24730   0.333   2.341   1.622
 7944SOL    HW124731   0.385   2.357   1.706
 7944SOL    HW224732   0.333   2.424   1.567
 7945SOL     OW24733   6.261   5.460   2.839
 7945SOL    HW124734   6.360   5.469   2.832
 7945SOL    HW224735   6.234   5.367   2.816
 7946SOL     OW24736   3.668   6.762   5.714
 7946SOL    HW124737   3.606   6.721   5.781
 7946SOL    HW224738   3.632   6.851   5.686
 7947SOL     OW24739   2.319   1.734   5.224
 7947SOL    HW124740   2.361   1.820   5.195
 7947SOL    HW224741   2.276   1.746   5.313
 7948SOL     OW24742   0.892   4.565   1.033
 7948SOL    HW124743   0.879   4.602   0.941
 7948SOL    HW224744   0.804   4.535   1.071
 7949SOL     OW24745   4.311   4.048   6.018
 7949SOL    HW124746   4.399   4.001   6.021
 7949SOL    HW224747   4.266   4.029   5.931
 7950SOL     OW24748   4.924   6.458   5.037
 7950SOL    HW124749   5.022   6.437   5.035
 7950SOL    HW224750   4.873   6.383   4.996
 7951SOL     OW24751   2.387   5.415   2.491
 7951SOL    HW124752   2.359   5.330   2.447
 7951SOL    HW224753   2.336   5.491   2.451
 7952SOL     OW24754   6.619   3.174   7.012
 7952SOL    HW124755   6.664   3.191   6.925
 7952SOL    HW224756   6.615   3.075   0.000
 7953SOL     OW24757   4.448   1.971   1.739
 7953SOL    HW124758   4.354   1.966   1.708
 7953SOL    HW224759   4.453   2.024   1.824
 7954SOL     OW24760   4.031   3.871   6.390
 7954SOL    HW124761   4.039   3.971   6.393
 7954SOL    HW224762   3.976   3.845   6.310
 7955SOL     OW24763   2.445   1.510   6.501
 7955SOL    HW124764   2.396   1.493   6.587
 7955SOL    HW224765   2.490   1.426   6.471
 7956SOL     OW24766   5.595   1.328   1.858
 7956SOL    HW124767   5.649   1.345   1.775
 7956SOL    HW224768   5.656   1.327   1.937
 7957SOL     OW24769   2.726   0.707   6.248
 7957SOL    HW124770   2.653   0.648   6.217
 7957SOL    HW224771   2.712   0.800   6.213
 7958SOL     OW24772   5.617   4.168   6.046
 7958SOL    HW124773   5.537   4.224   6.067
 7958SOL    HW224774   5.599   4.073   6.072
 7959SOL     OW24775   5.171   0.670   6.771
 7959SOL    HW124776   5.154   0.766   6.791
 7959SOL    HW224777   5.087   0.618   6.784
 7960SOL     OW24778   0.699   1.595   6.288
 7960SOL    HW124779   0.735   1.686   6.271
 7960SOL    HW224780   0.760   1.545   6.349
 7961SOL     OW24781   6.507   0.308   0.811
 7961SOL    HW124782   6.438   0.235   0.815
 7961SOL    HW224783   6.565   0.303   0.892
 7962SOL     OW24784   0.208   1.874   5.817
 7962SOL    HW124785   0.213   1.973   5.802
 7962SOL    HW224786   0.281   1.846   5.880
 7963SOL     OW24787   6.875   5.552   3.938
 7963SOL    HW124788   6.833   5.471   3.979
 7963SOL    HW224789   6.899   5.533   3.843
 7964SOL     OW24790   6.204   2.894   2.307
 7964SOL    HW124791   6.297   2.864   2.289
 7964SOL    HW224792   6.148   2.881   2.225
 7965SOL     OW24793   3.915   2.442   6.329
 7965SOL    HW124794   3.988   2.457   6.262
 7965SOL    HW224795   3.952   2.450   6.422
 7966SOL     OW24796   3.790   3.349   5.819
 7966SOL    HW124797   3.749   3.274   5.766
 7966SOL    HW224798   3.881   3.368   5.783
 7967SOL     OW24799   2.119   4.928   2.121
 7967SOL    HW124800   2.218   4.924   2.107
 7967SOL    HW224801   2.075   4.856   2.067
 7968SOL     OW24802   5.987   2.464   5.267
 7968SOL    HW124803   5.932   2.529   5.319
 7968SOL    HW224804   5.949   2.454   5.175
 7969SOL     OW24805   5.107   6.054   0.507
 7969SOL    HW124806   5.110   6.103   0.594
 7969SOL    HW224807   5.182   5.988   0.502
 7970SOL     OW24808   5.433   3.251   2.618
 7970SOL    HW124809   5.522   3.236   2.575
 7970SOL    HW224810   5.377   3.309   2.560
 7971SOL     OW24811   3.024   0.717   1.780
 7971SOL    HW124812   3.045   0.636   1.725
 7971SOL    HW224813   2.981   0.787   1.722
 7972SOL     OW24814   3.389   3.773   1.839
 7972SOL    HW124815   3.443   3.846   1.798
 7972SOL    HW224816   3.367   3.795   1.934
 7973SOL     OW24817   5.865   4.328   4.743
 7973SOL    HW124818   5.891   4.408   4.689
 7973SOL    HW224819   5.940   4.262   4.743
 7974SOL     OW24820   6.056   1.067   5.659
 7974SOL    HW124821   6.059   0.973   5.693
 7974SOL    HW224822   6.067   1.131   5.736
 7975SOL     OW24823   4.839   0.655   0.644
 7975SOL    HW124824   4.785   0.570   0.645
 7975SOL    HW224825   4.820   0.707   0.727
 7976SOL     OW24826   0.586   0.012   5.654
 7976SOL    HW124827   0.571   6.993   5.568
 7976SOL    HW224828   0.678   7.022   5.687
 7977SOL     OW24829   5.048   6.326   2.018
 7977SOL    HW124830   5.112   6.379   2.074
 7977SOL    HW224831   5.000   6.386   1.955
 7978SOL     OW24832   0.528   2.871   6.258
 7978SOL    HW124833   0.521   2.940   6.330
 7978SOL    HW224834   0.579   2.909   6.180
 7979SOL     OW24835   1.913   4.307   5.570
 7979SOL    HW124836   1.945   4.226   5.619
 7979SOL    HW224837   1.884   4.281   5.478
 7980SOL     OW24838   3.098   5.776   6.794
 7980SOL    HW124839   3.098   5.737   6.702
 7980SOL    HW224840   3.006   5.806   6.817
 7981SOL     OW24841   0.975   5.203   1.694
 7981SOL    HW124842   0.916   5.174   1.770
 7981SOL    HW224843   0.976   5.132   1.624
 7982SOL     OW24844   1.439   1.642   5.860
 7982SOL    HW124845   1.432   1.735   5.897
 7982SOL    HW224846   1.454   1.647   5.761
 7983SOL     OW24847   6.312   1.640   1.509
 7983SOL    HW124848   6.225   1.688   1.501
 7983SOL    HW224849   6.318   1.596   1.598
 7984SOL     OW24850   0.400   1.496   0.581
 7984SOL    HW124851   0.354   1.409   0.564
 7984SOL    HW224852   0.490   1.495   0.537
 7985SOL     OW24853   2.360   2.280   4.500
 7985SOL    HW124854   2.390   2.375   4.506
 7985SOL    HW224855   2.422   2.229   4.440
 7986SOL     OW24856   3.479   0.951   5.689
 7986SOL    HW124857   3.435   1.027   5.737
 7986SOL    HW224858   3.415   0.913   5.621
 7987SOL     OW24859   2.111   3.220   0.559
 7987SOL    HW124860   2.018   3.231   0.594
 7987SOL    HW224861   2.154   3.310   0.550
 7988SOL     OW24862   1.237   0.993   2.212
 7988SOL    HW124863   1.259   1.030   2.303
 7988SOL    HW224864   1.138   0.987   2.202
 7989SOL     OW24865   2.441   4.095   0.414
 7989SOL    HW124866   2.442   4.190   0.446
 7989SOL    HW224867   2.416   4.094   0.317
 7990SOL     OW24868   2.637   5.219   4.460
 7990SOL    HW124869   2.567   5.218   4.531
 7990SOL    HW224870   2.601   5.176   4.377
 7991SOL     OW24871   5.715   1.206   4.382
 7991SOL    HW124872   5.698   1.282   4.320
 7991SOL    HW224873   5.706   1.120   4.332
 7992SOL     OW24874   1.604   0.240   0.246
 7992SOL    HW124875   1.620   0.337   0.227
 7992SOL    HW224876   1.673   0.207   0.311
 7993SOL     OW24877   0.419   0.176   1.372
 7993SOL    HW124878   0.455   0.251   1.317
 7993SOL    HW224879   0.439   0.193   1.469
 7994SOL     OW24880   5.445   0.656   2.864
 7994SOL    HW124881   5.455   0.725   2.936
 7994SOL    HW224882   5.350   0.623   2.861
 7995SOL     OW24883   5.839   5.219   3.219
 7995SOL    HW124884   5.930   5.242   3.255
 7995SOL    HW224885   5.834   5.246   3.123
 7996SOL     OW24886   4.085   6.283   4.322
 7996SOL    HW124887   4.027   6.350   4.369
 7996SOL    HW224888   4.173   6.275   4.368
 7997SOL     OW24889   0.461   1.797   0.427
 7997SOL    HW124890   0.492   1.708   0.462
 7997SOL    HW224891   0.498   1.812   0.336
 7998SOL     OW24892   3.103   6.617   6.869
 7998SOL    HW124893   3.117   6.546   6.939
 7998SOL    HW224894   3.177   6.684   6.873
 7999SOL     OW24895   1.302   1.396   5.915
 7999SOL    HW124896   1.353   1.479   5.895
 7999SOL    HW224897   1.364   1.317   5.912
 8000SOL     OW24898   5.906   0.075   6.189
 8000SOL    HW124899   5.958   0.001   6.229
 8000SOL    HW224900   5.816   0.041   6.159
 8001SOL     OW24901   4.346   5.936   1.379
 8001SOL    HW124902   4.399   5.919   1.463
 8001SOL    HW224903   4.316   5.849   1.341
 8002SOL     OW24904   0.712   1.002   5.521
 8002SOL    HW124905   0.788   0.938   5.530
 8002SOL    HW224906   0.657   1.000   5.605
 8003SOL     OW24907   2.127   5.766   1.376
 8003SOL    HW124908   2.106   5.744   1.281
 8003SOL    HW224909   2.106   5.688   1.434
 8004SOL     OW24910   1.957   3.266   3.609
 8004SOL    HW124911   1.881   3.302   3.663
 8004SOL    HW224912   1.921   3.224   3.526
 8005SOL     OW24913   2.865   0.400   3.511
 8005SOL    HW124914   2.866   0.499   3.526
 8005SOL    HW224915   2.791   0.378   3.447
 8006SOL     OW24916   2.560   5.784   5.448
 8006SOL    HW124917   2.555   5.685   5.435
 8006SOL    HW224918   2.528   5.807   5.540
 8007SOL     OW24919   5.933   2.424   6.316
 8007SOL    HW124920   6.031   2.412   6.304
 8007SOL    HW224921   5.884   2.354   6.263
 8008SOL     OW24922   3.445   5.514   6.795
 8008SOL    HW124923   3.519   5.455   6.765
 8008SOL    HW224924   3.479   5.577   6.865
 8009SOL     OW24925   4.355   1.123   0.253
 8009SOL    HW124926   4.408   1.195   0.298
 8009SOL    HW224927   4.293   1.164   0.186
 8010SOL     OW24928   3.126   2.148   5.272
 8010SOL    HW124929   3.137   2.214   5.198
 8010SOL    HW224930   3.212   2.143   5.324
 8011SOL     OW24931   3.683   1.966   1.565
 8011SOL    HW124932   3.623   2.029   1.614
 8011SOL    HW224933   3.757   2.017   1.522
 8012SOL     OW24934   1.310   2.881   6.020
 8012SOL    HW124935   1.272   2.944   5.951
 8012SOL    HW224936   1.354   2.934   6.092
 8013SOL     OW24937   1.480   3.452   3.613
 8013SOL    HW124938   1.450   3.379   3.675
 8013SOL    HW224939   1.417   3.529   3.620
 8014SOL     OW24940   1.903   0.546   4.438
 8014SOL    HW124941   1.893   0.590   4.527
 8014SOL    HW224942   1.815   0.543   4.391
 8015SOL     OW24943   2.086   0.234   5.733
 8015SOL    HW124944   2.112   0.283   5.817
 8015SOL    HW224945   2.120   0.283   5.654
 8016SOL     OW24946   4.167   1.212   5.104
 8016SOL    HW124947   4.088   1.263   5.071
 8016SOL    HW224948   4.137   1.144   5.171
 8017SOL     OW24949   6.521   0.150   6.850
 8017SOL    HW124950   6.529   0.095   6.767
 8017SOL    HW224951   6.498   0.090   6.927
 8018SOL     OW24952   3.532   2.207   6.730
 8018SOL    HW124953   3.566   2.279   6.669
 8018SOL    HW224954   3.528   2.120   6.681
 8019SOL     OW24955   1.868   4.074   1.306
 8019SOL    HW124956   1.830   4.081   1.214
 8019SOL    HW224957   1.957   4.121   1.309
 8020SOL     OW24958   6.472   0.666   6.279
 8020SOL    HW124959   6.452   0.704   6.370
 8020SOL    HW224960   6.571   0.663   6.265
 8021SOL     OW24961   1.738   3.078   1.456
 8021SOL    HW124962   1.659   3.088   1.397
 8021SOL    HW224963   1.712   3.029   1.539
 8022SOL     OW24964   5.812   0.375   1.439
 8022SOL    HW124965   5.717   0.348   1.418
 8022SOL    HW224966   5.845   0.323   1.517
 8023SOL     OW24967   5.833   4.802   2.499
 8023SOL    HW124968   5.825   4.749   2.415
 8023SOL    HW224969   5.927   4.797   2.533
 8024SOL     OW24970   1.360   5.644   6.001
 8024SOL    HW124971   1.333   5.733   5.963
 8024SOL    HW224972   1.416   5.596   5.934
 8025SOL     OW24973   1.871   5.308   0.853
 8025SOL    HW124974   1.900   5.326   0.947
 8025SOL    HW224975   1.865   5.394   0.803
 8026SOL     OW24976   6.894   4.278   0.954
 8026SOL    HW124977   6.985   4.254   0.989
 8026SOL    HW224978   6.840   4.320   1.027
 8027SOL     OW24979   3.325   6.327   5.564
 8027SOL    HW124980   3.410   6.319   5.511
 8027SOL    HW224981   3.303   6.239   5.605
 8028SOL     OW24982   3.070   5.393   4.963
 8028SOL    HW124983   3.083   5.317   5.027
 8028SOL    HW224984   3.004   5.458   5.002
 8029SOL     OW24985   4.929   2.567   2.207
 8029SOL    HW124986   4.996   2.544   2.136
 8029SOL    HW224987   4.842   2.590   2.164
 8030SOL     OW24988   6.249   5.367   0.523
 8030SOL    HW124989   6.150   5.384   0.520
 8030SOL    HW224990   6.287   5.373   0.431
 8031SOL     OW24991   6.608   6.307   2.766
 8031SOL    HW124992   6.577   6.227   2.818
 8031SOL    HW224993   6.535   6.375   2.763
 8032SOL     OW24994   5.267   3.870   1.780
 8032SOL    HW124995   5.325   3.951   1.778
 8032SOL    HW224996   5.287   3.813   1.700
 8033SOL     OW24997   4.852   3.323   0.402
 8033SOL    HW124998   4.875   3.409   0.358
 8033SOL    HW224999   4.771   3.336   0.461
 8034SOL     OW25000   5.741   7.007   5.856
 8034SOL    HW125001   5.805   6.944   5.900
 8034SOL    HW225002   5.748   0.068   5.899
 8035SOL     OW25003   5.067   1.718   1.953
 8035SOL    HW125004   5.101   1.626   1.974
 8035SOL    HW225005   4.969   1.721   1.969
 8036SOL     OW25006   0.015   3.740   3.687
 8036SOL    HW125007   6.964   3.718   3.632
 8036SOL    HW225008   7.025   3.722   3.783
 8037SOL     OW25009   1.970   3.587   6.968
 8037SOL    HW125010   2.059   3.555   7.001
 8037SOL    HW225011   1.914   3.616   0.017
 8038SOL     OW25012   4.662   6.510   2.430
 8038SOL    HW125013   4.587   6.544   2.373
 8038SOL    HW225014   4.729   6.464   2.372
 8039SOL     OW25015   0.047   2.067   4.755
 8039SOL    HW125016   0.099   2.060   4.840
 8039SOL    HW225017   6.998   2.005   4.759
 8040SOL     OW25018   1.998   6.412   0.000
 8040SOL    HW125019   1.926   6.378   0.061
 8040SOL    HW225020   2.078   6.353   0.008
 8041SOL     OW25021   3.317   0.936   2.987
 8041SOL    HW125022   3.375   0.874   3.040
 8041SOL    HW225023   3.235   0.887   2.957
 8042SOL     OW25024   4.561   4.389   5.533
 8042SOL    HW125025   4.535   4.324   5.461
 8042SOL    HW225026   4.527   4.356   5.621
 8043SOL     OW25027   3.676   4.233   0.212
 8043SOL    HW125028   3.748   4.211   0.146
 8043SOL    HW225029   3.706   4.308   0.270
 8044SOL     OW25030   3.497   3.566   0.494
 8044SOL    HW125031   3.487   3.491   0.560
 8044SOL    HW225032   3.593   3.577   0.470
 8045SOL     OW25033   6.724   2.348   2.790
 8045SOL    HW125034   6.754   2.263   2.833
 8045SOL    HW225035   6.638   2.378   2.832
 8046SOL     OW25036   0.320   4.545   2.072
 8046SOL    HW125037   0.240   4.502   2.113
 8046SOL    HW225038   0.398   4.483   2.076
 8047SOL     OW25039   3.855   6.424   6.581
 8047SOL    HW125040   3.837   6.358   6.654
 8047SOL    HW225041   3.845   6.379   6.493
 8048SOL     OW25042   3.282   2.429   6.668
 8048SOL    HW125043   3.214   2.446   6.597
 8048SOL    HW225044   3.237   2.432   6.758
 8049SOL     OW25045   0.581   6.614   6.791
 8049SOL    HW125046   0.562   6.522   6.758
 8049SOL    HW225047   0.617   6.610   6.884
 8050SOL     OW25048   2.157   3.261   4.310
 8050SOL    HW125049   2.110   3.349   4.316
 8050SOL    HW225050   2.207   3.244   4.395
 8051SOL     OW25051   4.486   6.197   4.668
 8051SOL    HW125052   4.469   6.289   4.704
 8051SOL    HW225053   4.562   6.200   4.603
 8052SOL     OW25054   2.471   2.110   1.558
 8052SOL    HW125055   2.545   2.044   1.542
 8052SOL    HW225056   2.466   2.132   1.655
 8053SOL     OW25057   3.080   2.887   5.219
 8053SOL    HW125058   3.137   2.805   5.226
 8053SOL    HW225059   3.073   2.915   5.123
 8054SOL     OW25060   6.455   4.273   4.430
 8054SOL    HW125061   6.489   4.193   4.479
 8054SOL    HW225062   6.469   4.355   4.486
 8055SOL     OW25063   0.201   0.830   5.669
 8055SOL    HW125064   0.260   0.909   5.690
 8055SOL    HW225065   0.130   0.858   5.604
 8056SOL     OW25066   3.164   0.274   4.349
 8056SOL    HW125067   3.109   0.243   4.272
 8056SOL    HW225068   3.243   0.326   4.315
 8057SOL     OW25069   2.643   2.282   2.871
 8057SOL    HW125070   2.735   2.298   2.835
 8057SOL    HW225071   2.632   2.332   2.957
 8058SOL     OW25072   3.370   6.229   2.969
 8058SOL    HW125073   3.283   6.191   3.001
 8058SOL    HW225074   3.406   6.293   3.037
 8059SOL     OW25075   3.026   0.576   5.629
 8059SOL    HW125076   3.071   0.661   5.657
 8059SOL    HW225077   2.934   0.597   5.594
 8060SOL     OW25078   0.325   2.011   6.169
 8060SOL    HW125079   0.227   2.010   6.190
 8060SOL    HW225080   0.354   2.105   6.150
 8061SOL     OW25081   0.686   0.573   2.516
 8061SOL    HW125082   0.615   0.504   2.499
 8061SOL    HW225083   0.774   0.527   2.531
 8062SOL     OW25084   4.163   5.056   4.892
 8062SOL    HW125085   4.088   5.115   4.860
 8062SOL    HW225086   4.156   4.967   4.848
 8063SOL     OW25087   2.857   1.027   3.423
 8063SOL    HW125088   2.838   1.020   3.325
 8063SOL    HW225089   2.791   1.090   3.466
 8064SOL     OW25090   6.265   2.674   0.250
 8064SOL    HW125091   6.206   2.731   0.193
 8064SOL    HW225092   6.209   2.609   0.301
 8065SOL     OW25093   2.980   6.502   4.154
 8065SOL    HW125094   2.931   6.453   4.226
 8065SOL    HW225095   3.021   6.585   4.191
 8066SOL     OW25096   6.393   0.378   4.986
 8066SOL    HW125097   6.453   0.457   4.976
 8066SOL    HW225098   6.449   0.295   4.994
 8067SOL     OW25099   4.811   2.474   3.481
 8067SOL    HW125100   4.849   2.434   3.565
 8067SOL    HW225101   4.712   2.461   3.479
 8068SOL     OW25102   0.591   4.491   1.143
 8068SOL    HW125103   0.520   4.505   1.074
 8068SOL    HW225104   0.595   4.395   1.168
 8069SOL     OW25105   2.028   4.748   1.939
 8069SOL    HW125106   1.951   4.736   1.877
 8069SOL    HW225107   2.107   4.699   1.904
 8070SOL     OW25108   4.009   2.847   0.358
 8070SOL    HW125109   3.961   2.883   0.277
 8070SOL    HW225110   4.099   2.891   0.366
 8071SOL     OW25111   3.155   6.297   5.084
 8071SOL    HW125112   3.055   6.305   5.081
 8071SOL    HW225113   3.180   6.205   5.114
 8072SOL     OW25114   3.114   2.169   0.732
 8072SOL    HW125115   3.050   2.095   0.754
 8072SOL    HW225116   3.144   2.160   0.637
 8073SOL     OW25117   2.790   5.664   5.303
 8073SOL    HW125118   2.728   5.711   5.240
 8073SOL    HW225119   2.751   5.576   5.329
 8074SOL     OW25120   2.663   1.141   1.484
 8074SOL    HW125121   2.663   1.100   1.392
 8074SOL    HW225122   2.717   1.226   1.482
 8075SOL     OW25123   0.250   0.678   0.260
 8075SOL    HW125124   0.240   0.603   0.195
 8075SOL    HW225125   0.278   0.641   0.349
 8076SOL     OW25126   6.188   0.258   5.137
 8076SOL    HW125127   6.267   0.308   5.102
 8076SOL    HW225128   6.113   0.322   5.154
 8077SOL     OW25129   3.730   6.234   2.476
 8077SOL    HW125130   3.699   6.176   2.401
 8077SOL    HW225131   3.723   6.330   2.449
 8078SOL     OW25132   0.823   1.911   1.654
 8078SOL    HW125133   0.865   1.888   1.567
 8078SOL    HW225134   0.725   1.892   1.650
 8079SOL     OW25135   6.758   1.606   3.728
 8079SOL    HW125136   6.852   1.612   3.764
 8079SOL    HW225137   6.716   1.521   3.761
 8080SOL     OW25138   1.029   2.412   2.555
 8080SOL    HW125139   1.011   2.510   2.557
 8080SOL    HW225140   1.109   2.392   2.611
 8081SOL     OW25141   6.275   5.686   6.057
 8081SOL    HW125142   6.344   5.643   6.114
 8081SOL    HW225143   6.289   5.659   5.961
 8082SOL     OW25144   3.631   1.021   2.631
 8082SOL    HW125145   3.545   0.969   2.628
 8082SOL    HW225146   3.621   1.104   2.576
 8083SOL     OW25147   5.353   2.506   3.938
 8083SOL    HW125148   5.260   2.533   3.911
 8083SOL    HW225149   5.388   2.571   4.005
 8084SOL     OW25150   2.587   0.565   0.050
 8084SOL    HW125151   2.658   0.605   7.021
 8084SOL    HW225152   2.536   0.497   7.027
 8085SOL     OW25153   6.070   5.864   2.598
 8085SOL    HW125154   6.059   5.809   2.516
 8085SOL    HW225155   6.157   5.841   2.641
 8086SOL     OW25156   0.347   0.831   1.204
 8086SOL    HW125157   0.444   0.851   1.210
 8086SOL    HW225158   0.331   0.768   1.127
 8087SOL     OW25159   1.841   1.037   6.800
 8087SOL    HW125160   1.753   1.084   6.802
 8087SOL    HW225161   1.915   1.105   6.805
 8088SOL     OW25162   5.694   0.669   0.162
 8088SOL    HW125163   5.758   0.676   0.085
 8088SOL    HW225164   5.704   0.579   0.205
 8089SOL     OW25165   5.763   3.188   6.922
 8089SOL    HW125166   5.718   3.216   6.837
 8089SOL    HW225167   5.812   3.102   6.906
 8090SOL     OW25168   3.512   1.071   6.443
 8090SOL    HW125169   3.566   1.155   6.457
 8090SOL    HW225170   3.573   0.996   6.417
 8091SOL     OW25171   1.231   3.865   5.185
 8091SOL    HW125172   1.147   3.856   5.238
 8091SOL    HW225173   1.300   3.912   5.241
 8092SOL     OW25174   4.674   2.139   5.371
 8092SOL    HW125175   4.646   2.060   5.425
 8092SOL    HW225176   4.718   2.108   5.287
 8093SOL     OW25177   2.809   5.093   3.294
 8093SOL    HW125178   2.849   5.018   3.241
 8093SOL    HW225179   2.769   5.160   3.231
 8094SOL     OW25180   0.468   2.877   4.744
 8094SOL    HW125181   0.509   2.960   4.782
 8094SOL    HW225182   0.388   2.852   4.798
 8095SOL     OW25183   0.755   3.974   5.118
 8095SOL    HW125184   0.841   3.994   5.071
 8095SOL    HW225185   0.767   3.989   5.216
 8096SOL     OW25186   2.422   0.853   2.271
 8096SOL    HW125187   2.459   0.822   2.359
 8096SOL    HW225188   2.403   0.774   2.213
 8097SOL     OW25189   4.276   6.749   4.418
 8097SOL    HW125190   4.326   6.835   4.425
 8097SOL    HW225191   4.324   6.678   4.471
 8098SOL     OW25192   2.471   6.260   3.868
 8098SOL    HW125193   2.482   6.326   3.794
 8098SOL    HW225194   2.561   6.236   3.904
 8099SOL     OW25195   4.783   6.455   4.653
 8099SOL    HW125196   4.764   6.551   4.632
 8099SOL    HW225197   4.819   6.409   4.572
 8100SOL     OW25198   6.743   1.349   6.884
 8100SOL    HW125199   6.695   1.419   6.936
 8100SOL    HW225200   6.772   1.386   6.796
 8101SOL     OW25201   1.490   5.738   0.786
 8101SOL    HW125202   1.422   5.664   0.779
 8101SOL    HW225203   1.513   5.771   0.694
 8102SOL     OW25204   0.879   3.924   3.044
 8102SOL    HW125205   0.949   3.869   2.998
 8102SOL    HW225206   0.788   3.895   3.015
 8103SOL     OW25207   3.957   0.176   1.716
 8103SOL    HW125208   4.015   0.122   1.778
 8103SOL    HW225209   4.007   0.257   1.686
 8104SOL     OW25210   1.520   0.565   6.321
 8104SOL    HW125211   1.576   0.483   6.333
 8104SOL    HW225212   1.554   0.638   6.380
 8105SOL     OW25213   6.674   2.634   2.576
 8105SOL    HW125214   6.600   2.677   2.524
 8105SOL    HW225215   6.675   2.536   2.558
 8106SOL     OW25216   2.691   6.259   3.345
 8106SOL    HW125217   2.758   6.202   3.299
 8106SOL    HW225218   2.599   6.239   3.311
 8107SOL     OW25219   0.990   5.652   4.082
 8107SOL    HW125220   1.038   5.721   4.028
 8107SOL    HW225221   1.017   5.561   4.050
 8108SOL     OW25222   6.834   2.579   6.401
 8108SOL    HW125223   6.799   2.671   6.393
 8108SOL    HW225224   6.761   2.513   6.382
 8109SOL     OW25225   0.285   3.253   6.387
 8109SOL    HW125226   0.230   3.190   6.332
 8109SOL    HW225227   0.229   3.287   6.463
 8110SOL     OW25228   3.938   5.237   2.096
 8110SOL    HW125229   3.898   5.310   2.152
 8110SOL    HW225230   3.908   5.148   2.131
 8111SOL     OW25231   4.905   1.173   4.590
 8111SOL    HW125232   4.972   1.154   4.519
 8111SOL    HW225233   4.909   1.270   4.615
 8112SOL     OW25234   2.624   2.489   4.327
 8112SOL    HW125235   2.580   2.535   4.250
 8112SOL    HW225236   2.579   2.517   4.412
 8113SOL     OW25237   0.172   3.337   0.502
 8113SOL    HW125238   0.122   3.262   0.546
 8113SOL    HW225239   0.176   3.321   0.403
 8114SOL     OW25240   1.908   3.607   2.490
 8114SOL    HW125241   1.993   3.625   2.538
 8114SOL    HW225242   1.841   3.677   2.513
 8115SOL     OW25243   3.240   6.593   6.278
 8115SOL    HW125244   3.242   6.686   6.315
 8115SOL    HW225245   3.262   6.595   6.181
 8116SOL     OW25246   4.032   4.453   0.188
 8116SOL    HW125247   4.042   4.409   0.099
 8116SOL    HW225248   3.935   4.454   0.214
 8117SOL     OW25249   2.099   0.279   3.383
 8117SOL    HW125250   2.177   0.237   3.430
 8117SOL    HW225251   2.103   0.256   3.286
 8118SOL     OW25252   5.476   4.006   5.743
 8118SOL    HW125253   5.460   4.097   5.703
 8118SOL    HW225254   5.401   3.985   5.807
 8119SOL     OW25255   5.506   6.668   6.507
 8119SOL    HW125256   5.411   6.684   6.534
 8119SOL    HW225257   5.512   6.663   6.407
 8120SOL     OW25258   3.094   4.632   0.962
 8120SOL    HW125259   3.053   4.705   0.908
 8120SOL    HW225260   3.163   4.671   1.023
 8121SOL     OW25261   0.622   4.695   1.307
 8121SOL    HW125262   0.598   4.621   1.243
 8121SOL    HW225263   0.721   4.696   1.321
 8122SOL     OW25264   0.126   4.978   2.831
 8122SOL    HW125265   0.161   4.980   2.737
 8122SOL    HW225266   0.156   5.059   2.880
 8123SOL     OW25267   0.184   2.126   0.073
 8123SOL    HW125268   0.115   2.172   0.016
 8123SOL    HW225269   0.240   2.195   0.118
 8124SOL     OW25270   5.302   5.925   2.488
 8124SOL    HW125271   5.394   5.928   2.450
 8124SOL    HW225272   5.243   5.988   2.437
 8125SOL     OW25273   1.556   1.088   3.295
 8125SOL    HW125274   1.478   1.105   3.235
 8125SOL    HW225275   1.623   1.161   3.282
 8126SOL     OW25276   5.539   5.345   3.289
 8126SOL    HW125277   5.508   5.290   3.366
 8126SOL    HW225278   5.639   5.344   3.285
 8127SOL     OW25279   2.982   3.492   6.349
 8127SOL    HW125280   2.946   3.454   6.263
 8127SOL    HW225281   2.987   3.420   6.418
 8128SOL     OW25282   2.963   2.196   2.286
 8128SOL    HW125283   2.880   2.210   2.340
 8128SOL    HW225284   2.953   2.241   2.198
 8129SOL     OW25285   3.481   1.592   6.390
 8129SOL    HW125286   3.433   1.679   6.404
 8129SOL    HW225287   3.425   1.533   6.332
 8130SOL     OW25288   0.773   5.260   6.736
 8130SOL    HW125289   0.807   5.193   6.801
 8130SOL    HW225290   0.770   5.350   6.779
 8131SOL     OW25291   2.903   1.736   1.779
 8131SOL    HW125292   2.893   1.773   1.871
 8131SOL    HW225293   2.949   1.803   1.721
 8132SOL     OW25294   5.745   6.938   5.144
 8132SOL    HW125295   5.704   6.912   5.056
 8132SOL    HW225296   5.729   0.006   5.161
 8133SOL     OW25297   3.035   5.117   2.465
 8133SOL    HW125298   3.008   5.021   2.452
 8133SOL    HW225299   3.112   5.138   2.404
 8134SOL     OW25300   0.060   1.830   6.646
 8134SOL    HW125301   0.135   1.830   6.579
 8134SOL    HW225302   0.085   1.772   6.724
 8135SOL     OW25303   2.530   0.771   1.695
 8135SOL    HW125304   2.562   0.689   1.743
 8135SOL    HW225305   2.450   0.809   1.742
 8136SOL     OW25306   4.704   5.333   2.588
 8136SOL    HW125307   4.721   5.416   2.535
 8136SOL    HW225308   4.778   5.268   2.574
 8137SOL     OW25309   3.257   0.794   4.945
 8137SOL    HW125310   3.321   0.775   4.871
 8137SOL    HW225311   3.175   0.838   4.907
 8138SOL     OW25312   5.289   1.412   1.828
 8138SOL    HW125313   5.238   1.427   1.913
 8138SOL    HW225314   5.386   1.406   1.849
 8139SOL     OW25315   0.505   0.761   1.809
 8139SOL    HW125316   0.407   0.776   1.807
 8139SOL    HW225317   0.547   0.801   1.728
 8140SOL     OW25318   5.883   0.506   5.891
 8140SOL    HW125319   5.893   0.410   5.915
 8140SOL    HW225320   5.939   0.527   5.811
 8141SOL     OW25321   4.152   5.296   5.774
 8141SOL    HW125322   4.090   5.226   5.737
 8141SOL    HW225323   4.106   5.346   5.847
 8142SOL     OW25324   6.657   5.536   0.449
 8142SOL    HW125325   6.733   5.533   0.385
 8142SOL    HW225326   6.678   5.598   0.525
 8143SOL     OW25327   6.334   4.508   0.473
 8143SOL    HW125328   6.304   4.424   0.428
 8143SOL    HW225329   6.284   4.520   0.559
 8144SOL     OW25330   5.666   6.005   6.920
 8144SOL    HW125331   5.661   6.092   6.870
 8144SOL    HW225332   5.747   6.004   6.977
 8145SOL     OW25333   5.018   5.925   1.524
 8145SOL    HW125334   5.050   5.945   1.617
 8145SOL    HW225335   5.058   5.839   1.493
 8146SOL     OW25336   3.794   1.047   4.980
 8146SOL    HW125337   3.774   1.011   5.071
 8146SOL    HW225338   3.709   1.060   4.929
 8147SOL     OW25339   5.722   2.865   2.896
 8147SOL    HW125340   5.799   2.811   2.861
 8147SOL    HW225341   5.725   2.865   2.996
 8148SOL     OW25342   5.469   4.487   1.682
 8148SOL    HW125343   5.528   4.413   1.714
 8148SOL    HW225344   5.419   4.525   1.760
 8149SOL     OW25345   2.624   6.114   2.040
 8149SOL    HW125346   2.603   6.210   2.062
 8149SOL    HW225347   2.722   6.099   2.048
 8150SOL     OW25348   0.174   4.988   6.965
 8150SOL    HW125349   0.174   4.971   6.866
 8150SOL    HW225350   0.245   5.055   6.987
 8151SOL     OW25351   6.514   2.296   1.943
 8151SOL    HW125352   6.496   2.333   2.034
 8151SOL    HW225353   6.606   2.257   1.940
 8152SOL     OW25354   0.666   2.696   2.721
 8152SOL    HW125355   0.698   2.601   2.711
 8152SOL    HW225356   0.693   2.730   2.810
 8153SOL     OW25357   3.697   0.490   3.000
 8153SOL    HW125358   3.597   0.486   3.002
 8153SOL    HW225359   3.733   0.398   2.985
 8154SOL     OW25360   2.787   5.850   3.838
 8154SOL    HW125361   2.766   5.778   3.771
 8154SOL    HW225362   2.787   5.939   3.792
 8155SOL     OW25363   2.539   3.394   1.688
 8155SOL    HW125364   2.482   3.393   1.770
 8155SOL    HW225365   2.536   3.305   1.644
 8156SOL     OW25366   5.362   0.000   6.018
 8156SOL    HW125367   5.315   6.988   5.940
 8156SOL    HW225368   5.332   6.984   6.102
 8157SOL     OW25369   6.037   5.505   6.301
 8157SOL    HW125370   6.122   5.454   6.318
 8157SOL    HW225371   6.058   5.602   6.292
 8158SOL     OW25372   0.531   5.478   1.072
 8158SOL    HW125373   0.569   5.386   1.066
 8158SOL    HW225374   0.587   5.532   1.136
 8159SOL     OW25375   2.704   6.327   2.763
 8159SOL    HW125376   2.764   6.395   2.721
 8159SOL    HW225377   2.609   6.350   2.744
 8160SOL     OW25378   4.429   1.514   1.628
 8160SOL    HW125379   4.357   1.497   1.695
 8160SOL    HW225380   4.403   1.476   1.539
 8161SOL     OW25381   5.215   1.357   0.544
 8161SOL    HW125382   5.285   1.416   0.502
 8161SOL    HW225383   5.151   1.413   0.596
 8162SOL     OW25384   6.427   0.142   6.323
 8162SOL    HW125385   6.520   0.122   6.290
 8162SOL    HW225386   6.431   0.222   6.383
 8163SOL     OW25387   2.265   4.050   5.582
 8163SOL    HW125388   2.350   4.100   5.600
 8163SOL    HW225389   2.283   3.951   5.587
 8164SOL     OW25390   6.039   3.891   0.658
 8164SOL    HW125391   5.942   3.869   0.653
 8164SOL    HW225392   6.086   3.824   0.714
 8165SOL     OW25393   1.061   4.502   0.047
 8165SOL    HW125394   1.147   4.534   0.088
 8165SOL    HW225395   1.066   4.513   6.977
 8166SOL     OW25396   2.285   1.063   2.339
 8166SOL    HW125397   2.331   1.127   2.400
 8166SOL    HW225398   2.351   0.998   2.302
 8167SOL     OW25399   5.552   1.233   3.978
 8167SOL    HW125400   5.609   1.256   4.057
 8167SOL    HW225401   5.523   1.317   3.933
 8168SOL     OW25402   3.033   0.941   2.646
 8168SOL    HW125403   2.943   0.932   2.605
 8168SOL    HW225404   3.103   0.911   2.581
 8169SOL     OW25405   5.311   3.116   1.637
 8169SOL    HW125406   5.288   3.101   1.733
 8169SOL    HW225407   5.411   3.114   1.627
 8170SOL     OW25408   1.482   6.002   3.179
 8170SOL    HW125409   1.421   5.924   3.192
 8170SOL    HW225410   1.458   6.049   3.095
 8171SOL     OW25411   1.084   1.874   6.337
 8171SOL    HW125412   1.165   1.825   6.305
 8171SOL    HW225413   1.110   1.961   6.378
 8172SOL     OW25414   0.712   0.639   1.400
 8172SOL    HW125415   0.777   0.650   1.475
 8172SOL    HW225416   0.710   0.543   1.372
 8173SOL     OW25417   3.642   1.780   0.567
 8173SOL    HW125418   3.612   1.684   0.562
 8173SOL    HW225419   3.670   1.801   0.661
 8174SOL     OW25420   4.945   1.653   1.370
 8174SOL    HW125421   4.932   1.597   1.452
 8174SOL    HW225422   4.963   1.748   1.397
 8175SOL     OW25423   0.344   2.705   6.124
 8175SOL    HW125424   0.394   2.760   6.190
 8175SOL    HW225425   0.391   2.707   6.036
 8176SOL     OW25426   3.010   5.963   1.837
 8176SOL    HW125427   2.968   5.872   1.838
 8176SOL    HW225428   2.951   6.026   1.786
 8177SOL     OW25429   1.800   5.959   4.127
 8177SOL    HW125430   1.785   5.874   4.178
 8177SOL    HW225431   1.806   6.036   4.191
 8178SOL     OW25432   1.416   0.162   6.505
 8178SOL    HW125433   1.419   0.259   6.479
 8178SOL    HW225434   1.407   0.155   6.604
 8179SOL     OW25435   3.250   3.311   0.212
 8179SOL    HW125436   3.284   3.405   0.203
 8179SOL    HW225437   3.320   3.247   0.181
 8180SOL     OW25438   6.322   0.200   3.808
 8180SOL    HW125439   6.412   0.159   3.794
 8180SOL    HW225440   6.329   0.276   3.872
 8181SOL     OW25441   2.088   1.139   2.887
 8181SOL    HW125442   2.008   1.198   2.877
 8181SOL    HW225443   2.168   1.186   2.849
 8182SOL     OW25444   3.830   1.479   6.614
 8182SOL    HW125445   3.907   1.476   6.677
 8182SOL    HW225446   3.865   1.491   6.520
 8183SOL     OW25447   0.619   2.622   4.731
 8183SOL    HW125448   0.560   2.701   4.715
 8183SOL    HW225449   0.683   2.612   4.655
 8184SOL     OW25450   5.858   1.701   5.828
 8184SOL    HW125451   5.935   1.763   5.809
 8184SOL    HW225452   5.840   1.701   5.926
 8185SOL     OW25453   3.026   0.539   0.293
 8185SOL    HW125454   2.965   0.477   0.340
 8185SOL    HW225455   2.974   0.596   0.230
 8186SOL     OW25456   2.946   6.478   5.991
 8186SOL    HW125457   2.973   6.551   5.928
 8186SOL    HW225458   2.891   6.410   5.941
 8187SOL     OW25459   1.560   2.096   4.902
 8187SOL    HW125460   1.551   2.001   4.931
 8187SOL    HW225461   1.637   2.138   4.950
 8188SOL     OW25462   5.347   1.798   2.283
 8188SOL    HW125463   5.299   1.801   2.370
 8188SOL    HW225464   5.436   1.754   2.295
 8189SOL     OW25465   4.812   4.389   1.972
 8189SOL    HW125466   4.722   4.373   2.013
 8189SOL    HW225467   4.814   4.349   1.880
 8190SOL     OW25468   4.930   5.073   4.249
 8190SOL    HW125469   4.968   5.164   4.233
 8190SOL    HW225470   4.980   5.006   4.195
 8191SOL     OW25471   2.322   5.502   3.508
 8191SOL    HW125472   2.417   5.471   3.509
 8191SOL    HW225473   2.264   5.434   3.553
 8192SOL     OW25474   2.766   6.033   0.144
 8192SOL    HW125475   2.842   6.019   0.208
 8192SOL    HW225476   2.685   5.986   0.179
 8193SOL     OW25477   5.812   6.930   4.781
 8193SOL    HW125478   5.878   7.004   4.769
 8193SOL    HW225479   5.858   6.842   4.771
 8194SOL     OW25480   6.330   2.554   6.734
 8194SOL    HW125481   6.245   2.579   6.781
 8194SOL    HW225482   6.406   2.609   6.770
 8195SOL     OW25483   0.453   0.836   0.870
 8195SOL    HW125484   0.552   0.817   0.876
 8195SOL    HW225485   0.436   0.897   0.793
 8196SOL     OW25486   3.599   6.963   5.494
 8196SOL    HW125487   3.531   7.001   5.431
 8196SOL    HW225488   3.665   6.909   5.442
 8197SOL     OW25489   5.713   1.684   6.103
 8197SOL    HW125490   5.762   1.713   6.186
 8197SOL    HW225491   5.650   1.757   6.075
 8198SOL     OW25492   3.533   6.452   2.144
 8198SOL    HW125493   3.617   6.457   2.198
 8198SOL    HW225494   3.556   6.437   2.048
 8199SOL     OW25495   6.606   3.888   0.532
 8199SOL    HW125496   6.565   3.802   0.563
 8199SOL    HW225497   6.594   3.897   0.433
 8200SOL     OW25498   4.621   4.569   1.323
 8200SOL    HW125499   4.668   4.481   1.319
 8200SOL    HW225500   4.529   4.559   1.284
 8201SOL     OW25501   5.181   0.532   4.806
 8201SOL    HW125502   5.152   0.617   4.852
 8201SOL    HW225503   5.192   0.460   4.874
 8202SOL     OW25504   1.315   5.221   4.259
 8202SOL    HW125505   1.327   5.270   4.345
 8202SOL    HW225506   1.317   5.122   4.275
 8203SOL     OW25507   4.993   3.398   0.924
 8203SOL    HW125508   5.073   3.404   0.863
 8203SOL    HW225509   5.001   3.316   0.981
 8204SOL     OW25510   3.604   6.389   0.651
 8204SOL    HW125511   3.537   6.381   0.577
 8204SOL    HW225512   3.675   6.454   0.624
 8205SOL     OW25513   5.710   4.969   1.520
 8205SOL    HW125514   5.672   4.937   1.433
 8205SOL    HW225515   5.801   4.929   1.533
 8206SOL     OW25516   2.981   2.567   5.769
 8206SOL    HW125517   3.063   2.525   5.807
 8206SOL    HW225518   2.936   2.623   5.839
 8207SOL     OW25519   3.299   4.775   5.199
 8207SOL    HW125520   3.212   4.783   5.151
 8207SOL    HW225521   3.368   4.829   5.150
 8208SOL     OW25522   2.663   6.348   1.292
 8208SOL    HW125523   2.702   6.262   1.259
 8208SOL    HW225524   2.650   6.410   1.215
 8209SOL     OW25525   1.483   1.408   5.247
 8209SOL    HW125526   1.500   1.310   5.234
 8209SOL    HW225527   1.404   1.435   5.192
 8210SOL     OW25528   2.939   0.964   0.714
 8210SOL    HW125529   2.860   1.000   0.764
 8210SOL    HW225530   2.917   0.872   0.679
 8211SOL     OW25531   3.615   4.176   4.525
 8211SOL    HW125532   3.574   4.191   4.615
 8211SOL    HW225533   3.695   4.236   4.515
 8212SOL     OW25534   2.746   0.399   0.679
 8212SOL    HW125535   2.728   0.314   0.729
 8212SOL    HW225536   2.772   0.470   0.744
 8213SOL     OW25537   4.481   5.200   3.623
 8213SOL    HW125538   4.508   5.207   3.719
 8213SOL    HW225539   4.400   5.142   3.615
 8214SOL     OW25540   2.293   5.573   3.981
 8214SOL    HW125541   2.366   5.538   4.039
 8214SOL    HW225542   2.205   5.562   4.027
 8215SOL     OW25543   4.471   6.113   0.194
 8215SOL    HW125544   4.544   6.050   0.167
 8215SOL    HW225545   4.474   6.194   0.136
 8216SOL     OW25546   5.078   6.820   2.630
 8216SOL    HW125547   5.030   6.790   2.548
 8216SOL    HW225548   5.038   6.906   2.662
 8217SOL     OW25549   2.198   4.149   2.518
 8217SOL    HW125550   2.201   4.116   2.612
 8217SOL    HW225551   2.213   4.073   2.455
 8218SOL     OW25552   1.961   6.866   5.415
 8218SOL    HW125553   1.903   6.861   5.334
 8218SOL    HW225554   1.991   6.961   5.429
 8219SOL     OW25555   3.073   3.878   1.708
 8219SOL    HW125556   3.044   3.955   1.651
 8219SOL    HW225557   3.170   3.887   1.729
 8220SOL     OW25558   3.333   4.331   5.310
 8220SOL    HW125559   3.291   4.421   5.315
 8220SOL    HW225560   3.266   4.264   5.279
 8221SOL     OW25561   5.916   4.341   3.236
 8221SOL    HW125562   6.010   4.324   3.206
 8221SOL    HW225563   5.908   4.317   3.333
 8222SOL     OW25564   6.137   3.034   1.000
 8222SOL    HW125565   6.131   3.067   1.094
 8222SOL    HW225566   6.050   2.991   0.974
 8223SOL     OW25567   6.893   5.250   5.459
 8223SOL    HW125568   6.957   5.299   5.518
 8223SOL    HW225569   6.884   5.298   5.372
 8224SOL     OW25570   4.785   1.390   0.694
 8224SOL    HW125571   4.838   1.342   0.624
 8224SOL    HW225572   4.689   1.366   0.685
 8225SOL     OW25573   3.615   0.228   0.121
 8225SOL    HW125574   3.515   0.224   0.116
 8225SOL    HW225575   3.642   0.254   0.213
 8226SOL     OW25576   3.683   0.399   0.609
 8226SOL    HW125577   3.695   0.411   0.708
 8226SOL    HW225578   3.590   0.426   0.584
 8227SOL     OW25579   5.642   1.649   2.594
 8227SOL    HW125580   5.555   1.611   2.625
 8227SOL    HW225581   5.701   1.576   2.559
 8228SOL     OW25582   1.072   1.060   5.614
 8228SOL    HW125583   0.998   1.028   5.555
 8228SOL    HW225584   1.140   1.109   5.560
 8229SOL     OW25585   3.811   4.990   0.889
 8229SOL    HW125586   3.881   5.061   0.875
 8229SOL    HW225587   3.734   5.029   0.941
 8230SOL     OW25588   4.269   0.048   5.303
 8230SOL    HW125589   4.233   0.134   5.338
 8230SOL    HW225590   4.350   0.022   5.355
 8231SOL     OW25591   3.511   1.499   2.071
 8231SOL    HW125592   3.493   1.485   2.168
 8231SOL    HW225593   3.427   1.483   2.019
 8232SOL     OW25594   4.837   1.274   2.074
 8232SOL    HW125595   4.796   1.183   2.076
 8232SOL    HW225596   4.769   1.341   2.044
 8233SOL     OW25597   0.451   0.888   6.003
 8233SOL    HW125598   0.494   0.853   6.086
 8233SOL    HW225599   0.382   0.824   5.972
 8234SOL     OW25600   3.064   3.171   6.891
 8234SOL    HW125601   3.104   3.169   6.983
 8234SOL    HW225602   2.965   3.166   6.897
 8235SOL     OW25603   6.858   4.996   6.980
 8235SOL    HW125604   6.934   5.049   6.942
 8235SOL    HW225605   6.894   4.925   0.011
 8236SOL     OW25606   0.203   5.943   5.946
 8236SOL    HW125607   0.184   5.846   5.930
 8236SOL    HW225608   0.294   5.953   5.985
 8237SOL     OW25609   4.358   5.452   6.762
 8237SOL    HW125610   4.430   5.507   6.720
 8237SOL    HW225611   4.337   5.487   6.853
 8238SOL     OW25612   1.858   5.513   0.167
 8238SOL    HW125613   1.905   5.550   0.247
 8238SOL    HW225614   1.759   5.525   0.177
 8239SOL     OW25615   0.294   1.082   4.917
 8239SOL    HW125616   0.240   1.044   4.842
 8239SOL    HW225617   0.233   1.107   4.992
 8240SOL     OW25618   3.199   3.014   3.256
 8240SOL    HW125619   3.147   3.060   3.328
 8240SOL    HW225620   3.169   3.046   3.167
 8241SOL     OW25621   1.656   3.518   6.925
 8241SOL    HW125622   1.658   3.436   6.983
 8241SOL    HW225623   1.690   3.495   6.834
 8242SOL     OW25624   1.182   3.568   4.495
 8242SOL    HW125625   1.213   3.574   4.400
 8242SOL    HW225626   1.262   3.573   4.556
 8243SOL     OW25627   0.553   4.570   5.824
 8243SOL    HW125628   0.623   4.598   5.890
 8243SOL    HW225629   0.499   4.649   5.797
 8244SOL     OW25630   0.850   0.458   3.361
 8244SOL    HW125631   0.757   0.449   3.328
 8244SOL    HW225632   0.912   0.405   3.302
 8245SOL     OW25633   4.956   1.660   3.968
 8245SOL    HW125634   4.904   1.613   3.897
 8245SOL    HW225635   4.929   1.625   4.058
 8246SOL     OW25636   1.206   3.983   6.767
 8246SOL    HW125637   1.137   3.914   6.745
 8246SOL    HW225638   1.284   3.940   6.813
 8247SOL     OW25639   2.840   4.761   3.755
 8247SOL    HW125640   2.792   4.788   3.838
 8247SOL    HW225641   2.932   4.799   3.756
 8248SOL     OW25642   1.184   5.534   3.494
 8248SOL    HW125643   1.261   5.496   3.442
 8248SOL    HW225644   1.219   5.594   3.565
 8249SOL     OW25645   2.311   2.405   5.178
 8249SOL    HW125646   2.253   2.357   5.113
 8249SOL    HW225647   2.254   2.449   5.248
 8250SOL     OW25648   2.975   1.921   0.782
 8250SOL    HW125649   2.927   1.883   0.703
 8250SOL    HW225650   2.973   1.855   0.857
 8251SOL     OW25651   6.779   2.153   4.632
 8251SOL    HW125652   6.824   2.081   4.580
 8251SOL    HW225653   6.822   2.241   4.611
 8252SOL     OW25654   2.443   2.541   6.683
 8252SOL    HW125655   2.422   2.485   6.764
 8252SOL    HW225656   2.361   2.589   6.653
 8253SOL     OW25657   3.708   5.893   6.243
 8253SOL    HW125658   3.662   5.968   6.291
 8253SOL    HW225659   3.650   5.860   6.169
 8254SOL     OW25660   6.134   4.979   6.597
 8254SOL    HW125661   6.064   4.961   6.529
 8254SOL    HW225662   6.218   5.008   6.552
 8255SOL     OW25663   0.341   7.014   6.483
 8255SOL    HW125664   0.406   6.941   6.505
 8255SOL    HW225665   0.302   6.998   6.392
 8256SOL     OW25666   0.989   6.698   2.616
 8256SOL    HW125667   1.022   6.736   2.530
 8256SOL    HW225668   0.907   6.748   2.645
 8257SOL     OW25669   5.975   4.261   4.116
 8257SOL    HW125670   5.885   4.285   4.079
 8257SOL    HW225671   6.016   4.343   4.157
 8258SOL     OW25672   5.682   2.697   1.280
 8258SOL    HW125673   5.720   2.701   1.372
 8258SOL    HW225674   5.598   2.752   1.276
 8259SOL     OW25675   4.500   2.238   4.490
 8259SOL    HW125676   4.422   2.226   4.429
 8259SOL    HW225677   4.468   2.258   4.583
 8260SOL     OW25678   2.360   6.697   0.075
 8260SOL    HW125679   2.309   6.615   0.101
 8260SOL    HW225680   2.403   6.682   7.015
 8261SOL     OW25681   5.570   6.134   3.067
 8261SOL    HW125682   5.604   6.141   3.161
 8261SOL    HW225683   5.472   6.114   3.069
 8262SOL     OW25684   0.276   4.639   0.769
 8262SOL    HW125685   0.212   4.573   0.730
 8262SOL    HW225686   0.225   4.708   0.821
 8263SOL     OW25687   6.617   2.832   6.079
 8263SOL    HW125688   6.603   2.919   6.126
 8263SOL    HW225689   6.531   2.783   6.074
 8264SOL     OW25690   2.175   0.114   1.503
 8264SOL    HW125691   2.254   0.067   1.464
 8264SOL    HW225692   2.194   0.212   1.509
 8265SOL     OW25693   4.095   0.391   1.630
 8265SOL    HW125694   4.096   0.400   1.530
 8265SOL    HW225695   4.162   0.454   1.670
 8266SOL     OW25696   2.806   0.043   4.274
 8266SOL    HW125697   2.820   0.105   4.352
 8266SOL    HW225698   2.871   0.066   4.201
 8267SOL     OW25699   1.493   5.210   2.476
 8267SOL    HW125700   1.449   5.150   2.542
 8267SOL    HW225701   1.590   5.186   2.469
 8268SOL     OW25702   2.777   3.918   6.621
 8268SOL    HW125703   2.799   4.013   6.644
 8268SOL    HW225704   2.769   3.909   6.522
 8269SOL     OW25705   4.335   2.399   3.124
 8269SOL    HW125706   4.399   2.456   3.175
 8269SOL    HW225707   4.242   2.433   3.139
 8270SOL     OW25708   3.008   0.154   5.433
 8270SOL    HW125709   2.916   0.190   5.421
 8270SOL    HW225710   3.039   0.172   5.527
 8271SOL     OW25711   5.196   6.091   4.607
 8271SOL    HW125712   5.255   6.159   4.650
 8271SOL    HW225713   5.100   6.119   4.615
 8272SOL     OW25714   0.593   0.163   2.339
 8272SOL    HW125715   0.559   0.215   2.418
 8272SOL    HW225716   0.638   0.080   2.371
 8273SOL     OW25717   2.680   6.712   6.725
 8273SOL    HW125718   2.724   6.681   6.640
 8273SOL    HW225719   2.750   6.744   6.788
 8274SOL     OW25720   4.544   4.875   6.924
 8274SOL    HW125721   4.493   4.934   6.987
 8274SOL    HW225722   4.642   4.890   6.936
 8275SOL     OW25723   7.022   6.990   4.665
 8275SOL    HW125724   0.025   6.912   4.718
 8275SOL    HW225725   0.054   7.006   4.587
 8276SOL     OW25726   6.811   2.473   5.431
 8276SOL    HW125727   6.788   2.378   5.450
 8276SOL    HW225728   6.874   2.478   5.354
 8277SOL     OW25729   1.313   6.033   5.256
 8277SOL    HW125730   1.374   6.074   5.324
 8277SOL    HW225731   1.315   6.088   5.172
 8278SOL     OW25732   3.269   1.542   6.127
 8278SOL    HW125733   3.189   1.553   6.068
 8278SOL    HW225734   3.342   1.497   6.075
 8279SOL     OW25735   4.744   5.973   6.979
 8279SOL    HW125736   4.769   6.004   6.887
 8279SOL    HW225737   4.660   5.918   6.974
 8280SOL     OW25738   5.045   2.581   0.347
 8280SOL    HW125739   5.045   2.560   0.250
 8280SOL    HW225740   4.951   2.585   0.380
 8281SOL     OW25741   1.592   5.006   0.404
 8281SOL    HW125742   1.680   4.960   0.415
 8281SOL    HW225743   1.562   4.999   0.309
 8282SOL     OW25744   2.379   2.620   1.332
 8282SOL    HW125745   2.469   2.579   1.317
 8282SOL    HW225746   2.329   2.624   1.245
 8283SOL     OW25747   0.427   5.301   3.897
 8283SOL    HW125748   0.484   5.362   3.841
 8283SOL    HW225749   0.378   5.355   3.965
 8284SOL     OW25750   1.986   2.566   2.728
 8284SOL    HW125751   2.011   2.537   2.635
 8284SOL    HW225752   1.997   2.665   2.736
 8285SOL     OW25753   3.304   4.116   5.753
 8285SOL    HW125754   3.395   4.130   5.792
 8285SOL    HW225755   3.250   4.200   5.764
 8286SOL     OW25756   5.608   0.846   4.653
 8286SOL    HW125757   5.545   0.794   4.711
 8286SOL    HW225758   5.644   0.786   4.582
 8287SOL     OW25759   1.212   6.742   4.182
 8287SOL    HW125760   1.258   6.803   4.118
 8287SOL    HW225761   1.277   6.674   4.216
 8288SOL     OW25762   2.168   2.065   2.182
 8288SOL    HW125763   2.247   2.117   2.150
 8288SOL    HW225764   2.122   2.022   2.104
 8289SOL     OW25765   6.024   1.630   5.359
 8289SOL    HW125766   5.996   1.698   5.428
 8289SOL    HW225767   6.013   1.538   5.396
 8290SOL     OW25768   3.831   2.833   1.459
 8290SOL    HW125769   3.828   2.737   1.432
 8290SOL    HW225770   3.743   2.876   1.439
 8291SOL     OW25771   5.623   6.932   6.567
 8291SOL    HW125772   5.630   6.880   6.481
 8291SOL    HW225773   5.640   7.029   6.548
 8292SOL     OW25774   1.054   5.147   5.444
 8292SOL    HW125775   0.986   5.077   5.422
 8292SOL    HW225776   1.016   5.212   5.508
 8293SOL     OW25777   1.716   4.831   2.249
 8293SOL    HW125778   1.777   4.832   2.170
 8293SOL    HW225779   1.747   4.898   2.316
 8294SOL     OW25780   6.920   3.920   5.802
 8294SOL    HW125781   6.938   3.889   5.895
 8294SOL    HW225782   6.874   4.009   5.804
 8295SOL     OW25783   4.827   3.698   3.032
 8295SOL    HW125784   4.752   3.764   3.035
 8295SOL    HW225785   4.882   3.706   3.115
 8296SOL     OW25786   3.192   5.383   6.902
 8296SOL    HW125787   3.227   5.361   6.810
 8296SOL    HW225788   3.267   5.416   6.959
 8297SOL     OW25789   6.643   4.466   2.574
 8297SOL    HW125790   6.648   4.516   2.660
 8297SOL    HW225791   6.631   4.369   2.593
 8298SOL     OW25792   1.087   0.563   6.668
 8298SOL    HW125793   1.132   0.557   6.578
 8298SOL    HW225794   1.140   0.623   6.727
 8299SOL     OW25795   6.956   3.726   1.974
 8299SOL    HW125796   7.023   3.791   2.009
 8299SOL    HW225797   6.914   3.762   1.890
 8300SOL     OW25798   5.524   5.677   4.395
 8300SOL    HW125799   5.576   5.701   4.476
 8300SOL    HW225800   5.470   5.595   4.412
 8301SOL     OW25801   4.191   6.915   6.980
 8301SOL    HW125802   4.185   6.892   6.883
 8301SOL    HW225803   4.275   6.877   7.019
 8302SOL     OW25804   3.228   6.200   4.272
 8302SOL    HW125805   3.300   6.142   4.311
 8302SOL    HW225806   3.148   6.199   4.333
 8303SOL     OW25807   6.403   0.157   2.169
 8303SOL    HW125808   6.403   0.074   2.224
 8303SOL    HW225809   6.492   0.202   2.176
 8304SOL     OW25810   5.799   3.916   3.687
 8304SOL    HW125811   5.806   3.818   3.705
 8304SOL    HW225812   5.862   3.941   3.615
 8305SOL     OW25813   4.782   5.505   4.140
 8305SOL    HW125814   4.766   5.597   4.104
 8305SOL    HW225815   4.721   5.488   4.218
 8306SOL     OW25816   6.380   1.060   2.638
 8306SOL    HW125817   6.296   1.115   2.634
 8306SOL    HW225818   6.410   1.051   2.732
 8307SOL     OW25819   1.510   4.914   1.462
 8307SOL    HW125820   1.512   4.817   1.485
 8307SOL    HW225821   1.434   4.931   1.400
 8308SOL     OW25822   1.302   4.420   0.221
 8308SOL    HW125823   1.392   4.419   0.179
 8308SOL    HW225824   1.263   4.328   0.219
 8309SOL     OW25825   6.345   4.836   4.632
 8309SOL    HW125826   6.399   4.826   4.716
 8309SOL    HW225827   6.254   4.796   4.646
 8310SOL     OW25828   0.268   6.644   0.573
 8310SOL    HW125829   0.342   6.649   0.641
 8310SOL    HW225830   0.188   6.692   0.608
 8311SOL     OW25831   5.290   6.309   3.960
 8311SOL    HW125832   5.319   6.404   3.950
 8311SOL    HW225833   5.243   6.280   3.876
 8312SOL     OW25834   5.435   6.926   0.150
 8312SOL    HW125835   5.468   6.992   0.218
 8312SOL    HW225836   5.505   6.911   0.081
 8313SOL     OW25837   3.599   6.627   5.450
 8313SOL    HW125838   3.628   6.672   5.534
 8313SOL    HW225839   3.666   6.644   5.378
 8314SOL     OW25840   5.135   6.223   6.601
 8314SOL    HW125841   5.040   6.231   6.630
 8314SOL    HW225842   5.148   6.270   6.513
 8315SOL     OW25843   3.465   3.449   4.212
 8315SOL    HW125844   3.401   3.388   4.165
 8315SOL    HW225845   3.458   3.435   4.311
 8316SOL     OW25846   1.114   3.385   6.814
 8316SOL    HW125847   1.153   3.331   6.889
 8316SOL    HW225848   1.188   3.432   6.766
 8317SOL     OW25849   1.761   2.129   5.088
 8317SOL    HW125850   1.772   2.175   5.176
 8317SOL    HW225851   1.768   2.195   5.014
 8318SOL     OW25852   3.985   0.440   6.349
 8318SOL    HW125853   3.953   0.397   6.434
 8318SOL    HW225854   3.908   0.447   6.285
 8319SOL     OW25855   0.958   0.073   6.199
 8319SOL    HW125856   0.896   0.137   6.244
 8319SOL    HW225857   0.913   7.014   6.188
 8320SOL     OW25858   3.058   3.982   4.525
 8320SOL    HW125859   2.993   4.056   4.507
 8320SOL    HW225860   3.030   3.933   4.607
 8321SOL     OW25861   0.002   0.471   6.729
 8321SOL    HW125862   6.990   0.551   6.771
 8321SOL    HW225863   6.969   0.393   6.737
 8322SOL     OW25864   0.194   1.269   0.569
 8322SOL    HW125865   0.222   1.189   0.516
 8322SOL    HW225866   0.107   1.248   0.614
 8323SOL     OW25867   4.905   4.567   1.062
 8323SOL    HW125868   4.922   4.570   0.964
 8323SOL    HW225869   4.949   4.486   1.101
 8324SOL     OW25870   6.030   1.046   6.731
 8324SOL    HW125871   5.937   1.031   6.764
 8324SOL    HW225872   6.027   1.100   6.647
 8325SOL     OW25873   1.532   5.617   4.648
 8325SOL    HW125874   1.549   5.579   4.557
 8325SOL    HW225875   1.437   5.599   4.674
 8326SOL     OW25876   2.688   4.126   0.283
 8326SOL    HW125877   2.616   4.104   0.217
 8326SOL    HW225878   2.737   4.208   0.252
 8327SOL     OW25879   0.805   0.788   5.973
 8327SOL    HW125880   0.718   0.836   5.983
 8327SOL    HW225881   0.874   0.831   6.032
 8328SOL     OW25882   0.501   6.334   5.686
 8328SOL    HW125883   0.419   6.301   5.734
 8328SOL    HW225884   0.475   6.406   5.623
 8329SOL     OW25885   0.834   2.681   4.930
 8329SOL    HW125886   0.876   2.767   4.956
 8329SOL    HW225887   0.760   2.698   4.865
 8330SOL     OW25888   4.027   0.917   6.738
 8330SOL    HW125889   4.094   0.909   6.812
 8330SOL    HW225890   4.041   0.843   6.672
 8331SOL     OW25891   2.087   2.105   0.453
 8331SOL    HW125892   2.093   2.193   0.406
 8331SOL    HW225893   2.118   2.032   0.392
 8332SOL     OW25894   5.218   4.688   1.665
 8332SOL    HW125895   5.216   4.601   1.617
 8332SOL    HW225896   5.206   4.672   1.763
 8333SOL     OW25897   1.758   4.959   0.890
 8333SOL    HW125898   1.692   4.906   0.943
 8333SOL    HW225899   1.726   5.053   0.880
 8334SOL     OW25900   3.244   2.022   6.723
 8334SOL    HW125901   3.280   2.094   6.782
 8334SOL    HW225902   3.217   2.061   6.635
 8335SOL     OW25903   4.835   3.016   0.007
 8335SOL    HW125904   4.748   2.977   7.006
 8335SOL    HW225905   4.827   3.044   0.103
 8336SOL     OW25906   1.407   3.769   2.394
 8336SOL    HW125907   1.345   3.725   2.329
 8336SOL    HW225908   1.437   3.702   2.462
 8337SOL     OW25909   1.050   0.916   5.210
 8337SOL    HW125910   1.100   1.003   5.216
 8337SOL    HW225911   1.058   0.867   5.297
 8338SOL     OW25912   3.881   4.767   1.848
 8338SOL    HW125913   3.940   4.794   1.773
 8338SOL    HW225914   3.791   4.739   1.812
 8339SOL     OW25915   0.424   0.990   0.639
 8339SOL    HW125916   0.332   0.967   0.606
 8339SOL    HW225917   0.470   1.048   0.572
 8340SOL     OW25918   5.172   2.649   1.024
 8340SOL    HW125919   5.194   2.614   1.115
 8340SOL    HW225920   5.078   2.682   1.022
 8341SOL     OW25921   3.432   0.121   6.080
 8341SOL    HW125922   3.510   0.158   6.130
 8341SOL    HW225923   3.352   0.119   6.140
 8342SOL     OW25924   3.349   6.557   0.149
 8342SOL    HW125925   3.251   6.552   0.166
 8342SOL    HW225926   3.371   6.504   0.068
 8343SOL     OW25927   6.522   5.110   3.788
 8343SOL    HW125928   6.588   5.072   3.853
 8343SOL    HW225929   6.512   5.208   3.804
 8344SOL     OW25930   0.598   4.486   4.507
 8344SOL    HW125931   0.629   4.553   4.439
 8344SOL    HW225932   0.506   4.455   4.485
 8345SOL     OW25933   5.224   1.192   3.195
 8345SOL    HW125934   5.168   1.232   3.268
 8345SOL    HW225935   5.283   1.121   3.233
 8346SOL     OW25936   4.489   3.093   6.364
 8346SOL    HW125937   4.458   3.132   6.451
 8346SOL    HW225938   4.506   2.995   6.376
 8347SOL     OW25939   2.165   6.932   6.400
 8347SOL    HW125940   2.134   6.942   6.306
 8347SOL    HW225941   2.200   6.839   6.414
 8348SOL     OW25942   3.442   6.874   1.252
 8348SOL    HW125943   3.530   6.919   1.267
 8348SOL    HW225944   3.376   6.941   1.218
 8349SOL     OW25945   0.176   6.986   2.284
 8349SOL    HW125946   0.177   6.938   2.371
 8349SOL    HW225947   0.081   7.004   2.257
 8350SOL     OW25948   3.007   7.015   6.106
 8350SOL    HW125949   2.939   6.953   6.145
 8350SOL    HW225950   3.049   0.040   6.179
 8351SOL     OW25951   6.287   5.655   4.343
 8351SOL    HW125952   6.377   5.611   4.331
 8351SOL    HW225953   6.222   5.587   4.376
 8352SOL     OW25954   3.128   6.399   2.319
 8352SOL    HW125955   3.226   6.382   2.314
 8352SOL    HW225956   3.112   6.494   2.344
 8353SOL     OW25957   1.235   4.060   1.665
 8353SOL    HW125958   1.202   4.011   1.746
 8353SOL    HW225959   1.177   4.039   1.587
 8354SOL     OW25960   3.457   6.523   3.989
 8354SOL    HW125961   3.374   6.511   3.935
 8354SOL    HW225962   3.511   6.599   3.952
 8355SOL     OW25963   1.462   7.017   6.260
 8355SOL    HW125964   1.380   7.027   6.203
 8355SOL    HW225965   1.440   0.012   6.354
 8356SOL     OW25966   1.027   5.946   2.197
 8356SOL    HW125967   0.942   5.996   2.208
 8356SOL    HW225968   1.007   5.849   2.181
 8357SOL     OW25969   4.040   5.402   5.990
 8357SOL    HW125970   3.954   5.451   6.000
 8357SOL    HW225971   4.068   5.365   6.079
 8358SOL     OW25972   1.450   2.969   5.583
 8358SOL    HW125973   1.448   3.067   5.561
 8358SOL    HW225974   1.368   2.925   5.547
 8359SOL     OW25975   2.439   0.617   4.577
 8359SOL    HW125976   2.396   0.569   4.653
 8359SOL    HW225977   2.461   0.551   4.504
 8360SOL     OW25978   4.626   6.780   0.562
 8360SOL    HW125979   4.688   6.745   0.491
 8360SOL    HW225980   4.604   6.706   0.625
 8361SOL     OW25981   2.272   0.239   6.428
 8361SOL    HW125982   2.302   0.299   6.502
 8361SOL    HW225983   2.187   0.193   6.455
 8362SOL     OW25984   6.493   2.711   0.430
 8362SOL    HW125985   6.539   2.623   0.423
 8362SOL    HW225986   6.415   2.714   0.368
 8363SOL     OW25987   4.160   2.161   0.522
 8363SOL    HW125988   4.090   2.230   0.541
 8363SOL    HW225989   4.134   2.107   0.442
 8364SOL     OW25990   0.678   2.976   3.799
 8364SOL    HW125991   0.617   2.904   3.765
 8364SOL    HW225992   0.678   3.052   3.733
 8365SOL     OW25993   1.928   2.505   2.124
 8365SOL    HW125994   1.944   2.455   2.209
 8365SOL    HW225995   1.841   2.475   2.084
 8366SOL     OW25996   3.935   5.772   1.127
 8366SOL    HW125997   4.005   5.817   1.072
 8366SOL    HW225998   3.900   5.836   1.195
 8367SOL     OW25999   2.908   5.186   4.567
 8367SOL    HW126000   2.824   5.210   4.520
 8367SOL    HW226001   2.930   5.090   4.549
 8368SOL     OW26002   0.570   6.054   0.033
 8368SOL    HW126003   0.639   6.058   6.990
 8368SOL    HW226004   0.517   5.970   0.025
 8369SOL     OW26005   0.760   1.856   1.168
 8369SOL    HW126006   0.698   1.808   1.230
 8369SOL    HW226007   0.803   1.790   1.106
 8370SOL     OW26008   2.776   2.053   7.019
 8370SOL    HW126009   2.717   2.131   6.996
 8370SOL    HW226010   2.792   1.998   6.937
 8371SOL     OW26011   1.579   3.233   5.563
 8371SOL    HW126012   1.675   3.207   5.557
 8371SOL    HW226013   1.569   3.307   5.630
 8372SOL     OW26014   2.884   6.607   2.188
 8372SOL    HW126015   2.883   6.602   2.288
 8372SOL    HW226016   2.929   6.526   2.152
 8373SOL     OW26017   0.592   1.638   4.831
 8373SOL    HW126018   0.523   1.701   4.866
 8373SOL    HW226019   0.553   1.584   4.756
 8374SOL     OW26020   1.084   0.548   3.979
 8374SOL    HW126021   1.068   0.644   4.002
 8374SOL    HW226022   1.119   0.541   3.886
 8375SOL     OW26023   4.137   0.693   5.882
 8375SOL    HW126024   4.235   0.673   5.882
 8375SOL    HW226025   4.109   0.719   5.975
 8376SOL     OW26026   1.426   1.190   3.534
 8376SOL    HW126027   1.501   1.180   3.469
 8376SOL    HW226028   1.463   1.198   3.627
 8377SOL     OW26029   5.087   5.478   0.325
 8377SOL    HW126030   5.128   5.539   0.257
 8377SOL    HW226031   5.124   5.499   0.416
 8378SOL     OW26032   5.153   5.505   3.177
 8378SOL    HW126033   5.193   5.479   3.265
 8378SOL    HW226034   5.078   5.441   3.155
 8379SOL     OW26035   4.940   1.882   1.687
 8379SOL    HW126036   4.869   1.812   1.684
 8379SOL    HW226037   4.973   1.891   1.781
 8380SOL     OW26038   6.821   6.663   0.009
 8380SOL    HW126039   6.766   6.616   0.077
 8380SOL    HW226040   6.870   6.739   0.052
 8381SOL     OW26041   0.232   2.531   2.809
 8381SOL    HW126042   0.268   2.516   2.717
 8381SOL    HW226043   0.297   2.586   2.862
 8382SOL     OW26044   2.297   0.261   0.316
 8382SOL    HW126045   2.300   0.299   0.224
 8382SOL    HW226046   2.377   0.291   0.367
 8383SOL     OW26047   2.563   0.135   5.297
 8383SOL    HW126048   2.470   0.163   5.320
 8383SOL    HW226049   2.569   0.115   5.200
 8384SOL     OW26050   6.865   1.882   1.454
 8384SOL    HW126051   6.860   1.851   1.359
 8384SOL    HW226052   6.957   1.863   1.490
 8385SOL     OW26053   4.584   3.165   1.032
 8385SOL    HW126054   4.586   3.168   1.132
 8385SOL    HW226055   4.552   3.075   1.002
 8386SOL     OW26056   1.887   5.968   1.218
 8386SOL    HW126057   1.827   6.037   1.259
 8386SOL    HW226058   1.977   5.972   1.261
 8387SOL     OW26059   2.242   1.639   1.640
 8387SOL    HW126060   2.224   1.727   1.684
 8387SOL    HW226061   2.249   1.652   1.541
 8388SOL     OW26062   1.456   6.803   0.272
 8388SOL    HW126063   1.513   6.871   0.318
 8388SOL    HW226064   1.381   6.776   0.333
 8389SOL     OW26065   1.895   3.233   4.004
 8389SOL    HW126066   1.870   3.311   3.947
 8389SOL    HW226067   1.995   3.228   4.011
 8390SOL     OW26068   3.015   0.565   6.553
 8390SOL    HW126069   3.008   0.633   6.480
 8390SOL    HW226070   3.085   0.498   6.531
 8391SOL     OW26071   5.384   5.622   1.065
 8391SOL    HW126072   5.427   5.588   1.149
 8391SOL    HW226073   5.310   5.684   1.089
 8392SOL     OW26074   6.227   5.704   5.051
 8392SOL    HW126075   6.219   5.694   5.150
 8392SOL    HW226076   6.143   5.744   5.014
 8393SOL     OW26077   7.000   0.003   3.680
 8393SOL    HW126078   7.011   6.951   3.737
 8393SOL    HW226079   6.977   0.081   3.739
 8394SOL     OW26080   1.025   1.700   2.699
 8394SOL    HW126081   1.104   1.700   2.761
 8394SOL    HW226082   0.953   1.642   2.737
 8395SOL     OW26083   0.448   6.253   4.329
 8395SOL    HW126084   0.351   6.255   4.305
 8395SOL    HW226085   0.465   6.317   4.404
 8396SOL     OW26086   4.292   4.615   2.739
 8396SOL    HW126087   4.317   4.671   2.660
 8396SOL    HW226088   4.242   4.534   2.708
 8397SOL     OW26089   2.334   0.099   3.010
 8397SOL    HW126090   2.302   0.011   2.975
 8397SOL    HW226091   2.363   0.088   3.106
 8398SOL     OW26092   3.687   1.620   6.982
 8398SOL    HW126093   3.779   1.652   7.004
 8398SOL    HW226094   3.649   1.571   0.032
 8399SOL     OW26095   6.127   6.353   0.453
 8399SOL    HW126096   6.156   6.446   0.430
 8399SOL    HW226097   6.142   6.336   0.550
 8400SOL     OW26098   0.695   0.417   2.848
 8400SOL    HW126099   0.784   0.371   2.845
 8400SOL    HW226100   0.705   0.505   2.894
 8401SOL     OW26101   4.306   3.396   6.118
 8401SOL    HW126102   4.300   3.304   6.159
 8401SOL    HW226103   4.214   3.431   6.101
 8402SOL     OW26104   3.348   1.411   5.711
 8402SOL    HW126105   3.416   1.462   5.657
 8402SOL    HW226106   3.365   1.427   5.808
 8403SOL     OW26107   0.503   1.509   3.483
 8403SOL    HW126108   0.440   1.433   3.495
 8403SOL    HW226109   0.480   1.582   3.549
 8404SOL     OW26110   5.788   6.785   6.399
 8404SOL    HW126111   5.828   6.735   6.475
 8404SOL    HW226112   5.842   6.867   6.381
 8405SOL     OW26113   2.087   1.982   0.149
 8405SOL    HW126114   2.165   2.045   0.154
 8405SOL    HW226115   2.008   2.030   0.111
 8406SOL     OW26116   4.519   1.387   0.704
 8406SOL    HW126117   4.439   1.329   0.685
 8406SOL    HW226118   4.517   1.416   0.799
 8407SOL     OW26119   5.492   5.341   4.177
 8407SOL    HW126120   5.465   5.313   4.084
 8407SOL    HW226121   5.566   5.407   4.172
 8408SOL     OW26122   5.329   0.643   3.816
 8408SOL    HW126123   5.333   0.700   3.898
 8408SOL    HW226124   5.420   0.608   3.795
 8409SOL     OW26125   0.293   2.197   3.761
 8409SOL    HW126126   0.376   2.218   3.710
 8409SOL    HW226127   0.288   2.255   3.842
 8410SOL     OW26128   4.243   0.950   1.399
 8410SOL    HW126129   4.148   0.979   1.388
 8410SOL    HW226130   4.279   0.986   1.485
 8411SOL     OW26131   1.922   5.289   3.703
 8411SOL    HW126132   1.877   5.251   3.623
 8411SOL    HW226133   1.864   5.359   3.744
 8412SOL     OW26134   4.472   1.851   1.405
 8412SOL    HW126135   4.546   1.852   1.472
 8412SOL    HW226136   4.464   1.760   1.365
 8413SOL     OW26137   4.239   4.790   0.570
 8413SOL    HW126138   4.236   4.693   0.549
 8413SOL    HW226139   4.171   4.838   0.514
 8414SOL     OW26140   3.856   0.308   2.631
 8414SOL    HW126141   3.894   0.249   2.560
 8414SOL    HW226142   3.868   0.404   2.604
 8415SOL     OW26143   0.354   4.984   3.600
 8415SOL    HW126144   0.354   5.057   3.532
 8415SOL    HW226145   0.291   5.007   3.674
 8416SOL     OW26146   4.971   4.326   2.673
 8416SOL    HW126147   4.936   4.419   2.690
 8416SOL    HW226148   4.962   4.305   2.576
 8417SOL     OW26149   1.931   6.309   5.511
 8417SOL    HW126150   1.917   6.339   5.417
 8417SOL    HW226151   1.849   6.329   5.565
 8418SOL     OW26152   5.363   5.129   1.865
 8418SOL    HW126153   5.361   5.205   1.930
 8418SOL    HW226154   5.274   5.084   1.863
 8419SOL     OW26155   4.396   0.595   2.057
 8419SOL    HW126156   4.397   0.688   2.092
 8419SOL    HW226157   4.328   0.587   1.984
 8420SOL     OW26158   3.823   6.582   0.783
 8420SOL    HW126159   3.757   6.549   0.850
 8420SOL    HW226160   3.811   6.681   0.771
 8421SOL     OW26161   2.974   6.860   1.293
 8421SOL    HW126162   3.036   6.807   1.235
 8421SOL    HW226163   2.893   6.806   1.313
 8422SOL     OW26164   5.363   6.377   1.051
 8422SOL    HW126165   5.461   6.364   1.039
 8422SOL    HW226166   5.343   6.391   1.148
 8423SOL     OW26167   4.077   4.830   6.692
 8423SOL    HW126168   4.134   4.910   6.673
 8423SOL    HW226169   4.135   4.755   6.723
 8424SOL     OW26170   2.951   2.246   2.658
 8424SOL    HW126171   2.912   2.220   2.747
 8424SOL    HW226172   3.041   2.287   2.671
 8425SOL     OW26173   6.883   5.416   1.001
 8425SOL    HW126174   6.824   5.426   1.081
 8425SOL    HW226175   6.827   5.399   0.920
 8426SOL     OW26176   3.676   3.040   3.740
 8426SOL    HW126177   3.742   3.034   3.666
 8426SOL    HW226178   3.613   2.963   3.735
 8427SOL     OW26179   1.549   4.073   6.021
 8427SOL    HW126180   1.570   4.042   6.113
 8427SOL    HW226181   1.623   4.046   5.959
 8428SOL     OW26182   6.649   4.670   2.119
 8428SOL    HW126183   6.645   4.648   2.216
 8428SOL    HW226184   6.685   4.592   2.068
 8429SOL     OW26185   2.030   4.334   4.646
 8429SOL    HW126186   2.075   4.407   4.596
 8429SOL    HW226187   2.095   4.262   4.667
 8430SOL     OW26188   4.035   5.247   2.790
 8430SOL    HW126189   4.069   5.272   2.700
 8430SOL    HW226190   4.101   5.187   2.836
 8431SOL     OW26191   2.213   5.020   1.235
 8431SOL    HW126192   2.213   5.120   1.238
 8431SOL    HW226193   2.284   4.984   1.295
 8432SOL     OW26194   4.376   4.827   6.004
 8432SOL    HW126195   4.280   4.847   5.983
 8432SOL    HW226196   4.406   4.748   5.951
 8433SOL     OW26197   0.809   2.774   6.656
 8433SOL    HW126198   0.894   2.763   6.707
 8433SOL    HW226199   0.768   2.684   6.639
 8434SOL     OW26200   3.040   6.927   5.290
 8434SOL    HW126201   3.109   6.883   5.347
 8434SOL    HW226202   3.031   7.023   5.316
 8435SOL     OW26203   4.995   1.917   1.395
 8435SOL    HW126204   5.095   1.914   1.388
 8435SOL    HW226205   4.969   1.931   1.491
 8436SOL     OW26206   3.818   6.387   3.767
 8436SOL    HW126207   3.890   6.456   3.761
 8436SOL    HW226208   3.760   6.391   3.686
 8437SOL     OW26209   1.730   0.124   1.943
 8437SOL    HW126210   1.727   0.178   2.027
 8437SOL    HW226211   1.641   0.080   1.928
 8438SOL     OW26212   2.944   4.804   2.146
 8438SOL    HW126213   2.957   4.809   2.245
 8438SOL    HW226214   2.850   4.780   2.125
 8439SOL     OW26215   6.955   5.927   1.642
 8439SOL    HW126216   6.908   6.016   1.648
 8439SOL    HW226217   0.005   5.936   1.582
 8440SOL     OW26218   0.193   0.659   2.748
 8440SOL    HW126219   0.270   0.712   2.713
 8440SOL    HW226220   0.221   0.610   2.830
 8441SOL     OW26221   6.119   6.014   0.537
 8441SOL    HW126222   6.118   6.100   0.486
 8441SOL    HW226223   6.204   6.006   0.588
 8442SOL     OW26224   4.152   3.309   6.765
 8442SOL    HW126225   4.090   3.244   6.721
 8442SOL    HW226226   4.229   3.259   6.806
 8443SOL     OW26227   1.644   6.967   3.112
 8443SOL    HW126228   1.614   6.872   3.119
 8443SOL    HW226229   1.584   7.025   3.166
 8444SOL     OW26230   3.019   6.047   3.540
 8444SOL    HW126231   3.044   6.057   3.637
 8444SOL    HW226232   2.921   6.064   3.529
 8445SOL     OW26233   3.049   5.114   1.915
 8445SOL    HW126234   2.979   5.157   1.972
 8445SOL    HW226235   3.059   5.018   1.941
 8446SOL     OW26236   4.713   5.601   1.622
 8446SOL    HW126237   4.774   5.526   1.646
 8446SOL    HW226238   4.739   5.639   1.533
 8447SOL     OW26239   5.900   2.392   2.587
 8447SOL    HW126240   5.825   2.456   2.574
 8447SOL    HW226241   5.943   2.372   2.499
 8448SOL     OW26242   0.074   3.741   5.377
 8448SOL    HW126243   0.029   3.807   5.437
 8448SOL    HW226244   0.117   3.670   5.432
 8449SOL     OW26245   0.416   3.134   4.000
 8449SOL    HW126246   0.399   3.226   4.036
 8449SOL    HW226247   0.476   3.140   3.921
 8450SOL     OW26248   2.085   6.275   2.199
 8450SOL    HW126249   2.008   6.265   2.136
 8450SOL    HW226250   2.169   6.293   2.147
 8451SOL     OW26251   4.184   2.439   0.808
 8451SOL    HW126252   4.243   2.481   0.739
 8451SOL    HW226253   4.241   2.396   0.878
 8452SOL     OW26254   0.323   6.868   1.222
 8452SOL    HW126255   0.326   6.965   1.197
 8452SOL    HW226256   0.330   6.812   1.140
 8453SOL     OW26257   6.864   4.958   6.128
 8453SOL    HW126258   6.827   4.866   6.129
 8453SOL    HW226259   6.797   5.022   6.089
 8454SOL     OW26260   1.662   5.690   2.034
 8454SOL    HW126261   1.592   5.657   1.972
 8454SOL    HW226262   1.721   5.756   1.987
 8455SOL     OW26263   5.023   1.649   1.094
 8455SOL    HW126264   5.117   1.680   1.081
 8455SOL    HW226265   5.007   1.630   1.190
 8456SOL     OW26266   6.097   5.286   3.431
 8456SOL    HW126267   6.148   5.297   3.346
 8456SOL    HW226268   6.042   5.203   3.428
 8457SOL     OW26269   6.604   6.588   5.968
 8457SOL    HW126270   6.560   6.678   5.965
 8457SOL    HW226271   6.582   6.543   6.054
 8458SOL     OW26272   2.000   1.238   6.801
 8458SOL    HW126273   1.994   1.306   6.728
 8458SOL    HW226274   2.014   1.283   6.888
 8459SOL     OW26275   4.022   6.656   1.366
 8459SOL    HW126276   3.988   6.563   1.381
 8459SOL    HW226277   3.991   6.715   1.440
 8460SOL     OW26278   4.123   2.643   5.988
 8460SOL    HW126279   4.029   2.671   6.010
 8460SOL    HW226280   4.127   2.611   5.893
 8461SOL     OW26281   1.270   3.285   1.755
 8461SOL    HW126282   1.344   3.320   1.812
 8461SOL    HW226283   1.183   3.323   1.785
 8462SOL     OW26284   3.352   2.193   6.935
 8462SOL    HW126285   3.387   2.213   7.026
 8462SOL    HW226286   3.422   2.215   6.867
 8463SOL     OW26287   0.093   1.941   0.254
 8463SOL    HW126288   0.132   2.011   0.194
 8463SOL    HW226289   0.146   1.937   0.339
 8464SOL     OW26290   0.002   4.188   5.351
 8464SOL    HW126291   0.082   4.137   5.383
 8464SOL    HW226292   7.001   4.251   5.423
 8465SOL     OW26293   2.851   2.125   0.979
 8465SOL    HW126294   2.925   2.081   0.928
 8465SOL    HW226295   2.890   2.188   1.046
 8466SOL     OW26296   6.387   6.886   5.364
 8466SOL    HW126297   6.317   6.817   5.348
 8466SOL    HW226298   6.345   6.976   5.368
 8467SOL     OW26299   3.805   0.935   0.959
 8467SOL    HW126300   3.876   1.003   0.941
 8467SOL    HW226301   3.811   0.862   0.891
 8468SOL     OW26302   6.400   3.121   6.694
 8468SOL    HW126303   6.495   3.088   6.696
 8468SOL    HW226304   6.387   3.190   6.765
 8469SOL     OW26305   2.638   2.330   5.941
 8469SOL    HW126306   2.633   2.231   5.933
 8469SOL    HW226307   2.719   2.356   5.995
 8470SOL     OW26308   0.794   4.682   0.368
 8470SOL    HW126309   0.868   4.696   0.302
 8470SOL    HW226310   0.819   4.723   0.455
 8471SOL     OW26311   3.534   0.441   5.402
 8471SOL    HW126312   3.600   0.436   5.327
 8471SOL    HW226313   3.459   0.501   5.378
 8472SOL     OW26314   5.619   1.764   5.680
 8472SOL    HW126315   5.693   1.723   5.733
 8472SOL    HW226316   5.640   1.760   5.583
 8473SOL     OW26317   4.914   5.454   0.570
 8473SOL    HW126318   5.007   5.490   0.578
 8473SOL    HW226319   4.914   5.356   0.592
 8474SOL     OW26320   3.188   4.123   2.386
 8474SOL    HW126321   3.123   4.193   2.357
 8474SOL    HW226322   3.214   4.067   2.308
 8475SOL     OW26323   6.878   2.816   2.483
 8475SOL    HW126324   6.892   2.886   2.552
 8475SOL    HW226325   6.833   2.737   2.525
 8476SOL     OW26326   6.971   0.951   1.817
 8476SOL    HW126327   6.929   0.860   1.823
 8476SOL    HW226328   0.021   0.956   1.877
 8477SOL     OW26329   4.420   6.538   2.319
 8477SOL    HW126330   4.439   6.440   2.327
 8477SOL    HW226331   4.327   6.552   2.284
 8478SOL     OW26332   0.725   1.414   5.775
 8478SOL    HW126333   0.653   1.383   5.713
 8478SOL    HW226334   0.753   1.507   5.749
 8479SOL     OW26335   1.068   3.069   1.914
 8479SOL    HW126336   1.012   3.070   1.831
 8479SOL    HW226337   1.136   2.996   1.906
 8480SOL     OW26338   5.052   3.220   0.054
 8480SOL    HW126339   5.140   3.261   0.030
 8480SOL    HW226340   4.992   3.220   7.003
 8481SOL     OW26341   4.572   2.310   5.115
 8481SOL    HW126342   4.551   2.213   5.121
 8481SOL    HW226343   4.527   2.349   5.034
 8482SOL     OW26344   4.541   0.396   1.651
 8482SOL    HW126345   4.509   0.389   1.746
 8482SOL    HW226346   4.612   0.466   1.644
 8483SOL     OW26347   2.374   5.400   3.006
 8483SOL    HW126348   2.308   5.398   3.082
 8483SOL    HW226349   2.460   5.440   3.038
 8484SOL     OW26350   6.725   6.093   4.951
 8484SOL    HW126351   6.713   6.120   5.046
 8484SOL    HW226352   6.819   6.112   4.922
 8485SOL     OW26353   4.198   2.321   0.183
 8485SOL    HW126354   4.207   2.338   0.084
 8485SOL    HW226355   4.102   2.320   0.208
 8486SOL     OW26356   2.085   0.866   2.909
 8486SOL    HW126357   2.091   0.965   2.895
 8486SOL    HW226358   2.167   0.834   2.957
 8487SOL     OW26359   5.402   2.157   6.180
 8487SOL    HW126360   5.442   2.148   6.271
 8487SOL    HW226361   5.419   2.250   6.145
 8488SOL     OW26362   5.507   5.826   2.937
 8488SOL    HW126363   5.449   5.756   2.977
 8488SOL    HW226364   5.451   5.905   2.912
 8489SOL     OW26365   0.097   0.397   1.639
 8489SOL    HW126366   0.133   0.304   1.648
 8489SOL    HW226367   0.053   0.407   1.550
 8490SOL     OW26368   3.131   6.533   5.581
 8490SOL    HW126369   3.138   6.444   5.626
 8490SOL    HW226370   3.082   6.596   5.639
 8491SOL     OW26371   2.043   6.268   2.468
 8491SOL    HW126372   2.039   6.234   2.374
 8491SOL    HW226373   2.063   6.193   2.531
 8492SOL     OW26374   5.939   5.170   4.010
 8492SOL    HW126375   5.873   5.103   3.975
 8492SOL    HW226376   6.003   5.195   3.937
 8493SOL     OW26377   2.543   1.782   0.289
 8493SOL    HW126378   2.490   1.851   0.338
 8493SOL    HW226379   2.631   1.820   0.264
 8494SOL     OW26380   4.715   5.017   2.079
 8494SOL    HW126381   4.625   5.013   2.035
 8494SOL    HW226382   4.781   5.060   2.018
 8495SOL     OW26383   0.276   5.253   0.941
 8495SOL    HW126384   0.284   5.282   1.037
 8495SOL    HW226385   0.219   5.317   0.891
 8496SOL     OW26386   5.913   1.393   2.283
 8496SOL    HW126387   5.935   1.297   2.298
 8496SOL    HW226388   5.968   1.450   2.344
 8497SOL     OW26389   0.981   0.198   3.462
 8497SOL    HW126390   0.941   0.142   3.390
 8497SOL    HW226391   1.077   0.215   3.441
 8498SOL     OW26392   6.259   6.405   3.472
 8498SOL    HW126393   6.268   6.495   3.430
 8498SOL    HW226394   6.326   6.343   3.432
 8499SOL     OW26395   0.572   4.399   0.091
 8499SOL    HW126396   0.590   4.416   0.188
 8499SOL    HW226397   0.634   4.328   0.058
 8500SOL     OW26398   1.644   6.480   5.947
 8500SOL    HW126399   1.581   6.405   5.926
 8500SOL    HW226400   1.681   6.469   6.039
 8501SOL     OW26401   0.932   2.482   6.507
 8501SOL    HW126402   1.015   2.533   6.526
 8501SOL    HW226403   0.955   2.399   6.456
 8502SOL     OW26404   0.631   2.951   1.475
 8502SOL    HW126405   0.658   3.028   1.418
 8502SOL    HW226406   0.531   2.941   1.472
 8503SOL     OW26407   6.657   5.838   5.622
 8503SOL    HW126408   6.630   5.781   5.545
 8503SOL    HW226409   6.722   5.908   5.592
 8504SOL     OW26410   1.650   5.315   2.050
 8504SOL    HW126411   1.588   5.239   2.025
 8504SOL    HW226412   1.689   5.296   2.140
 8505SOL     OW26413   5.642   3.429   2.827
 8505SOL    HW126414   5.542   3.418   2.827
 8505SOL    HW226415   5.684   3.357   2.881
 8506SOL     OW26416   1.363   0.455   6.929
 8506SOL    HW126417   1.319   0.541   6.902
 8506SOL    HW226418   1.330   0.427   7.019
 8507SOL     OW26419   3.863   0.041   4.987
 8507SOL    HW126420   3.844   6.978   5.019
 8507SOL    HW226421   3.939   0.039   4.922
 8508SOL     OW26422   4.194   1.199   5.531
 8508SOL    HW126423   4.216   1.296   5.517
 8508SOL    HW226424   4.265   1.156   5.586
 8509SOL     OW26425   5.833   6.583   4.166
 8509SOL    HW126426   5.921   6.559   4.125
 8509SOL    HW226427   5.761   6.526   4.126
 8510SOL     OW26428   5.283   3.760   3.380
 8510SOL    HW126429   5.308   3.857   3.383
 8510SOL    HW226430   5.332   3.716   3.305
 8511SOL     OW26431   6.593   2.994   2.652
 8511SOL    HW126432   6.593   2.898   2.625
 8511SOL    HW226433   6.549   3.049   2.581
 8512SOL     OW26434   2.536   6.886   2.906
 8512SOL    HW126435   2.606   6.944   2.864
 8512SOL    HW226436   2.559   6.872   3.003
 8513SOL     OW26437   0.145   5.448   1.129
 8513SOL    HW126438   0.071   5.498   1.083
 8513SOL    HW226439   0.112   5.358   1.156
 8514SOL     OW26440   3.205   0.137   3.456
 8514SOL    HW126441   3.152   0.187   3.525
 8514SOL    HW226442   3.146   0.069   3.412
 8515SOL     OW26443   4.931   2.410   0.703
 8515SOL    HW126444   4.931   2.507   0.680
 8515SOL    HW226445   4.994   2.394   0.780
 8516SOL     OW26446   6.911   1.989   2.509
 8516SOL    HW126447   6.960   1.902   2.508
 8516SOL    HW226448   6.850   1.994   2.430
 8517SOL     OW26449   0.517   2.570   5.691
 8517SOL    HW126450   0.522   2.660   5.649
 8517SOL    HW226451   0.587   2.510   5.651
 8518SOL     OW26452   4.032   4.651   0.362
 8518SOL    HW126453   4.059   4.587   0.290
 8518SOL    HW226454   3.952   4.702   0.333
 8519SOL     OW26455   1.793   5.896   1.918
 8519SOL    HW126456   1.789   5.895   1.818
 8519SOL    HW226457   1.877   5.940   1.948
 8520SOL     OW26458   4.061   0.776   0.375
 8520SOL    HW126459   4.041   0.798   0.279
 8520SOL    HW226460   3.981   0.734   0.417
 8521SOL     OW26461   1.509   5.823   5.569
 8521SOL    HW126462   1.593   5.778   5.539
 8521SOL    HW226463   1.527   5.875   5.653
 8522SOL     OW26464   1.695   5.559   2.292
 8522SOL    HW126465   1.733   5.470   2.266
 8522SOL    HW226466   1.685   5.616   2.210
 8523SOL     OW26467   2.422   0.275   6.194
 8523SOL    HW126468   2.512   0.239   6.220
 8523SOL    HW226469   2.360   0.270   6.273
 8524SOL     OW26470   1.113   2.661   4.565
 8524SOL    HW126471   1.186   2.669   4.498
 8524SOL    HW226472   1.144   2.697   4.653
 8525SOL     OW26473   6.184   3.815   2.707
 8525SOL    HW126474   6.115   3.768   2.761
 8525SOL    HW226475   6.243   3.869   2.768
 8526SOL     OW26476   2.676   3.609   1.553
 8526SOL    HW126477   2.665   3.697   1.599
 8526SOL    HW226478   2.623   3.540   1.601
 8527SOL     OW26479   4.118   0.619   4.628
 8527SOL    HW126480   4.137   0.608   4.530
 8527SOL    HW226481   4.109   0.529   4.671
 8528SOL     OW26482   4.593   3.475   5.989
 8528SOL    HW126483   4.540   3.550   6.029
 8528SOL    HW226484   4.603   3.402   6.056
 8529SOL     OW26485   1.009   6.303   0.057
 8529SOL    HW126486   0.924   6.259   0.088
 8529SOL    HW226487   1.081   6.234   0.051
 8530SOL     OW26488   0.953   5.226   5.124
 8530SOL    HW126489   1.026   5.166   5.157
 8530SOL    HW226490   0.874   5.171   5.099
 8531SOL     OW26491   5.470   4.163   3.526
 8531SOL    HW126492   5.541   4.181   3.593
 8531SOL    HW226493   5.383   4.199   3.560
 8532SOL     OW26494   4.157   4.797   4.834
 8532SOL    HW126495   4.077   4.814   4.892
 8532SOL    HW226496   4.199   4.710   4.860
 8533SOL     OW26497   1.772   1.043   5.962
 8533SOL    HW126498   1.809   1.073   5.875
 8533SOL    HW226499   1.699   1.105   5.991
 8534SOL     OW26500   0.260   5.250   2.489
 8534SOL    HW126501   0.212   5.331   2.523
 8534SOL    HW226502   0.292   5.196   2.567
 8535SOL     OW26503   0.712   2.090   4.783
 8535SOL    HW126504   0.736   2.180   4.746
 8535SOL    HW226505   0.691   2.099   4.881
 8536SOL     OW26506   6.068   2.660   4.995
 8536SOL    HW126507   6.098   2.566   4.977
 8536SOL    HW226508   6.121   2.698   5.071
 8537SOL     OW26509   6.235   1.227   1.189
 8537SOL    HW126510   6.173   1.287   1.138
 8537SOL    HW226511   6.311   1.280   1.225
 8538SOL     OW26512   0.393   0.430   5.087
 8538SOL    HW126513   0.431   0.463   5.174
 8538SOL    HW226514   0.371   0.508   5.029
 8539SOL     OW26515   6.397   2.538   2.386
 8539SOL    HW126516   6.343   2.478   2.446
 8539SOL    HW226517   6.411   2.626   2.432
 8540SOL     OW26518   3.558   1.401   1.014
 8540SOL    HW126519   3.616   1.411   0.934
 8540SOL    HW226520   3.463   1.419   0.989
 8541SOL     OW26521   2.833   1.151   5.515
 8541SOL    HW126522   2.830   1.167   5.613
 8541SOL    HW226523   2.853   1.237   5.467
 8542SOL     OW26524   3.222   4.408   6.547
 8542SOL    HW126525   3.124   4.423   6.538
 8542SOL    HW226526   3.255   4.451   6.632
 8543SOL     OW26527   2.888   1.800   5.520
 8543SOL    HW126528   2.788   1.794   5.523
 8543SOL    HW226529   2.915   1.895   5.511
 8544SOL     OW26530   5.114   3.568   5.301
 8544SOL    HW126531   5.158   3.567   5.391
 8544SOL    HW226532   5.116   3.475   5.263
 8545SOL     OW26533   3.051   6.577   4.841
 8545SOL    HW126534   3.072   6.675   4.843
 8545SOL    HW226535   2.962   6.561   4.884
 8546SOL     OW26536   5.147   0.658   1.062
 8546SOL    HW126537   5.124   0.605   0.980
 8546SOL    HW226538   5.099   0.620   1.140
 8547SOL     OW26539   6.802   0.102   5.588
 8547SOL    HW126540   6.747   0.125   5.668
 8547SOL    HW226541   6.752   0.127   5.505
 8548SOL     OW26542   0.416   3.183   5.349
 8548SOL    HW126543   0.384   3.226   5.264
 8548SOL    HW226544   0.483   3.113   5.327
 8549SOL     OW26545   1.030   2.067   3.661
 8549SOL    HW126546   1.120   2.031   3.637
 8549SOL    HW226547   0.963   2.039   3.591
 8550SOL     OW26548   0.587   4.077   6.412
 8550SOL    HW126549   0.604   4.014   6.337
 8550SOL    HW226550   0.528   4.033   6.480
 8551SOL     OW26551   2.144   2.367   6.590
 8551SOL    HW126552   2.197   2.428   6.531
 8551SOL    HW226553   2.047   2.390   6.583
 8552SOL     OW26554   3.402   0.550   1.953
 8552SOL    HW126555   3.405   0.632   1.897
 8552SOL    HW226556   3.469   0.558   2.027
 8553SOL     OW26557   3.834   3.715   0.184
 8553SOL    HW126558   3.808   3.806   0.153
 8553SOL    HW226559   3.794   3.647   0.123
 8554SOL     OW26560   1.039   6.737   1.332
 8554SOL    HW126561   1.080   6.715   1.243
 8554SOL    HW226562   0.948   6.776   1.318
 8555SOL     OW26563   4.416   1.772   3.239
 8555SOL    HW126564   4.447   1.747   3.330
 8555SOL    HW226565   4.389   1.690   3.189
 8556SOL     OW26566   1.330   6.128   5.714
 8556SOL    HW126567   1.348   6.031   5.696
 8556SOL    HW226568   1.232   6.140   5.734
 8557SOL     OW26569   0.124   0.995   0.709
 8557SOL    HW126570   0.155   0.947   0.791
 8557SOL    HW226571   0.057   1.064   0.735
 8558SOL     OW26572   1.848   4.669   3.214
 8558SOL    HW126573   1.923   4.607   3.235
 8558SOL    HW226574   1.884   4.748   3.164
 8559SOL     OW26575   0.782   6.629   3.066
 8559SOL    HW126576   0.785   6.686   3.148
 8559SOL    HW226577   0.752   6.537   3.090
 8560SOL     OW26578   1.094   5.599   1.725
 8560SOL    HW126579   1.118   5.520   1.782
 8560SOL    HW226580   1.025   5.654   1.772
 8561SOL     OW26581   3.886   0.345   3.247
 8561SOL    HW126582   3.862   0.336   3.150
 8561SOL    HW226583   3.911   0.440   3.266
 8562SOL     OW26584   3.926   0.547   6.747
 8562SOL    HW126585   4.015   0.581   6.777
 8562SOL    HW226586   3.855   0.612   6.772
 8563SOL     OW26587   1.270   6.020   2.199
 8563SOL    HW126588   1.174   5.995   2.184
 8563SOL    HW226589   1.278   6.079   2.279
 8564SOL     OW26590   3.876   5.979   6.539
 8564SOL    HW126591   3.892   5.955   6.635
 8564SOL    HW226592   3.954   5.950   6.484
 8565SOL     OW26593   3.646   5.358   1.389
 8565SOL    HW126594   3.696   5.323   1.309
 8565SOL    HW226595   3.697   5.336   1.472
 8566SOL     OW26596   2.731   0.705   2.913
 8566SOL    HW126597   2.778   0.772   2.969
 8566SOL    HW226598   2.667   0.752   2.852
 8567SOL     OW26599   1.803   2.043   1.836
 8567SOL    HW126600   1.803   1.947   1.809
 8567SOL    HW226601   1.828   2.100   1.758
 8568SOL     OW26602   7.015   1.390   0.415
 8568SOL    HW126603   6.959   1.307   0.417
 8568SOL    HW226604   0.077   1.368   0.449
 8569SOL     OW26605   4.805   2.228   6.155
 8569SOL    HW126606   4.856   2.161   6.209
 8569SOL    HW226607   4.806   2.316   6.202
 8570SOL     OW26608   1.613   1.679   4.524
 8570SOL    HW126609   1.712   1.667   4.514
 8570SOL    HW226610   1.588   1.666   4.620
 8571SOL     OW26611   1.294   1.161   4.934
 8571SOL    HW126612   1.340   1.175   4.846
 8571SOL    HW226613   1.298   1.064   4.959
 8572SOL     OW26614   2.544   4.050   6.079
 8572SOL    HW126615   2.447   4.070   6.064
 8572SOL    HW226616   2.598   4.090   6.005
 8573SOL     OW26617   2.564   6.021   6.784
 8573SOL    HW126618   2.510   6.077   6.721
 8573SOL    HW226619   2.555   6.055   6.877
 8574SOL     OW26620   6.263   7.023   6.471
 8574SOL    HW126621   6.194   0.060   6.500
 8574SOL    HW226622   6.342   0.043   6.434
 8575SOL     OW26623   3.373   0.899   2.359
 8575SOL    HW126624   3.313   0.822   2.335
 8575SOL    HW226625   3.457   0.893   2.304
 8576SOL     OW26626   1.339   4.058   4.482
 8576SOL    HW126627   1.360   3.968   4.444
 8576SOL    HW226628   1.384   4.068   4.571
 8577SOL     OW26629   1.599   1.240   6.080
 8577SOL    HW126630   1.657   1.307   6.127
 8577SOL    HW226631   1.530   1.206   6.143
 8578SOL     OW26632   6.238   6.545   5.564
 8578SOL    HW126633   6.289   6.602   5.627
 8578SOL    HW226634   6.159   6.506   5.611
 8579SOL     OW26635   2.297   6.395   2.522
 8579SOL    HW126636   2.327   6.438   2.437
 8579SOL    HW226637   2.205   6.358   2.510
 8580SOL     OW26638   0.981   6.791   0.671
 8580SOL    HW126639   1.067   6.841   0.662
 8580SOL    HW226640   0.966   6.735   0.590
 8581SOL     OW26641   3.765   4.961   1.374
 8581SOL    HW126642   3.755   4.873   1.421
 8581SOL    HW226643   3.858   4.995   1.388
 8582SOL     OW26644   4.794   4.519   5.654
 8582SOL    HW126645   4.785   4.455   5.731
 8582SOL    HW226646   4.720   4.503   5.589
 8583SOL     OW26647   4.015   6.826   3.238
 8583SOL    HW126648   4.115   6.822   3.232
 8583SOL    HW226649   3.987   6.919   3.261
 8584SOL     OW26650   0.050   0.436   4.798
 8584SOL    HW126651   6.988   0.455   4.834
 8584SOL    HW226652   0.043   0.386   4.712
 8585SOL     OW26653   5.848   1.585   1.198
 8585SOL    HW126654   5.775   1.604   1.132
 8585SOL    HW226655   5.869   1.668   1.250
 8586SOL     OW26656   5.053   6.466   1.027
 8586SOL    HW126657   5.139   6.514   1.009
 8586SOL    HW226658   5.004   6.512   1.101
 8587SOL     OW26659   0.843   1.525   4.846
 8587SOL    HW126660   0.760   1.572   4.877
 8587SOL    HW226661   0.919   1.550   4.906
 8588SOL     OW26662   4.264   0.994   6.870
 8588SOL    HW126663   4.247   1.090   6.891
 8588SOL    HW226664   4.318   0.952   6.943
 8589SOL     OW26665   6.640   2.895   4.964
 8589SOL    HW126666   6.659   2.867   4.869
 8589SOL    HW226667   6.715   2.952   4.997
 8590SOL     OW26668   0.217   0.256   3.046
 8590SOL    HW126669   0.290   0.317   3.017
 8590SOL    HW226670   0.144   0.308   3.090
 8591SOL     OW26671   6.509   4.684   0.309
 8591SOL    HW126672   6.544   4.630   0.232
 8591SOL    HW226673   6.450   4.628   0.366
 8592SOL     OW26674   0.096   2.950   0.048
 8592SOL    HW126675   0.106   3.026   7.012
 8592SOL    HW226676   0.182   2.900   0.054
 8593SOL     OW26677   3.132   1.070   6.886
 8593SOL    HW126678   3.228   1.044   6.891
 8593SOL    HW226679   3.076   0.988   6.868
 8594SOL     OW26680   6.427   2.987   5.712
 8594SOL    HW126681   6.481   2.906   5.736
 8594SOL    HW226682   6.464   3.067   5.760
 8595SOL     OW26683   5.706   0.345   3.755
 8595SOL    HW126684   5.623   0.368   3.705
 8595SOL    HW226685   5.693   0.362   3.853
 8596SOL     OW26686   1.109   4.075   3.110
 8596SOL    HW126687   1.034   4.011   3.093
 8596SOL    HW226688   1.166   4.082   3.029
 8597SOL     OW26689   5.899   2.222   0.855
 8597SOL    HW126690   5.927   2.184   0.942
 8597SOL    HW226691   5.799   2.229   0.852
 8598SOL     OW26692   5.562   0.285   5.521
 8598SOL    HW126693   5.540   0.337   5.603
 8598SOL    HW226694   5.661   0.284   5.508
 8599SOL     OW26695   1.175   2.710   3.787
 8599SOL    HW126696   1.175   2.638   3.718
 8599SOL    HW226697   1.090   2.763   3.781
 8600SOL     OW26698   5.304   4.231   1.121
 8600SOL    HW126699   5.262   4.145   1.153
 8600SOL    HW226700   5.269   4.253   1.030
 8601SOL     OW26701   6.942   1.289   3.950
 8601SOL    HW126702   6.964   1.253   4.041
 8601SOL    HW226703   7.027   1.320   3.906
 8602SOL     OW26704   2.424   6.535   3.090
 8602SOL    HW126705   2.329   6.562   3.105
 8602SOL    HW226706   2.427   6.445   3.046
 8603SOL     OW26707   5.903   1.309   6.047
 8603SOL    HW126708   5.884   1.288   6.143
 8603SOL    HW226709   5.822   1.352   6.006
 8604SOL     OW26710   0.726   2.549   6.093
 8604SOL    HW126711   0.638   2.557   6.047
 8604SOL    HW226712   0.739   2.626   6.156
 8605SOL     OW26713   0.991   4.421   4.280
 8605SOL    HW126714   1.047   4.341   4.300
 8605SOL    HW226715   1.049   4.497   4.253
 8606SOL     OW26716   3.155   1.855   0.092
 8606SOL    HW126717   3.164   1.837   7.024
 8606SOL    HW226718   3.235   1.820   0.140
 8607SOL     OW26719   2.284   4.636   6.829
 8607SOL    HW126720   2.247   4.555   6.784
 8607SOL    HW226721   2.305   4.705   6.761
 8608SOL     OW26722   2.041   4.937   2.419
 8608SOL    HW126723   2.043   4.951   2.320
 8608SOL    HW226724   2.127   4.968   2.459
 8609SOL     OW26725   4.999   0.791   4.181
 8609SOL    HW126726   5.043   0.810   4.269
 8609SOL    HW226727   5.056   0.828   4.107
 8610SOL     OW26728   0.166   6.928   3.384
 8610SOL    HW126729   0.116   7.009   3.415
 8610SOL    HW226730   0.175   6.931   3.284
 8611SOL     OW26731   2.592   1.039   4.617
 8611SOL    HW126732   2.609   0.953   4.569
 8611SOL    HW226733   2.504   1.077   4.589
 8612SOL     OW26734   2.862   3.326   2.026
 8612SOL    HW126735   2.908   3.413   2.006
 8612SOL    HW226736   2.792   3.341   2.097
 8613SOL     OW26737   2.581   2.454   1.902
 8613SOL    HW126738   2.570   2.404   1.988
 8613SOL    HW226739   2.507   2.520   1.893
 8614SOL     OW26740   1.331   2.535   3.065
 8614SOL    HW126741   1.246   2.583   3.045
 8614SOL    HW226742   1.353   2.543   3.163
 8615SOL     OW26743   4.418   1.601   5.253
 8615SOL    HW126744   4.499   1.592   5.196
 8615SOL    HW226745   4.437   1.663   5.329
 8616SOL     OW26746   2.307   4.656   1.843
 8616SOL    HW126747   2.325   4.750   1.815
 8616SOL    HW226748   2.394   4.607   1.851
 8617SOL     OW26749   5.642   0.749   4.112
 8617SOL    HW126750   5.677   0.657   4.093
 8617SOL    HW226751   5.559   0.764   4.060
 8618SOL     OW26752   6.769   4.094   0.783
 8618SOL    HW126753   6.822   4.066   0.702
 8618SOL    HW226754   6.827   4.149   0.843
 8619SOL     OW26755   4.498   4.985   3.290
 8619SOL    HW126756   4.401   5.009   3.292
 8619SOL    HW226757   4.516   4.917   3.361
 8620SOL     OW26758   1.658   0.392   4.559
 8620SOL    HW126759   1.640   0.434   4.648
 8620SOL    HW226760   1.630   0.454   4.486
 8621SOL     OW26761   4.759   2.928   2.280
 8621SOL    HW126762   4.715   2.851   2.326
 8621SOL    HW226763   4.730   2.931   2.185
 8622SOL     OW26764   5.918   5.231   1.896
 8622SOL    HW126765   5.876   5.161   1.954
 8622SOL    HW226766   6.018   5.225   1.903
 8623SOL     OW26767   0.297   3.652   4.823
 8623SOL    HW126768   0.259   3.568   4.863
 8623SOL    HW226769   0.387   3.633   4.785
 8624SOL     OW26770   3.733   3.839   5.925
 8624SOL    HW126771   3.669   3.761   5.930
 8624SOL    HW226772   3.714   3.902   6.000
 8625SOL     OW26773   4.227   1.171   6.230
 8625SOL    HW126774   4.165   1.152   6.153
 8625SOL    HW226775   4.321   1.158   6.201
 8626SOL     OW26776   3.674   3.137   6.982
 8626SOL    HW126777   3.615   3.217   6.967
 8626SOL    HW226778   3.728   3.150   0.035
 8627SOL     OW26779   2.433   1.558   2.767
 8627SOL    HW126780   2.456   1.587   2.674
 8627SOL    HW226781   2.516   1.551   2.821
 8628SOL     OW26782   6.367   6.861   0.341
 8628SOL    HW126783   6.375   6.959   0.362
 8628SOL    HW226784   6.448   6.831   0.292
 8629SOL     OW26785   1.188   6.736   5.239
 8629SOL    HW126786   1.232   6.724   5.329
 8629SOL    HW226787   1.109   6.796   5.249
 8630SOL     OW26788   4.897   4.046   3.843
 8630SOL    HW126789   4.850   4.022   3.928
 8630SOL    HW226790   4.831   4.071   3.773
 8631SOL     OW26791   1.498   6.262   5.921
 8631SOL    HW126792   1.460   6.197   5.854
 8631SOL    HW226793   1.527   6.212   6.002
 8632SOL     OW26794   4.001   4.094   5.076
 8632SOL    HW126795   4.039   4.187   5.075
 8632SOL    HW226796   3.940   4.083   4.998
 8633SOL     OW26797   5.554   3.839   5.981
 8633SOL    HW126798   5.561   3.894   5.898
 8633SOL    HW226799   5.645   3.808   6.007
 8634SOL     OW26800   5.453   4.696   0.131
 8634SOL    HW126801   5.409   4.608   0.149
 8634SOL    HW226802   5.528   4.709   0.196
 8635SOL     OW26803   6.095   2.322   6.702
 8635SOL    HW126804   6.013   2.369   6.668
 8635SOL    HW226805   6.095   2.324   6.802
 8636SOL     OW26806   4.332   5.399   0.737
 8636SOL    HW126807   4.388   5.464   0.789
 8636SOL    HW226808   4.373   5.308   0.744
 8637SOL     OW26809   2.220   1.197   6.381
 8637SOL    HW126810   2.303   1.144   6.368
 8637SOL    HW226811   2.239   1.276   6.440
 8638SOL     OW26812   3.964   2.584   5.401
 8638SOL    HW126813   4.039   2.579   5.335
 8638SOL    HW226814   3.910   2.499   5.396
 8639SOL     OW26815   4.666   3.780   0.111
 8639SOL    HW126816   4.740   3.726   0.150
 8639SOL    HW226817   4.580   3.755   0.156
 8640SOL     OW26818   4.208   3.110   0.937
 8640SOL    HW126819   4.125   3.076   0.893
 8640SOL    HW226820   4.287   3.058   0.904
 8641SOL     OW26821   4.253   4.885   4.140
 8641SOL    HW126822   4.156   4.876   4.161
 8641SOL    HW226823   4.301   4.801   4.165
 8642SOL     OW26824   0.394   0.180   3.231
 8642SOL    HW126825   0.352   0.210   3.316
 8642SOL    HW226826   0.330   0.192   3.156
 8643SOL     OW26827   2.155   6.971   0.580
 8643SOL    HW126828   2.242   7.016   0.599
 8643SOL    HW226829   2.136   6.975   0.482
 8644SOL     OW26830   6.580   2.410   6.439
 8644SOL    HW126831   6.565   2.339   6.370
 8644SOL    HW226832   6.646   2.377   6.506
 8645SOL     OW26833   4.891   5.355   1.600
 8645SOL    HW126834   4.870   5.355   1.502
 8645SOL    HW226835   4.984   5.323   1.613
 8646SOL     OW26836   0.157   1.870   6.950
 8646SOL    HW126837   0.174   1.945   7.013
 8646SOL    HW226838   0.063   1.873   6.918
 8647SOL     OW26839   2.409   5.294   0.284
 8647SOL    HW126840   2.465   5.231   0.230
 8647SOL    HW226841   2.315   5.261   0.286
 8648SOL     OW26842   6.081   6.315   0.758
 8648SOL    HW126843   6.051   6.283   0.848
 8648SOL    HW226844   6.176   6.347   0.764
 8649SOL     OW26845   5.518   6.513   0.257
 8649SOL    HW126846   5.429   6.549   0.226
 8649SOL    HW226847   5.588   6.537   0.190
 8650SOL     OW26848   1.629   6.924   4.470
 8650SOL    HW126849   1.558   6.876   4.521
 8650SOL    HW226850   1.711   6.933   4.527
 8651SOL     OW26851   2.955   1.718   0.969
 8651SOL    HW126852   2.887   1.765   1.025
 8651SOL    HW226853   3.012   1.660   1.028
 8652SOL     OW26854   0.944   4.839   3.759
 8652SOL    HW126855   0.953   4.759   3.818
 8652SOL    HW226856   0.934   4.810   3.664
 8653SOL     OW26857   6.682   1.710   5.298
 8653SOL    HW126858   6.601   1.689   5.354
 8653SOL    HW226859   6.689   1.643   5.224
 8654SOL     OW26860   1.063   5.094   0.937
 8654SOL    HW126861   1.047   5.106   0.839
 8654SOL    HW226862   0.981   5.056   0.980
 8655SOL     OW26863   6.324   1.109   5.162
 8655SOL    HW126864   6.375   1.042   5.215
 8655SOL    HW226865   6.297   1.186   5.220
 8656SOL     OW26866   5.436   0.413   2.096
 8656SOL    HW126867   5.419   0.506   2.128
 8656SOL    HW226868   5.522   0.379   2.132
 8657SOL     OW26869   5.884   6.071   0.050
 8657SOL    HW126870   5.867   6.023   0.136
 8657SOL    HW226871   5.979   6.055   0.021
 8658SOL     OW26872   6.033   5.761   0.666
 8658SOL    HW126873   6.039   5.852   0.625
 8658SOL    HW226874   6.044   5.691   0.595
 8659SOL     OW26875   4.224   2.222   2.818
 8659SOL    HW126876   4.320   2.194   2.817
 8659SOL    HW226877   4.208   2.281   2.898
 8660SOL     OW26878   6.942   2.418   2.336
 8660SOL    HW126879   7.016   2.481   2.361
 8660SOL    HW226880   6.883   2.405   2.416
 8661SOL     OW26881   5.963   3.940   2.280
 8661SOL    HW126882   5.905   3.887   2.219
 8661SOL    HW226883   6.051   3.893   2.290
 8662SOL     OW26884   3.809   6.259   2.046
 8662SOL    HW126885   3.845   6.345   2.082
 8662SOL    HW226886   3.755   6.213   2.117
 8663SOL     OW26887   2.624   5.328   2.598
 8663SOL    HW126888   2.581   5.297   2.683
 8663SOL    HW226889   2.555   5.365   2.537
 8664SOL     OW26890   2.649   5.865   2.723
 8664SOL    HW126891   2.650   5.926   2.803
 8664SOL    HW226892   2.638   5.771   2.754
 8665SOL     OW26893   6.675   5.566   4.634
 8665SOL    HW126894   6.579   5.563   4.661
 8665SOL    HW226895   6.713   5.473   4.637
 8666SOL     OW26896   5.760   0.575   4.535
 8666SOL    HW126897   5.695   0.612   4.469
 8666SOL    HW226898   5.768   0.476   4.521
 8667SOL     OW26899   5.234   1.047   4.582
 8667SOL    HW126900   5.194   1.021   4.670
 8667SOL    HW226901   5.256   1.145   4.583
 8668SOL     OW26902   5.031   3.182   4.749
 8668SOL    HW126903   5.116   3.151   4.791
 8668SOL    HW226904   4.969   3.214   4.820
 8669SOL     OW26905   6.826   6.452   6.407
 8669SOL    HW126906   6.858   6.529   6.462
 8669SOL    HW226907   6.881   6.446   6.324
 8670SOL     OW26908   4.907   4.977   5.831
 8670SOL    HW126909   4.934   5.056   5.886
 8670SOL    HW226910   4.887   5.007   5.738
 8671SOL     OW26911   1.049   1.838   2.464
 8671SOL    HW126912   0.951   1.854   2.452
 8671SOL    HW226913   1.064   1.782   2.545
 8672SOL     OW26914   0.518   0.156   3.621
 8672SOL    HW126915   0.612   0.172   3.588
 8672SOL    HW226916   0.468   0.103   3.552
 8673SOL     OW26917   6.926   1.249   0.099
 8673SOL    HW126918   6.830   1.248   0.126
 8673SOL    HW226919   6.970   1.331   0.135
 8674SOL     OW26920   6.783   4.799   3.185
 8674SOL    HW126921   6.855   4.742   3.224
 8674SOL    HW226922   6.823   4.864   3.120
 8675SOL     OW26923   3.951   1.172   5.998
 8675SOL    HW126924   4.040   1.195   5.957
 8675SOL    HW226925   3.912   1.093   5.951
 8676SOL     OW26926   5.119   1.131   1.528
 8676SOL    HW126927   5.193   1.086   1.479
 8676SOL    HW226928   5.037   1.073   1.527
 8677SOL     OW26929   1.601   5.840   5.860
 8677SOL    HW126930   1.626   5.912   5.795
 8677SOL    HW226931   1.648   5.854   5.946
 8678SOL     OW26932   0.670   6.849   0.435
 8678SOL    HW126933   0.598   6.897   0.483
 8678SOL    HW226934   0.703   6.905   0.359
 8679SOL     OW26935   2.049   0.905   4.054
 8679SOL    HW126936   2.106   0.835   4.010
 8679SOL    HW226937   2.022   0.875   4.145
 8680SOL     OW26938   6.337   2.526   6.464
 8680SOL    HW126939   6.426   2.485   6.443
 8680SOL    HW226940   6.333   2.546   6.562
 8681SOL     OW26941   4.470   5.273   1.300
 8681SOL    HW126942   4.516   5.346   1.351
 8681SOL    HW226943   4.499   5.184   1.336
 8682SOL     OW26944   0.040   0.013   1.083
 8682SOL    HW126945   0.132   0.047   1.063
 8682SOL    HW226946   0.039   6.942   1.078
 8683SOL     OW26947   1.732   2.800   4.742
 8683SOL    HW126948   1.723   2.885   4.692
 8683SOL    HW226949   1.818   2.801   4.794
 8684SOL     OW26950   6.887   3.816   4.960
 8684SOL    HW126951   6.969   3.797   5.013
 8684SOL    HW226952   6.814   3.847   5.022
 8685SOL     OW26953   5.498   2.896   6.319
 8685SOL    HW126954   5.402   2.917   6.333
 8685SOL    HW226955   5.542   2.880   6.407
 8686SOL     OW26956   5.990   6.720   2.536
 8686SOL    HW126957   6.069   6.691   2.590
 8686SOL    HW226958   5.914   6.741   2.598
 8687SOL     OW26959   6.405   4.859   3.107
 8687SOL    HW126960   6.307   4.881   3.104
 8687SOL    HW226961   6.416   4.762   3.127
 8688SOL     OW26962   1.587   4.035   6.669
 8688SOL    HW126963   1.623   4.127   6.687
 8688SOL    HW226964   1.663   3.975   6.643
 8689SOL     OW26965   5.082   3.413   0.520
 8689SOL    HW126966   5.130   3.480   0.462
 8689SOL    HW226967   4.996   3.389   0.477
 8690SOL     OW26968   0.371   2.963   2.928
 8690SOL    HW126969   0.274   2.947   2.942
 8690SOL    HW226970   0.417   2.968   3.017
 8691SOL     OW26971   3.497   1.346   5.060
 8691SOL    HW126972   3.497   1.438   5.098
 8691SOL    HW226973   3.589   1.307   5.066
 8692SOL     OW26974   3.526   1.222   5.422
 8692SOL    HW126975   3.588   1.153   5.457
 8692SOL    HW226976   3.506   1.289   5.495
 8693SOL     OW26977   6.807   1.527   6.651
 8693SOL    HW126978   6.801   1.615   6.699
 8693SOL    HW226979   6.889   1.478   6.681
 8694SOL     OW26980   5.802   2.243   4.834
 8694SOL    HW126981   5.755   2.167   4.790
 8694SOL    HW226982   5.880   2.271   4.777
 8695SOL     OW26983   3.969   2.995   6.032
 8695SOL    HW126984   3.958   2.901   6.067
 8695SOL    HW226985   4.066   3.017   6.027
 8696SOL     OW26986   2.618   5.784   5.120
 8696SOL    HW126987   2.627   5.725   5.039
 8696SOL    HW226988   2.521   5.808   5.132
 8697SOL     OW26989   0.991   4.553   5.794
 8697SOL    HW126990   1.045   4.513   5.720
 8697SOL    HW226991   1.053   4.593   5.862
 8698SOL     OW26992   5.186   5.977   5.888
 8698SOL    HW126993   5.244   5.895   5.894
 8698SOL    HW226994   5.220   6.047   5.951
 8699SOL     OW26995   1.795   3.262   5.888
 8699SOL    HW126996   1.731   3.186   5.877
 8699SOL    HW226997   1.805   3.311   5.801
 8700SOL     OW26998   1.565   1.228   5.803
 8700SOL    HW126999   1.565   1.246   5.902
 8700SOL    HW227000   1.495   1.159   5.782
 8701SOL     OW27001   2.080   1.335   0.010
 8701SOL    HW127002   2.075   1.423   0.057
 8701SOL    HW227003   2.164   1.288   0.037
 8702SOL     OW27004   5.091   5.407   1.882
 8702SOL    HW127005   5.025   5.347   1.837
 8702SOL    HW227006   5.084   5.397   1.981
 8703SOL     OW27007   3.225   4.607   6.797
 8703SOL    HW127008   3.133   4.594   6.760
 8703SOL    HW227009   3.250   4.527   6.851
 8704SOL     OW27010   6.977   3.405   3.793
 8704SOL    HW127011   0.023   3.446   3.741
 8704SOL    HW227012   6.997   3.409   3.891
 8705SOL     OW27013   4.328   2.015   6.597
 8705SOL    HW127014   4.392   2.087   6.570
 8705SOL    HW227015   4.379   1.932   6.619
 8706SOL     OW27016   5.853   2.516   0.165
 8706SOL    HW127017   5.800   2.487   0.085
 8706SOL    HW227018   5.910   2.594   0.141
 8707SOL     OW27019   0.844   2.713   3.540
 8707SOL    HW127020   0.922   2.707   3.478
 8707SOL    HW227021   0.862   2.784   3.609
 8708SOL     OW27022   4.360   1.598   4.484
 8708SOL    HW127023   4.348   1.686   4.529
 8708SOL    HW227024   4.408   1.612   4.397
 8709SOL     OW27025   6.724   0.035   0.043
 8709SOL    HW127026   6.713   0.131   0.017
 8709SOL    HW227027   6.723   7.007   6.990
 8710SOL     OW27028   1.968   2.033   3.717
 8710SOL    HW127029   1.945   1.978   3.637
 8710SOL    HW227030   2.062   2.067   3.708
 8711SOL     OW27031   1.317   0.369   1.619
 8711SOL    HW127032   1.301   0.301   1.548
 8711SOL    HW227033   1.373   0.328   1.692
 8712SOL     OW27034   2.887   1.759   4.504
 8712SOL    HW127035   2.973   1.745   4.454
 8712SOL    HW227036   2.874   1.856   4.522
 8713SOL     OW27037   0.281   4.129   1.196
 8713SOL    HW127038   0.296   4.169   1.287
 8713SOL    HW227039   0.349   4.058   1.179
 8714SOL     OW27040   0.608   6.357   0.058
 8714SOL    HW127041   0.665   6.298   0.117
 8714SOL    HW227042   0.535   6.302   0.018
 8715SOL     OW27043   3.357   1.640   6.983
 8715SOL    HW127044   3.440   1.691   6.961
 8715SOL    HW227045   3.280   1.677   6.931
 8716SOL     OW27046   6.850   6.820   0.757
 8716SOL    HW127047   6.794   6.814   0.675
 8716SOL    HW227048   6.791   6.828   0.838
 8717SOL     OW27049   2.474   3.310   6.096
 8717SOL    HW127050   2.492   3.213   6.085
 8717SOL    HW227051   2.448   3.349   6.008
 8718SOL     OW27052   1.540   2.681   6.431
 8718SOL    HW127053   1.603   2.603   6.431
 8718SOL    HW227054   1.586   2.762   6.395
 8719SOL     OW27055   4.180   1.217   0.048
 8719SOL    HW127056   4.113   1.144   0.050
 8719SOL    HW227057   4.137   1.303   0.076
 8720SOL     OW27058   0.101   5.334   5.772
 8720SOL    HW127059   0.013   5.340   5.819
 8720SOL    HW227060   0.171   5.308   5.838
 8721SOL     OW27061   6.297   0.096   0.393
 8721SOL    HW127062   6.239   0.065   0.468
 8721SOL    HW227063   6.271   0.189   0.367
 8722SOL     OW27064   3.426   1.066   0.436
 8722SOL    HW127065   3.466   1.071   0.528
 8722SOL    HW227066   3.394   1.156   0.409
 8723SOL     OW27067   5.657   6.872   2.514
 8723SOL    HW127068   5.727   6.894   2.582
 8723SOL    HW227069   5.568   6.900   2.548
 8724SOL     OW27070   5.407   0.324   4.319
 8724SOL    HW127071   5.340   0.250   4.325
 8724SOL    HW227072   5.494   0.294   4.358
 8725SOL     OW27073   0.527   6.366   4.548
 8725SOL    HW127074   0.552   6.274   4.578
 8725SOL    HW227075   0.510   6.424   4.628
 8726SOL     OW27076   6.979   1.215   0.693
 8726SOL    HW127077   6.906   1.187   0.631
 8726SOL    HW227078   6.938   1.250   0.778
 8727SOL     OW27079   5.749   6.974   0.088
 8727SOL    HW127080   5.845   7.002   0.077
 8727SOL    HW227081   5.696   0.021   0.124
 8728SOL     OW27082   5.384   1.349   2.264
 8728SOL    HW127083   5.410   1.418   2.197
 8728SOL    HW227084   5.317   1.388   2.328
 8729SOL     OW27085   2.775   5.331   5.393
 8729SOL    HW127086   2.869   5.362   5.380
 8729SOL    HW227087   2.748   5.275   5.315
 8730SOL     OW27088   4.894   4.696   3.172
 8730SOL    HW127089   4.818   4.734   3.120
 8730SOL    HW227090   4.980   4.718   3.127
 8731SOL     OW27091   0.827   3.051   2.965
 8731SOL    HW127092   0.749   3.102   3.001
 8731SOL    HW227093   0.900   3.049   3.034
 8732SOL     OW27094   5.154   4.435   1.568
 8732SOL    HW127095   5.110   4.367   1.510
 8732SOL    HW227096   5.248   4.406   1.587
 8733SOL     OW27097   0.855   5.848   1.132
 8733SOL    HW127098   0.844   5.900   1.047
 8733SOL    HW227099   0.937   5.791   1.125
 8734SOL     OW27100   6.971   3.375   2.558
 8734SOL    HW127101   7.007   3.460   2.521
 8734SOL    HW227102   6.988   3.371   2.657
 8735SOL     OW27103   1.154   3.602   5.094
 8735SOL    HW127104   1.190   3.545   5.168
 8735SOL    HW227105   1.189   3.695   5.103
 8736SOL     OW27106   0.525   5.331   2.135
 8736SOL    HW127107   0.607   5.323   2.191
 8736SOL    HW227108   0.516   5.250   2.077
 8737SOL     OW27109   2.670   6.307   6.040
 8737SOL    HW127110   2.661   6.395   5.993
 8737SOL    HW227111   2.631   6.315   6.132
 8738SOL     OW27112   1.768   4.302   3.216
 8738SOL    HW127113   1.758   4.357   3.133
 8738SOL    HW227114   1.701   4.331   3.284
 8739SOL     OW27115   5.380   4.403   5.027
 8739SOL    HW127116   5.361   4.424   4.931
 8739SOL    HW227117   5.376   4.304   5.041
 8740SOL     OW27118   3.753   2.128   2.604
 8740SOL    HW127119   3.847   2.162   2.607
 8740SOL    HW227120   3.716   2.144   2.512
 8741SOL     OW27121   2.708   0.129   2.281
 8741SOL    HW127122   2.785   0.070   2.306
 8741SOL    HW227123   2.641   0.076   2.229
 8742SOL     OW27124   3.848   0.884   2.506
 8742SOL    HW127125   3.871   0.925   2.418
 8742SOL    HW227126   3.784   0.942   2.555
 8743SOL     OW27127   1.797   1.307   2.108
 8743SOL    HW127128   1.890   1.325   2.077
 8743SOL    HW227129   1.781   1.356   2.194
 8744SOL     OW27130   4.471   2.748   0.429
 8744SOL    HW127131   4.461   2.665   0.375
 8744SOL    HW227132   4.441   2.732   0.522
 8745SOL     OW27133   6.947   2.462   6.171
 8745SOL    HW127134   0.010   2.468   6.133
 8745SOL    HW227135   6.940   2.522   6.251
 8746SOL     OW27136   4.860   5.771   4.430
 8746SOL    HW127137   4.893   5.780   4.524
 8746SOL    HW227138   4.910   5.698   4.384
 8747SOL     OW27139   6.881   1.495   2.131
 8747SOL    HW127140   6.847   1.454   2.216
 8747SOL    HW227141   6.811   1.555   2.093
 8748SOL     OW27142   1.088   1.813   4.162
 8748SOL    HW127143   1.043   1.775   4.243
 8748SOL    HW227144   1.060   1.760   4.082
 8749SOL     OW27145   1.904   1.108   5.241
 8749SOL    HW127146   1.900   1.204   5.269
 8749SOL    HW227147   1.813   1.067   5.250
 8750SOL     OW27148   4.184   3.093   5.421
 8750SOL    HW127149   4.212   3.128   5.510
 8750SOL    HW227150   4.192   2.993   5.421
 8751SOL     OW27151   6.886   0.362   0.703
 8751SOL    HW127152   6.877   0.387   0.799
 8751SOL    HW227153   6.916   0.442   0.650
 8752SOL     OW27154   5.275   2.883   6.810
 8752SOL    HW127155   5.323   2.971   6.813
 8752SOL    HW227156   5.244   2.866   6.716
 8753SOL     OW27157   2.278   4.112   6.854
 8753SOL    HW127158   2.228   4.050   6.914
 8753SOL    HW227159   2.255   4.093   6.759
 8754SOL     OW27160   3.053   4.793   5.946
 8754SOL    HW127161   3.090   4.859   6.010
 8754SOL    HW227162   3.113   4.786   5.866
 8755SOL     OW27163   1.604   0.848   1.256
 8755SOL    HW127164   1.515   0.804   1.258
 8755SOL    HW227165   1.676   0.778   1.252
 8756SOL     OW27166   1.856   2.866   3.435
 8756SOL    HW127167   1.917   2.864   3.515
 8756SOL    HW227168   1.866   2.781   3.384
 8757SOL     OW27169   4.791   6.169   5.965
 8757SOL    HW127170   4.768   6.081   5.923
 8757SOL    HW227171   4.852   6.220   5.904
 8758SOL     OW27172   4.207   0.032   3.673
 8758SOL    HW127173   4.298   0.048   3.713
 8758SOL    HW227174   4.213   0.041   3.574
 8759SOL     OW27175   6.085   1.933   0.157
 8759SOL    HW127176   5.993   1.914   0.121
 8759SOL    HW227177   6.078   1.998   0.232
 8760SOL     OW27178   2.237   2.250   4.086
 8760SOL    HW127179   2.243   2.348   4.103
 8760SOL    HW227180   2.328   2.208   4.094
 8761SOL     OW27181   6.074   2.197   1.908
 8761SOL    HW127182   6.088   2.137   1.987
 8761SOL    HW227183   6.093   2.291   1.934
 8762SOL     OW27184   1.694   5.731   3.652
 8762SOL    HW127185   1.623   5.800   3.642
 8762SOL    HW227186   1.709   5.687   3.563
 8763SOL     OW27187   6.554   0.614   4.977
 8763SOL    HW127188   6.489   0.673   5.024
 8763SOL    HW227189   6.647   0.643   4.997
 8764SOL     OW27190   4.620   5.942   6.253
 8764SOL    HW127191   4.654   6.032   6.228
 8764SOL    HW227192   4.545   5.916   6.192
 8765SOL     OW27193   5.380   1.155   5.061
 8765SOL    HW127194   5.426   1.137   5.148
 8765SOL    HW227195   5.445   1.143   4.986
 8766SOL     OW27196   4.303   4.481   5.395
 8766SOL    HW127197   4.298   4.484   5.295
 8766SOL    HW227198   4.398   4.485   5.424
 8767SOL     OW27199   3.392   0.121   3.836
 8767SOL    HW127200   3.373   0.104   3.739
 8767SOL    HW227201   3.487   0.097   3.857
 8768SOL     OW27202   1.176   2.251   0.708
 8768SOL    HW127203   1.211   2.158   0.714
 8768SOL    HW227204   1.090   2.258   0.758
 8769SOL     OW27205   6.801   1.211   2.149
 8769SOL    HW127206   6.773   1.160   2.230
 8769SOL    HW227207   6.893   1.184   2.122
 8770SOL     OW27208   5.391   4.602   1.939
 8770SOL    HW127209   5.415   4.698   1.930
 8770SOL    HW227210   5.308   4.593   1.994
 8771SOL     OW27211   0.654   3.005   6.047
 8771SOL    HW127212   0.682   2.970   5.958
 8771SOL    HW227213   0.734   3.011   6.107
 8772SOL     OW27214   5.197   0.644   5.534
 8772SOL    HW127215   5.232   0.605   5.620
 8772SOL    HW227216   5.162   0.572   5.476
 8773SOL     OW27217   5.974   2.571   3.584
 8773SOL    HW127218   6.036   2.501   3.619
 8773SOL    HW227219   5.995   2.659   3.628
 8774SOL     OW27220   0.569   6.691   6.265
 8774SOL    HW127221   0.659   6.719   6.298
 8774SOL    HW227222   0.533   6.761   6.202
 8775SOL     OW27223   5.510   1.491   5.377
 8775SOL    HW127224   5.567   1.562   5.336
 8775SOL    HW227225   5.566   1.430   5.432
 8776SOL     OW27226   5.058   3.244   1.360
 8776SOL    HW127227   5.073   3.145   1.351
 8776SOL    HW227228   5.116   3.280   1.433
 8777SOL     OW27229   0.503   3.371   3.174
 8777SOL    HW127230   0.521   3.364   3.272
 8777SOL    HW227231   0.431   3.439   3.158
 8778SOL     OW27232   4.598   3.944   6.007
 8778SOL    HW127233   4.607   3.995   6.092
 8778SOL    HW227234   4.688   3.926   5.969
 8779SOL     OW27235   2.811   5.844   2.313
 8779SOL    HW127236   2.718   5.876   2.295
 8779SOL    HW227237   2.831   5.766   2.253
 8780SOL     OW27238   0.375   5.985   2.784
 8780SOL    HW127239   0.339   5.897   2.815
 8780SOL    HW227240   0.411   5.975   2.691
 8781SOL     OW27241   4.377   6.658   2.965
 8781SOL    HW127242   4.337   6.581   2.914
 8781SOL    HW227243   4.367   6.641   3.063
 8782SOL     OW27244   6.141   1.338   2.064
 8782SOL    HW127245   6.189   1.356   1.979
 8782SOL    HW227246   6.056   1.289   2.045
 8783SOL     OW27247   6.190   3.486   4.384
 8783SOL    HW127248   6.184   3.394   4.344
 8783SOL    HW227249   6.117   3.543   4.346
 8784SOL     OW27250   6.374   6.437   0.754
 8784SOL    HW127251   6.429   6.497   0.695
 8784SOL    HW227252   6.434   6.371   0.799
 8785SOL     OW27253   0.836   5.571   6.146
 8785SOL    HW127254   0.813   5.633   6.071
 8785SOL    HW227255   0.764   5.503   6.155
 8786SOL     OW27256   3.742   1.872   2.667
 8786SOL    HW127257   3.656   1.829   2.695
 8786SOL    HW227258   3.725   1.967   2.641
 8787SOL     OW27259   3.473   0.601   1.441
 8787SOL    HW127260   3.490   0.626   1.537
 8787SOL    HW227261   3.472   0.684   1.385
 8788SOL     OW27262   6.684   1.012   5.059
 8788SOL    HW127263   6.742   1.072   5.003
 8788SOL    HW227264   6.623   1.069   5.114
 8789SOL     OW27265   6.674   4.002   5.481
 8789SOL    HW127266   6.624   4.077   5.524
 8789SOL    HW227267   6.707   4.032   5.391
 8790SOL     OW27268   6.245   1.740   0.236
 8790SOL    HW127269   6.246   1.659   0.178
 8790SOL    HW227270   6.177   1.805   0.202
 8791SOL     OW27271   4.557   6.443   5.080
 8791SOL    HW127272   4.630   6.492   5.128
 8791SOL    HW227273   4.597   6.369   5.026
 8792SOL     OW27274   3.204   5.138   2.684
 8792SOL    HW127275   3.143   5.139   2.605
 8792SOL    HW227276   3.196   5.225   2.733
 8793SOL     OW27277   0.959   4.850   4.213
 8793SOL    HW127278   0.904   4.918   4.165
 8793SOL    HW227279   1.009   4.893   4.288
 8794SOL     OW27280   6.400   1.157   3.405
 8794SOL    HW127281   6.451   1.116   3.329
 8794SOL    HW227282   6.307   1.178   3.374
 8795SOL     OW27283   1.325   5.041   5.002
 8795SOL    HW127284   1.398   4.993   5.050
 8795SOL    HW227285   1.242   5.040   5.057
 8796SOL     OW27286   6.008   3.841   3.254
 8796SOL    HW127287   6.002   3.754   3.206
 8796SOL    HW227288   6.089   3.842   3.312
 8797SOL     OW27289   6.970   6.940   4.317
 8797SOL    HW127290   6.989   6.863   4.256
 8797SOL    HW227291   0.025   6.968   4.363
 8798SOL     OW27292   4.511   6.626   5.581
 8798SOL    HW127293   4.570   6.558   5.624
 8798SOL    HW227294   4.567   6.693   5.532
 8799SOL     OW27295   2.512   4.822   2.419
 8799SOL    HW127296   2.569   4.904   2.424
 8799SOL    HW227297   2.570   4.743   2.399
 8800SOL     OW27298   5.971   6.182   5.744
 8800SOL    HW127299   6.004   6.150   5.833
 8800SOL    HW227300   5.912   6.112   5.703
 8801SOL     OW27301   5.844   2.113   5.269
 8801SOL    HW127302   5.809   2.135   5.360
 8801SOL    HW227303   5.821   2.187   5.206
 8802SOL     OW27304   1.414   5.778   5.317
 8802SOL    HW127305   1.369   5.859   5.282
 8802SOL    HW227306   1.446   5.795   5.411
 8803SOL     OW27307   6.980   0.973   0.252
 8803SOL    HW127308   6.989   0.970   0.351
 8803SOL    HW227309   6.971   1.068   0.222
 8804SOL     OW27310   2.059   6.257   1.001
 8804SOL    HW127311   2.022   6.164   1.000
 8804SOL    HW227312   1.983   6.323   1.010
 8805SOL     OW27313   4.131   5.246   3.747
 8805SOL    HW127314   4.123   5.345   3.755
 8805SOL    HW227315   4.090   5.203   3.827
 8806SOL     OW27316   2.331   5.811   0.656
 8806SOL    HW127317   2.253   5.849   0.707
 8806SOL    HW227318   2.368   5.733   0.706
 8807SOL     OW27319   4.452   2.107   6.949
 8807SOL    HW127320   4.425   2.057   0.002
 8807SOL    HW227321   4.371   2.141   6.902
 8808SOL     OW27322   0.736   2.482   6.821
 8808SOL    HW127323   0.820   2.536   6.816
 8808SOL    HW227324   0.676   2.508   6.746
 8809SOL     OW27325   2.239   3.930   2.992
 8809SOL    HW127326   2.189   3.848   3.019
 8809SOL    HW227327   2.262   3.984   3.073
 8810SOL     OW27328   6.148   1.375   5.183
 8810SOL    HW127329   6.130   1.317   5.262
 8810SOL    HW227330   6.161   1.470   5.212
 8811SOL     OW27331   4.430   0.207   2.894
 8811SOL    HW127332   4.377   0.218   2.979
 8811SOL    HW227333   4.417   0.287   2.836
 8812SOL     OW27334   3.134   0.195   6.621
 8812SOL    HW127335   3.125   0.163   6.716
 8812SOL    HW227336   3.201   0.269   6.617
 8813SOL     OW27337   2.345   4.406   2.526
 8813SOL    HW127338   2.279   4.481   2.523
 8813SOL    HW227339   2.304   4.324   2.485
 8814SOL     OW27340   5.632   6.789   0.444
 8814SOL    HW127341   5.590   6.708   0.485
 8814SOL    HW227342   5.701   6.761   0.377
 8815SOL     OW27343   5.507   0.459   1.247
 8815SOL    HW127344   5.542   0.407   1.325
 8815SOL    HW227345   5.452   0.535   1.280
 8816SOL     OW27346   0.273   6.659   6.852
 8816SOL    HW127347   0.297   6.686   6.945
 8816SOL    HW227348   0.353   6.616   6.809
 8817SOL     OW27349   0.939   3.426   4.066
 8817SOL    HW127350   0.999   3.505   4.075
 8817SOL    HW227351   0.959   3.360   4.139
 8818SOL     OW27352   1.563   6.853   2.794
 8818SOL    HW127353   1.572   6.762   2.833
 8818SOL    HW227354   1.590   6.922   2.861
 8819SOL     OW27355   6.038   4.518   5.041
 8819SOL    HW127356   5.940   4.505   5.027
 8819SOL    HW227357   6.054   4.573   5.122
 8820SOL     OW27358   3.218   1.168   4.648
 8820SOL    HW127359   3.171   1.223   4.579
 8820SOL    HW227360   3.263   1.229   4.713
 8821SOL     OW27361   0.925   5.085   0.294
 8821SOL    HW127362   0.965   5.160   0.241
 8821SOL    HW227363   0.890   5.121   0.381
 8822SOL     OW27364   0.036   0.380   3.192
 8822SOL    HW127365   0.033   0.475   3.159
 8822SOL    HW227366   6.983   0.362   3.247
 8823SOL     OW27367   2.379   0.442   2.510
 8823SOL    HW127368   2.281   0.424   2.500
 8823SOL    HW227369   2.429   0.389   2.442
 8824SOL     OW27370   1.672   0.009   1.318
 8824SOL    HW127371   1.758   0.052   1.348
 8824SOL    HW227372   1.599   0.038   1.379
 8825SOL     OW27373   0.646   0.844   1.577
 8825SOL    HW127374   0.589   0.922   1.551
 8825SOL    HW227375   0.645   0.777   1.503
 8826SOL     OW27376   0.991   3.379   1.027
 8826SOL    HW127377   1.015   3.448   0.958
 8826SOL    HW227378   1.074   3.341   1.067
 8827SOL     OW27379   3.908   0.587   2.559
 8827SOL    HW127380   3.865   0.658   2.503
 8827SOL    HW227381   3.903   0.613   2.655
 8828SOL     OW27382   4.048   4.366   6.505
 8828SOL    HW127383   4.143   4.346   6.480
 8828SOL    HW227384   4.027   4.462   6.485
 8829SOL     OW27385   6.218   1.739   1.987
 8829SOL    HW127386   6.260   1.721   1.898
 8829SOL    HW227387   6.284   1.782   2.048
 8830SOL     OW27388   1.617   1.633   2.532
 8830SOL    HW127389   1.595   1.730   2.534
 8830SOL    HW227390   1.712   1.620   2.562
 8831SOL     OW27391   6.430   3.117   2.462
 8831SOL    HW127392   6.376   3.200   2.450
 8831SOL    HW227393   6.444   3.073   2.373
 8832SOL     OW27394   0.170   6.282   4.338
 8832SOL    HW127395   0.141   6.303   4.432
 8832SOL    HW227396   0.153   6.185   4.319
 8833SOL     OW27397   3.782   3.629   0.433
 8833SOL    HW127398   3.813   3.639   0.339
 8833SOL    HW227399   3.770   3.719   0.474
 8834SOL     OW27400   5.902   3.598   4.954
 8834SOL    HW127401   5.842   3.666   4.995
 8834SOL    HW227402   5.851   3.514   4.935
 8835SOL     OW27403   6.102   1.296   5.840
 8835SOL    HW127404   6.165   1.368   5.868
 8835SOL    HW227405   6.044   1.271   5.917
 8836SOL     OW27406   6.102   2.210   0.642
 8836SOL    HW127407   6.032   2.199   0.712
 8836SOL    HW227408   6.137   2.303   0.644
 8837SOL     OW27409   0.006   0.312   1.886
 8837SOL    HW127410   0.051   0.332   1.799
 8837SOL    HW227411   0.070   0.264   1.946
 8838SOL     OW27412   0.410   4.851   2.110
 8838SOL    HW127413   0.361   4.918   2.165
 8838SOL    HW227414   0.384   4.759   2.139
 8839SOL     OW27415   4.725   5.563   2.448
 8839SOL    HW127416   4.633   5.589   2.478
 8839SOL    HW227417   4.754   5.622   2.374
 8840SOL     OW27418   6.101   0.432   1.806
 8840SOL    HW127419   6.185   0.377   1.815
 8840SOL    HW227420   6.107   0.488   1.724
 8841SOL     OW27421   4.514   0.788   2.238
 8841SOL    HW127422   4.606   0.770   2.274
 8841SOL    HW227423   4.509   0.883   2.205
 8842SOL     OW27424   3.199   4.051   4.142
 8842SOL    HW127425   3.143   4.041   4.060
 8842SOL    HW227426   3.164   4.126   4.198
 8843SOL     OW27427   1.704   3.041   4.635
 8843SOL    HW127428   1.699   3.127   4.686
 8843SOL    HW227429   1.779   3.046   4.569
 8844SOL     OW27430   7.021   2.473   5.168
 8844SOL    HW127431   6.958   2.406   5.131
 8844SOL    HW227432   0.035   2.435   5.251
 8845SOL     OW27433   2.219   5.077   0.800
 8845SOL    HW127434   2.226   5.161   0.854
 8845SOL    HW227435   2.294   5.073   0.734
 8846SOL     OW27436   5.563   5.097   4.292
 8846SOL    HW127437   5.519   5.103   4.381
 8846SOL    HW227438   5.544   5.181   4.240
 8847SOL     OW27439   1.560   0.763   2.517
 8847SOL    HW127440   1.595   0.820   2.591
 8847SOL    HW227441   1.637   0.730   2.461
 8848SOL     OW27442   3.164   2.094   2.123
 8848SOL    HW127443   3.082   2.116   2.175
 8848SOL    HW227444   3.163   2.144   2.037
 8849SOL     OW27445   2.948   4.987   4.068
 8849SOL    HW127446   3.036   5.015   4.029
 8849SOL    HW227447   2.900   5.067   4.102
 8850SOL     OW27448   2.884   1.139   1.091
 8850SOL    HW127449   2.967   1.104   1.133
 8850SOL    HW227450   2.868   1.233   1.122
 8851SOL     OW27451   0.928   4.465   2.111
 8851SOL    HW127452   0.920   4.564   2.114
 8851SOL    HW227453   0.991   4.434   2.182
 8852SOL     OW27454   4.973   3.192   6.341
 8852SOL    HW127455   5.004   3.143   6.259
 8852SOL    HW227456   4.984   3.290   6.327
 8853SOL     OW27457   3.973   0.784   4.384
 8853SOL    HW127458   3.916   0.808   4.462
 8853SOL    HW227459   4.045   0.722   4.413
 8854SOL     OW27460   2.325   0.621   6.393
 8854SOL    HW127461   2.376   0.668   6.464
 8854SOL    HW227462   2.282   0.688   6.332
 8855SOL     OW27463   6.761   5.895   0.273
 8855SOL    HW127464   6.796   5.888   0.366
 8855SOL    HW227465   6.814   5.963   0.222
 8856SOL     OW27466   6.625   6.847   5.228
 8856SOL    HW127467   6.699   6.882   5.285
 8856SOL    HW227468   6.537   6.865   5.272
 8857SOL     OW27469   6.264   1.547   3.619
 8857SOL    HW127470   6.244   1.568   3.524
 8857SOL    HW227471   6.319   1.464   3.624
 8858SOL     OW27472   1.844   3.221   5.587
 8858SOL    HW127473   1.880   3.146   5.643
 8858SOL    HW227474   1.920   3.270   5.544
 8859SOL     OW27475   0.532   6.909   5.418
 8859SOL    HW127476   0.556   6.995   5.372
 8859SOL    HW227477   0.475   6.854   5.357
 8860SOL     OW27478   1.695   3.775   2.537
 8860SOL    HW127479   1.719   3.811   2.627
 8860SOL    HW227480   1.638   3.841   2.489
 8861SOL     OW27481   3.110   2.454   6.426
 8861SOL    HW127482   3.129   2.545   6.388
 8861SOL    HW227483   3.021   2.422   6.394
 8862SOL     OW27484   5.948   1.472   3.650
 8862SOL    HW127485   5.995   1.476   3.562
 8862SOL    HW227486   5.972   1.552   3.704
 8863SOL     OW27487   1.795   5.451   4.444
 8863SOL    HW127488   1.702   5.475   4.418
 8863SOL    HW227489   1.841   5.408   4.366
 8864SOL     OW27490   2.491   3.472   6.320
 8864SOL    HW127491   2.460   3.560   6.285
 8864SOL    HW227492   2.459   3.399   6.260
 8865SOL     OW27493   3.298   0.928   4.534
 8865SOL    HW127494   3.304   1.019   4.574
 8865SOL    HW227495   3.268   0.935   4.439
 8866SOL     OW27496   4.366   6.769   3.553
 8866SOL    HW127497   4.447   6.818   3.522
 8866SOL    HW227498   4.357   6.780   3.652
 8867SOL     OW27499   5.015   2.634   3.209
 8867SOL    HW127500   5.099   2.659   3.162
 8867SOL    HW227501   4.938   2.683   3.167
 8868SOL     OW27502   5.778   3.791   0.660
 8868SOL    HW127503   5.828   3.724   0.714
 8868SOL    HW227504   5.743   3.748   0.577
 8869SOL     OW27505   4.228   5.148   3.347
 8869SOL    HW127506   4.275   5.137   3.434
 8869SOL    HW227507   4.150   5.086   3.343
 8870SOL     OW27508   2.829   0.384   0.435
 8870SOL    HW127509   2.800   0.293   0.405
 8870SOL    HW227510   2.798   0.399   0.529
 8871SOL     OW27511   3.307   1.757   3.654
 8871SOL    HW127512   3.383   1.734   3.594
 8871SOL    HW227513   3.341   1.784   3.744
 8872SOL     OW27514   1.724   3.687   4.461
 8872SOL    HW127515   1.718   3.759   4.530
 8872SOL    HW227516   1.756   3.603   4.504
 8873SOL     OW27517   6.274   5.917   2.024
 8873SOL    HW127518   6.270   5.986   2.095
 8873SOL    HW227519   6.182   5.897   1.991
 8874SOL     OW27520   2.346   6.894   1.441
 8874SOL    HW127521   2.297   6.898   1.354
 8874SOL    HW227522   2.440   6.927   1.428
 8875SOL     OW27523   0.998   2.125   4.527
 8875SOL    HW127524   0.932   2.161   4.460
 8875SOL    HW227525   1.039   2.201   4.578
 8876SOL     OW27526   0.636   0.618   4.773
 8876SOL    HW127527   0.719   0.652   4.729
 8876SOL    HW227528   0.563   0.610   4.706
 8877SOL     OW27529   2.713   0.558   4.238
 8877SOL    HW127530   2.796   0.505   4.258
 8877SOL    HW227531   2.730   0.619   4.161
 8878SOL     OW27532   0.813   5.005   1.005
 8878SOL    HW127533   0.728   5.008   0.953
 8878SOL    HW227534   0.792   4.991   1.102
 8879SOL     OW27535   5.834   5.276   1.110
 8879SOL    HW127536   5.768   5.228   1.053
 8879SOL    HW227537   5.787   5.336   1.174
 8880SOL     OW27538   0.315   5.785   4.578
 8880SOL    HW127539   0.334   5.772   4.481
 8880SOL    HW227540   0.279   5.700   4.617
 8881SOL     OW27541   5.715   7.018   3.505
 8881SOL    HW127542   5.652   7.029   3.582
 8881SOL    HW227543   5.720   6.921   3.480
 8882SOL     OW27544   5.117   0.952   0.565
 8882SOL    HW127545   5.164   1.019   0.508
 8882SOL    HW227546   5.173   0.930   0.645
 8883SOL     OW27547   0.507   1.390   6.296
 8883SOL    HW127548   0.563   1.473   6.290
 8883SOL    HW227549   0.424   1.409   6.347
 8884SOL     OW27550   5.863   6.330   6.490
 8884SOL    HW127551   5.836   6.404   6.551
 8884SOL    HW227552   5.925   6.366   6.419
 8885SOL     OW27553   6.536   3.562   1.132
 8885SOL    HW127554   6.498   3.652   1.154
 8885SOL    HW227555   6.462   3.495   1.129
 8886SOL     OW27556   3.235   5.870   5.900
 8886SOL    HW127557   3.174   5.792   5.891
 8886SOL    HW227558   3.242   5.896   5.997
 8887SOL     OW27559   3.121   1.581   1.125
 8887SOL    HW127560   3.178   1.654   1.164
 8887SOL    HW227561   3.175   1.528   1.059
 8888SOL     OW27562   1.106   2.054   1.343
 8888SOL    HW127563   1.007   2.062   1.342
 8888SOL    HW227564   1.142   2.092   1.429
 8889SOL     OW27565   5.236   6.412   5.985
 8889SOL    HW127566   5.206   6.392   5.892
 8889SOL    HW227567   5.324   6.460   5.982
 8890SOL     OW27568   6.218   6.068   5.039
 8890SOL    HW127569   6.307   6.084   4.997
 8890SOL    HW227570   6.146   6.094   4.976
 8891SOL     OW27571   6.568   3.363   6.190
 8891SOL    HW127572   6.551   3.352   6.288
 8891SOL    HW227573   6.623   3.445   6.174
 8892SOL     OW27574   2.779   6.255   3.831
 8892SOL    HW127575   2.769   6.191   3.755
 8892SOL    HW227576   2.803   6.346   3.794
 8893SOL     OW27577   0.879   0.602   2.057
 8893SOL    HW127578   0.826   0.559   1.984
 8893SOL    HW227579   0.878   0.544   2.138
 8894SOL     OW27580   3.743   3.203   6.065
 8894SOL    HW127581   3.748   3.266   5.988
 8894SOL    HW227582   3.829   3.152   6.073
 8895SOL     OW27583   0.035   0.653   1.834
 8895SOL    HW127584   6.967   0.675   1.829
 8895SOL    HW227585   0.051   0.562   1.795
 8896SOL     OW27586   1.350   3.029   4.579
 8896SOL    HW127587   1.321   3.117   4.542
 8896SOL    HW227588   1.391   3.043   4.670
 8897SOL     OW27589   1.345   1.835   2.682
 8897SOL    HW127590   1.344   1.905   2.611
 8897SOL    HW227591   1.339   1.745   2.639
 8898SOL     OW27592   6.106   3.212   4.312
 8898SOL    HW127593   6.048   3.236   4.390
 8898SOL    HW227594   6.118   3.113   4.309
 8899SOL     OW27595   1.693   4.208   7.013
 8899SOL    HW127596   1.791   4.193   7.026
 8899SOL    HW227597   1.674   4.228   6.917
 8900SOL     OW27598   5.707   3.788   2.744
 8900SOL    HW127599   5.609   3.772   2.735
 8900SOL    HW227600   5.727   3.831   2.832
 8901SOL     OW27601   2.962   0.861   4.137
 8901SOL    HW127602   2.984   0.865   4.235
 8901SOL    HW227603   2.875   0.812   4.125
 8902SOL     OW27604   3.200   5.996   6.564
 8902SOL    HW127605   3.254   5.945   6.632
 8902SOL    HW227606   3.115   6.026   6.606
 8903SOL     OW27607   2.352   0.661   4.149
 8903SOL    HW127608   2.434   0.652   4.092
 8903SOL    HW227609   2.367   0.732   4.218
 8904SOL     OW27610   0.108   5.166   3.657
 8904SOL    HW127611   0.026   5.173   3.715
 8904SOL    HW227612   0.186   5.204   3.706
 8905SOL     OW27613   1.917   3.967   4.316
 8905SOL    HW127614   1.871   4.048   4.281
 8905SOL    HW227615   1.860   3.886   4.298
 8906SOL     OW27616   6.671   6.845   6.889
 8906SOL    HW127617   6.729   6.860   6.808
 8906SOL    HW227618   6.698   6.759   6.933
 8907SOL     OW27619   3.452   2.152   5.120
 8907SOL    HW127620   3.512   2.158   5.040
 8907SOL    HW227621   3.358   2.170   5.093
 8908SOL     OW27622   1.481   3.126   6.967
 8908SOL    HW127623   1.490   3.026   6.974
 8908SOL    HW227624   1.389   3.153   6.994
 8909SOL     OW27625   1.905   0.264   5.160
 8909SOL    HW127626   1.840   0.338   5.178
 8909SOL    HW227627   1.998   0.300   5.165
 8910SOL     OW27628   1.916   3.085   6.219
 8910SOL    HW127629   1.835   3.061   6.165
 8910SOL    HW227630   1.997   3.042   6.180
 8911SOL     OW27631   3.857   1.978   4.845
 8911SOL    HW127632   3.888   1.940   4.932
 8911SOL    HW227633   3.911   1.940   4.770
 8912SOL     OW27634   4.010   1.477   6.866
 8912SOL    HW127635   4.039   1.477   6.962
 8912SOL    HW227636   4.038   1.390   6.823
 8913SOL     OW27637   4.684   5.150   0.884
 8913SOL    HW127638   4.752   5.102   0.829
 8913SOL    HW227639   4.597   5.152   0.835
 8914SOL     OW27640   4.414   0.695   5.839
 8914SOL    HW127641   4.500   0.658   5.874
 8914SOL    HW227642   4.396   0.784   5.881
 8915SOL     OW27643   0.941   2.615   3.952
 8915SOL    HW127644   0.848   2.610   3.914
 8915SOL    HW227645   0.945   2.685   4.022
 8916SOL     OW27646   0.555   3.374   2.120
 8916SOL    HW127647   0.603   3.441   2.175
 8916SOL    HW227648   0.615   3.342   2.047
 8917SOL     OW27649   5.984   5.262   6.114
 8917SOL    HW127650   5.969   5.308   6.202
 8917SOL    HW227651   6.028   5.326   6.050
 8918SOL     OW27652   0.004   6.138   0.739
 8918SOL    HW127653   0.017   6.041   0.761
 8918SOL    HW227654   6.981   6.145   0.654
 8919SOL     OW27655   4.330   2.986   0.694
 8919SOL    HW127656   4.259   2.933   0.740
 8919SOL    HW227657   4.320   2.978   0.595
 8920SOL     OW27658   0.001   6.564   6.826
 8920SOL    HW127659   0.092   6.601   6.813
 8920SOL    HW227660   6.985   6.611   6.902
 8921SOL     OW27661   2.038   1.625   3.137
 8921SOL    HW127662   2.126   1.662   3.106
 8921SOL    HW227663   1.981   1.699   3.172
 8922SOL     OW27664   2.570   5.156   1.113
 8922SOL    HW127665   2.560   5.079   1.050
 8922SOL    HW227666   2.572   5.122   1.207
 8923SOL     OW27667   1.975   3.654   6.404
 8923SOL    HW127668   2.008   3.568   6.364
 8923SOL    HW227669   2.052   3.703   6.446
 8924SOL     OW27670   3.060   5.664   5.857
 8924SOL    HW127671   2.961   5.656   5.857
 8924SOL    HW227672   3.093   5.678   5.763
 8925SOL     OW27673   0.953   0.276   1.969
 8925SOL    HW127674   1.003   0.362   1.960
 8925SOL    HW227675   0.883   0.285   2.040
 8926SOL     OW27676   5.549   2.900   1.132
 8926SOL    HW127677   5.612   2.908   1.055
 8926SOL    HW227678   5.461   2.942   1.109
 8927SOL     OW27679   1.898   1.924   4.990
 8927SOL    HW127680   1.937   1.949   4.901
 8927SOL    HW227681   1.831   1.993   5.018
 8928SOL     OW27682   0.011   0.722   4.983
 8928SOL    HW127683   7.025   0.789   5.056
 8928SOL    HW227684   0.107   0.727   4.953
 8929SOL     OW27685   0.336   3.581   3.585
 8929SOL    HW127686   0.337   3.668   3.537
 8929SOL    HW227687   0.307   3.596   3.680
 8930SOL     OW27688   1.640   4.890   4.767
 8930SOL    HW127689   1.567   4.959   4.760
 8930SOL    HW227690   1.609   4.805   4.726
 8931SOL     OW27691   3.753   2.662   0.426
 8931SOL    HW127692   3.787   2.628   0.339
 8931SOL    HW227693   3.653   2.652   0.429
 8932SOL     OW27694   5.235   0.106   6.861
 8932SOL    HW127695   5.184   0.076   6.781
 8932SOL    HW227696   5.194   0.068   6.944
 8933SOL     OW27697   0.737   2.123   5.580
 8933SOL    HW127698   0.762   2.036   5.538
 8933SOL    HW227699   0.659   2.110   5.641
 8934SOL     OW27700   2.799   5.264   3.803
 8934SOL    HW127701   2.776   5.360   3.788
 8934SOL    HW227702   2.731   5.206   3.758
 8935SOL     OW27703   5.062   4.174   1.680
 8935SOL    HW127704   5.051   4.084   1.722
 8935SOL    HW227705   5.136   4.171   1.613
 8936SOL     OW27706   0.664   3.337   0.737
 8936SOL    HW127707   0.590   3.323   0.803
 8936SOL    HW227708   0.746   3.289   0.768
 8937SOL     OW27709   0.387   1.282   4.049
 8937SOL    HW127710   0.316   1.268   3.979
 8937SOL    HW227711   0.370   1.367   4.098
 8938SOL     OW27712   6.677   1.516   0.791
 8938SOL    HW127713   6.609   1.545   0.723
 8938SOL    HW227714   6.768   1.524   0.752
 8939SOL     OW27715   6.813   2.876   4.732
 8939SOL    HW127716   6.839   2.782   4.757
 8939SOL    HW227717   6.743   2.873   4.660
 8940SOL     OW27718   5.913   2.453   0.437
 8940SOL    HW127719   5.998   2.500   0.460
 8940SOL    HW227720   5.889   2.473   0.341
 8941SOL     OW27721   4.783   2.185   1.872
 8941SOL    HW127722   4.862   2.130   1.899
 8941SOL    HW227723   4.795   2.278   1.904
 8942SOL     OW27724   0.353   5.175   4.164
 8942SOL    HW127725   0.413   5.103   4.129
 8942SOL    HW227726   0.328   5.237   4.089
 8943SOL     OW27727   4.376   4.464   0.357
 8943SOL    HW127728   4.353   4.367   0.347
 8943SOL    HW227729   4.383   4.487   0.454
 8944SOL     OW27730   4.920   4.899   4.462
 8944SOL    HW127731   4.935   4.940   4.372
 8944SOL    HW227732   4.930   4.969   4.533
 8945SOL     OW27733   6.717   3.167   5.054
 8945SOL    HW127734   6.740   3.228   4.978
 8945SOL    HW227735   6.790   3.099   5.064
 8946SOL     OW27736   3.754   0.288   4.655
 8946SOL    HW127737   3.736   0.386   4.657
 8946SOL    HW227738   3.850   0.272   4.635
 8947SOL     OW27739   1.833   4.098   6.436
 8947SOL    HW127740   1.912   4.071   6.382
 8947SOL    HW227741   1.852   4.185   6.481
 8948SOL     OW27742   6.568   6.487   3.806
 8948SOL    HW127743   6.564   6.582   3.837
 8948SOL    HW227744   6.654   6.446   3.835
 8949SOL     OW27745   3.613   5.610   6.995
 8949SOL    HW127746   3.614   5.685   6.929
 8949SOL    HW227747   3.700   5.561   6.991
 8950SOL     OW27748   4.793   3.344   1.336
 8950SOL    HW127749   4.745   3.264   1.302
 8950SOL    HW227750   4.892   3.327   1.335
 8951SOL     OW27751   2.382   1.163   4.521
 8951SOL    HW127752   2.389   1.200   4.614
 8951SOL    HW227753   2.317   1.218   4.468
 8952SOL     OW27754   1.907   4.932   3.553
 8952SOL    HW127755   1.972   4.864   3.519
 8952SOL    HW227756   1.944   4.977   3.634
 8953SOL     OW27757   2.538   5.293   1.580
 8953SOL    HW127758   2.502   5.378   1.617
 8953SOL    HW227759   2.594   5.247   1.649
 8954SOL     OW27760   0.725   5.709   4.103
 8954SOL    HW127761   0.815   5.700   4.061
 8954SOL    HW227762   0.692   5.803   4.093
 8955SOL     OW27763   6.902   2.789   2.881
 8955SOL    HW127764   6.868   2.699   2.908
 8955SOL    HW227765   6.936   2.784   2.787
 8956SOL     OW27766   0.660   0.045   6.699
 8956SOL    HW127767   0.650   0.134   6.743
 8956SOL    HW227768   0.675   7.004   6.768
 8957SOL     OW27769   1.842   5.456   1.847
 8957SOL    HW127770   1.796   5.475   1.760
 8957SOL    HW227771   1.779   5.411   1.909
 8958SOL     OW27772   1.429   2.480   4.798
 8958SOL    HW127773   1.417   2.554   4.731
 8958SOL    HW227774   1.446   2.394   4.749
 8959SOL     OW27775   1.208   3.649   2.247
 8959SOL    HW127776   1.146   3.646   2.326
 8959SOL    HW227777   1.235   3.556   2.223
 8960SOL     OW27778   6.755   4.760   4.156
 8960SOL    HW127779   6.690   4.686   4.172
 8960SOL    HW227780   6.761   4.780   4.058
 8961SOL     OW27781   3.692   0.693   4.179
 8961SOL    HW127782   3.725   0.730   4.093
 8961SOL    HW227783   3.625   0.621   4.162
 8962SOL     OW27784   0.585   6.223   2.187
 8962SOL    HW127785   0.488   6.247   2.184
 8962SOL    HW227786   0.634   6.269   2.113
 8963SOL     OW27787   3.396   6.061   4.435
 8963SOL    HW127788   3.366   6.037   4.528
 8963SOL    HW227789   3.488   6.099   4.439
 8964SOL     OW27790   5.570   4.087   2.689
 8964SOL    HW127791   5.498   4.064   2.754
 8964SOL    HW227792   5.581   4.013   2.623
 8965SOL     OW27793   3.237   4.769   0.479
 8965SOL    HW127794   3.199   4.682   0.510
 8965SOL    HW227795   3.333   4.758   0.456
 8966SOL     OW27796   6.846   5.404   6.120
 8966SOL    HW127797   6.861   5.312   6.157
 8966SOL    HW227798   6.911   5.468   6.162
 8967SOL     OW27799   4.059   0.776   3.516
 8967SOL    HW127800   4.109   0.862   3.504
 8967SOL    HW227801   3.999   0.783   3.595
 8968SOL     OW27802   2.590   4.751   1.641
 8968SOL    HW127803   2.556   4.812   1.714
 8968SOL    HW227804   2.688   4.765   1.630
 8969SOL     OW27805   0.569   0.445   3.281
 8969SOL    HW127806   0.474   0.478   3.279
 8969SOL    HW227807   0.570   0.346   3.267
 8970SOL     OW27808   1.383   2.661   6.783
 8970SOL    HW127809   1.349   2.607   6.706
 8970SOL    HW227810   1.459   2.718   6.752
 8971SOL     OW27811   4.769   6.835   1.313
 8971SOL    HW127812   4.673   6.806   1.309
 8971SOL    HW227813   4.786   6.902   1.241
 8972SOL     OW27814   5.544   4.686   0.790
 8972SOL    HW127815   5.634   4.671   0.749
 8972SOL    HW227816   5.550   4.756   0.862
 8973SOL     OW27817   0.088   2.576   2.450
 8973SOL    HW127818   0.173   2.603   2.405
 8973SOL    HW227819   0.053   2.653   2.505
 8974SOL     OW27820   2.113   3.682   3.645
 8974SOL    HW127821   2.123   3.733   3.730
 8974SOL    HW227822   2.138   3.741   3.568
 8975SOL     OW27823   0.422   6.656   6.507
 8975SOL    HW127824   0.459   6.670   6.599
 8975SOL    HW227825   0.494   6.672   6.439
 8976SOL     OW27826   6.547   6.672   0.829
 8976SOL    HW127827   6.547   6.661   0.729
 8976SOL    HW227828   6.471   6.730   0.856
 8977SOL     OW27829   0.187   4.970   6.672
 8977SOL    HW127830   0.199   5.068   6.680
 8977SOL    HW227831   0.111   4.950   6.610
 8978SOL     OW27832   5.200   6.560   5.178
 8978SOL    HW127833   5.202   6.570   5.078
 8978SOL    HW227834   5.166   6.644   5.219
 8979SOL     OW27835   1.247   5.251   6.281
 8979SOL    HW127836   1.315   5.307   6.234
 8979SOL    HW227837   1.186   5.209   6.214
 8980SOL     OW27838   4.366   2.111   5.716
 8980SOL    HW127839   4.455   2.101   5.759
 8980SOL    HW227840   4.324   2.021   5.704
 8981SOL     OW27841   4.602   2.416   5.774
 8981SOL    HW127842   4.673   2.483   5.794
 8981SOL    HW227843   4.596   2.350   5.849
 8982SOL     OW27844   6.839   1.713   1.880
 8982SOL    HW127845   6.804   1.761   1.799
 8982SOL    HW227846   6.862   1.618   1.856
 8983SOL     OW27847   1.224   5.289   1.605
 8983SOL    HW127848   1.128   5.261   1.615
 8983SOL    HW227849   1.232   5.350   1.526
 8984SOL     OW27850   6.251   0.104   4.451
 8984SOL    HW127851   6.337   0.121   4.403
 8984SOL    HW227852   6.215   0.190   4.488
 8985SOL     OW27853   4.612   1.817   0.958
 8985SOL    HW127854   4.629   1.901   1.010
 8985SOL    HW227855   4.641   1.831   0.863
 8986SOL     OW27856   5.405   4.368   2.391
 8986SOL    HW127857   5.434   4.436   2.323
 8986SOL    HW227858   5.485   4.330   2.436
 8987SOL     OW27859   3.008   0.511   1.390
 8987SOL    HW127860   2.977   0.424   1.352
 8987SOL    HW227861   3.104   0.502   1.419
 8988SOL     OW27862   1.721   5.570   0.786
 8988SOL    HW127863   1.814   5.607   0.790
 8988SOL    HW227864   1.655   5.645   0.790
 8989SOL     OW27865   5.145   3.009   2.892
 8989SOL    HW127866   5.202   2.975   2.967
 8989SOL    HW227867   5.051   3.020   2.924
 8990SOL     OW27868   2.690   6.039   0.933
 8990SOL    HW127869   2.727   6.100   1.002
 8990SOL    HW227870   2.709   6.075   0.842
 8991SOL     OW27871   2.389   2.472   1.591
 8991SOL    HW127872   2.410   2.567   1.567
 8991SOL    HW227873   2.410   2.412   1.514
 8992SOL     OW27874   0.709   3.116   0.205
 8992SOL    HW127875   0.728   3.026   0.166
 8992SOL    HW227876   0.614   3.120   0.235
 8993SOL     OW27877   4.658   2.181   3.551
 8993SOL    HW127878   4.608   2.186   3.465
 8993SOL    HW227879   4.753   2.155   3.534
 8994SOL     OW27880   1.874   4.540   4.484
 8994SOL    HW127881   1.947   4.473   4.483
 8994SOL    HW227882   1.907   4.625   4.525
 8995SOL     OW27883   1.153   2.314   5.041
 8995SOL    HW127884   1.078   2.330   5.104
 8995SOL    HW227885   1.117   2.289   4.951
 8996SOL     OW27886   0.372   3.575   1.216
 8996SOL    HW127887   0.295   3.638   1.219
 8996SOL    HW227888   0.439   3.599   1.287
 8997SOL     OW27889   5.175   1.074   5.931
 8997SOL    HW127890   5.252   1.043   5.987
 8997SOL    HW227891   5.103   1.004   5.932
 8998SOL     OW27892   6.826   2.284   5.078
 8998SOL    HW127893   6.810   2.186   5.076
 8998SOL    HW227894   6.858   2.314   4.988
 8999SOL     OW27895   4.970   1.136   6.404
 8999SOL    HW127896   4.943   1.161   6.497
 8999SOL    HW227897   4.930   1.201   6.340
 9000SOL     OW27898   3.038   4.362   6.834
 9000SOL    HW127899   3.004   4.425   6.902
 9000SOL    HW227900   3.135   4.344   6.850
 9001SOL     OW27901   1.478   4.727   2.920
 9001SOL    HW127902   1.539   4.805   2.935
 9001SOL    HW227903   1.491   4.660   2.993
 9002SOL     OW27904   6.980   5.497   5.535
 9002SOL    HW127905   7.014   5.473   5.626
 9002SOL    HW227906   6.897   5.552   5.544
 9003SOL     OW27907   6.279   2.428   0.708
 9003SOL    HW127908   6.246   2.455   0.798
 9003SOL    HW227909   6.333   2.344   0.716
 9004SOL     OW27910   5.349   6.952   1.759
 9004SOL    HW127911   5.285   6.990   1.826
 9004SOL    HW227912   5.431   6.919   1.805
 9005SOL     OW27913   5.086   2.395   4.174
 9005SOL    HW127914   5.034   2.346   4.244
 9005SOL    HW227915   5.090   2.340   4.091
 9006SOL     OW27916   1.377   5.650   1.156
 9006SOL    HW127917   1.358   5.727   1.095
 9006SOL    HW227918   1.444   5.589   1.114
 9007SOL     OW27919   3.232   5.196   3.456
 9007SOL    HW127920   3.133   5.205   3.444
 9007SOL    HW227921   3.264   5.269   3.518
 9008SOL     OW27922   6.489   4.827   2.406
 9008SOL    HW127923   6.485   4.921   2.371
 9008SOL    HW227924   6.580   4.789   2.389
 9009SOL     OW27925   2.943   6.621   0.941
 9009SOL    HW127926   2.982   6.617   0.850
 9009SOL    HW227927   3.014   6.648   1.007
 9010SOL     OW27928   1.069   6.712   4.618
 9010SOL    HW127929   1.141   6.754   4.674
 9010SOL    HW227930   1.106   6.633   4.570
 9011SOL     OW27931   3.860   2.216   1.498
 9011SOL    HW127932   3.941   2.200   1.442
 9011SOL    HW227933   3.887   2.218   1.595
 9012SOL     OW27934   1.963   5.733   0.769
 9012SOL    HW127935   2.013   5.788   0.836
 9012SOL    HW227936   1.906   5.793   0.713
 9013SOL     OW27937   6.403   5.927   4.692
 9013SOL    HW127938   6.479   5.922   4.628
 9013SOL    HW227939   6.316   5.926   4.641
 9014SOL     OW27940   1.474   1.168   0.135
 9014SOL    HW127941   1.537   1.245   0.149
 9014SOL    HW227942   1.456   1.124   0.223
 9015SOL     OW27943   0.052   1.201   6.908
 9015SOL    HW127944   0.056   1.101   6.899
 9015SOL    HW227945   7.025   1.224   6.988
 9016SOL     OW27946   6.683   6.332   5.507
 9016SOL    HW127947   6.667   6.393   5.585
 9016SOL    HW227948   6.715   6.385   5.429
 9017SOL     OW27949   6.122   2.320   3.670
 9017SOL    HW127950   6.150   2.236   3.624
 9017SOL    HW227951   6.201   2.360   3.717
 9018SOL     OW27952   3.642   1.614   5.129
 9018SOL    HW127953   3.702   1.613   5.049
 9018SOL    HW227954   3.692   1.582   5.209
 9019SOL     OW27955   2.222   6.252   6.748
 9019SOL    HW127956   2.267   6.310   6.680
 9019SOL    HW227957   2.225   6.157   6.718
 9020SOL     OW27958   1.906   3.940   2.309
 9020SOL    HW127959   1.909   4.038   2.329
 9020SOL    HW227960   1.821   3.918   2.262
 9021SOL     OW27961   6.826   6.317   3.795
 9021SOL    HW127962   6.906   6.278   3.841
 9021SOL    HW227963   6.856   6.394   3.738
 9022SOL     OW27964   2.528   0.338   0.462
 9022SOL    HW127965   2.584   0.256   0.449
 9022SOL    HW227966   2.580   0.407   0.512
 9023SOL     OW27967   3.652   3.763   3.526
 9023SOL    HW127968   3.620   3.684   3.577
 9023SOL    HW227969   3.618   3.847   3.568
 9024SOL     OW27970   1.509   6.105   6.142
 9024SOL    HW127971   1.541   6.178   6.202
 9024SOL    HW227972   1.583   6.040   6.125
 9025SOL     OW27973   6.197   5.763   1.277
 9025SOL    HW127974   6.170   5.854   1.311
 9025SOL    HW227975   6.293   5.747   1.299
 9026SOL     OW27976   3.371   3.237   4.051
 9026SOL    HW127977   3.446   3.293   4.017
 9026SOL    HW227978   3.376   3.146   4.009
 9027SOL     OW27979   2.585   1.930   3.472
 9027SOL    HW127980   2.678   1.937   3.509
 9027SOL    HW227981   2.544   1.844   3.502
 9028SOL     OW27982   1.810   4.642   6.197
 9028SOL    HW127983   1.804   4.739   6.173
 9028SOL    HW227984   1.723   4.612   6.236
 9029SOL     OW27985   3.874   4.979   4.753
 9029SOL    HW127986   3.813   4.997   4.676
 9029SOL    HW227987   3.850   5.038   4.830
 9030SOL     OW27988   2.036   0.364   2.487
 9030SOL    HW127989   2.014   0.337   2.393
 9030SOL    HW227990   1.984   0.307   2.551
 9031SOL     OW27991   3.048   5.375   5.344
 9031SOL    HW127992   3.127   5.395   5.403
 9031SOL    HW227993   3.028   5.278   5.347
 9032SOL     OW27994   3.655   2.726   1.162
 9032SOL    HW127995   3.697   2.794   1.102
 9032SOL    HW227996   3.714   2.709   1.241
 9033SOL     OW27997   2.222   3.056   4.129
 9033SOL    HW127998   2.247   3.075   4.034
 9033SOL    HW227999   2.213   3.142   4.179
 9034SOL     OW28000   2.807   6.763   5.354
 9034SOL    HW128001   2.903   6.792   5.348
 9034SOL    HW228002   2.763   6.776   5.266
 9035SOL     OW28003   0.711   6.475   5.249
 9035SOL    HW128004   0.744   6.381   5.242
 9035SOL    HW228005   0.653   6.483   5.330
 9036SOL     OW28006   2.223   2.514   5.424
 9036SOL    HW128007   2.171   2.598   5.442
 9036SOL    HW228008   2.317   2.526   5.455
 9037SOL     OW28009   2.352   3.824   6.456
 9037SOL    HW128010   2.325   3.755   6.390
 9037SOL    HW228011   2.414   3.783   6.524
 9038SOL     OW28012   5.768   0.814   5.894
 9038SOL    HW128013   5.859   0.776   5.878
 9038SOL    HW228014   5.746   0.807   5.992
 9039SOL     OW28015   1.733   4.232   4.980
 9039SOL    HW128016   1.786   4.302   4.931
 9039SOL    HW228017   1.761   4.141   4.949
 9040SOL     OW28018   2.820   0.641   3.233
 9040SOL    HW128019   2.844   0.721   3.178
 9040SOL    HW228020   2.844   0.657   3.328
 9041SOL     OW28021   0.608   1.838   2.256
 9041SOL    HW128022   0.556   1.757   2.281
 9041SOL    HW228023   0.684   1.850   2.320
 9042SOL     OW28024   2.393   6.758   3.797
 9042SOL    HW128025   2.344   6.702   3.730
 9042SOL    HW228026   2.403   6.706   3.882
 9043SOL     OW28027   2.030   2.172   5.871
 9043SOL    HW128028   2.007   2.076   5.880
 9043SOL    HW228029   1.946   2.227   5.871
 9044SOL     OW28030   6.330   1.393   0.450
 9044SOL    HW128031   6.364   1.341   0.372
 9044SOL    HW228032   6.320   1.332   0.529
 9045SOL     OW28033   4.190   0.870   3.018
 9045SOL    HW128034   4.178   0.787   2.965
 9045SOL    HW228035   4.148   0.858   3.108
 9046SOL     OW28036   3.715   4.283   5.613
 9046SOL    HW128037   3.672   4.292   5.704
 9046SOL    HW228038   3.647   4.249   5.548
 9047SOL     OW28039   1.974   3.937   5.274
 9047SOL    HW128040   2.009   3.906   5.362
 9047SOL    HW228041   2.029   4.014   5.242
 9048SOL     OW28042   1.751   3.734   5.981
 9048SOL    HW128043   1.850   3.739   5.994
 9048SOL    HW228044   1.729   3.753   5.886
 9049SOL     OW28045   4.812   6.168   6.435
 9049SOL    HW128046   4.871   6.105   6.384
 9049SOL    HW228047   4.724   6.177   6.388
 9050SOL     OW28048   0.882   5.079   6.892
 9050SOL    HW128049   0.873   4.984   6.863
 9050SOL    HW228050   0.977   5.098   6.916
 9051SOL     OW28051   4.320   6.397   0.908
 9051SOL    HW128052   4.358   6.428   0.995
 9051SOL    HW228053   4.228   6.433   0.897
 9052SOL     OW28054   2.504   4.607   4.449
 9052SOL    HW128055   2.494   4.690   4.504
 9052SOL    HW228056   2.582   4.618   4.387
 9053SOL     OW28057   2.431   2.451   3.976
 9053SOL    HW128058   2.511   2.392   3.967
 9053SOL    HW228059   2.442   2.509   4.057
 9054SOL     OW28060   1.776   0.639   2.675
 9054SOL    HW128061   1.875   0.648   2.666
 9054SOL    HW228062   1.756   0.567   2.742
 9055SOL     OW28063   0.363   3.892   3.438
 9055SOL    HW128064   0.461   3.906   3.453
 9055SOL    HW228065   0.335   3.936   3.353
 9056SOL     OW28066   4.584   0.656   1.358
 9056SOL    HW128067   4.595   0.576   1.299
 9056SOL    HW228068   4.556   0.735   1.303
 9057SOL     OW28069   6.091   4.751   6.244
 9057SOL    HW128070   6.024   4.818   6.275
 9057SOL    HW228071   6.100   4.756   6.145
 9058SOL     OW28072   1.830   2.256   4.868
 9058SOL    HW128073   1.921   2.292   4.888
 9058SOL    HW228074   1.823   2.235   4.770
 9059SOL     OW28075   6.478   0.792   3.272
 9059SOL    HW128076   6.415   0.745   3.210
 9059SOL    HW228077   6.521   0.868   3.224
 9060SOL     OW28078   6.494   3.586   2.408
 9060SOL    HW128079   6.501   3.504   2.352
 9060SOL    HW228080   6.555   3.656   2.372
 9061SOL     OW28081   4.787   5.611   3.008
 9061SOL    HW128082   4.733   5.578   2.931
 9061SOL    HW228083   4.822   5.702   2.988
 9062SOL     OW28084   1.148   4.748   1.686
 9062SOL    HW128085   1.108   4.685   1.752
 9062SOL    HW228086   1.186   4.828   1.735
 9063SOL     OW28087   2.942   1.211   2.652
 9063SOL    HW128088   3.011   1.139   2.659
 9063SOL    HW228089   2.919   1.244   2.743
 9064SOL     OW28090   6.476   4.110   4.006
 9064SOL    HW128091   6.498   4.199   4.045
 9064SOL    HW228092   6.477   4.041   4.078
 9065SOL     OW28093   2.793   5.685   5.862
 9065SOL    HW128094   2.753   5.603   5.822
 9065SOL    HW228095   2.783   5.683   5.961
 9066SOL     OW28096   6.351   0.236   6.079
 9066SOL    HW128097   6.395   0.204   6.163
 9066SOL    HW228098   6.347   0.336   6.079
 9067SOL     OW28099   6.578   6.257   4.448
 9067SOL    HW128100   6.641   6.316   4.499
 9067SOL    HW228101   6.628   6.180   4.409
 9068SOL     OW28102   3.394   6.961   5.038
 9068SOL    HW128103   3.449   6.878   5.027
 9068SOL    HW228104   3.413   7.024   4.963
 9069SOL     OW28105   4.924   2.102   3.105
 9069SOL    HW128106   4.947   2.004   3.106
 9069SOL    HW228107   4.827   2.114   3.128
 9070SOL     OW28108   1.506   2.347   6.287
 9070SOL    HW128109   1.432   2.410   6.307
 9070SOL    HW228110   1.559   2.382   6.210
 9071SOL     OW28111   5.249   0.758   6.461
 9071SOL    HW128112   5.187   0.742   6.538
 9071SOL    HW228113   5.342   0.771   6.495
 9072SOL     OW28114   5.071   6.598   1.540
 9072SOL    HW128115   4.992   6.582   1.482
 9072SOL    HW228116   5.111   6.688   1.519
 9073SOL     OW28117   4.082   6.483   0.815
 9073SOL    HW128118   4.152   6.537   0.768
 9073SOL    HW228119   4.000   6.539   0.826
 9074SOL     OW28120   1.411   0.879   1.520
 9074SOL    HW128121   1.355   0.962   1.521
 9074SOL    HW228122   1.416   0.843   1.427
 9075SOL     OW28123   0.280   0.592   2.179
 9075SOL    HW128124   0.186   0.575   2.149
 9075SOL    HW228125   0.339   0.598   2.099
 9076SOL     OW28126   4.701   1.258   3.819
 9076SOL    HW128127   4.742   1.350   3.817
 9076SOL    HW228128   4.661   1.241   3.909
 9077SOL     OW28129   4.486   1.099   6.155
 9077SOL    HW128130   4.501   1.192   6.122
 9077SOL    HW228131   4.532   1.088   6.243
 9078SOL     OW28132   5.537   5.215   6.519
 9078SOL    HW128133   5.597   5.293   6.540
 9078SOL    HW228134   5.536   5.199   6.421
 9079SOL     OW28135   1.532   0.277   5.084
 9079SOL    HW128136   1.517   0.332   5.003
 9079SOL    HW228137   1.626   0.291   5.117
 9080SOL     OW28138   6.483   2.727   6.888
 9080SOL    HW128139   6.565   2.733   6.832
 9080SOL    HW228140   6.442   2.817   6.898
 9081SOL     OW28141   3.481   1.674   1.642
 9081SOL    HW128142   3.388   1.670   1.606
 9081SOL    HW228143   3.513   1.768   1.642
 9082SOL     OW28144   2.293   6.695   4.693
 9082SOL    HW128145   2.198   6.717   4.671
 9082SOL    HW228146   2.338   6.777   4.728
 9083SOL     OW28147   4.498   4.097   6.221
 9083SOL    HW128148   4.410   4.052   6.231
 9083SOL    HW228149   4.494   4.188   6.261
 9084SOL     OW28150   0.976   2.465   6.070
 9084SOL    HW128151   0.880   2.485   6.092
 9084SOL    HW228152   1.031   2.547   6.082
 9085SOL     OW28153   2.676   5.994   1.268
 9085SOL    HW128154   2.682   5.948   1.179
 9085SOL    HW228155   2.767   6.017   1.300
 9086SOL     OW28156   6.259   4.058   0.703
 9086SOL    HW128157   6.239   3.963   0.724
 9086SOL    HW228158   6.176   4.113   0.715
 9087SOL     OW28159   5.420   3.040   2.343
 9087SOL    HW128160   5.501   3.086   2.379
 9087SOL    HW228161   5.344   3.105   2.339
 9088SOL     OW28162   5.803   6.976   1.766
 9088SOL    HW128163   5.878   6.909   1.758
 9088SOL    HW228164   5.797   7.007   1.860
 9089SOL     OW28165   3.938   5.770   5.177
 9089SOL    HW128166   3.878   5.773   5.257
 9089SOL    HW228167   3.970   5.862   5.156
 9090SOL     OW28168   5.000   0.130   4.486
 9090SOL    HW128169   4.969   0.069   4.414
 9090SOL    HW228170   5.097   0.114   4.504
 9091SOL     OW28171   3.184   3.093   0.823
 9091SOL    HW128172   3.216   3.019   0.882
 9091SOL    HW228173   3.117   3.148   0.872
 9092SOL     OW28174   1.019   0.987   6.718
 9092SOL    HW128175   0.943   0.967   6.656
 9092SOL    HW228176   1.048   1.082   6.706
 9093SOL     OW28177   1.259   6.312   6.826
 9093SOL    HW128178   1.204   6.392   6.801
 9093SOL    HW228179   1.355   6.329   6.805
 9094SOL     OW28180   0.868   5.320   2.880
 9094SOL    HW128181   0.867   5.420   2.872
 9094SOL    HW228182   0.902   5.280   2.795
 9095SOL     OW28183   5.180   3.692   6.021
 9095SOL    HW128184   5.226   3.775   5.988
 9095SOL    HW228185   5.246   3.635   6.071
 9096SOL     OW28186   5.090   3.607   2.949
 9096SOL    HW128187   5.113   3.545   2.873
 9096SOL    HW228188   4.992   3.599   2.969
 9097SOL     OW28189   0.468   3.239   0.243
 9097SOL    HW128190   0.386   3.196   0.205
 9097SOL    HW228191   0.469   3.336   0.220
 9098SOL     OW28192   3.426   3.226   0.424
 9098SOL    HW128193   3.394   3.230   0.329
 9098SOL    HW228194   3.391   3.142   0.466
 9099SOL     OW28195   3.336   3.799   0.486
 9099SOL    HW128196   3.389   3.714   0.490
 9099SOL    HW228197   3.288   3.805   0.399
 9100SOL     OW28198   1.274   3.469   2.725
 9100SOL    HW128199   1.185   3.440   2.759
 9100SOL    HW228200   1.331   3.498   2.801
 9101SOL     OW28201   2.003   2.812   2.839
 9101SOL    HW128202   2.093   2.838   2.875
 9101SOL    HW228203   1.933   2.833   2.907
 9102SOL     OW28204   3.698   6.512   1.626
 9102SOL    HW128205   3.599   6.500   1.612
 9102SOL    HW228206   3.747   6.487   1.543
 9103SOL     OW28207   6.440   3.633   0.020
 9103SOL    HW128208   6.428   3.659   0.115
 9103SOL    HW228209   6.362   3.665   6.995
 9104SOL     OW28210   4.461   6.250   2.344
 9104SOL    HW128211   4.523   6.212   2.413
 9104SOL    HW228212   4.488   6.220   2.253
 9105SOL     OW28213   1.518   0.728   0.708
 9105SOL    HW128214   1.461   0.796   0.754
 9105SOL    HW228215   1.508   0.738   0.609
 9106SOL     OW28216   5.750   3.917   6.608
 9106SOL    HW128217   5.721   3.913   6.512
 9106SOL    HW228218   5.847   3.939   6.612
 9107SOL     OW28219   3.954   0.408   5.927
 9107SOL    HW128220   3.868   0.359   5.913
 9107SOL    HW228221   3.978   0.457   5.843
 9108SOL     OW28222   4.861   3.964   5.811
 9108SOL    HW128223   4.930   4.023   5.771
 9108SOL    HW228224   4.832   3.896   5.744
 9109SOL     OW28225   1.444   2.714   2.899
 9109SOL    HW128226   1.395   2.801   2.889
 9109SOL    HW228227   1.390   2.652   2.956
 9110SOL     OW28228   1.972   4.189   3.896
 9110SOL    HW128229   2.020   4.142   3.970
 9110SOL    HW228230   2.015   4.279   3.880
 9111SOL     OW28231   4.597   3.397   0.512
 9111SOL    HW128232   4.604   3.467   0.583
 9111SOL    HW228233   4.511   3.346   0.523
 9112SOL     OW28234   0.598   4.188   4.713
 9112SOL    HW128235   0.585   4.089   4.723
 9112SOL    HW228236   0.664   4.205   4.639
 9113SOL     OW28237   4.566   6.545   0.714
 9113SOL    HW128238   4.475   6.505   0.711
 9113SOL    HW228239   4.620   6.501   0.786
 9114SOL     OW28240   1.830   5.187   1.405
 9114SOL    HW128241   1.846   5.153   1.498
 9114SOL    HW228242   1.748   5.244   1.405
 9115SOL     OW28243   1.116   5.812   6.141
 9115SOL    HW128244   1.182   5.873   6.097
 9115SOL    HW228245   1.031   5.862   6.158
 9116SOL     OW28246   6.742   1.815   0.823
 9116SOL    HW128247   6.666   1.776   0.771
 9116SOL    HW228248   6.706   1.865   0.902
 9117SOL     OW28249   6.010   2.868   0.232
 9117SOL    HW128250   5.931   2.807   0.233
 9117SOL    HW228251   6.044   2.877   0.139
 9118SOL     OW28252   6.722   5.726   0.648
 9118SOL    HW128253   6.772   5.699   0.730
 9118SOL    HW228254   6.672   5.811   0.666
 9119SOL     OW28255   6.002   1.850   1.868
 9119SOL    HW128256   6.068   1.812   1.932
 9119SOL    HW228257   6.050   1.884   1.787
 9120SOL     OW28258   5.651   3.199   6.074
 9120SOL    HW128259   5.650   3.163   6.167
 9120SOL    HW228260   5.558   3.224   6.047
 9121SOL     OW28261   2.233   2.479   6.185
 9121SOL    HW128262   2.297   2.425   6.130
 9121SOL    HW228263   2.146   2.430   6.194
 9122SOL     OW28264   1.908   3.828   1.986
 9122SOL    HW128265   1.988   3.832   1.925
 9122SOL    HW228266   1.931   3.774   2.067
 9123SOL     OW28267   3.427   0.145   4.847
 9123SOL    HW128268   3.520   0.157   4.881
 9123SOL    HW228269   3.403   0.222   4.787
 9124SOL     OW28270   5.578   0.387   5.764
 9124SOL    HW128271   5.558   0.485   5.758
 9124SOL    HW228272   5.670   0.375   5.800
 9125SOL     OW28273   5.123   4.206   1.978
 9125SOL    HW128274   5.094   4.289   2.025
 9125SOL    HW228275   5.093   4.210   1.882
 9126SOL     OW28276   5.777   2.502   2.123
 9126SOL    HW128277   5.861   2.516   2.175
 9126SOL    HW228278   5.795   2.515   2.026
 9127SOL     OW28279   6.774   1.571   6.035
 9127SOL    HW128280   6.716   1.609   5.964
 9127SOL    HW228281   6.801   1.643   6.099
 9128SOL     OW28282   4.352   1.276   4.898
 9128SOL    HW128283   4.363   1.201   4.834
 9128SOL    HW228284   4.295   1.246   4.974
 9129SOL     OW28285   0.032   3.136   1.342
 9129SOL    HW128286   0.021   3.233   1.366
 9129SOL    HW228287   0.074   3.130   1.252
 9130SOL     OW28288   0.011   3.123   0.541
 9130SOL    HW128289   0.003   3.037   0.590
 9130SOL    HW228290   6.953   3.171   0.542
 9131SOL     OW28291   0.052   3.315   5.761
 9131SOL    HW128292   0.010   3.229   5.790
 9131SOL    HW228293   0.016   3.341   5.672
 9132SOL     OW28294   0.044   4.743   4.195
 9132SOL    HW128295   7.003   4.743   4.124
 9132SOL    HW228296   0.053   4.835   4.232
 9133SOL     OW28297   4.095   6.106   1.169
 9133SOL    HW128298   4.008   6.089   1.214
 9133SOL    HW228299   4.080   6.165   1.089
 9134SOL     OW28300   4.186   5.799   0.600
 9134SOL    HW128301   4.267   5.845   0.564
 9134SOL    HW228302   4.187   5.703   0.571
 9135SOL     OW28303   6.222   6.170   1.802
 9135SOL    HW128304   6.153   6.195   1.870
 9135SOL    HW228305   6.193   6.088   1.753
 9136SOL     OW28306   5.361   5.279   6.155
 9136SOL    HW128307   5.437   5.240   6.206
 9136SOL    HW228308   5.281   5.220   6.164
 9137SOL     OW28309   5.283   1.908   1.375
 9137SOL    HW128310   5.298   1.809   1.369
 9137SOL    HW228311   5.361   1.951   1.420
 9138SOL     OW28312   6.574   5.717   5.853
 9138SOL    HW128313   6.614   5.762   5.772
 9138SOL    HW228314   6.645   5.706   5.922
 9139SOL     OW28315   2.511   1.515   5.141
 9139SOL    HW128316   2.609   1.532   5.133
 9139SOL    HW228317   2.468   1.588   5.193
 9140SOL     OW28318   6.063   3.353   2.973
 9140SOL    HW128319   6.155   3.313   2.980
 9140SOL    HW228320   6.056   3.405   2.888
 9141SOL     OW28321   5.832   0.625   6.959
 9141SOL    HW128322   5.780   0.670   6.886
 9141SOL    HW228323   5.928   0.618   6.931
 9142SOL     OW28324   0.836   2.063   1.333
 9142SOL    HW128325   0.768   2.075   1.405
 9142SOL    HW228326   0.807   1.992   1.270
 9143SOL     OW28327   5.896   2.861   1.237
 9143SOL    HW128328   5.808   2.816   1.219
 9143SOL    HW228329   5.948   2.805   1.302
 9144SOL     OW28330   2.146   5.317   5.735
 9144SOL    HW128331   2.199   5.243   5.776
 9144SOL    HW228332   2.188   5.404   5.758
 9145SOL     OW28333   0.172   5.735   0.603
 9145SOL    HW128334   0.143   5.667   0.534
 9145SOL    HW228335   0.271   5.726   0.618
 9146SOL     OW28336   5.338   2.925   3.092
 9146SOL    HW128337   5.408   2.948   3.025
 9146SOL    HW228338   5.321   2.827   3.091
 9147SOL     OW28339   5.853   0.322   4.463
 9147SOL    HW128340   5.825   0.281   4.376
 9147SOL    HW228341   5.818   0.266   4.538
 9148SOL     OW28342   5.245   6.353   0.506
 9148SOL    HW128343   5.236   6.445   0.544
 9148SOL    HW228344   5.187   6.345   0.425
 9149SOL     OW28345   5.977   3.425   3.637
 9149SOL    HW128346   6.066   3.384   3.618
 9149SOL    HW228347   5.972   3.515   3.595
 9150SOL     OW28348   2.890   5.228   2.088
 9150SOL    HW128349   2.912   5.256   2.181
 9150SOL    HW228350   2.891   5.309   2.028
 9151SOL     OW28351   1.614   4.090   3.563
 9151SOL    HW128352   1.606   3.990   3.561
 9151SOL    HW228353   1.687   4.117   3.626
 9152SOL     OW28354   2.365   4.354   4.803
 9152SOL    HW128355   2.446   4.296   4.794
 9152SOL    HW228356   2.283   4.297   4.809
 9153SOL     OW28357   1.393   3.547   0.320
 9153SOL    HW128358   1.402   3.639   0.358
 9153SOL    HW228359   1.337   3.551   0.237
 9154SOL     OW28360   4.542   4.413   6.332
 9154SOL    HW128361   4.626   4.385   6.379
 9154SOL    HW228362   4.562   4.490   6.271
 9155SOL     OW28363   1.899   3.782   1.307
 9155SOL    HW128364   1.817   3.767   1.251
 9155SOL    HW228365   1.901   3.877   1.338
 9156SOL     OW28366   1.229   2.494   0.836
 9156SOL    HW128367   1.223   2.425   0.764
 9156SOL    HW228368   1.208   2.452   0.924
 9157SOL     OW28369   6.251   4.564   5.721
 9157SOL    HW128370   6.171   4.518   5.761
 9157SOL    HW228371   6.306   4.498   5.670
 9158SOL     OW28372   6.187   3.877   5.003
 9158SOL    HW128373   6.205   3.958   4.947
 9158SOL    HW228374   6.218   3.795   4.954
 9159SOL     OW28375   2.060   0.110   2.750
 9159SOL    HW128376   2.153   0.143   2.766
 9159SOL    HW228377   2.051   0.083   2.654
 9160SOL     OW28378   6.342   0.534   5.467
 9160SOL    HW128379   6.295   0.535   5.379
 9160SOL    HW228380   6.373   0.626   5.490
 9161SOL     OW28381   4.770   4.387   4.757
 9161SOL    HW128382   4.855   4.378   4.706
 9161SOL    HW228383   4.699   4.424   4.697
 9162SOL     OW28384   4.376   0.766   4.721
 9162SOL    HW128385   4.312   0.695   4.690
 9162SOL    HW228386   4.470   0.735   4.705
 9163SOL     OW28387   1.513   2.901   4.379
 9163SOL    HW128388   1.466   2.940   4.458
 9163SOL    HW228389   1.484   2.949   4.296
 9164SOL     OW28390   2.697   1.019   6.247
 9164SOL    HW128391   2.734   1.104   6.285
 9164SOL    HW228392   2.684   1.030   6.148
 9165SOL     OW28393   6.241   2.102   5.719
 9165SOL    HW128394   6.303   2.027   5.693
 9165SOL    HW228395   6.172   2.113   5.648
 9166SOL     OW28396   4.182   5.771   0.878
 9166SOL    HW128397   4.194   5.672   0.885
 9166SOL    HW228398   4.164   5.796   0.783
 9167SOL     OW28399   1.957   2.585   6.682
 9167SOL    HW128400   2.057   2.584   6.692
 9167SOL    HW228401   1.926   2.680   6.677
 9168SOL     OW28402   0.022   0.006   6.668
 9168SOL    HW128403   0.058   0.028   6.577
 9168SOL    HW228404   7.002   0.085   6.705
 9169SOL     OW28405   5.920   1.127   4.809
 9169SOL    HW128406   5.913   1.205   4.872
 9169SOL    HW228407   5.834   1.115   4.760
 9170SOL     OW28408   1.730   5.816   0.066
 9170SOL    HW128409   1.729   5.834   6.997
 9170SOL    HW228410   1.668   5.739   0.086
 9171SOL     OW28411   4.294   5.050   0.933
 9171SOL    HW128412   4.357   5.093   0.868
 9171SOL    HW228413   4.230   4.992   0.883
 9172SOL     OW28414   3.954   1.177   3.362
 9172SOL    HW128415   3.918   1.248   3.424
 9172SOL    HW228416   3.878   1.138   3.310
 9173SOL     OW28417   6.420   3.506   5.094
 9173SOL    HW128418   6.327   3.472   5.106
 9173SOL    HW228419   6.482   3.455   5.154
 9174SOL     OW28420   5.412   4.081   1.732
 9174SOL    HW128421   5.430   4.173   1.767
 9174SOL    HW228422   5.366   4.087   1.644
 9175SOL     OW28423   0.797   0.334   5.412
 9175SOL    HW128424   0.809   0.371   5.319
 9175SOL    HW228425   0.734   0.392   5.463
 9176SOL     OW28426   2.942   0.996   5.301
 9176SOL    HW128427   3.034   1.009   5.266
 9176SOL    HW228428   2.905   1.084   5.331
 9177SOL     OW28429   0.725   5.102   5.010
 9177SOL    HW128430   0.664   5.086   5.087
 9177SOL    HW228431   0.690   5.057   4.929
 9178SOL     OW28432   1.647   5.322   0.170
 9178SOL    HW128433   1.706   5.308   0.249
 9178SOL    HW228434   1.687   5.277   0.090
 9179SOL     OW28435   2.694   4.671   4.273
 9179SOL    HW128436   2.628   4.745   4.257
 9179SOL    HW228437   2.786   4.710   4.284
 9180SOL     OW28438   6.164   2.647   3.201
 9180SOL    HW128439   6.121   2.730   3.237
 9180SOL    HW228440   6.134   2.633   3.107
 9181SOL     OW28441   4.170   1.912   5.713
 9181SOL    HW128442   4.166   1.914   5.813
 9181SOL    HW228443   4.086   1.953   5.676
 9182SOL     OW28444   3.050   6.937   1.797
 9182SOL    HW128445   3.001   6.850   1.795
 9182SOL    HW228446   3.062   6.966   1.892
 9183SOL     OW28447   4.662   5.554   0.434
 9183SOL    HW128448   4.745   5.528   0.483
 9183SOL    HW228449   4.643   5.651   0.450
 9184SOL     OW28450   4.533   1.553   0.502
 9184SOL    HW128451   4.566   1.639   0.541
 9184SOL    HW228452   4.530   1.483   0.574
 9185SOL     OW28453   4.683   6.700   4.574
 9185SOL    HW128454   4.707   6.720   4.479
 9185SOL    HW228455   4.670   6.786   4.623
 9186SOL     OW28456   5.368   6.090   4.924
 9186SOL    HW128457   5.403   6.096   4.831
 9186SOL    HW228458   5.403   6.167   4.978
 9187SOL     OW28459   2.412   2.228   0.780
 9187SOL    HW128460   2.386   2.132   0.774
 9187SOL    HW228461   2.458   2.245   0.867
 9188SOL     OW28462   1.544   6.272   0.538
 9188SOL    HW128463   1.491   6.204   0.589
 9188SOL    HW228464   1.486   6.351   0.517
 9189SOL     OW28465   3.755   5.581   1.966
 9189SOL    HW128466   3.851   5.573   1.993
 9189SOL    HW228467   3.750   5.611   1.871
 9190SOL     OW28468   2.818   4.453   5.942
 9190SOL    HW128469   2.895   4.391   5.953
 9190SOL    HW228470   2.830   4.533   6.001
 9191SOL     OW28471   6.200   2.133   6.383
 9191SOL    HW128472   6.169   2.157   6.475
 9191SOL    HW228473   6.160   2.198   6.317
 9192SOL     OW28474   0.963   3.357   5.864
 9192SOL    HW128475   1.021   3.406   5.799
 9192SOL    HW228476   0.931   3.272   5.822
 9193SOL     OW28477   4.483   4.331   6.897
 9193SOL    HW128478   4.510   4.355   6.990
 9193SOL    HW228479   4.523   4.243   6.871
 9194SOL     OW28480   3.254   0.940   3.520
 9194SOL    HW128481   3.222   0.978   3.607
 9194SOL    HW228482   3.265   1.013   3.453
 9195SOL     OW28483   1.594   1.460   3.594
 9195SOL    HW128484   1.578   1.552   3.559
 9195SOL    HW228485   1.516   1.431   3.649
 9196SOL     OW28486   5.075   0.452   2.651
 9196SOL    HW128487   5.134   0.491   2.723
 9196SOL    HW228488   4.989   0.422   2.692
 9197SOL     OW28489   2.014   5.550   1.546
 9197SOL    HW128490   2.025   5.571   1.643
 9197SOL    HW228491   2.063   5.466   1.524
 9198SOL     OW28492   6.214   4.871   6.829
 9198SOL    HW128493   6.193   4.916   6.742
 9198SOL    HW228494   6.246   4.940   6.895
 9199SOL     OW28495   0.853   3.908   5.717
 9199SOL    HW128496   0.818   3.821   5.752
 9199SOL    HW228497   0.788   3.981   5.736
 9200SOL     OW28498   2.818   6.229   6.497
 9200SOL    HW128499   2.794   6.165   6.424
 9200SOL    HW228500   2.855   6.313   6.456
 9201SOL     OW28501   6.737   2.641   0.215
 9201SOL    HW128502   6.807   2.585   0.260
 9201SOL    HW228503   6.691   2.586   0.145
 9202SOL     OW28504   1.212   6.719   2.030
 9202SOL    HW128505   1.235   6.787   1.960
 9202SOL    HW228506   1.179   6.635   1.985
 9203SOL     OW28507   0.492   3.819   5.997
 9203SOL    HW128508   0.513   3.855   6.088
 9203SOL    HW228509   0.447   3.889   5.942
 9204SOL     OW28510   4.682   3.127   5.934
 9204SOL    HW128511   4.633   3.166   6.011
 9204SOL    HW228512   4.754   3.190   5.905
 9205SOL     OW28513   5.940   5.471   3.574
 9205SOL    HW128514   5.971   5.390   3.523
 9205SOL    HW228515   5.903   5.538   3.510
 9206SOL     OW28516   4.147   5.819   3.021
 9206SOL    HW128517   4.191   5.858   3.103
 9206SOL    HW228518   4.057   5.860   3.009
 9207SOL     OW28519   5.260   4.330   5.417
 9207SOL    HW128520   5.267   4.279   5.331
 9207SOL    HW228521   5.169   4.315   5.456
 9208SOL     OW28522   5.636   4.807   3.641
 9208SOL    HW128523   5.541   4.821   3.612
 9208SOL    HW228524   5.638   4.783   3.738
 9209SOL     OW28525   4.046   0.116   6.755
 9209SOL    HW128526   4.116   0.046   6.773
 9209SOL    HW228527   4.003   0.143   6.841
 9210SOL     OW28528   0.421   0.808   2.635
 9210SOL    HW128529   0.375   0.893   2.608
 9210SOL    HW228530   0.460   0.764   2.554
 9211SOL     OW28531   0.959   2.880   5.967
 9211SOL    HW128532   0.978   2.861   5.871
 9211SOL    HW228533   0.952   2.794   6.017
 9212SOL     OW28534   4.386   5.868   4.109
 9212SOL    HW128535   4.444   5.850   4.029
 9212SOL    HW228536   4.291   5.851   4.085
 9213SOL     OW28537   5.488   3.107   4.924
 9213SOL    HW128538   5.483   3.183   4.860
 9213SOL    HW228539   5.563   3.122   4.988
 9214SOL     OW28540   6.848   3.841   6.618
 9214SOL    HW128541   6.913   3.883   6.555
 9214SOL    HW228542   6.865   3.742   6.622
 9215SOL     OW28543   0.746   2.544   1.639
 9215SOL    HW128544   0.827   2.524   1.584
 9215SOL    HW228545   0.746   2.641   1.663
 9216SOL     OW28546   3.482   6.919   2.257
 9216SOL    HW128547   3.533   6.926   2.342
 9216SOL    HW228548   3.532   6.966   2.184
 9217SOL     OW28549   0.088   2.936   6.646
 9217SOL    HW128550   0.187   2.922   6.653
 9217SOL    HW228551   0.040   2.857   6.685
 9218SOL     OW28552   1.476   0.018   0.138
 9218SOL    HW128553   1.474   6.964   0.192
 9218SOL    HW228554   1.509   0.094   0.194
 9219SOL     OW28555   6.189   3.030   1.487
 9219SOL    HW128556   6.205   2.938   1.450
 9219SOL    HW228557   6.152   3.089   1.415
 9220SOL     OW28558   1.834   6.273   1.245
 9220SOL    HW128559   1.928   6.290   1.274
 9220SOL    HW228560   1.784   6.359   1.240
 9221SOL     OW28561   3.255   0.603   3.135
 9221SOL    HW128562   3.341   0.619   3.184
 9221SOL    HW228563   3.234   0.681   3.077
 9222SOL     OW28564   2.152   6.083   6.509
 9222SOL    HW128565   2.148   6.007   6.573
 9222SOL    HW228566   2.229   6.070   6.446
 9223SOL     OW28567   0.977   1.508   3.940
 9223SOL    HW128568   0.952   1.487   3.845
 9223SOL    HW228569   0.928   1.590   3.969
 9224SOL     OW28570   1.339   4.871   4.656
 9224SOL    HW128571   1.406   4.938   4.685
 9224SOL    HW228572   1.306   4.819   4.735
 9225SOL     OW28573   3.035   6.666   5.802
 9225SOL    HW128574   3.124   6.698   5.771
 9225SOL    HW228575   2.982   6.744   5.836
 9226SOL     OW28576   6.080   6.660   1.058
 9226SOL    HW128577   6.120   6.723   1.125
 9226SOL    HW228578   6.152   6.621   1.001
 9227SOL     OW28579   1.308   5.518   0.786
 9227SOL    HW128580   1.360   5.508   0.871
 9227SOL    HW228581   1.217   5.479   0.799
 9228SOL     OW28582   1.570   1.852   5.598
 9228SOL    HW128583   1.581   1.758   5.566
 9228SOL    HW228584   1.495   1.855   5.664
 9229SOL     OW28585   1.020   5.898   5.148
 9229SOL    HW128586   1.041   5.950   5.230
 9229SOL    HW228587   0.957   5.951   5.091
 9230SOL     OW28588   4.770   1.903   3.929
 9230SOL    HW128589   4.816   1.816   3.946
 9230SOL    HW228590   4.745   1.909   3.832
 9231SOL     OW28591   0.284   4.002   4.439
 9231SOL    HW128592   0.331   4.035   4.357
 9231SOL    HW228593   0.293   4.069   4.512
 9232SOL     OW28594   3.562   5.239   0.240
 9232SOL    HW128595   3.623   5.195   0.306
 9232SOL    HW228596   3.473   5.193   0.242
 9233SOL     OW28597   5.441   5.301   2.067
 9233SOL    HW128598   5.526   5.306   2.119
 9233SOL    HW228599   5.370   5.260   2.123
 9234SOL     OW28600   3.518   5.994   5.822
 9234SOL    HW128601   3.490   6.088   5.841
 9234SOL    HW228602   3.448   5.931   5.856
 9235SOL     OW28603   1.479   3.378   3.344
 9235SOL    HW128604   1.543   3.398   3.270
 9235SOL    HW228605   1.529   3.369   3.430
 9236SOL     OW28606   2.279   4.388   5.855
 9236SOL    HW128607   2.195   4.425   5.817
 9236SOL    HW228608   2.350   4.458   5.853
 9237SOL     OW28609   1.728   5.271   4.213
 9237SOL    HW128610   1.655   5.330   4.247
 9237SOL    HW228611   1.691   5.205   4.148
 9238SOL     OW28612   3.728   0.957   7.000
 9238SOL    HW128613   3.692   0.984   6.911
 9238SOL    HW228614   3.653   0.950   0.036
 9239SOL     OW28615   6.695   4.401   0.301
 9239SOL    HW128616   6.677   4.389   0.398
 9239SOL    HW228617   6.792   4.423   0.287
 9240SOL     OW28618   5.546   1.174   1.401
 9240SOL    HW128619   5.592   1.250   1.355
 9240SOL    HW228620   5.461   1.208   1.441
 9241SOL     OW28621   0.727   5.429   5.506
 9241SOL    HW128622   0.760   5.505   5.450
 9241SOL    HW228623   0.804   5.376   5.540
 9242SOL     OW28624   0.687   5.165   0.057
 9242SOL    HW128625   0.744   5.153   7.005
 9242SOL    HW228626   0.745   5.178   0.137
 9243SOL     OW28627   5.494   6.758   1.119
 9243SOL    HW128628   5.504   6.749   1.020
 9243SOL    HW228629   5.420   6.822   1.139
 9244SOL     OW28630   4.471   5.687   6.364
 9244SOL    HW128631   4.391   5.642   6.404
 9244SOL    HW228632   4.442   5.758   6.300
 9245SOL     OW28633   1.517   4.991   3.309
 9245SOL    HW128634   1.469   5.078   3.298
 9245SOL    HW228635   1.550   4.983   3.404
 9246SOL     OW28636   0.341   5.828   2.386
 9246SOL    HW128637   0.300   5.744   2.352
 9246SOL    HW228638   0.287   5.906   2.354
 9247SOL     OW28639   1.618   6.966   2.495
 9247SOL    HW128640   1.608   6.903   2.572
 9247SOL    HW228641   1.643   6.915   2.413
 9248SOL     OW28642   1.868   1.790   4.523
 9248SOL    HW128643   1.896   1.849   4.599
 9248SOL    HW228644   1.894   1.833   4.436
 9249SOL     OW28645   4.304   4.167   0.356
 9249SOL    HW128646   4.204   4.170   0.351
 9249SOL    HW228647   4.339   4.121   0.274
 9250SOL     OW28648   5.587   3.457   4.238
 9250SOL    HW128649   5.571   3.522   4.312
 9250SOL    HW228650   5.589   3.365   4.275
 9251SOL     OW28651   4.478   1.964   2.974
 9251SOL    HW128652   4.476   2.036   2.905
 9251SOL    HW228653   4.387   1.953   3.013
 9252SOL     OW28654   5.758   0.535   4.825
 9252SOL    HW128655   5.770   0.555   4.728
 9252SOL    HW228656   5.729   0.618   4.873
 9253SOL     OW28657   5.565   6.444   5.313
 9253SOL    HW128658   5.558   6.527   5.258
 9253SOL    HW228659   5.488   6.441   5.377
 9254SOL     OW28660   6.228   4.459   2.741
 9254SOL    HW128661   6.177   4.546   2.742
 9254SOL    HW228662   6.302   4.463   2.807
 9255SOL     OW28663   4.595   3.491   6.983
 9255SOL    HW128664   4.614   3.490   0.052
 9255SOL    HW228665   4.510   3.440   6.965
 9256SOL     OW28666   4.601   6.531   2.850
 9256SOL    HW128667   4.517   6.572   2.886
 9256SOL    HW228668   4.680   6.568   2.899
 9257SOL     OW28669   0.370   3.778   2.851
 9257SOL    HW128670   0.385   3.832   2.768
 9257SOL    HW228671   0.275   3.790   2.881
 9258SOL     OW28672   3.186   3.363   3.665
 9258SOL    HW128673   3.143   3.283   3.706
 9258SOL    HW228674   3.285   3.348   3.658
 9259SOL     OW28675   1.126   2.674   6.138
 9259SOL    HW128676   1.104   2.726   6.220
 9259SOL    HW228677   1.190   2.727   6.081
 9260SOL     OW28678   5.209   1.999   4.930
 9260SOL    HW128679   5.231   1.902   4.943
 9260SOL    HW228680   5.206   2.020   4.833
 9261SOL     OW28681   4.376   0.808   6.704
 9261SOL    HW128682   4.346   0.896   6.741
 9261SOL    HW228683   4.470   0.816   6.671
 9262SOL     OW28684   0.117   3.585   6.246
 9262SOL    HW128685   0.142   3.661   6.185
 9262SOL    HW228686   0.138   3.499   6.201
 9263SOL     OW28687   5.334   5.931   1.973
 9263SOL    HW128688   5.281   5.951   2.055
 9263SOL    HW228689   5.423   5.977   1.979
 9264SOL     OW28690   5.693   4.337   0.259
 9264SOL    HW128691   5.762   4.408   0.245
 9264SOL    HW228692   5.730   4.248   0.234
 9265SOL     OW28693   3.564   1.839   6.891
 9265SOL    HW128694   3.623   1.764   6.921
 9265SOL    HW228695   3.548   1.901   6.968
 9266SOL     OW28696   2.273   6.867   2.064
 9266SOL    HW128697   2.312   6.937   2.124
 9266SOL    HW228698   2.312   6.877   1.972
 9267SOL     OW28699   0.434   3.810   5.646
 9267SOL    HW128700   0.460   3.907   5.650
 9267SOL    HW228701   0.337   3.800   5.668
 9268SOL     OW28702   1.251   5.666   2.050
 9268SOL    HW128703   1.315   5.652   2.125
 9268SOL    HW228704   1.157   5.670   2.086
 9269SOL     OW28705   2.920   1.355   6.075
 9269SOL    HW128706   2.927   1.274   6.017
 9269SOL    HW228707   2.952   1.435   6.024
 9270SOL     OW28708   4.325   6.433   6.159
 9270SOL    HW128709   4.278   6.381   6.229
 9270SOL    HW228710   4.423   6.438   6.180
 9271SOL     OW28711   0.903   6.902   6.942
 9271SOL    HW128712   0.807   6.910   6.968
 9271SOL    HW228713   0.911   6.907   6.842
 9272SOL     OW28714   1.776   5.081   4.528
 9272SOL    HW128715   1.745   5.080   4.433
 9272SOL    HW228716   1.703   5.046   4.587
 9273SOL     OW28717   5.751   6.234   3.540
 9273SOL    HW128718   5.663   6.187   3.529
 9273SOL    HW228719   5.760   6.266   3.634
 9274SOL     OW28720   6.483   2.561   0.086
 9274SOL    HW128721   6.443   2.608   0.164
 9274SOL    HW228722   6.471   2.617   0.004
 9275SOL     OW28723   6.727   2.149   6.958
 9275SOL    HW128724   6.686   2.106   6.878
 9275SOL    HW228725   6.659   2.207   7.003
 9276SOL     OW28726   1.772   4.194   2.306
 9276SOL    HW128727   1.721   4.211   2.222
 9276SOL    HW228728   1.792   4.281   2.351
 9277SOL     OW28729   5.590   3.016   0.032
 9277SOL    HW128730   5.494   3.006   0.004
 9277SOL    HW228731   5.640   3.066   6.990
 9278SOL     OW28732   1.210   0.019   6.089
 9278SOL    HW128733   1.128   0.062   6.125
 9278SOL    HW228734   1.194   6.950   6.076
 9279SOL     OW28735   5.224   0.706   1.656
 9279SOL    HW128736   5.263   0.685   1.566
 9279SOL    HW228737   5.268   0.650   1.725
 9280SOL     OW28738   1.725   1.306   3.256
 9280SOL    HW128739   1.736   1.379   3.323
 9280SOL    HW228740   1.785   1.323   3.178
 9281SOL     OW28741   2.524   4.614   1.103
 9281SOL    HW128742   2.617   4.635   1.135
 9281SOL    HW228743   2.488   4.537   1.156
 9282SOL     OW28744   5.181   0.632   4.536
 9282SOL    HW128745   5.233   0.611   4.618
 9282SOL    HW228746   5.088   0.594   4.544
 9283SOL     OW28747   5.625   0.655   3.800
 9283SOL    HW128748   5.704   0.598   3.775
 9283SOL    HW228749   5.645   0.751   3.780
 9284SOL     OW28750   2.982   4.259   6.049
 9284SOL    HW128751   3.020   4.172   6.017
 9284SOL    HW228752   2.915   4.242   6.121
 9285SOL     OW28753   4.961   2.420   1.174
 9285SOL    HW128754   5.015   2.462   1.247
 9285SOL    HW228755   5.017   2.412   1.091
 9286SOL     OW28756   5.135   5.992   0.148
 9286SOL    HW128757   5.154   5.996   0.050
 9286SOL    HW228758   5.221   5.980   0.198
 9287SOL     OW28759   3.380   5.113   6.300
 9287SOL    HW128760   3.471   5.154   6.303
 9287SOL    HW228761   3.317   5.166   6.357
 9288SOL     OW28762   4.407   1.332   4.143
 9288SOL    HW128763   4.430   1.248   4.192
 9288SOL    HW228764   4.481   1.398   4.153
 9289SOL     OW28765   4.163   1.436   2.576
 9289SOL    HW128766   4.193   1.487   2.657
 9289SOL    HW228767   4.129   1.346   2.604
 9290SOL     OW28768   5.329   1.210   2.934
 9290SOL    HW128769   5.282   1.138   2.882
 9290SOL    HW228770   5.298   1.208   3.029
 9291SOL     OW28771   1.775   7.019   4.231
 9291SOL    HW128772   1.874   7.016   4.247
 9291SOL    HW228773   1.727   6.998   4.316
 9292SOL     OW28774   0.639   3.293   6.833
 9292SOL    HW128775   0.591   3.376   6.860
 9292SOL    HW228776   0.730   3.291   6.877
 9293SOL     OW28777   5.656   3.925   6.871
 9293SOL    HW128778   5.732   3.902   6.931
 9293SOL    HW228779   5.685   3.917   6.775
 9294SOL     OW28780   3.276   0.288   4.661
 9294SOL    HW128781   3.312   0.226   4.591
 9294SOL    HW228782   3.325   0.376   4.654
 9295SOL     OW28783   5.387   1.925   4.339
 9295SOL    HW128784   5.438   1.901   4.257
 9295SOL    HW228785   5.354   2.019   4.332
 9296SOL     OW28786   0.264   6.115   6.396
 9296SOL    HW128787   0.263   6.083   6.491
 9296SOL    HW228788   0.212   6.051   6.339
 9297SOL     OW28789   6.708   1.258   0.339
 9297SOL    HW128790   6.704   1.357   0.348
 9297SOL    HW228791   6.644   1.228   0.269
 9298SOL     OW28792   1.195   0.625   4.915
 9298SOL    HW128793   1.221   0.555   4.981
 9298SOL    HW228794   1.163   0.581   4.831
 9299SOL     OW28795   0.819   2.446   4.221
 9299SOL    HW128796   0.884   2.487   4.157
 9299SOL    HW228797   0.726   2.465   4.190
 9300SOL     OW28798   0.644   4.571   5.324
 9300SOL    HW128799   0.618   4.501   5.256
 9300SOL    HW228800   0.677   4.526   5.407
 9301SOL     OW28801   4.691   4.429   3.804
 9301SOL    HW128802   4.776   4.479   3.820
 9301SOL    HW228803   4.669   4.374   3.884
 9302SOL     OW28804   2.262   2.798   4.009
 9302SOL    HW128805   2.226   2.880   4.053
 9302SOL    HW228806   2.211   2.718   4.040
 9303SOL     OW28807   3.052   5.191   0.498
 9303SOL    HW128808   3.070   5.282   0.461
 9303SOL    HW228809   3.129   5.163   0.556
 9304SOL     OW28810   4.621   4.418   2.270
 9304SOL    HW128811   4.621   4.350   2.196
 9304SOL    HW228812   4.692   4.394   2.337
 9305SOL     OW28813   3.281   1.039   1.390
 9305SOL    HW128814   3.323   0.953   1.360
 9305SOL    HW228815   3.279   1.104   1.314
 9306SOL     OW28816   0.080   4.575   4.780
 9306SOL    HW128817   0.023   4.493   4.781
 9306SOL    HW228818   0.175   4.550   4.762
 9307SOL     OW28819   1.850   3.691   1.702
 9307SOL    HW128820   1.904   3.617   1.743
 9307SOL    HW228821   1.770   3.709   1.760
 9308SOL     OW28822   2.134   4.505   0.509
 9308SOL    HW128823   2.134   4.604   0.493
 9308SOL    HW228824   2.217   4.480   0.559
 9309SOL     OW28825   3.455   4.968   5.712
 9309SOL    HW128826   3.540   4.921   5.690
 9309SOL    HW228827   3.428   5.026   5.635
 9310SOL     OW28828   4.791   5.139   6.589
 9310SOL    HW128829   4.753   5.058   6.634
 9310SOL    HW228830   4.728   5.215   6.600
 9311SOL     OW28831   4.161   4.740   1.957
 9311SOL    HW128832   4.203   4.716   1.870
 9311SOL    HW228833   4.075   4.691   1.968
 9312SOL     OW28834   1.168   3.562   1.420
 9312SOL    HW128835   1.152   3.606   1.332
 9312SOL    HW228836   1.116   3.610   1.491
 9313SOL     OW28837   0.476   0.403   1.218
 9313SOL    HW128838   0.574   0.397   1.197
 9313SOL    HW228839   0.431   0.463   1.152
 9314SOL     OW28840   4.836   5.798   5.995
 9314SOL    HW128841   4.818   5.777   6.092
 9314SOL    HW228842   4.750   5.823   5.950
 9315SOL     OW28843   6.672   0.787   5.253
 9315SOL    HW128844   6.620   0.811   5.335
 9315SOL    HW228845   6.674   0.865   5.190
 9316SOL     OW28846   4.115   5.544   5.537
 9316SOL    HW128847   4.176   5.575   5.610
 9316SOL    HW228848   4.022   5.536   5.572
 9317SOL     OW28849   6.418   5.430   3.349
 9317SOL    HW128850   6.350   5.408   3.419
 9317SOL    HW228851   6.374   5.435   3.259
 9318SOL     OW28852   6.497   0.584   5.831
 9318SOL    HW128853   6.459   0.559   5.921
 9318SOL    HW228854   6.545   0.506   5.792
 9319SOL     OW28855   1.663   3.297   0.058
 9319SOL    HW128856   1.731   3.255   0.118
 9319SOL    HW228857   1.611   3.225   0.012
 9320SOL     OW28858   3.781   0.489   5.295
 9320SOL    HW128859   3.817   0.539   5.216
 9320SOL    HW228860   3.808   0.536   5.379
 9321SOL     OW28861   6.523   0.520   3.601
 9321SOL    HW128862   6.553   0.542   3.694
 9321SOL    HW228863   6.463   0.593   3.567
 9322SOL     OW28864   1.088   4.223   6.719
 9322SOL    HW128865   1.159   4.260   6.659
 9322SOL    HW228866   1.114   4.132   6.751
 9323SOL     OW28867   1.386   1.045   5.726
 9323SOL    HW128868   1.365   1.044   5.629
 9323SOL    HW228869   1.405   0.952   5.757
 9324SOL     OW28870   1.848   4.626   0.599
 9324SOL    HW128871   1.846   4.527   0.586
 9324SOL    HW228872   1.902   4.668   0.526
 9325SOL     OW28873   4.727   0.804   7.005
 9325SOL    HW128874   4.722   0.704   7.001
 9325SOL    HW228875   4.635   0.842   7.007
 9326SOL     OW28876   2.188   5.495   0.689
 9326SOL    HW128877   2.284   5.474   0.707
 9326SOL    HW228878   2.149   5.542   0.768
 9327SOL     OW28879   5.355   0.502   3.210
 9327SOL    HW128880   5.309   0.501   3.299
 9327SOL    HW228881   5.438   0.447   3.214
 9328SOL     OW28882   2.569   0.483   5.789
 9328SOL    HW128883   2.501   0.550   5.816
 9328SOL    HW228884   2.658   0.508   5.827
 9329SOL     OW28885   5.693   4.229   1.715
 9329SOL    HW128886   5.787   4.241   1.747
 9329SOL    HW228887   5.638   4.190   1.790
 9330SOL     OW28888   6.016   6.696   6.575
 9330SOL    HW128889   5.947   6.658   6.638
 9330SOL    HW228890   6.083   6.748   6.628
 9331SOL     OW28891   2.191   0.938   0.231
 9331SOL    HW128892   2.120   0.906   0.168
 9331SOL    HW228893   2.257   0.864   0.246
 9332SOL     OW28894   3.965   4.107   1.803
 9332SOL    HW128895   3.967   4.199   1.762
 9332SOL    HW228896   3.968   4.038   1.731
 9333SOL     OW28897   3.838   3.277   0.734
 9333SOL    HW128898   3.885   3.355   0.693
 9333SOL    HW228899   3.784   3.230   0.665
 9334SOL     OW28900   5.578   5.969   3.708
 9334SOL    HW128901   5.563   5.879   3.667
 9334SOL    HW228902   5.646   5.962   3.781
 9335SOL     OW28903   0.876   1.188   6.442
 9335SOL    HW128904   0.827   1.110   6.481
 9335SOL    HW228905   0.963   1.156   6.403
 9336SOL     OW28906   2.838   5.462   5.669
 9336SOL    HW128907   2.772   5.443   5.596
 9336SOL    HW228908   2.878   5.376   5.700
 9337SOL     OW28909   4.652   1.762   4.388
 9337SOL    HW128910   4.576   1.748   4.325
 9337SOL    HW228911   4.663   1.859   4.407
 9338SOL     OW28912   5.021   0.824   2.111
 9338SOL    HW128913   5.068   0.756   2.055
 9338SOL    HW228914   5.026   0.914   2.066
 9339SOL     OW28915   5.752   0.079   1.546
 9339SOL    HW128916   5.660   0.051   1.520
 9339SOL    HW228917   5.774   0.044   1.636
 9340SOL     OW28918   5.890   3.995   4.737
 9340SOL    HW128919   5.936   4.055   4.672
 9340SOL    HW228920   5.791   3.999   4.722
 9341SOL     OW28921   0.070   5.871   0.815
 9341SOL    HW128922   7.027   5.809   0.847
 9341SOL    HW228923   0.120   5.827   0.740
 9342SOL     OW28924   2.112   6.590   3.999
 9342SOL    HW128925   2.147   6.496   3.997
 9342SOL    HW228926   2.035   6.597   4.062
 9343SOL     OW28927   6.020   4.210   2.343
 9343SOL    HW128928   6.016   4.253   2.433
 9343SOL    HW228929   6.030   4.111   2.354
 9344SOL     OW28930   4.676   6.254   2.957
 9344SOL    HW128931   4.627   6.341   2.965
 9344SOL    HW228932   4.612   6.179   2.973
 9345SOL     OW28933   6.059   5.047   2.382
 9345SOL    HW128934   6.049   5.017   2.287
 9345SOL    HW228935   6.055   4.967   2.442
 9346SOL     OW28936   6.553   1.036   1.095
 9346SOL    HW128937   6.484   0.967   1.077
 9346SOL    HW228938   6.530   1.084   1.180
 9347SOL     OW28939   1.901   4.002   0.715
 9347SOL    HW128940   1.850   3.944   0.652
 9347SOL    HW228941   1.944   3.945   0.785
 9348SOL     OW28942   3.666   5.873   2.027
 9348SOL    HW128943   3.749   5.891   2.079
 9348SOL    HW228944   3.647   5.775   2.027
 9349SOL     OW28945   6.655   5.700   3.762
 9349SOL    HW128946   6.702   5.651   3.835
 9349SOL    HW228947   6.567   5.733   3.796
 9350SOL     OW28948   0.429   3.537   5.200
 9350SOL    HW128949   0.372   3.537   5.282
 9350SOL    HW228950   0.425   3.626   5.156
 9351SOL     OW28951   2.487   0.338   6.906
 9351SOL    HW128952   2.553   0.308   6.837
 9351SOL    HW228953   2.403   0.285   6.896
 9352SOL     OW28954   3.567   1.947   6.611
 9352SOL    HW128955   3.524   1.923   6.698
 9352SOL    HW228956   3.605   1.864   6.569
 9353SOL     OW28957   0.363   4.232   0.838
 9353SOL    HW128958   0.398   4.152   0.886
 9353SOL    HW228959   0.362   4.214   0.740
 9354SOL     OW28960   6.948   2.062   6.560
 9354SOL    HW128961   7.015   2.089   6.491
 9354SOL    HW228962   6.977   1.978   6.604
 9355SOL     OW28963   0.437   2.243   4.439
 9355SOL    HW128964   0.351   2.216   4.482
 9355SOL    HW228965   0.439   2.210   4.345
 9356SOL     OW28966   4.826   0.837   1.875
 9356SOL    HW128967   4.887   0.827   1.797
 9356SOL    HW228968   4.806   0.747   1.914
 9357SOL     OW28969   1.847   2.861   5.397
 9357SOL    HW128970   1.886   2.942   5.353
 9357SOL    HW228971   1.756   2.843   5.360
 9358SOL     OW28972   6.263   3.703   2.005
 9358SOL    HW128973   6.245   3.797   1.976
 9358SOL    HW228974   6.201   3.679   2.080
 9359SOL     OW28975   1.225   4.648   5.952
 9359SOL    HW128976   1.287   4.700   5.893
 9359SOL    HW228977   1.269   4.631   6.040
 9360SOL     OW28978   1.056   4.885   6.093
 9360SOL    HW128979   1.058   4.983   6.073
 9360SOL    HW228980   1.148   4.848   6.088
 9361SOL     OW28981   1.460   4.532   3.485
 9361SOL    HW128982   1.519   4.601   3.441
 9361SOL    HW228983   1.386   4.578   3.534
 9362SOL     OW28984   0.978   1.196   2.637
 9362SOL    HW128985   1.039   1.258   2.687
 9362SOL    HW228986   1.030   1.148   2.566
 9363SOL     OW28987   2.849   5.629   2.151
 9363SOL    HW128988   2.834   5.530   2.153
 9363SOL    HW228989   2.893   5.654   2.065
 9364SOL     OW28990   2.609   2.212   6.886
 9364SOL    HW128991   2.684   2.264   6.844
 9364SOL    HW228992   2.527   2.268   6.890
 9365SOL     OW28993   2.873   2.064   3.233
 9365SOL    HW128994   2.788   2.010   3.229
 9365SOL    HW228995   2.896   2.082   3.328
 9366SOL     OW28996   2.945   5.648   6.564
 9366SOL    HW128997   2.866   5.707   6.546
 9366SOL    HW228998   2.946   5.572   6.499
 9367SOL     OW28999   6.358   6.412   2.090
 9367SOL    HW129000   6.448   6.411   2.046
 9367SOL    HW229001   6.364   6.364   2.178
 9368SOL     OW29002   3.426   0.303   2.624
 9368SOL    HW129003   3.347   0.288   2.565
 9368SOL    HW229004   3.507   0.261   2.583
 9369SOL     OW29005   6.640   6.624   3.447
 9369SOL    HW129006   6.675   6.561   3.378
 9369SOL    HW229007   6.613   6.709   3.404
 9370SOL     OW29008   5.333   0.221   4.699
 9370SOL    HW129009   5.285   0.176   4.774
 9370SOL    HW229010   5.382   0.302   4.733
 9371SOL     OW29011   2.528   5.934   0.229
 9371SOL    HW129012   2.480   6.016   0.260
 9371SOL    HW229013   2.523   5.863   0.300
 9372SOL     OW29014   5.489   0.020   1.467
 9372SOL    HW129015   5.437   0.019   1.382
 9372SOL    HW229016   5.461   6.973   1.524
 9373SOL     OW29017   4.676   2.057   1.059
 9373SOL    HW129018   4.744   2.082   0.989
 9373SOL    HW229019   4.712   2.080   1.149
 9374SOL     OW29020   0.715   3.378   6.214
 9374SOL    HW129021   0.722   3.331   6.126
 9374SOL    HW229022   0.797   3.359   6.268
 9375SOL     OW29023   0.809   2.052   0.680
 9375SOL    HW129024   0.896   2.011   0.651
 9375SOL    HW229025   0.804   2.052   0.780
 9376SOL     OW29026   2.155   3.678   1.570
 9376SOL    HW129027   2.221   3.604   1.558
 9376SOL    HW229028   2.062   3.641   1.571
 9377SOL     OW29029   1.822   5.187   3.461
 9377SOL    HW129030   1.742   5.201   3.403
 9377SOL    HW229031   1.850   5.091   3.458
 9378SOL     OW29032   3.578   1.069   3.354
 9378SOL    HW129033   3.554   1.000   3.423
 9378SOL    HW229034   3.664   1.044   3.310
 9379SOL     OW29035   4.903   0.282   4.689
 9379SOL    HW129036   4.932   0.375   4.665
 9379SOL    HW229037   4.952   0.216   4.634
 9380SOL     OW29038   3.641   5.661   5.241
 9380SOL    HW129039   3.582   5.634   5.165
 9380SOL    HW229040   3.723   5.604   5.242
 9381SOL     OW29041   5.541   2.954   5.882
 9381SOL    HW129042   5.549   3.051   5.908
 9381SOL    HW229043   5.539   2.947   5.782
 9382SOL     OW29044   4.090   1.370   4.081
 9382SOL    HW129045   4.007   1.391   4.133
 9382SOL    HW229046   4.167   1.422   4.119
 9383SOL     OW29047   5.856   5.093   4.260
 9383SOL    HW129048   5.882   5.110   4.165
 9383SOL    HW229049   5.757   5.086   4.268
 9384SOL     OW29050   3.740   7.023   2.090
 9384SOL    HW129051   3.822   6.975   2.056
 9384SOL    HW229052   3.724   0.074   2.034
 9385SOL     OW29053   4.710   1.228   4.104
 9385SOL    HW129054   4.657   1.143   4.110
 9385SOL    HW229055   4.803   1.206   4.075
 9386SOL     OW29056   3.108   5.733   4.925
 9386SOL    HW129057   3.087   5.704   5.018
 9386SOL    HW229058   3.181   5.675   4.888
 9387SOL     OW29059   3.394   2.332   0.428
 9387SOL    HW129060   3.315   2.380   0.391
 9387SOL    HW229061   3.364   2.256   0.485
 9388SOL     OW29062   1.787   6.246   3.584
 9388SOL    HW129063   1.832   6.326   3.546
 9388SOL    HW229064   1.820   6.164   3.538
 9389SOL     OW29065   3.110   6.502   2.786
 9389SOL    HW129066   3.200   6.544   2.796
 9389SOL    HW229067   3.121   6.405   2.763
 9390SOL     OW29068   5.970   5.581   5.787
 9390SOL    HW129069   6.068   5.579   5.767
 9390SOL    HW229070   5.922   5.624   5.711
 9391SOL     OW29071   0.132   0.316   5.799
 9391SOL    HW129072   0.158   0.337   5.893
 9391SOL    HW229073   0.122   0.401   5.747
 9392SOL     OW29074   5.378   4.485   4.718
 9392SOL    HW129075   5.286   4.476   4.682
 9392SOL    HW229076   5.417   4.573   4.689
 9393SOL     OW29077   2.868   6.273   5.170
 9393SOL    HW129078   2.861   6.215   5.251
 9393SOL    HW229079   2.821   6.229   5.094
 9394SOL     OW29080   6.211   0.475   1.082
 9394SOL    HW129081   6.243   0.381   1.096
 9394SOL    HW229082   6.156   0.503   1.160
 9395SOL     OW29083   2.037   1.237   0.743
 9395SOL    HW129084   2.037   1.169   0.816
 9395SOL    HW229085   2.004   1.195   0.659
 9396SOL     OW29086   1.273   4.321   4.802
 9396SOL    HW129087   1.309   4.343   4.893
 9396SOL    HW229088   1.180   4.286   4.810
 9397SOL     OW29089   2.610   6.165   5.728
 9397SOL    HW129090   2.666   6.083   5.740
 9397SOL    HW229091   2.519   6.140   5.697
 9398SOL     OW29092   6.385   1.434   5.944
 9398SOL    HW129093   6.371   1.421   6.042
 9398SOL    HW229094   6.402   1.531   5.925
 9399SOL     OW29095   0.994   3.082   4.096
 9399SOL    HW129096   0.907   3.086   4.047
 9399SOL    HW229097   0.980   3.112   4.191
 9400SOL     OW29098   4.665   0.457   0.727
 9400SOL    HW129099   4.585   0.488   0.677
 9400SOL    HW229100   4.635   0.416   0.814
 9401SOL     OW29101   0.238   1.982   2.581
 9401SOL    HW129102   0.178   1.923   2.528
 9401SOL    HW229103   0.209   1.981   2.677
 9402SOL     OW29104   1.018   4.307   2.846
 9402SOL    HW129105   0.996   4.221   2.801
 9402SOL    HW229106   1.117   4.321   2.846
 9403SOL     OW29107   6.474   1.459   2.133
 9403SOL    HW129108   6.511   1.546   2.165
 9403SOL    HW229109   6.374   1.461   2.140
 9404SOL     OW29110   0.214   1.833   0.874
 9404SOL    HW129111   0.125   1.806   0.911
 9404SOL    HW229112   0.248   1.761   0.814
 9405SOL     OW29113   1.441   3.786   4.461
 9405SOL    HW129114   1.536   3.774   4.432
 9405SOL    HW229115   1.401   3.696   4.479
 9406SOL     OW29116   1.228   3.528   0.098
 9406SOL    HW129117   1.129   3.531   0.086
 9406SOL    HW229118   1.272   3.588   0.031
 9407SOL     OW29119   2.202   4.787   4.389
 9407SOL    HW129120   2.290   4.811   4.430
 9407SOL    HW229121   2.217   4.742   4.301
 9408SOL     OW29122   0.732   2.096   6.388
 9408SOL    HW129123   0.825   2.114   6.420
 9408SOL    HW229124   0.718   2.141   6.300
 9409SOL     OW29125   6.386   5.638   1.416
 9409SOL    HW129126   6.448   5.571   1.376
 9409SOL    HW229127   6.388   5.630   1.516
 9410SOL     OW29128   4.063   1.325   2.014
 9410SOL    HW129129   3.986   1.387   2.000
 9410SOL    HW229130   4.058   1.284   2.105
 9411SOL     OW29131   3.709   3.496   3.021
 9411SOL    HW129132   3.629   3.528   2.970
 9411SOL    HW229133   3.702   3.524   3.116
 9412SOL     OW29134   1.611   0.254   2.191
 9412SOL    HW129135   1.555   0.335   2.177
 9412SOL    HW229136   1.563   0.190   2.252
 9413SOL     OW29137   4.710   5.488   4.589
 9413SOL    HW129138   4.708   5.413   4.655
 9413SOL    HW229139   4.766   5.563   4.625
 9414SOL     OW29140   3.141   2.124   4.176
 9414SOL    HW129141   3.147   2.115   4.276
 9414SOL    HW229142   3.216   2.073   4.133
 9415SOL     OW29143   2.554   0.076   1.537
 9415SOL    HW129144   2.642   0.072   1.585
 9415SOL    HW229145   2.547   0.164   1.489
 9416SOL     OW29146   0.299   0.535   5.449
 9416SOL    HW129147   0.249   0.520   5.534
 9416SOL    HW229148   0.305   0.633   5.431
 9417SOL     OW29149   4.298   6.617   1.410
 9417SOL    HW129150   4.315   6.522   1.383
 9417SOL    HW229151   4.216   6.651   1.365
 9418SOL     OW29152   2.641   1.273   2.689
 9418SOL    HW129153   2.600   1.285   2.779
 9418SOL    HW229154   2.723   1.218   2.696
 9419SOL     OW29155   2.082   3.439   6.612
 9419SOL    HW129156   2.028   3.378   6.554
 9419SOL    HW229157   2.179   3.422   6.596
 9420SOL     OW29158   5.215   4.519   0.037
 9420SOL    HW129159   5.240   4.508   6.970
 9420SOL    HW229160   5.293   4.495   0.095
 9421SOL     OW29161   3.148   5.284   3.891
 9421SOL    HW129162   3.098   5.237   3.819
 9421SOL    HW229163   3.167   5.220   3.966
 9422SOL     OW29164   2.691   6.147   4.069
 9422SOL    HW129165   2.736   6.203   4.001
 9422SOL    HW229166   2.752   6.074   4.098
 9423SOL     OW29167   3.867   6.157   2.949
 9423SOL    HW129168   3.845   6.178   3.044
 9423SOL    HW229169   3.965   6.136   2.942
 9424SOL     OW29170   5.408   1.713   4.740
 9424SOL    HW129171   5.404   1.613   4.746
 9424SOL    HW229172   5.438   1.751   4.828
 9425SOL     OW29173   5.566   5.469   0.942
 9425SOL    HW129174   5.602   5.424   1.023
 9425SOL    HW229175   5.488   5.526   0.968
 9426SOL     OW29176   2.331   1.415   5.932
 9426SOL    HW129177   2.404   1.372   5.986
 9426SOL    HW229178   2.258   1.349   5.916
 9427SOL     OW29179   2.184   6.070   3.398
 9427SOL    HW129180   2.166   6.097   3.304
 9427SOL    HW229181   2.152   5.976   3.413
 9428SOL     OW29182   6.851   0.118   0.580
 9428SOL    HW129183   6.755   0.111   0.554
 9428SOL    HW229184   6.863   0.194   0.643
 9429SOL     OW29185   1.747   2.273   4.068
 9429SOL    HW129186   1.668   2.214   4.055
 9429SOL    HW229187   1.826   2.234   4.021
 9430SOL     OW29188   0.278   2.576   4.186
 9430SOL    HW129189   0.290   2.672   4.162
 9430SOL    HW229190   0.181   2.553   4.184
 9431SOL     OW29191   6.552   4.579   1.047
 9431SOL    HW129192   6.484   4.572   0.975
 9431SOL    HW229193   6.558   4.674   1.078
 9432SOL     OW29194   5.900   1.505   4.575
 9432SOL    HW129195   5.977   1.558   4.612
 9432SOL    HW229196   5.934   1.417   4.542
 9433SOL     OW29197   3.930   6.121   3.372
 9433SOL    HW129198   3.910   6.183   3.448
 9433SOL    HW229199   3.853   6.123   3.308
 9434SOL     OW29200   5.851   5.690   3.415
 9434SOL    HW129201   5.826   5.765   3.354
 9434SOL    HW229202   5.924   5.721   3.477
 9435SOL     OW29203   0.125   1.960   2.829
 9435SOL    HW129204   0.096   1.915   2.913
 9435SOL    HW229205   0.091   2.054   2.829
 9436SOL     OW29206   1.203   1.363   2.733
 9436SOL    HW129207   1.295   1.325   2.739
 9436SOL    HW229208   1.203   1.445   2.676
 9437SOL     OW29209   0.770   5.119   3.746
 9437SOL    HW129210   0.845   5.169   3.702
 9437SOL    HW229211   0.687   5.174   3.743
 9438SOL     OW29212   1.323   0.339   2.124
 9438SOL    HW129213   1.268   0.407   2.076
 9438SOL    HW229214   1.292   0.247   2.099
 9439SOL     OW29215   0.924   3.328   1.319
 9439SOL    HW129216   0.987   3.270   1.370
 9439SOL    HW229217   0.946   3.325   1.222
 9440SOL     OW29218   3.340   4.964   3.565
 9440SOL    HW129219   3.296   5.015   3.490
 9440SOL    HW229220   3.277   4.958   3.642
 9441SOL     OW29221   6.463   6.167   5.439
 9441SOL    HW129222   6.542   6.225   5.459
 9441SOL    HW229223   6.441   6.112   5.520
 9442SOL     OW29224   4.943   3.255   1.726
 9442SOL    HW129225   4.864   3.219   1.675
 9442SOL    HW229226   4.968   3.190   1.797
 9443SOL     OW29227   2.904   6.061   1.353
 9443SOL    HW129228   2.954   6.130   1.300
 9443SOL    HW229229   2.913   6.082   1.451
 9444SOL     OW29230   1.886   4.359   0.555
 9444SOL    HW129231   1.911   4.330   0.648
 9444SOL    HW229232   1.969   4.364   0.499
 9445SOL     OW29233   6.883   2.512   3.240
 9445SOL    HW129234   6.882   2.516   3.140
 9445SOL    HW229235   6.837   2.429   3.270
 9446SOL     OW29236   0.464   4.833   4.349
 9446SOL    HW129237   0.527   4.911   4.349
 9446SOL    HW229238   0.443   4.806   4.443
 9447SOL     OW29239   5.385   4.861   3.541
 9447SOL    HW129240   5.371   4.881   3.444
 9447SOL    HW229241   5.297   4.866   3.589
 9448SOL     OW29242   6.634   6.681   6.363
 9448SOL    HW129243   6.607   6.639   6.450
 9448SOL    HW229244   6.558   6.676   6.299
 9449SOL     OW29245   5.847   6.761   0.238
 9449SOL    HW129246   5.825   6.849   0.197
 9449SOL    HW229247   5.947   6.750   0.242
 9450SOL     OW29248   2.174   5.248   3.561
 9450SOL    HW129249   2.195   5.151   3.561
 9450SOL    HW229250   2.095   5.266   3.619
 9451SOL     OW29251   4.408   5.793   6.112
 9451SOL    HW129252   4.328   5.747   6.072
 9451SOL    HW229253   4.390   5.891   6.117
 9452SOL     OW29254   0.670   3.864   6.831
 9452SOL    HW129255   0.682   3.833   6.737
 9452SOL    HW229256   0.756   3.901   6.866
 9453SOL     OW29257   2.720   5.057   2.460
 9453SOL    HW129258   2.768   5.018   2.539
 9453SOL    HW229259   2.693   5.151   2.480
 9454SOL     OW29260   3.799   3.513   6.997
 9454SOL    HW129261   3.706   3.477   6.986
 9454SOL    HW229262   3.846   3.511   6.908
 9455SOL     OW29263   2.624   2.002   2.895
 9455SOL    HW129264   2.595   1.952   2.813
 9455SOL    HW229265   2.631   2.099   2.874
 9456SOL     OW29266   5.943   4.276   1.789
 9456SOL    HW129267   5.920   4.206   1.856
 9456SOL    HW229268   6.038   4.266   1.761
 9457SOL     OW29269   0.350   4.404   4.304
 9457SOL    HW129270   0.335   4.462   4.225
 9457SOL    HW229271   0.262   4.372   4.340
 9458SOL     OW29272   0.101   3.587   0.234
 9458SOL    HW129273   0.093   3.490   0.210
 9458SOL    HW229274   0.118   3.641   0.152
 9459SOL     OW29275   5.540   4.469   3.987
 9459SOL    HW129276   5.462   4.511   4.033
 9459SOL    HW229277   5.592   4.540   3.938
 9460SOL     OW29278   2.222   2.932   4.382
 9460SOL    HW129279   2.230   2.989   4.300
 9460SOL    HW229280   2.195   2.989   4.460
 9461SOL     OW29281   0.794   1.341   1.638
 9461SOL    HW129282   0.736   1.278   1.690
 9461SOL    HW229283   0.849   1.395   1.702
 9462SOL     OW29284   2.114   3.005   3.737
 9462SOL    HW129285   2.068   3.074   3.683
 9462SOL    HW229286   2.071   2.916   3.721
 9463SOL     OW29287   5.352   6.970   1.231
 9463SOL    HW129288   5.286   6.954   1.305
 9463SOL    HW229289   5.306   7.013   1.154
 9464SOL     OW29290   5.760   0.119   0.681
 9464SOL    HW129291   5.697   0.107   0.758
 9464SOL    HW229292   5.799   0.211   0.685
 9465SOL     OW29293   6.840   4.093   1.361
 9465SOL    HW129294   6.849   4.138   1.450
 9465SOL    HW229295   6.769   4.138   1.308
 9466SOL     OW29296   3.606   4.422   5.854
 9466SOL    HW129297   3.545   4.456   5.926
 9466SOL    HW229298   3.597   4.480   5.773
 9467SOL     OW29299   1.090   2.447   1.126
 9467SOL    HW129300   1.052   2.406   1.044
 9467SOL    HW229301   1.016   2.471   1.189
 9468SOL     OW29302   6.595   3.853   6.752
 9468SOL    HW129303   6.672   3.877   6.693
 9468SOL    HW229304   6.628   3.837   6.845
 9469SOL     OW29305   0.272   6.100   1.267
 9469SOL    HW129306   0.253   6.058   1.356
 9469SOL    HW229307   0.248   6.197   1.270
 9470SOL     OW29308   4.786   3.797   6.861
 9470SOL    HW129309   4.693   3.760   6.857
 9470SOL    HW229310   4.784   3.888   6.901
 9471SOL     OW29311   5.596   2.298   5.745
 9471SOL    HW129312   5.581   2.200   5.758
 9471SOL    HW229313   5.662   2.331   5.812
 9472SOL     OW29314   0.676   4.102   5.777
 9472SOL    HW129315   0.701   4.198   5.764
 9472SOL    HW229316   0.597   4.096   5.837
 9473SOL     OW29317   2.904   4.204   6.649
 9473SOL    HW129318   2.972   4.155   6.595
 9473SOL    HW229319   2.949   4.248   6.727
 9474SOL     OW29320   5.872   3.419   1.931
 9474SOL    HW129321   5.863   3.333   1.882
 9474SOL    HW229322   5.914   3.403   2.020
 9475SOL     OW29323   4.879   3.568   0.270
 9475SOL    HW129324   4.878   3.653   0.323
 9475SOL    HW229325   4.939   3.579   0.191
 9476SOL     OW29326   4.013   3.778   5.361
 9476SOL    HW129327   3.952   3.704   5.332
 9476SOL    HW229328   4.061   3.752   5.444
 9477SOL     OW29329   1.584   3.279   0.823
 9477SOL    HW129330   1.580   3.204   0.757
 9477SOL    HW229331   1.549   3.362   0.781
 9478SOL     OW29332   4.913   2.736   1.016
 9478SOL    HW129333   4.817   2.713   1.000
 9478SOL    HW229334   4.919   2.824   1.062
 9479SOL     OW29335   4.274   6.644   0.713
 9479SOL    HW129336   4.298   6.708   0.641
 9479SOL    HW229337   4.322   6.668   0.797
 9480SOL     OW29338   5.834   5.221   0.451
 9480SOL    HW129339   5.818   5.267   0.364
 9480SOL    HW229340   5.894   5.278   0.508
 9481SOL     OW29341   5.182   2.225   3.144
 9481SOL    HW129342   5.183   2.260   3.238
 9481SOL    HW229343   5.089   2.199   3.119
 9482SOL     OW29344   6.136   0.514   2.320
 9482SOL    HW129345   6.190   0.586   2.276
 9482SOL    HW229346   6.168   0.501   2.414
 9483SOL     OW29347   1.365   1.021   0.349
 9483SOL    HW129348   1.303   1.091   0.386
 9483SOL    HW229349   1.311   0.952   0.300
 9484SOL     OW29350   2.506   0.105   4.887
 9484SOL    HW129351   2.491   0.163   4.806
 9484SOL    HW229352   2.587   0.137   4.936
 9485SOL     OW29353   6.922   1.528   0.717
 9485SOL    HW129354   6.963   1.617   0.699
 9485SOL    HW229355   6.937   1.467   0.639
 9486SOL     OW29356   4.955   6.255   1.250
 9486SOL    HW129357   4.997   6.214   1.331
 9486SOL    HW229358   5.006   6.229   1.168
 9487SOL     OW29359   3.353   4.043   4.530
 9487SOL    HW129360   3.448   4.070   4.544
 9487SOL    HW229361   3.294   4.099   4.588
 9488SOL     OW29362   2.496   0.247   1.121
 9488SOL    HW129363   2.475   0.172   1.057
 9488SOL    HW229364   2.412   0.276   1.167
 9489SOL     OW29365   5.198   4.265   0.859
 9489SOL    HW129366   5.251   4.347   0.884
 9489SOL    HW229367   5.103   4.292   0.841
 9490SOL     OW29368   0.069   6.254   3.750
 9490SOL    HW129369   0.108   6.225   3.663
 9490SOL    HW229370   0.104   6.344   3.774
 9491SOL     OW29371   5.988   5.692   4.547
 9491SOL    HW129372   6.031   5.665   4.634
 9491SOL    HW229373   6.030   5.777   4.515
 9492SOL     OW29374   3.928   3.188   5.445
 9492SOL    HW129375   3.976   3.101   5.434
 9492SOL    HW229376   3.870   3.184   5.526
 9493SOL     OW29377   3.571   5.557   4.226
 9493SOL    HW129378   3.565   5.519   4.134
 9493SOL    HW229379   3.639   5.506   4.279
 9494SOL     OW29380   5.738   2.807   2.427
 9494SOL    HW129381   5.679   2.781   2.350
 9494SOL    HW229382   5.741   2.906   2.434
 9495SOL     OW29383   0.029   1.769   2.491
 9495SOL    HW129384   0.078   1.729   2.414
 9495SOL    HW229385   7.017   1.696   2.546
 9496SOL     OW29386   4.833   2.431   1.974
 9496SOL    HW129387   4.789   2.520   1.984
 9496SOL    HW229388   4.929   2.439   2.002
 9497SOL     OW29389   4.902   6.317   5.763
 9497SOL    HW129390   4.859   6.396   5.718
 9497SOL    HW229391   4.990   6.298   5.720
 9498SOL     OW29392   6.531   4.500   5.349
 9498SOL    HW129393   6.571   4.440   5.279
 9498SOL    HW229394   6.489   4.579   5.305
 9499SOL     OW29395   0.466   5.795   4.794
 9499SOL    HW129396   0.421   5.804   4.705
 9499SOL    HW229397   0.426   5.718   4.843
 9500SOL     OW29398   3.925   6.435   0.563
 9500SOL    HW129399   3.951   6.340   0.578
 9500SOL    HW229400   3.923   6.483   0.651
 9501SOL     OW29401   1.868   1.460   4.367
 9501SOL    HW129402   1.863   1.495   4.274
 9501SOL    HW229403   1.937   1.511   4.419
 9502SOL     OW29404   6.272   4.106   4.287
 9502SOL    HW129405   6.283   4.067   4.379
 9502SOL    HW229406   6.324   4.192   4.281
 9503SOL     OW29407   6.996   2.530   0.518
 9503SOL    HW129408   6.977   2.519   0.616
 9503SOL    HW229409   6.970   2.622   0.489
 9504SOL     OW29410   6.361   3.844   1.433
 9504SOL    HW129411   6.450   3.826   1.473
 9504SOL    HW229412   6.372   3.865   1.336
 9505SOL     OW29413   5.573   4.535   5.479
 9505SOL    HW129414   5.516   4.453   5.486
 9505SOL    HW229415   5.631   4.542   5.560
 9506SOL     OW29416   1.819   2.779   0.561
 9506SOL    HW129417   1.905   2.830   0.570
 9506SOL    HW229418   1.769   2.811   0.481
 9507SOL     OW29419   6.674   0.491   1.371
 9507SOL    HW129420   6.668   0.572   1.313
 9507SOL    HW229421   6.621   0.417   1.329
 9508SOL     OW29422   5.710   2.087   3.177
 9508SOL    HW129423   5.695   2.070   3.080
 9508SOL    HW229424   5.642   2.152   3.211
 9509SOL     OW29425   0.168   0.526   3.667
 9509SOL    HW129426   0.214   0.438   3.655
 9509SOL    HW229427   0.106   0.543   3.590
 9510SOL     OW29428   1.053   3.482   3.217
 9510SOL    HW129429   1.090   3.472   3.309
 9510SOL    HW229430   0.955   3.503   3.223
 9511SOL     OW29431   1.817   0.510   2.043
 9511SOL    HW129432   1.724   0.533   2.073
 9511SOL    HW229433   1.870   0.477   2.122
 9512SOL     OW29434   6.647   2.267   1.149
 9512SOL    HW129435   6.700   2.271   1.235
 9512SOL    HW229436   6.560   2.221   1.166
 9513SOL     OW29437   2.662   4.964   6.032
 9513SOL    HW129438   2.595   4.898   6.066
 9513SOL    HW229439   2.678   4.948   5.935
 9514SOL     OW29440   2.683   4.426   6.723
 9514SOL    HW129441   2.627   4.479   6.787
 9514SOL    HW229442   2.673   4.328   6.743
 9515SOL     OW29443   1.993   5.882   2.465
 9515SOL    HW129444   2.081   5.855   2.427
 9515SOL    HW229445   1.921   5.865   2.398
 9516SOL     OW29446   5.700   4.479   6.978
 9516SOL    HW129447   5.661   4.552   6.922
 9516SOL    HW229448   5.783   4.511   7.023
 9517SOL     OW29449   1.643   3.607   1.542
 9517SOL    HW129450   1.565   3.596   1.604
 9517SOL    HW229451   1.718   3.650   1.591
 9518SOL     OW29452   2.490   1.481   0.933
 9518SOL    HW129453   2.501   1.554   0.866
 9518SOL    HW229454   2.530   1.509   1.020
 9519SOL     OW29455   2.863   2.957   5.338
 9519SOL    HW129456   2.812   2.873   5.357
 9519SOL    HW229457   2.943   2.935   5.282
 9520SOL     OW29458   2.875   0.381   3.108
 9520SOL    HW129459   2.858   0.474   3.141
 9520SOL    HW229460   2.968   0.354   3.132
 9521SOL     OW29461   5.895   5.271   2.500
 9521SOL    HW129462   5.991   5.245   2.508
 9521SOL    HW229463   5.849   5.254   2.588
 9522SOL     OW29464   3.185   5.457   0.734
 9522SOL    HW129465   3.189   5.508   0.648
 9522SOL    HW229466   3.201   5.360   0.716
 9523SOL     OW29467   3.337   5.460   4.633
 9523SOL    HW129468   3.257   5.404   4.655
 9523SOL    HW229469   3.307   5.550   4.602
 9524SOL     OW29470   4.005   2.581   1.627
 9524SOL    HW129471   3.955   2.575   1.540
 9524SOL    HW229472   3.965   2.653   1.683
 9525SOL     OW29473   2.245   2.759   6.174
 9525SOL    HW129474   2.243   2.660   6.161
 9525SOL    HW229475   2.227   2.781   6.270
 9526SOL     OW29476   5.736   5.700   2.037
 9526SOL    HW129477   5.790   5.617   2.023
 9526SOL    HW229478   5.646   5.676   2.073
 9527SOL     OW29479   0.959   0.417   1.405
 9527SOL    HW129480   0.910   0.331   1.389
 9527SOL    HW229481   0.986   0.456   1.317
 9528SOL     OW29482   0.150   0.876   0.093
 9528SOL    HW129483   0.077   0.918   0.145
 9528SOL    HW229484   0.201   0.813   0.152
 9529SOL     OW29485   0.100   3.336   5.225
 9529SOL    HW129486   0.028   3.353   5.157
 9529SOL    HW229487   0.187   3.319   5.178
 9530SOL     OW29488   1.926   2.813   3.744
 9530SOL    HW129489   1.854   2.762   3.696
 9530SOL    HW229490   1.889   2.850   3.830
 9531SOL     OW29491   3.850   5.264   3.339
 9531SOL    HW129492   3.823   5.360   3.350
 9531SOL    HW229493   3.879   5.228   3.427
 9532SOL     OW29494   0.781   5.999   1.935
 9532SOL    HW129495   0.868   6.034   1.901
 9532SOL    HW229496   0.780   6.003   2.035
 9533SOL     OW29497   0.174   1.048   5.378
 9533SOL    HW129498   0.209   0.957   5.353
 9533SOL    HW229499   0.248   1.103   5.415
 9534SOL     OW29500   5.927   3.145   5.644
 9534SOL    HW129501   5.843   3.131   5.694
 9534SOL    HW229502   5.983   3.214   5.691
 9535SOL     OW29503   2.445   1.177   6.094
 9535SOL    HW129504   2.518   1.145   6.034
 9535SOL    HW229505   2.448   1.125   6.180
 9536SOL     OW29506   1.935   5.167   5.080
 9536SOL    HW129507   1.928   5.217   5.166
 9536SOL    HW229508   1.848   5.122   5.061
 9537SOL     OW29509   2.966   0.241   2.514
 9537SOL    HW129510   2.894   0.280   2.571
 9537SOL    HW229511   2.952   0.268   2.418
 9538SOL     OW29512   6.536   1.445   4.160
 9538SOL    HW129513   6.469   1.387   4.115
 9538SOL    HW229514   6.600   1.481   4.093
 9539SOL     OW29515   2.038   4.445   6.285
 9539SOL    HW129516   2.050   4.544   6.292
 9539SOL    HW229517   2.011   4.422   6.192
 9540SOL     OW29518   4.588   4.439   5.220
 9540SOL    HW129519   4.685   4.456   5.239
 9540SOL    HW229520   4.571   4.341   5.221
 9541SOL     OW29521   2.076   2.272   5.424
 9541SOL    HW129522   2.107   2.363   5.395
 9541SOL    HW229523   2.127   2.242   5.504
 9542SOL     OW29524   4.628   3.810   5.381
 9542SOL    HW129525   4.656   3.747   5.308
 9542SOL    HW229526   4.604   3.898   5.341
 9543SOL     OW29527   4.932   0.520   4.553
 9543SOL    HW129528   4.901   0.525   4.458
 9543SOL    HW229529   4.863   0.561   4.613
 9544SOL     OW29530   5.337   0.506   1.834
 9544SOL    HW129531   5.395   0.545   1.905
 9544SOL    HW229532   5.394   0.455   1.769
 9545SOL     OW29533   6.563   5.715   2.919
 9545SOL    HW129534   6.646   5.711   2.974
 9545SOL    HW229535   6.587   5.713   2.822
 9546SOL     OW29536   2.605   3.984   6.368
 9546SOL    HW129537   2.548   3.907   6.399
 9546SOL    HW229538   2.556   4.070   6.383
 9547SOL     OW29539   2.101   6.232   4.350
 9547SOL    HW129540   2.125   6.180   4.268
 9547SOL    HW229541   2.027   6.185   4.398
 9548SOL     OW29542   6.665   5.243   5.055
 9548SOL    HW129543   6.593   5.191   5.009
 9548SOL    HW229544   6.696   5.317   4.995
 9549SOL     OW29545   3.076   4.899   0.845
 9549SOL    HW129546   3.027   4.894   0.757
 9549SOL    HW229547   3.028   4.962   0.906
 9550SOL     OW29548   6.706   1.207   6.329
 9550SOL    HW129549   6.789   1.192   6.382
 9550SOL    HW229550   6.642   1.131   6.345
 9551SOL     OW29551   0.250   6.559   4.291
 9551SOL    HW129552   0.227   6.465   4.318
 9551SOL    HW229553   0.350   6.569   4.289
 9552SOL     OW29554   1.802   6.209   2.979
 9552SOL    HW129555   1.767   6.118   2.998
 9552SOL    HW229556   1.878   6.202   2.914
 9553SOL     OW29557   6.109   5.315   6.614
 9553SOL    HW129558   6.206   5.293   6.617
 9553SOL    HW229559   6.066   5.291   6.701
 9554SOL     OW29560   3.121   1.176   1.578
 9554SOL    HW129561   3.156   1.198   1.669
 9554SOL    HW229562   3.182   1.110   1.533
 9555SOL     OW29563   6.481   2.523   1.318
 9555SOL    HW129564   6.524   2.491   1.402
 9555SOL    HW229565   6.548   2.575   1.264
 9556SOL     OW29566   2.489   1.610   1.808
 9556SOL    HW129567   2.394   1.615   1.776
 9556SOL    HW229568   2.550   1.615   1.729
 9557SOL     OW29569   6.106   0.538   2.748
 9557SOL    HW129570   6.036   0.579   2.807
 9557SOL    HW229571   6.191   0.589   2.756
 9558SOL     OW29572   6.912   5.577   3.230
 9558SOL    HW129573   6.843   5.506   3.245
 9558SOL    HW229574   6.963   5.592   3.315
 9559SOL     OW29575   0.094   4.273   2.473
 9559SOL    HW129576   0.148   4.345   2.431
 9559SOL    HW229577   0.146   4.187   2.473
 9560SOL     OW29578   2.115   1.376   2.523
 9560SOL    HW129579   2.146   1.462   2.484
 9560SOL    HW229580   2.184   1.341   2.587
 9561SOL     OW29581   2.560   6.891   0.169
 9561SOL    HW129582   2.485   6.860   0.110
 9561SOL    HW229583   2.522   6.941   0.247
 9562SOL     OW29584   3.530   5.749   4.624
 9562SOL    HW129585   3.435   5.763   4.600
 9562SOL    HW229586   3.544   5.654   4.653
 9563SOL     OW29587   6.406   6.566   6.675
 9563SOL    HW129588   6.331   6.504   6.651
 9563SOL    HW229589   6.468   6.521   6.739
 9564SOL     OW29590   2.514   0.072   6.472
 9564SOL    HW129591   2.574   0.152   6.476
 9564SOL    HW229592   2.424   0.099   6.439
 9565SOL     OW29593   4.652   5.600   5.625
 9565SOL    HW129594   4.669   5.543   5.705
 9565SOL    HW229595   4.554   5.599   5.604
 9566SOL     OW29596   3.735   4.359   6.597
 9566SOL    HW129597   3.820   4.319   6.632
 9566SOL    HW229598   3.677   4.286   6.561
 9567SOL     OW29599   6.388   5.703   6.347
 9567SOL    HW129600   6.368   5.605   6.357
 9567SOL    HW229601   6.324   5.756   6.403
 9568SOL     OW29602   4.978   3.534   6.605
 9568SOL    HW129603   4.922   3.491   6.676
 9568SOL    HW229604   4.972   3.633   6.613
 9569SOL     OW29605   6.365   0.997   0.342
 9569SOL    HW129606   6.271   1.015   0.313
 9569SOL    HW229607   6.411   0.941   0.274
 9570SOL     OW29608   0.622   1.472   1.441
 9570SOL    HW129609   0.526   1.450   1.459
 9570SOL    HW229610   0.679   1.431   1.513
 9571SOL     OW29611   2.842   3.729   0.066
 9571SOL    HW129612   2.924   3.680   0.095
 9571SOL    HW229613   2.761   3.685   0.104
 9572SOL     OW29614   1.486   4.476   1.189
 9572SOL    HW129615   1.540   4.461   1.106
 9572SOL    HW229616   1.390   4.489   1.164
 9573SOL     OW29617   0.820   0.652   6.665
 9573SOL    HW129618   0.781   0.733   6.623
 9573SOL    HW229619   0.912   0.638   6.631
 9574SOL     OW29620   3.220   3.595   5.267
 9574SOL    HW129621   3.126   3.599   5.232
 9574SOL    HW229622   3.272   3.527   5.215
 9575SOL     OW29623   6.244   0.672   1.311
 9575SOL    HW129624   6.203   0.589   1.350
 9575SOL    HW229625   6.177   0.746   1.314
 9576SOL     OW29626   4.062   1.446   3.823
 9576SOL    HW129627   4.074   1.420   3.919
 9576SOL    HW229628   4.081   1.544   3.812
 9577SOL     OW29629   0.890   0.432   2.266
 9577SOL    HW129630   0.978   0.474   2.287
 9577SOL    HW229631   0.844   0.406   2.351
 9578SOL     OW29632   6.139   2.954   3.038
 9578SOL    HW129633   6.093   2.983   3.123
 9578SOL    HW229634   6.222   3.009   3.025
 9579SOL     OW29635   0.927   6.930   2.211
 9579SOL    HW129636   1.003   6.967   2.157
 9579SOL    HW229637   0.928   6.831   2.206
 9580SOL     OW29638   5.029   3.646   0.024
 9580SOL    HW129639   5.082   3.569   7.017
 9580SOL    HW229640   4.954   3.666   6.991
 9581SOL     OW29641   1.768   5.162   6.038
 9581SOL    HW129642   1.832   5.237   6.048
 9581SOL    HW229643   1.687   5.194   5.989
 9582SOL     OW29644   4.526   4.675   3.916
 9582SOL    HW129645   4.552   4.578   3.920
 9582SOL    HW229646   4.489   4.703   4.005
 9583SOL     OW29647   1.974   3.486   1.850
 9583SOL    HW129648   1.964   3.395   1.809
 9583SOL    HW229649   2.067   3.498   1.883
 9584SOL     OW29650   5.814   5.292   0.163
 9584SOL    HW129651   5.771   5.211   0.124
 9584SOL    HW229652   5.909   5.297   0.133
 9585SOL     OW29653   5.574   0.138   2.927
 9585SOL    HW129654   5.615   0.226   2.901
 9585SOL    HW229655   5.479   0.152   2.952
 9586SOL     OW29656   5.215   3.729   3.804
 9586SOL    HW129657   5.219   3.704   3.707
 9586SOL    HW229658   5.190   3.648   3.858
 9587SOL     OW29659   6.244   0.359   1.421
 9587SOL    HW129660   6.213   0.292   1.489
 9587SOL    HW229661   6.165   0.395   1.372
 9588SOL     OW29662   0.091   0.614   1.348
 9588SOL    HW129663   0.127   0.638   1.438
 9588SOL    HW229664   0.167   0.611   1.282
 9589SOL     OW29665   2.133   6.366   6.335
 9589SOL    HW129666   2.082   6.333   6.256
 9589SOL    HW229667   2.133   6.295   6.406
 9590SOL     OW29668   0.396   3.974   2.309
 9590SOL    HW129669   0.481   3.930   2.337
 9590SOL    HW229670   0.351   3.919   2.239
 9591SOL     OW29671   1.889   6.458   0.897
 9591SOL    HW129672   1.795   6.426   0.888
 9591SOL    HW229673   1.925   6.484   0.808
 9592SOL     OW29674   3.870   5.405   2.987
 9592SOL    HW129675   3.905   5.338   3.053
 9592SOL    HW229676   3.894   5.377   2.894
 9593SOL     OW29677   5.473   2.464   4.387
 9593SOL    HW129678   5.562   2.427   4.360
 9593SOL    HW229679   5.483   2.516   4.472
 9594SOL     OW29680   6.695   6.362   3.310
 9594SOL    HW129681   6.609   6.340   3.356
 9594SOL    HW229682   6.772   6.329   3.364
 9595SOL     OW29683   1.840   5.810   4.612
 9595SOL    HW129684   1.773   5.865   4.661
 9595SOL    HW229685   1.906   5.770   4.676
 9596SOL     OW29686   0.036   5.628   5.281
 9596SOL    HW129687   0.101   5.659   5.350
 9596SOL    HW229688   7.007   5.556   5.320
 9597SOL     OW29689   0.184   4.274   1.729
 9597SOL    HW129690   0.278   4.240   1.729
 9597SOL    HW229691   0.122   4.201   1.700
 9598SOL     OW29692   0.554   4.401   5.581
 9598SOL    HW129693   0.575   4.420   5.677
 9598SOL    HW229694   0.486   4.466   5.549
 9599SOL     OW29695   3.408   0.249   5.597
 9599SOL    HW129696   3.454   0.327   5.554
 9599SOL    HW229697   3.423   0.167   5.542
 9600SOL     OW29698   1.338   0.371   5.792
 9600SOL    HW129699   1.279   0.451   5.789
 9600SOL    HW229700   1.317   0.317   5.874
 9601SOL     OW29701   0.188   4.636   6.304
 9601SOL    HW129702   0.216   4.678   6.391
 9601SOL    HW229703   0.266   4.629   6.243
 9602SOL     OW29704   6.777   4.714   6.148
 9602SOL    HW129705   6.721   4.655   6.207
 9602SOL    HW229706   6.862   4.667   6.125
 9603SOL     OW29707   2.584   5.972   4.622
 9603SOL    HW129708   2.545   5.991   4.712
 9603SOL    HW229709   2.525   6.010   4.551
 9604SOL     OW29710   5.168   1.155   0.101
 9604SOL    HW129711   5.102   1.087   0.070
 9604SOL    HW229712   5.160   1.238   0.046
 9605SOL     OW29713   1.654   5.223   5.250
 9605SOL    HW129714   1.634   5.296   5.185
 9605SOL    HW229715   1.627   5.135   5.212
 9606SOL     OW29716   0.491   6.546   3.327
 9606SOL    HW129717   0.483   6.645   3.318
 9606SOL    HW229718   0.557   6.512   3.260
 9607SOL     OW29719   1.089   0.882   1.408
 9607SOL    HW129720   1.144   0.963   1.428
 9607SOL    HW229721   1.111   0.810   1.474
 9608SOL     OW29722   6.773   0.204   2.198
 9608SOL    HW129723   6.871   0.225   2.189
 9608SOL    HW229724   6.727   0.279   2.245
 9609SOL     OW29725   1.923   4.102   4.838
 9609SOL    HW129726   1.885   4.132   4.750
 9609SOL    HW229727   1.995   4.165   4.866
 9610SOL     OW29728   1.611   2.409   5.678
 9610SOL    HW129729   1.572   2.318   5.684
 9610SOL    HW229730   1.539   2.478   5.688
 9611SOL     OW29731   6.657   0.338   1.049
 9611SOL    HW129732   6.586   0.335   1.119
 9611SOL    HW229733   6.714   0.419   1.063
 9612SOL     OW29734   6.990   2.786   0.412
 9612SOL    HW129735   0.041   2.813   0.464
 9612SOL    HW229736   6.971   2.855   0.342
 9613SOL     OW29737   5.687   0.145   4.651
 9613SOL    HW129738   5.646   0.054   4.650
 9613SOL    HW229739   5.679   0.185   4.742
 9614SOL     OW29740   3.874   4.008   2.258
 9614SOL    HW129741   3.933   4.087   2.248
 9614SOL    HW229742   3.802   4.027   2.324
 9615SOL     OW29743   1.707   5.679   2.784
 9615SOL    HW129744   1.699   5.704   2.688
 9615SOL    HW229745   1.638   5.610   2.806
 9616SOL     OW29746   3.870   2.579   0.801
 9616SOL    HW129747   3.794   2.644   0.810
 9616SOL    HW229748   3.942   2.603   0.866
 9617SOL     OW29749   0.832   3.390   3.571
 9617SOL    HW129750   0.883   3.354   3.649
 9617SOL    HW229751   0.738   3.357   3.575
 9618SOL     OW29752   3.929   6.669   6.651
 9618SOL    HW129753   3.904   6.581   6.608
 9618SOL    HW229754   3.853   6.733   6.641
 9619SOL     OW29755   1.960   5.616   0.414
 9619SOL    HW129756   2.030   5.610   0.484
 9619SOL    HW229757   1.884   5.672   0.447
 9620SOL     OW29758   3.319   0.435   6.612
 9620SOL    HW129759   3.325   0.507   6.542
 9620SOL    HW229760   3.403   0.382   6.613
 9621SOL     OW29761   0.874   0.374   2.538
 9621SOL    HW129762   0.960   0.422   2.520
 9621SOL    HW229763   0.892   0.293   2.595
 9622SOL     OW29764   6.637   0.904   6.719
 9622SOL    HW129765   6.548   0.939   6.692
 9622SOL    HW229766   6.663   0.945   6.807
 9623SOL     OW29767   4.845   5.663   6.539
 9623SOL    HW129768   4.794   5.609   6.473
 9623SOL    HW229769   4.884   5.744   6.494
 9624SOL     OW29770   5.342   5.325   5.306
 9624SOL    HW129771   5.292   5.410   5.287
 9624SOL    HW229772   5.287   5.267   5.366
 9625SOL     OW29773   5.699   4.796   6.468
 9625SOL    HW129774   5.605   4.780   6.497
 9625SOL    HW229775   5.754   4.714   6.487
 9626SOL     OW29776   1.467   4.698   5.012
 9626SOL    HW129777   1.421   4.706   4.924
 9626SOL    HW229778   1.556   4.653   4.999
 9627SOL     OW29779   1.955   4.708   5.684
 9627SOL    HW129780   1.919   4.798   5.710
 9627SOL    HW229781   1.975   4.708   5.586
 9628SOL     OW29782   5.878   4.281   6.992
 9628SOL    HW129783   5.842   4.207   6.936
 9628SOL    HW229784   5.812   4.356   6.995
 9629SOL     OW29785   6.440   6.064   2.797
 9629SOL    HW129786   6.361   6.021   2.842
 9629SOL    HW229787   6.521   6.007   2.810
 9630SOL     OW29788   6.222   6.521   5.894
 9630SOL    HW129789   6.136   6.509   5.844
 9630SOL    HW229790   6.270   6.601   5.859
 9631SOL     OW29791   4.504   0.849   1.172
 9631SOL    HW129792   4.528   0.841   1.075
 9631SOL    HW229793   4.405   0.838   1.183
 9632SOL     OW29794   2.340   5.142   1.751
 9632SOL    HW129795   2.355   5.240   1.737
 9632SOL    HW229796   2.262   5.112   1.697
 9633SOL     OW29797   3.839   3.205   1.852
 9633SOL    HW129798   3.823   3.182   1.756
 9633SOL    HW229799   3.914   3.270   1.859
 9634SOL     OW29800   5.114   4.592   2.364
 9634SOL    HW129801   5.146   4.515   2.420
 9634SOL    HW229802   5.051   4.648   2.417
 9635SOL     OW29803   0.670   3.501   4.186
 9635SOL    HW129804   0.769   3.494   4.184
 9635SOL    HW229805   0.643   3.597   4.178
 9636SOL     OW29806   3.947   1.484   5.709
 9636SOL    HW129807   3.995   1.505   5.624
 9636SOL    HW229808   3.868   1.545   5.718
 9637SOL     OW29809   2.464   2.869   1.399
 9637SOL    HW129810   2.523   2.858   1.479
 9637SOL    HW229811   2.429   2.780   1.370
 9638SOL     OW29812   7.012   4.567   6.127
 9638SOL    HW129813   0.014   4.568   6.032
 9638SOL    HW229814   0.056   4.599   6.187
 9639SOL     OW29815   4.419   2.403   1.965
 9639SOL    HW129816   4.373   2.379   1.879
 9639SOL    HW229817   4.356   2.388   2.041
 9640SOL     OW29818   4.021   1.484   2.328
 9640SOL    HW129819   3.967   1.561   2.293
 9640SOL    HW229820   4.018   1.483   2.428
 9641SOL     OW29821   5.780   4.731   3.007
 9641SOL    HW129822   5.746   4.755   2.916
 9641SOL    HW229823   5.734   4.648   3.039
 9642SOL     OW29824   1.371   7.026   4.362
 9642SOL    HW129825   1.324   0.025   4.446
 9642SOL    HW229826   1.469   7.017   4.379
 9643SOL     OW29827   4.981   4.157   4.263
 9643SOL    HW129828   4.987   4.241   4.210
 9643SOL    HW229829   5.048   4.159   4.337
 9644SOL     OW29830   2.191   6.333   5.229
 9644SOL    HW129831   2.235   6.422   5.220
 9644SOL    HW229832   2.092   6.345   5.220
 9645SOL     OW29833   0.821   4.892   5.157
 9645SOL    HW129834   0.790   4.961   5.092
 9645SOL    HW229835   0.772   4.806   5.139
 9646SOL     OW29836   2.824   6.812   4.288
 9646SOL    HW129837   2.792   6.906   4.276
 9646SOL    HW229838   2.802   6.782   4.381
 9647SOL     OW29839   6.259   5.916   2.941
 9647SOL    HW129840   6.182   5.977   2.927
 9647SOL    HW229841   6.267   5.894   3.039
 9648SOL     OW29842   5.185   2.433   1.714
 9648SOL    HW129843   5.166   2.519   1.665
 9648SOL    HW229844   5.110   2.370   1.699
 9649SOL     OW29845   2.110   3.445   6.251
 9649SOL    HW129846   2.161   3.370   6.209
 9649SOL    HW229847   2.016   3.444   6.218
 9650SOL     OW29848   6.258   4.802   3.714
 9650SOL    HW129849   6.174   4.853   3.699
 9650SOL    HW229850   6.333   4.845   3.663
 9651SOL     OW29851   3.097   1.204   0.137
 9651SOL    HW129852   3.146   1.217   0.051
 9651SOL    HW229853   3.062   1.293   0.169
 9652SOL     OW29854   0.582   4.203   1.207
 9652SOL    HW129855   0.522   4.234   1.280
 9652SOL    HW229856   0.535   4.135   1.151
 9653SOL     OW29857   4.347   4.245   5.730
 9653SOL    HW129858   4.279   4.318   5.727
 9653SOL    HW229859   4.398   4.250   5.816
 9654SOL     OW29860   3.612   3.082   2.786
 9654SOL    HW129861   3.547   3.026   2.838
 9654SOL    HW229862   3.575   3.174   2.775
 9655SOL     OW29863   6.468   1.377   1.209
 9655SOL    HW129864   6.515   1.450   1.160
 9655SOL    HW229865   6.534   1.324   1.262
 9656SOL     OW29866   4.820   2.847   0.664
 9656SOL    HW129867   4.862   2.866   0.575
 9656SOL    HW229868   4.872   2.775   0.710
 9657SOL     OW29869   5.126   4.394   3.872
 9657SOL    HW129870   5.165   4.312   3.831
 9657SOL    HW229871   5.199   4.455   3.901
 9658SOL     OW29872   4.965   2.075   2.310
 9658SOL    HW129873   4.913   1.991   2.293
 9658SOL    HW229874   4.988   2.080   2.407
 9659SOL     OW29875   2.904   1.834   0.525
 9659SOL    HW129876   2.968   1.883   0.466
 9659SOL    HW229877   2.912   1.735   0.508
 9660SOL     OW29878   0.763   6.424   1.081
 9660SOL    HW129879   0.691   6.390   1.020
 9660SOL    HW229880   0.828   6.351   1.098
 9661SOL     OW29881   4.309   5.676   1.304
 9661SOL    HW129882   4.387   5.679   1.242
 9661SOL    HW229883   4.245   5.605   1.274
 9662SOL     OW29884   5.589   4.184   6.806
 9662SOL    HW129885   5.519   4.229   6.862
 9662SOL    HW229886   5.618   4.100   6.850
 9663SOL     OW29887   0.390   5.120   2.702
 9663SOL    HW129888   0.425   5.186   2.768
 9663SOL    HW229889   0.463   5.058   2.674
 9664SOL     OW29890   5.363   4.207   3.824
 9664SOL    HW129891   5.282   4.150   3.816
 9664SOL    HW229892   5.443   4.148   3.839
 9665SOL     OW29893   6.243   6.308   5.420
 9665SOL    HW129894   6.255   6.401   5.457
 9665SOL    HW229895   6.318   6.250   5.451
 9666SOL     OW29896   6.455   4.847   1.306
 9666SOL    HW129897   6.483   4.769   1.362
 9666SOL    HW229898   6.371   4.886   1.344
 9667SOL     OW29899   4.929   4.342   0.843
 9667SOL    HW129900   4.917   4.312   0.938
 9667SOL    HW229901   4.850   4.313   0.790
 9668SOL     OW29902   1.315   0.265   6.045
 9668SOL    HW129903   1.280   0.171   6.046
 9668SOL    HW229904   1.303   0.305   6.136
 9669SOL     OW29905   2.762   0.126   0.761
 9669SOL    HW129906   2.827   0.057   0.791
 9669SOL    HW229907   2.729   0.178   0.841
 9670SOL     OW29908   0.573   6.636   5.092
 9670SOL    HW129909   0.507   6.699   5.132
 9670SOL    HW229910   0.617   6.584   5.165
 9671SOL     OW29911   0.488   4.601   0.498
 9671SOL    HW129912   0.546   4.520   0.500
 9671SOL    HW229913   0.532   4.674   0.552
 9672SOL     OW29914   1.029   5.244   2.637
 9672SOL    HW129915   1.045   5.159   2.686
 9672SOL    HW229916   1.096   5.253   2.563
 9673SOL     OW29917   3.342   4.295   1.679
 9673SOL    HW129918   3.348   4.344   1.592
 9673SOL    HW229919   3.247   4.294   1.710
 9674SOL     OW29920   3.846   6.542   2.982
 9674SOL    HW129921   3.834   6.445   3.003
 9674SOL    HW229922   3.893   6.551   2.893
 9675SOL     OW29923   5.353   4.003   0.464
 9675SOL    HW129924   5.449   4.021   0.485
 9675SOL    HW229925   5.335   4.021   0.367
 9676SOL     OW29926   1.574   3.193   6.701
 9676SOL    HW129927   1.571   3.286   6.664
 9676SOL    HW229928   1.538   3.193   6.794
 9677SOL     OW29929   6.347   5.039   6.437
 9677SOL    HW129930   6.441   5.072   6.452
 9677SOL    HW229931   6.349   4.942   6.415
 9678SOL     OW29932   3.334   3.702   4.967
 9678SOL    HW129933   3.368   3.779   5.021
 9678SOL    HW229934   3.330   3.728   4.870
 9679SOL     OW29935   2.577   2.037   4.721
 9679SOL    HW129936   2.645   2.109   4.708
 9679SOL    HW229937   2.554   1.996   4.633
 9680SOL     OW29938   5.183   6.553   4.627
 9680SOL    HW129939   5.155   6.515   4.539
 9680SOL    HW229940   5.157   6.649   4.632
 9681SOL     OW29941   3.140   1.240   1.835
 9681SOL    HW129942   3.105   1.165   1.891
 9681SOL    HW229943   3.090   1.324   1.857
 9682SOL     OW29944   5.142   4.873   3.668
 9682SOL    HW129945   5.111   4.966   3.648
 9682SOL    HW229946   5.066   4.809   3.658
 9683SOL     OW29947   1.534   6.284   0.069
 9683SOL    HW129948   1.584   6.198   0.077
 9683SOL    HW229949   1.598   6.359   0.054
 9684SOL     OW29950   0.867   3.224   4.915
 9684SOL    HW129951   0.844   3.321   4.903
 9684SOL    HW229952   0.940   3.215   4.982
 9685SOL     OW29953   4.494   3.771   0.557
 9685SOL    HW129954   4.526   3.703   0.623
 9685SOL    HW229955   4.398   3.756   0.537
 9686SOL     OW29956   0.476   2.423   6.910
 9686SOL    HW129957   0.465   2.324   6.914
 9686SOL    HW229958   0.566   2.446   6.874
 9687SOL     OW29959   6.328   6.644   1.839
 9687SOL    HW129960   6.336   6.741   1.864
 9687SOL    HW229961   6.297   6.593   1.919
 9688SOL     OW29962   0.841   3.750   1.144
 9688SOL    HW129963   0.774   3.754   1.070
 9688SOL    HW229964   0.833   3.663   1.192
 9689SOL     OW29965   0.845   5.007   5.939
 9689SOL    HW129966   0.892   4.956   6.012
 9689SOL    HW229967   0.822   4.945   5.865
 9690SOL     OW29968   4.538   5.655   5.901
 9690SOL    HW129969   4.537   5.688   5.995
 9690SOL    HW229970   4.478   5.575   5.894
 9691SOL     OW29971   3.425   3.704   2.617
 9691SOL    HW129972   3.351   3.664   2.563
 9691SOL    HW229973   3.390   3.779   2.672
 9692SOL     OW29974   5.008   5.203   0.651
 9692SOL    HW129975   4.929   5.144   0.667
 9692SOL    HW229976   5.092   5.149   0.657
 9693SOL     OW29977   6.096   4.466   4.204
 9693SOL    HW129978   6.063   4.549   4.160
 9693SOL    HW229979   6.166   4.489   4.272
 9694SOL     OW29980   3.524   0.417   1.225
 9694SOL    HW129981   3.523   0.484   1.299
 9694SOL    HW229982   3.610   0.366   1.227
 9695SOL     OW29983   0.024   3.877   2.547
 9695SOL    HW129984   0.109   3.930   2.546
 9695SOL    HW229985   7.016   3.872   2.455
 9696SOL     OW29986   5.831   1.921   2.511
 9696SOL    HW129987   5.871   1.883   2.595
 9696SOL    HW229988   5.753   1.979   2.535
 9697SOL     OW29989   0.209   6.437   0.122
 9697SOL    HW129990   0.249   6.496   0.052
 9697SOL    HW229991   0.267   6.356   0.134
 9698SOL     OW29992   5.686   3.111   6.328
 9698SOL    HW129993   5.647   3.201   6.347
 9698SOL    HW229994   5.618   3.040   6.348
 9699SOL     OW29995   0.742   5.698   0.038
 9699SOL    HW129996   0.646   5.725   0.039
 9699SOL    HW229997   0.777   5.695   0.131
 9700SOL     OW29998   6.927   6.154   3.997
 9700SOL    HW129999   6.984   6.220   4.046
 9700SOL    HW230000   6.835   6.154   4.035
 9701SOL     OW30001   4.486   3.470   6.470
 9701SOL    HW130002   4.387   3.463   6.454
 9701SOL    HW230003   4.528   3.522   6.396
 9702SOL     OW30004   4.101   2.785   0.678
 9702SOL    HW130005   4.147   2.712   0.627
 9702SOL    HW230006   4.018   2.813   0.628
 9703SOL     OW30007   5.785   3.843   4.280
 9703SOL    HW130008   5.830   3.932   4.289
 9703SOL    HW230009   5.690   3.857   4.252
 9704SOL     OW30010   3.221   4.874   2.521
 9704SOL    HW130011   3.232   4.956   2.577
 9704SOL    HW230012   3.305   4.820   2.523
 9705SOL     OW30013   6.150   3.964   6.119
 9705SOL    HW130014   6.230   3.909   6.097
 9705SOL    HW230015   6.180   4.051   6.158
 9706SOL     OW30016   2.085   1.739   1.186
 9706SOL    HW130017   1.988   1.752   1.169
 9706SOL    HW230018   2.134   1.733   1.099
 9707SOL     OW30019   5.730   5.070   2.387
 9707SOL    HW130020   5.771   4.982   2.411
 9707SOL    HW230021   5.787   5.144   2.421
 9708SOL     OW30022   1.336   1.519   1.992
 9708SOL    HW130023   1.314   1.578   1.915
 9708SOL    HW230024   1.357   1.427   1.959
 9709SOL     OW30025   4.824   4.360   1.679
 9709SOL    HW130026   4.840   4.448   1.635
 9709SOL    HW230027   4.897   4.296   1.654
 9710SOL     OW30028   6.542   0.512   0.060
 9710SOL    HW130029   6.551   0.551   0.152
 9710SOL    HW230030   6.445   0.502   0.038
 9711SOL     OW30031   3.787   6.057   5.758
 9711SOL    HW130032   3.704   6.085   5.806
 9711SOL    HW230033   3.851   6.016   5.822
 9712SOL     OW30034   6.351   3.180   0.269
 9712SOL    HW130035   6.254   3.156   0.258
 9712SOL    HW230036   6.379   3.238   0.193
 9713SOL     OW30037   2.435   6.221   3.256
 9713SOL    HW130038   2.368   6.266   3.315
 9713SOL    HW230039   2.431   6.261   3.165
 9714SOL     OW30040   4.276   5.930   5.633
 9714SOL    HW130041   4.209   5.931   5.558
 9714SOL    HW230042   4.368   5.930   5.596
 9715SOL     OW30043   6.068   4.996   0.172
 9715SOL    HW130044   5.984   5.023   0.219
 9715SOL    HW230045   6.147   5.026   0.226
 9716SOL     OW30046   3.852   3.920   6.873
 9716SOL    HW130047   3.792   3.842   6.855
 9716SOL    HW230048   3.947   3.890   6.871
 9717SOL     OW30049   4.526   6.357   7.025
 9717SOL    HW130050   4.557   6.291   6.956
 9717SOL    HW230051   4.453   6.414   6.985
 9718SOL     OW30052   4.109   2.614   0.298
 9718SOL    HW130053   4.068   2.704   0.313
 9718SOL    HW230054   4.060   2.567   0.225
 9719SOL     OW30055   5.324   6.885   5.600
 9719SOL    HW130056   5.246   6.947   5.600
 9719SOL    HW230057   5.404   6.932   5.638
 9720SOL     OW30058   0.964   3.441   2.677
 9720SOL    HW130059   0.897   3.494   2.728
 9720SOL    HW230060   0.975   3.351   2.719
 9721SOL     OW30061   0.419   1.883   6.906
 9721SOL    HW130062   0.326   1.848   6.911
 9721SOL    HW230063   0.476   1.820   6.853
 9722SOL     OW30064   3.419   1.786   5.116
 9722SOL    HW130065   3.401   1.777   5.214
 9722SOL    HW230066   3.503   1.737   5.092
 9723SOL     OW30067   5.735   5.483   4.156
 9723SOL    HW130068   5.711   5.580   4.156
 9723SOL    HW230069   5.807   5.467   4.088
 9724SOL     OW30070   2.123   4.955   6.570
 9724SOL    HW130071   2.194   4.888   6.591
 9724SOL    HW230072   2.058   4.915   6.504
 9725SOL     OW30073   4.511   5.937   5.518
 9725SOL    HW130074   4.563   5.882   5.451
 9725SOL    HW230075   4.570   6.009   5.554
 9726SOL     OW30076   5.011   1.096   4.334
 9726SOL    HW130077   5.041   1.002   4.352
 9726SOL    HW230078   5.053   1.129   4.250
 9727SOL     OW30079   0.562   2.490   0.292
 9727SOL    HW130080   0.564   2.548   0.211
 9727SOL    HW230081   0.540   2.545   0.373
 9728SOL     OW30082   7.006   1.941   5.992
 9728SOL    HW130083   0.061   1.912   5.944
 9728SOL    HW230084   7.029   2.011   6.059
 9729SOL     OW30085   1.642   3.418   4.088
 9729SOL    HW130086   1.710   3.439   4.018
 9729SOL    HW230087   1.607   3.325   4.074
 9730SOL     OW30088   1.042   4.718   2.911
 9730SOL    HW130089   1.123   4.705   2.854
 9730SOL    HW230090   1.047   4.658   2.990
 9731SOL     OW30091   5.006   5.654   1.951
 9731SOL    HW130092   5.021   5.561   1.919
 9731SOL    HW230093   4.965   5.708   1.877
 9732SOL     OW30094   6.886   2.894   1.844
 9732SOL    HW130095   6.960   2.874   1.780
 9732SOL    HW230096   6.922   2.939   1.925
 9733SOL     OW30097   5.869   5.496   1.271
 9733SOL    HW130098   5.877   5.589   1.306
 9733SOL    HW230099   5.956   5.469   1.229
 9734SOL     OW30100   6.554   0.139   0.596
 9734SOL    HW130101   6.585   0.223   0.640
 9734SOL    HW230102   6.523   0.160   0.503
 9735SOL     OW30103   1.444   2.529   3.309
 9735SOL    HW130104   1.416   2.605   3.367
 9735SOL    HW230105   1.448   2.445   3.363
 9736SOL     OW30106   4.727   1.981   6.073
 9736SOL    HW130107   4.755   2.067   6.116
 9736SOL    HW230108   4.806   1.922   6.063
 9737SOL     OW30109   5.831   1.963   3.399
 9737SOL    HW130110   5.793   2.026   3.332
 9737SOL    HW230111   5.809   1.869   3.374
 9738SOL     OW30112   1.716   6.652   0.337
 9738SOL    HW130113   1.708   6.590   0.416
 9738SOL    HW230114   1.630   6.701   0.325
 9739SOL     OW30115   4.763   6.080   0.190
 9739SOL    HW130116   4.739   6.020   0.113
 9739SOL    HW230117   4.751   6.176   0.162
 9740SOL     OW30118   5.843   1.435   2.700
 9740SOL    HW130119   5.835   1.362   2.632
 9740SOL    HW230120   5.762   1.435   2.759
 9741SOL     OW30121   2.160   0.664   3.942
 9741SOL    HW130122   2.163   0.578   3.892
 9741SOL    HW230123   2.233   0.665   4.011
 9742SOL     OW30124   4.309   0.846   0.273
 9742SOL    HW130125   4.235   0.819   0.335
 9742SOL    HW230126   4.306   0.945   0.260
 9743SOL     OW30127   0.129   4.372   3.227
 9743SOL    HW130128   0.200   4.436   3.195
 9743SOL    HW230129   0.145   4.282   3.187
 9744SOL     OW30130   2.599   6.785   3.141
 9744SOL    HW130131   2.542   6.707   3.169
 9744SOL    HW230132   2.631   6.833   3.223
 9745SOL     OW30133   5.566   2.743   6.091
 9745SOL    HW130134   5.565   2.820   6.028
 9745SOL    HW230135   5.530   2.772   6.180
 9746SOL     OW30136   5.411   6.432   6.233
 9746SOL    HW130137   5.416   6.494   6.154
 9746SOL    HW230138   5.492   6.373   6.234
 9747SOL     OW30139   2.844   2.199   1.621
 9747SOL    HW130140   2.806   2.291   1.630
 9747SOL    HW230141   2.937   2.205   1.584
 9748SOL     OW30142   0.362   6.658   2.708
 9748SOL    HW130143   0.335   6.563   2.693
 9748SOL    HW230144   0.460   6.662   2.730
 9749SOL     OW30145   0.688   1.138   2.558
 9749SOL    HW130146   0.786   1.156   2.567
 9749SOL    HW230147   0.673   1.075   2.482
 9750SOL     OW30148   6.270   5.464   4.123
 9750SOL    HW130149   6.250   5.514   4.207
 9750SOL    HW230150   6.339   5.394   4.141
 9751SOL     OW30151   1.829   0.141   0.854
 9751SOL    HW130152   1.871   0.091   0.930
 9751SOL    HW230153   1.736   0.167   0.879
 9752SOL     OW30154   3.631   2.131   6.375
 9752SOL    HW130155   3.730   2.139   6.362
 9752SOL    HW230156   3.609   2.043   6.417
 9753SOL     OW30157   1.268   6.082   6.321
 9753SOL    HW130158   1.241   6.009   6.383
 9753SOL    HW230159   1.367   6.079   6.308
 9754SOL     OW30160   3.348   6.783   0.550
 9754SOL    HW130161   3.263   6.779   0.603
 9754SOL    HW230162   3.341   6.855   0.481
 9755SOL     OW30163   3.506   3.793   5.185
 9755SOL    HW130164   3.542   3.721   5.125
 9755SOL    HW230165   3.562   3.799   5.267
 9756SOL     OW30166   5.986   1.913   6.412
 9756SOL    HW130167   6.026   1.960   6.490
 9756SOL    HW230168   6.042   1.931   6.330
 9757SOL     OW30169   5.667   4.689   4.343
 9757SOL    HW130170   5.655   4.692   4.442
 9757SOL    HW230171   5.709   4.601   4.318
 9758SOL     OW30172   1.827   1.198   0.055
 9758SOL    HW130173   1.926   1.186   0.064
 9758SOL    HW230174   1.800   1.287   0.092
 9759SOL     OW30175   1.165   1.966   0.601
 9759SOL    HW130176   1.255   1.940   0.566
 9759SOL    HW230177   1.095   1.941   0.535
 9760SOL     OW30178   5.143   3.423   6.848
 9760SOL    HW130179   5.049   3.419   6.813
 9760SOL    HW230180   5.207   3.426   6.771
 9761SOL     OW30181   1.325   2.227   2.382
 9761SOL    HW130182   1.346   2.250   2.287
 9761SOL    HW230183   1.232   2.189   2.387
 9762SOL     OW30184   3.306   1.627   4.724
 9762SOL    HW130185   3.209   1.636   4.745
 9762SOL    HW230186   3.317   1.606   4.627
 9763SOL     OW30187   5.720   1.157   2.981
 9763SOL    HW130188   5.799   1.193   3.030
 9763SOL    HW230189   5.659   1.232   2.955
 9764SOL     OW30190   6.534   2.179   2.433
 9764SOL    HW130191   6.441   2.142   2.440
 9764SOL    HW230192   6.591   2.118   2.378
 9765SOL     OW30193   6.883   0.070   3.147
 9765SOL    HW130194   6.863   0.043   3.241
 9765SOL    HW230195   6.928   7.024   3.099
 9766SOL     OW30196   2.344   0.020   2.712
 9766SOL    HW130197   2.396   0.036   2.628
 9766SOL    HW230198   2.401   0.040   2.792
 9767SOL     OW30199   2.213   2.968   5.308
 9767SOL    HW130200   2.221   3.006   5.400
 9767SOL    HW230201   2.291   2.998   5.253
 9768SOL     OW30202   4.421   1.631   1.229
 9768SOL    HW130203   4.373   1.664   1.147
 9768SOL    HW230204   4.518   1.620   1.207
 9769SOL     OW30205   3.738   0.864   4.706
 9769SOL    HW130206   3.784   0.950   4.726
 9769SOL    HW230207   3.785   0.789   4.752
 9770SOL     OW30208   4.283   1.479   5.498
 9770SOL    HW130209   4.208   1.543   5.480
 9770SOL    HW230210   4.335   1.465   5.414
 9771SOL     OW30211   2.437   5.994   1.025
 9771SOL    HW130212   2.535   5.992   1.006
 9771SOL    HW230213   2.411   6.086   1.057
 9772SOL     OW30214   2.479   5.986   1.485
 9772SOL    HW130215   2.502   6.044   1.564
 9772SOL    HW230216   2.547   5.998   1.413
 9773SOL     OW30217   5.451   5.639   3.330
 9773SOL    HW130218   5.497   5.554   3.308
 9773SOL    HW230219   5.492   5.714   3.278
 9774SOL     OW30220   0.667   4.800   2.828
 9774SOL    HW130221   0.660   4.846   2.917
 9774SOL    HW230222   0.694   4.705   2.843
 9775SOL     OW30223   2.667   7.003   3.571
 9775SOL    HW130224   2.732   0.044   3.601
 9775SOL    HW230225   2.576   7.025   3.607
 9776SOL     OW30226   1.520   4.532   5.863
 9776SOL    HW130227   1.446   4.527   5.930
 9776SOL    HW230228   1.491   4.588   5.785
 9777SOL     OW30229   5.665   5.673   0.654
 9777SOL    HW130230   5.571   5.705   0.664
 9777SOL    HW230231   5.692   5.622   0.736
 9778SOL     OW30232   0.176   1.735   4.691
 9778SOL    HW130233   0.146   1.758   4.598
 9778SOL    HW230234   0.103   1.757   4.756
 9779SOL     OW30235   0.310   2.440   3.472
 9779SOL    HW130236   0.251   2.436   3.553
 9779SOL    HW230237   0.345   2.349   3.452
 9780SOL     OW30238   2.134   1.681   0.903
 9780SOL    HW130239   2.180   1.594   0.916
 9780SOL    HW230240   2.035   1.666   0.903
 9781SOL     OW30241   2.163   3.115   4.586
 9781SOL    HW130242   2.173   3.083   4.680
 9781SOL    HW230243   2.117   3.204   4.585
 9782SOL     OW30244   0.561   1.859   0.156
 9782SOL    HW130245   0.592   1.764   0.148
 9782SOL    HW230246   0.491   1.877   0.087
 9783SOL     OW30247   4.414   2.291   3.959
 9783SOL    HW130248   4.437   2.194   3.965
 9783SOL    HW230249   4.471   2.334   3.889
 9784SOL     OW30250   3.454   0.911   6.019
 9784SOL    HW130251   3.455   0.945   5.925
 9784SOL    HW230252   3.375   0.851   6.032
 9785SOL     OW30253   6.096   2.716   5.496
 9785SOL    HW130254   6.089   2.806   5.541
 9785SOL    HW230255   6.005   2.675   5.490
 9786SOL     OW30256   2.411   3.862   0.500
 9786SOL    HW130257   2.503   3.826   0.521
 9786SOL    HW230258   2.420   3.948   0.450
 9787SOL     OW30259   3.096   3.351   3.263
 9787SOL    HW130260   3.181   3.313   3.227
 9787SOL    HW230261   3.050   3.282   3.319
 9788SOL     OW30262   0.346   6.917   2.030
 9788SOL    HW130263   0.285   6.965   1.967
 9788SOL    HW230264   0.313   6.930   2.124
 9789SOL     OW30265   2.240   6.453   0.181
 9789SOL    HW130266   2.224   6.378   0.117
 9789SOL    HW230267   2.303   6.423   0.253
 9790SOL     OW30268   6.194   4.745   5.985
 9790SOL    HW130269   6.210   4.828   5.932
 9790SOL    HW230270   6.275   4.686   5.980
 9791SOL     OW30271   0.606   0.233   0.080
 9791SOL    HW130272   0.679   0.297   0.102
 9791SOL    HW230273   0.517   0.276   0.096
 9792SOL     OW30274   3.292   5.189   0.676
 9792SOL    HW130275   3.328   5.138   0.755
 9792SOL    HW230276   3.368   5.211   0.614
 9793SOL     OW30277   4.273   0.039   2.738
 9793SOL    HW130278   4.339   6.995   2.722
 9793SOL    HW230279   4.315   0.109   2.796
 9794SOL     OW30280   6.007   4.234   5.494
 9794SOL    HW130281   5.958   4.287   5.563
 9794SOL    HW230282   6.056   4.296   5.433
 9795SOL     OW30283   0.928   2.741   4.373
 9795SOL    HW130284   0.942   2.839   4.389
 9795SOL    HW230285   0.985   2.688   4.435
 9796SOL     OW30286   3.891   3.821   3.393
 9796SOL    HW130287   3.818   3.792   3.455
 9796SOL    HW230288   3.975   3.772   3.414
 9797SOL     OW30289   2.279   5.431   6.793
 9797SOL    HW130290   2.267   5.366   6.868
 9797SOL    HW230291   2.317   5.384   6.714
 9798SOL     OW30292   2.225   1.046   2.038
 9798SOL    HW130293   2.261   1.136   2.013
 9798SOL    HW230294   2.234   1.033   2.137
 9799SOL     OW30295   3.110   3.911   5.753
 9799SOL    HW130296   3.177   3.981   5.731
 9799SOL    HW230297   3.072   3.928   5.844
 9800SOL     OW30298   5.665   4.685   3.913
 9800SOL    HW130299   5.624   4.733   3.990
 9800SOL    HW230300   5.757   4.720   3.896
 9801SOL     OW30301   5.113   4.800   0.304
 9801SOL    HW130302   5.100   4.745   0.387
 9801SOL    HW230303   5.205   4.840   0.306
 9802SOL     OW30304   4.652   5.199   0.501
 9802SOL    HW130305   4.604   5.185   0.414
 9802SOL    HW230306   4.678   5.110   0.539
 9803SOL     OW30307   2.281   3.671   6.269
 9803SOL    HW130308   2.294   3.716   6.181
 9803SOL    HW230309   2.225   3.589   6.256
 9804SOL     OW30310   0.376   6.204   3.003
 9804SOL    HW130311   0.298   6.261   3.029
 9804SOL    HW230312   0.342   6.114   2.974
 9805SOL     OW30313   0.494   6.819   3.240
 9805SOL    HW130314   0.526   6.913   3.227
 9805SOL    HW230315   0.419   6.801   3.177
 9806SOL     OW30316   1.766   1.583   6.941
 9806SOL    HW130317   1.863   1.594   6.919
 9806SOL    HW230318   1.756   1.522   7.020
 9807SOL     OW30319   3.190   3.556   1.822
 9807SOL    HW130320   3.226   3.647   1.844
 9807SOL    HW230321   3.121   3.564   1.750
 9808SOL     OW30322   3.390   5.780   4.203
 9808SOL    HW130323   3.459   5.848   4.179
 9808SOL    HW230324   3.432   5.689   4.207
 9809SOL     OW30325   0.654   3.534   0.550
 9809SOL    HW130326   0.663   3.465   0.622
 9809SOL    HW230327   0.557   3.545   0.527
 9810SOL     OW30328   3.138   2.155   4.812
 9810SOL    HW130329   3.134   2.064   4.854
 9810SOL    HW230330   3.154   2.224   4.882
 9811SOL     OW30331   5.879   4.824   3.514
 9811SOL    HW130332   5.938   4.744   3.515
 9811SOL    HW230333   5.786   4.798   3.537
 9812SOL     OW30334   3.032   1.373   4.839
 9812SOL    HW130335   3.018   1.353   4.742
 9812SOL    HW230336   3.123   1.343   4.867
 9813SOL     OW30337   5.309   1.986   1.102
 9813SOL    HW130338   5.330   1.913   1.037
 9813SOL    HW230339   5.315   1.951   1.195
 9814SOL     OW30340   6.060   1.275   0.128
 9814SOL    HW130341   5.983   1.246   0.184
 9814SOL    HW230342   6.079   1.207   0.058
 9815SOL     OW30343   4.677   2.365   4.310
 9815SOL    HW130344   4.623   2.403   4.235
 9815SOL    HW230345   4.617   2.318   4.375
 9816SOL     OW30346   0.795   0.952   6.527
 9816SOL    HW130347   0.803   0.909   6.437
 9816SOL    HW230348   0.699   0.976   6.544
 9817SOL     OW30349   1.150   0.171   3.718
 9817SOL    HW130350   1.168   0.104   3.646
 9817SOL    HW230351   1.153   0.125   3.807
 9818SOL     OW30352   6.458   2.384   4.631
 9818SOL    HW130353   6.547   2.372   4.587
 9818SOL    HW230354   6.394   2.427   4.567
 9819SOL     OW30355   4.845   3.063   3.516
 9819SOL    HW130356   4.852   3.112   3.603
 9819SOL    HW230357   4.836   2.965   3.533
 9820SOL     OW30358   3.965   3.137   6.637
 9820SOL    HW130359   3.964   3.042   6.608
 9820SOL    HW230360   3.874   3.176   6.629
 9821SOL     OW30361   5.653   1.111   6.935
 9821SOL    HW130362   5.566   1.131   6.979
 9821SOL    HW230363   5.714   1.066   7.001
 9822SOL     OW30364   1.731   6.721   3.530
 9822SOL    HW130365   1.643   6.696   3.490
 9822SOL    HW230366   1.777   6.787   3.470
 9823SOL     OW30367   3.964   0.101   0.966
 9823SOL    HW130368   3.989   0.010   1.001
 9823SOL    HW230369   3.999   0.171   1.028
 9824SOL     OW30370   1.802   4.578   5.293
 9824SOL    HW130371   1.852   4.638   5.355
 9824SOL    HW230372   1.859   4.500   5.269
 9825SOL     OW30373   3.308   5.173   5.584
 9825SOL    HW130374   3.294   5.258   5.534
 9825SOL    HW230375   3.346   5.192   5.674
 9826SOL     OW30376   5.144   5.135   6.234
 9826SOL    HW130377   5.124   5.039   6.252
 9826SOL    HW230378   5.112   5.190   6.311
 9827SOL     OW30379   2.191   3.212   3.888
 9827SOL    HW130380   2.168   3.297   3.842
 9827SOL    HW230381   2.155   3.135   3.835
 9828SOL     OW30382   2.652   3.210   6.392
 9828SOL    HW130383   2.579   3.276   6.371
 9828SOL    HW230384   2.692   3.231   6.481
 9829SOL     OW30385   3.202   6.240   0.352
 9829SOL    HW130386   3.242   6.184   0.278
 9829SOL    HW230387   3.105   6.256   0.332
 9830SOL     OW30388   5.449   2.457   1.520
 9830SOL    HW130389   5.462   2.390   1.593
 9830SOL    HW230390   5.538   2.494   1.493
 9831SOL     OW30391   1.608   5.900   1.180
 9831SOL    HW130392   1.565   5.939   1.262
 9831SOL    HW230393   1.706   5.894   1.195
 9832SOL     OW30394   5.183   5.284   2.401
 9832SOL    HW130395   5.267   5.306   2.451
 9832SOL    HW230396   5.106   5.329   2.444
 9833SOL     OW30397   3.726   2.872   4.897
 9833SOL    HW130398   3.770   2.843   4.982
 9833SOL    HW230399   3.700   2.792   4.843
 9834SOL     OW30400   3.095   4.703   5.454
 9834SOL    HW130401   3.133   4.631   5.396
 9834SOL    HW230402   3.114   4.792   5.414
 9835SOL     OW30403   3.164   2.446   5.924
 9835SOL    HW130404   3.178   2.411   6.017
 9835SOL    HW230405   3.237   2.411   5.865
 9836SOL     OW30406   6.111   4.607   3.524
 9836SOL    HW130407   6.208   4.587   3.520
 9836SOL    HW230408   6.074   4.575   3.611
 9837SOL     OW30409   3.324   0.163   2.815
 9837SOL    HW130410   3.395   0.111   2.862
 9837SOL    HW230411   3.366   0.238   2.764
 9838SOL     OW30412   0.238   0.024   5.923
 9838SOL    HW130413   0.305   0.090   5.956
 9838SOL    HW230414   0.156   0.072   5.892
 9839SOL     OW30415   5.576   1.370   2.871
 9839SOL    HW130416   5.582   1.470   2.876
 9839SOL    HW230417   5.493   1.339   2.918
 9840SOL     OW30418   0.973   1.163   1.472
 9840SOL    HW130419   0.965   1.093   1.544
 9840SOL    HW230420   0.935   1.249   1.505
 9841SOL     OW30421   1.333   3.967   4.952
 9841SOL    HW130422   1.282   3.927   4.876
 9841SOL    HW230423   1.289   3.943   5.038
 9842SOL     OW30424   4.031   3.665   2.868
 9842SOL    HW130425   4.052   3.732   2.940
 9842SOL    HW230426   4.023   3.574   2.909
 9843SOL     OW30427   6.058   1.430   1.416
 9843SOL    HW130428   5.983   1.370   1.388
 9843SOL    HW230429   6.034   1.525   1.395
 9844SOL     OW30430   5.599   0.608   2.554
 9844SOL    HW130431   5.554   0.682   2.604
 9844SOL    HW230432   5.633   0.642   2.466
 9845SOL     OW30433   3.123   1.149   3.830
 9845SOL    HW130434   3.046   1.139   3.893
 9845SOL    HW230435   3.104   1.225   3.767
 9846SOL     OW30436   4.025   3.582   1.428
 9846SOL    HW130437   4.050   3.630   1.513
 9846SOL    HW230438   4.079   3.498   1.421
 9847SOL     OW30439   3.182   2.964   4.977
 9847SOL    HW130440   3.218   3.015   4.899
 9847SOL    HW230441   3.257   2.916   5.023
 9848SOL     OW30442   3.265   2.797   6.004
 9848SOL    HW130443   3.358   2.770   6.026
 9848SOL    HW230444   3.263   2.841   5.914
 9849SOL     OW30445   6.557   0.546   0.346
 9849SOL    HW130446   6.522   0.538   0.439
 9849SOL    HW230447   6.656   0.541   0.347
 9850SOL     OW30448   6.359   5.972   3.376
 9850SOL    HW130449   6.381   5.876   3.391
 9850SOL    HW230450   6.285   5.979   3.308
 9851SOL     OW30451   4.475   1.962   5.947
 9851SOL    HW130452   4.566   2.002   5.959
 9851SOL    HW230453   4.483   1.863   5.934
 9852SOL     OW30454   4.286   1.856   2.625
 9852SOL    HW130455   4.209   1.878   2.685
 9852SOL    HW230456   4.281   1.912   2.542
 9853SOL     OW30457   4.917   4.583   3.873
 9853SOL    HW130458   4.920   4.638   3.789
 9853SOL    HW230459   4.991   4.516   3.870
 9854SOL     OW30460   0.486   5.270   4.661
 9854SOL    HW130461   0.439   5.243   4.577
 9854SOL    HW230462   0.572   5.314   4.638
 9855SOL     OW30463   2.386   3.763   1.374
 9855SOL    HW130464   2.349   3.675   1.405
 9855SOL    HW230465   2.312   3.825   1.351
 9856SOL     OW30466   4.926   4.071   6.061
 9856SOL    HW130467   4.951   3.998   6.125
 9856SOL    HW230468   4.909   4.032   5.971
 9857SOL     OW30469   4.616   1.877   4.810
 9857SOL    HW130470   4.636   1.922   4.723
 9857SOL    HW230471   4.520   1.890   4.834
 9858SOL     OW30472   0.651   0.738   1.177
 9858SOL    HW130473   0.644   0.663   1.112
 9858SOL    HW230474   0.671   0.702   1.268
 9859SOL     OW30475   5.651   6.704   2.073
 9859SOL    HW130476   5.748   6.729   2.066
 9859SOL    HW230477   5.640   6.607   2.050
 9860SOL     OW30478   0.043   1.546   3.128
 9860SOL    HW130479   6.991   1.583   3.174
 9860SOL    HW230480   0.015   1.507   3.040
 9861SOL     OW30481   3.573   0.047   2.900
 9861SOL    HW130482   3.644   7.009   2.920
 9861SOL    HW230483   3.532   0.079   2.985
 9862SOL     OW30484   2.967   4.432   0.792
 9862SOL    HW130485   3.019   4.435   0.877
 9862SOL    HW230486   2.891   4.497   0.797
 9863SOL     OW30487   3.607   0.349   3.636
 9863SOL    HW130488   3.689   0.399   3.611
 9863SOL    HW230489   3.575   0.381   3.726
 9864SOL     OW30490   3.615   6.122   4.032
 9864SOL    HW130491   3.642   6.070   4.113
 9864SOL    HW230492   3.547   6.070   3.981
 9865SOL     OW30493   1.799   0.936   4.445
 9865SOL    HW130494   1.857   0.858   4.419
 9865SOL    HW230495   1.751   0.914   4.530
 9866SOL     OW30496   5.726   5.093   5.692
 9866SOL    HW130497   5.810   5.096   5.746
 9866SOL    HW230498   5.703   4.998   5.671
 9867SOL     OW30499   5.897   0.629   0.992
 9867SOL    HW130500   5.930   0.535   0.996
 9867SOL    HW230501   5.814   0.638   1.046
 9868SOL     OW30502   0.817   3.980   5.435
 9868SOL    HW130503   0.769   4.067   5.440
 9868SOL    HW230504   0.829   3.942   5.526
 9869SOL     OW30505   1.488   3.332   2.261
 9869SOL    HW130506   1.530   3.411   2.217
 9869SOL    HW230507   1.547   3.252   2.248
 9870SOL     OW30508   4.172   5.809   2.490
 9870SOL    HW130509   4.221   5.836   2.572
 9870SOL    HW230510   4.078   5.784   2.513
 9871SOL     OW30511   0.452   6.212   6.108
 9871SOL    HW130512   0.396   6.286   6.070
 9871SOL    HW230513   0.508   6.248   6.182
 9872SOL     OW30514   2.355   4.575   4.220
 9872SOL    HW130515   2.404   4.560   4.134
 9872SOL    HW230516   2.417   4.557   4.296
 9873SOL     OW30517   3.004   2.402   1.257
 9873SOL    HW130518   3.017   2.304   1.272
 9873SOL    HW230519   2.940   2.438   1.325
 9874SOL     OW30520   1.367   2.995   4.157
 9874SOL    HW130521   1.338   3.091   4.164
 9874SOL    HW230522   1.314   2.950   4.085
 9875SOL     OW30523   6.760   6.779   2.060
 9875SOL    HW130524   6.764   6.762   1.962
 9875SOL    HW230525   6.843   6.745   2.104
 9876SOL     OW30526   6.476   1.038   2.883
 9876SOL    HW130527   6.551   1.104   2.886
 9876SOL    HW230528   6.412   1.055   2.958
 9877SOL     OW30529   0.277   6.376   3.435
 9877SOL    HW130530   0.340   6.421   3.371
 9877SOL    HW230531   0.185   6.415   3.424
 9878SOL     OW30532   2.583   5.048   4.773
 9878SOL    HW130533   2.516   4.975   4.789
 9878SOL    HW230534   2.645   5.053   4.852
 9879SOL     OW30535   5.397   5.912   4.194
 9879SOL    HW130536   5.334   5.869   4.259
 9879SOL    HW230537   5.392   5.865   4.106
 9880SOL     OW30538   3.311   1.139   5.253
 9880SOL    HW130539   3.257   1.222   5.254
 9880SOL    HW230540   3.396   1.154   5.304
 9881SOL     OW30541   0.803   1.289   5.127
 9881SOL    HW130542   0.848   1.268   5.040
 9881SOL    HW230543   0.775   1.385   5.129
 9882SOL     OW30544   0.951   2.889   3.736
 9882SOL    HW130545   0.871   2.902   3.796
 9882SOL    HW230546   0.995   2.977   3.719
 9883SOL     OW30547   1.177   5.704   0.418
 9883SOL    HW130548   1.171   5.759   0.501
 9883SOL    HW230549   1.186   5.607   0.443
 9884SOL     OW30550   4.791   2.059   2.666
 9884SOL    HW130551   4.714   2.011   2.624
 9884SOL    HW230552   4.777   2.157   2.661
 9885SOL     OW30553   7.011   2.685   4.986
 9885SOL    HW130554   0.029   2.616   5.040
 9885SOL    HW230555   0.006   2.673   4.889
 9886SOL     OW30556   1.106   4.378   2.285
 9886SOL    HW130557   1.106   4.280   2.305
 9886SOL    HW230558   1.186   4.402   2.230
 9887SOL     OW30559   3.685   0.418   5.610
 9887SOL    HW130560   3.724   0.325   5.613
 9887SOL    HW230561   3.628   0.427   5.528
 9888SOL     OW30562   6.051   4.457   2.522
 9888SOL    HW130563   6.123   4.448   2.590
 9888SOL    HW230564   5.965   4.482   2.567
 9889SOL     OW30565   0.044   5.001   1.640
 9889SOL    HW130566   0.064   4.905   1.656
 9889SOL    HW230567   0.054   5.052   1.726
 9890SOL     OW30568   1.678   2.073   0.400
 9890SOL    HW130569   1.590   2.035   0.431
 9890SOL    HW230570   1.702   2.151   0.456
 9891SOL     OW30571   5.001   3.466   2.089
 9891SOL    HW130572   5.012   3.366   2.084
 9891SOL    HW230573   4.957   3.499   2.006
 9892SOL     OW30574   0.128   4.862   1.006
 9892SOL    HW130575   0.044   4.904   0.972
 9892SOL    HW230576   0.115   4.831   1.100
 9893SOL     OW30577   0.925   0.501   0.944
 9893SOL    HW130578   0.946   0.411   0.983
 9893SOL    HW230579   0.969   0.510   0.855
 9894SOL     OW30580   2.622   2.519   1.262
 9894SOL    HW130581   2.613   2.425   1.296
 9894SOL    HW230582   2.686   2.570   1.319
 9895SOL     OW30583   5.854   4.846   4.583
 9895SOL    HW130584   5.878   4.851   4.486
 9895SOL    HW230585   5.757   4.826   4.592
 9896SOL     OW30586   6.793   0.893   6.493
 9896SOL    HW130587   6.743   0.931   6.570
 9896SOL    HW230588   6.832   0.804   6.518
 9897SOL     OW30589   5.693   6.073   2.820
 9897SOL    HW130590   5.665   6.000   2.757
 9897SOL    HW230591   5.625   6.081   2.893
 9898SOL     OW30592   1.742   6.228   4.247
 9898SOL    HW130593   1.643   6.218   4.255
 9898SOL    HW230594   1.785   6.206   4.334
 9899SOL     OW30595   0.817   5.875   0.817
 9899SOL    HW130596   0.817   5.783   0.857
 9899SOL    HW230597   0.899   5.924   0.847
 9900SOL     OW30598   1.842   3.230   3.050
 9900SOL    HW130599   1.779   3.154   3.062
 9900SOL    HW230600   1.897   3.215   2.967
 9901SOL     OW30601   2.699   0.806   0.178
 9901SOL    HW130602   2.633   0.843   0.112
 9901SOL    HW230603   2.774   0.762   0.130
 9902SOL     OW30604   2.999   4.908   0.577
 9902SOL    HW130605   3.062   4.855   0.521
 9902SOL    HW230606   2.994   5.002   0.541
 9903SOL     OW30607   5.476   2.055   2.295
 9903SOL    HW130608   5.399   2.106   2.257
 9903SOL    HW230609   5.462   2.042   2.393
 9904SOL     OW30610   0.990   3.830   6.654
 9904SOL    HW130611   0.891   3.818   6.647
 9904SOL    HW230612   1.029   3.840   6.562
 9905SOL     OW30613   2.080   6.934   6.127
 9905SOL    HW130614   2.093   7.027   6.091
 9905SOL    HW230615   1.984   6.908   6.115
 9906SOL     OW30616   2.222   3.401   1.637
 9906SOL    HW130617   2.268   3.394   1.725
 9906SOL    HW230618   2.131   3.360   1.643
 9907SOL     OW30619   6.950   0.391   1.397
 9907SOL    HW130620   7.014   0.462   1.366
 9907SOL    HW230621   6.858   0.428   1.398
 9908SOL     OW30622   5.772   1.851   4.606
 9908SOL    HW130623   5.723   1.785   4.549
 9908SOL    HW230624   5.870   1.837   4.596
 9909SOL     OW30625   4.467   0.745   3.186
 9909SOL    HW130626   4.430   0.737   3.279
 9909SOL    HW230627   4.414   0.686   3.125
 9910SOL     OW30628   1.451   4.775   2.190
 9910SOL    HW130629   1.372   4.830   2.220
 9910SOL    HW230630   1.535   4.816   2.226
 9911SOL     OW30631   2.885   6.119   2.039
 9911SOL    HW130632   2.962   6.121   2.104
 9911SOL    HW230633   2.911   6.067   1.958
 9912SOL     OW30634   3.575   0.382   1.588
 9912SOL    HW130635   3.518   0.426   1.518
 9912SOL    HW230636   3.517   0.349   1.663
 9913SOL     OW30637   5.853   3.599   1.164
 9913SOL    HW130638   5.878   3.690   1.131
 9913SOL    HW230639   5.822   3.605   1.258
 9914SOL     OW30640   5.843   1.352   4.982
 9914SOL    HW130641   5.889   1.340   5.070
 9914SOL    HW230642   5.836   1.449   4.961
 9915SOL     OW30643   5.518   0.421   3.602
 9915SOL    HW130644   5.536   0.507   3.554
 9915SOL    HW230645   5.512   0.346   3.536
 9916SOL     OW30646   2.178   1.969   2.761
 9916SOL    HW130647   2.150   2.064   2.768
 9916SOL    HW230648   2.239   1.946   2.837
 9917SOL     OW30649   5.232   4.479   6.771
 9917SOL    HW130650   5.176   4.439   6.699
 9917SOL    HW230651   5.207   4.575   6.783
 9918SOL     OW30652   3.482   1.579   2.985
 9918SOL    HW130653   3.489   1.495   2.931
 9918SOL    HW230654   3.400   1.629   2.958
 9919SOL     OW30655   1.075   5.078   1.251
 9919SOL    HW130656   1.081   5.110   1.156
 9919SOL    HW230657   1.019   5.143   1.304
 9920SOL     OW30658   5.137   1.461   2.382
 9920SOL    HW130659   5.146   1.560   2.390
 9920SOL    HW230660   5.045   1.434   2.408
 9921SOL     OW30661   4.126   0.247   5.029
 9921SOL    HW130662   4.042   0.198   5.055
 9921SOL    HW230663   4.200   0.181   5.016
 9922SOL     OW30664   2.573   4.251   1.226
 9922SOL    HW130665   2.561   4.202   1.140
 9922SOL    HW230666   2.485   4.291   1.253
 9923SOL     OW30667   5.351   4.855   6.945
 9923SOL    HW130668   5.387   4.793   7.015
 9923SOL    HW230669   5.367   4.950   6.973
 9924SOL     OW30670   6.210   1.311   4.000
 9924SOL    HW130671   6.205   1.260   3.914
 9924SOL    HW230672   6.224   1.408   3.981
 9925SOL     OW30673   0.205   4.100   3.972
 9925SOL    HW130674   0.286   4.158   3.980
 9925SOL    HW230675   0.224   4.009   4.008
 9926SOL     OW30676   4.331   2.814   1.691
 9926SOL    HW130677   4.271   2.847   1.618
 9926SOL    HW230678   4.294   2.730   1.730
 9927SOL     OW30679   0.318   0.100   1.125
 9927SOL    HW130680   0.355   0.126   1.214
 9927SOL    HW230681   0.387   0.114   1.054
 9928SOL     OW30682   4.766   4.533   2.735
 9928SOL    HW130683   4.745   4.499   2.826
 9928SOL    HW230684   4.711   4.483   2.667
 9929SOL     OW30685   3.517   4.139   5.490
 9929SOL    HW130686   3.488   4.158   5.397
 9929SOL    HW230687   3.436   4.128   5.549
 9930SOL     OW30688   6.456   6.412   4.904
 9930SOL    HW130689   6.401   6.404   4.987
 9930SOL    HW230690   6.464   6.322   4.861
 9931SOL     OW30691   0.662   5.549   4.291
 9931SOL    HW130692   0.719   5.572   4.370
 9931SOL    HW230693   0.686   5.609   4.214
 9932SOL     OW30694   3.612   2.888   6.828
 9932SOL    HW130695   3.695   2.841   6.858
 9932SOL    HW230696   3.625   2.987   6.837
 9933SOL     OW30697   0.471   5.789   3.503
 9933SOL    HW130698   0.510   5.721   3.441
 9933SOL    HW230699   0.524   5.792   3.587
 9934SOL     OW30700   6.509   2.417   5.477
 9934SOL    HW130701   6.607   2.410   5.492
 9934SOL    HW230702   6.488   2.392   5.382
 9935SOL     OW30703   2.703   6.319   6.738
 9935SOL    HW130704   2.724   6.264   6.657
 9935SOL    HW230705   2.775   6.306   6.807
 9936SOL     OW30706   7.020   4.745   6.940
 9936SOL    HW130707   6.996   4.734   6.843
 9936SOL    HW230708   0.052   4.823   6.951
 9937SOL     OW30709   0.254   1.668   1.468
 9937SOL    HW130710   0.223   1.758   1.438
 9937SOL    HW230711   0.211   1.645   1.555
 9938SOL     OW30712   6.819   4.985   3.399
 9938SOL    HW130713   6.916   4.971   3.379
 9938SOL    HW230714   6.789   4.917   3.466
 9939SOL     OW30715   4.119   2.133   1.337
 9939SOL    HW130716   4.218   2.131   1.327
 9939SOL    HW230717   4.076   2.137   1.247
 9940SOL     OW30718   1.340   0.272   1.244
 9940SOL    HW130719   1.306   0.312   1.159
 9940SOL    HW230720   1.430   0.310   1.265
 9941SOL     OW30721   3.561   3.233   5.028
 9941SOL    HW130722   3.599   3.159   5.083
 9941SOL    HW230723   3.549   3.202   4.934
 9942SOL     OW30724   2.349   5.843   2.640
 9942SOL    HW130725   2.400   5.893   2.710
 9942SOL    HW230726   2.329   5.750   2.673
 9943SOL     OW30727   0.298   4.706   5.937
 9943SOL    HW130728   0.297   4.772   5.862
 9943SOL    HW230729   0.222   4.642   5.926
 9944SOL     OW30730   0.815   4.252   6.629
 9944SOL    HW130731   0.910   4.248   6.662
 9944SOL    HW230732   0.813   4.222   6.533
 9945SOL     OW30733   5.028   5.333   6.853
 9945SOL    HW130734   5.055   5.241   6.824
 9945SOL    HW230735   5.036   5.340   6.952
 9946SOL     OW30736   6.207   0.674   3.433
 9946SOL    HW130737   6.175   0.586   3.468
 9946SOL    HW230738   6.245   0.661   3.341
 9947SOL     OW30739   2.058   2.397   4.959
 9947SOL    HW130740   2.034   2.470   5.023
 9947SOL    HW230741   2.064   2.311   5.008
 9948SOL     OW30742   6.197   3.696   5.717
 9948SOL    HW130743   6.219   3.680   5.814
 9948SOL    HW230744   6.120   3.759   5.711
 9949SOL     OW30745   6.495   5.490   4.366
 9949SOL    HW130746   6.455   5.413   4.316
 9949SOL    HW230747   6.487   5.474   4.464
 9950SOL     OW30748   5.720   6.195   5.955
 9950SOL    HW130749   5.690   6.239   6.039
 9950SOL    HW230750   5.795   6.131   5.976
 9951SOL     OW30751   0.154   1.434   3.846
 9951SOL    HW130752   0.127   1.385   3.763
 9951SOL    HW230753   0.242   1.480   3.830
 9952SOL     OW30754   1.373   4.552   0.628
 9952SOL    HW130755   1.345   4.573   0.534
 9952SOL    HW230756   1.471   4.568   0.637
 9953SOL     OW30757   5.156   2.713   4.424
 9953SOL    HW130758   5.110   2.764   4.497
 9953SOL    HW230759   5.252   2.741   4.420
 9954SOL     OW30760   6.973   0.938   6.230
 9954SOL    HW130761   6.937   0.955   6.321
 9954SOL    HW230762   0.044   0.942   6.232
 9955SOL     OW30763   5.768   3.634   5.695
 9955SOL    HW130764   5.739   3.695   5.621
 9955SOL    HW230765   5.689   3.591   5.736
 9956SOL     OW30766   1.544   6.928   1.749
 9956SOL    HW130767   1.546   7.021   1.711
 9956SOL    HW230768   1.632   6.909   1.793
 9957SOL     OW30769   5.188   6.127   2.351
 9957SOL    HW130770   5.108   6.158   2.403
 9957SOL    HW230771   5.159   6.100   2.259
 9958SOL     OW30772   2.851   5.440   6.779
 9958SOL    HW130773   2.876   5.505   6.708
 9958SOL    HW230774   2.891   5.469   6.866
 9959SOL     OW30775   4.190   3.633   4.838
 9959SOL    HW130776   4.161   3.713   4.891
 9959SOL    HW230777   4.253   3.578   4.894
 9960SOL     OW30778   0.018   0.547   2.109
 9960SOL    HW130779   7.000   0.605   2.175
 9960SOL    HW230780   7.012   0.564   2.018
 9961SOL     OW30781   1.498   4.788   4.462
 9961SOL    HW130782   1.424   4.789   4.529
 9961SOL    HW230783   1.549   4.702   4.470
 9962SOL     OW30784   5.662   5.884   1.806
 9962SOL    HW130785   5.679   5.849   1.898
 9962SOL    HW230786   5.582   5.839   1.767
 9963SOL     OW30787   2.876   3.650   6.665
 9963SOL    HW130788   2.836   3.740   6.645
 9963SOL    HW230789   2.833   3.581   6.607
 9964SOL     OW30790   5.661   4.563   5.791
 9964SOL    HW130791   5.611   4.603   5.868
 9964SOL    HW230792   5.700   4.475   5.820
 9965SOL     OW30793   3.687   6.326   6.242
 9965SOL    HW130794   3.752   6.354   6.171
 9965SOL    HW230795   3.634   6.405   6.272
 9966SOL     OW30796   1.621   5.992   2.127
 9966SOL    HW130797   1.533   5.960   2.163
 9966SOL    HW230798   1.650   5.933   2.052
 9967SOL     OW30799   6.605   0.297   2.376
 9967SOL    HW130800   6.670   0.304   2.452
 9967SOL    HW230801   6.530   0.236   2.403
 9968SOL     OW30802   3.172   3.867   0.258
 9968SOL    HW130803   3.131   3.777   0.240
 9968SOL    HW230804   3.141   3.901   0.347
 9969SOL     OW30805   1.669   2.870   2.754
 9969SOL    HW130806   1.622   2.785   2.778
 9969SOL    HW230807   1.640   2.943   2.816
 9970SOL     OW30808   5.432   3.791   2.804
 9970SOL    HW130809   5.408   3.711   2.749
 9970SOL    HW230810   5.370   3.866   2.783
 9971SOL     OW30811   2.262   5.285   1.234
 9971SOL    HW130812   2.223   5.316   1.147
 9971SOL    HW230813   2.360   5.272   1.223
 9972SOL     OW30814   4.207   4.873   1.410
 9972SOL    HW130815   4.259   4.796   1.447
 9972SOL    HW230816   4.176   4.850   1.317
 9973SOL     OW30817   4.728   2.108   4.244
 9973SOL    HW130818   4.730   2.202   4.277
 9973SOL    HW230819   4.790   2.099   4.166
 9974SOL     OW30820   6.998   3.100   3.466
 9974SOL    HW130821   6.954   3.061   3.386
 9974SOL    HW230822   6.931   3.112   3.539
 9975SOL     OW30823   6.131   4.682   0.054
 9975SOL    HW130824   6.153   4.739   0.133
 9975SOL    HW230825   6.125   4.739   7.002
 9976SOL     OW30826   0.275   6.482   5.420
 9976SOL    HW130827   0.294   6.576   5.448
 9976SOL    HW230828   0.210   6.441   5.484
 9977SOL     OW30829   6.884   5.395   5.210
 9977SOL    HW130830   6.822   5.357   5.143
 9977SOL    HW230831   6.975   5.405   5.170
 9978SOL     OW30832   6.633   3.074   3.450
 9978SOL    HW130833   6.701   3.036   3.389
 9978SOL    HW230834   6.661   3.166   3.479
 9979SOL     OW30835   5.926   4.890   5.482
 9979SOL    HW130836   5.967   4.971   5.440
 9979SOL    HW230837   5.996   4.839   5.531
 9980SOL     OW30838   2.043   1.620   5.921
 9980SOL    HW130839   2.141   1.638   5.931
 9980SOL    HW230840   2.025   1.523   5.937
 9981SOL     OW30841   2.185   1.829   1.815
 9981SOL    HW130842   2.177   1.927   1.800
 9981SOL    HW230843   2.243   1.812   1.895
 9982SOL     OW30844   6.703   6.912   3.659
 9982SOL    HW130845   6.790   6.897   3.706
 9982SOL    HW230846   6.677   6.829   3.610
 9983SOL     OW30847   0.241   2.681   3.133
 9983SOL    HW130848   0.273   2.689   3.228
 9983SOL    HW230849   0.318   2.691   3.071
 9984SOL     OW30850   2.148   1.167   0.402
 9984SOL    HW130851   2.169   1.083   0.353
 9984SOL    HW230852   2.217   1.236   0.379
 9985SOL     OW30853   1.744   1.174   1.691
 9985SOL    HW130854   1.767   1.261   1.735
 9985SOL    HW230855   1.754   1.100   1.758
 9986SOL     OW30856   5.691   4.292   5.783
 9986SOL    HW130857   5.674   4.256   5.875
 9986SOL    HW230858   5.604   4.305   5.736
 9987SOL     OW30859   6.986   3.201   4.069
 9987SOL    HW130860   6.989   3.130   4.139
 9987SOL    HW230861   0.015   3.173   3.992
 9988SOL     OW30862   0.170   5.824   5.112
 9988SOL    HW130863   0.122   5.775   5.185
 9988SOL    HW230864   0.265   5.836   5.138
 9989SOL     OW30865   6.336   4.207   3.254
 9989SOL    HW130866   6.435   4.219   3.256
 9989SOL    HW230867   6.306   4.156   3.335
 9990SOL     OW30868   2.802   5.680   1.718
 9990SOL    HW130869   2.799   5.613   1.792
 9990SOL    HW230870   2.712   5.724   1.709
 9991SOL     OW30871   1.960   2.550   3.852
 9991SOL    HW130872   1.952   2.648   3.833
 9991SOL    HW230873   1.877   2.503   3.820
 9992SOL     OW30874   5.527   4.690   0.429
 9992SOL    HW130875   5.534   4.611   0.490
 9992SOL    HW230876   5.494   4.769   0.481
 9993SOL     OW30877   3.158   0.310   0.865
 9993SOL    HW130878   3.141   0.222   0.822
 9993SOL    HW230879   3.244   0.306   0.917
 9994SOL     OW30880   0.078   4.979   3.280
 9994SOL    HW130881   0.130   4.909   3.329
 9994SOL    HW230882   0.102   5.070   3.315
 9995SOL     OW30883   4.410   1.016   3.270
 9995SOL    HW130884   4.413   0.923   3.232
 9995SOL    HW230885   4.407   1.083   3.196
 9996SOL     OW30886   2.585   2.807   1.645
 9996SOL    HW130887   2.623   2.898   1.663
 9996SOL    HW230888   2.656   2.748   1.608
 9997SOL     OW30889   3.551   1.533   0.534
 9997SOL    HW130890   3.582   1.480   0.613
 9997SOL    HW230891   3.508   1.471   0.468
 9998SOL     OW30892   5.463   4.515   6.646
 9998SOL    HW130893   5.378   4.477   6.681
 9998SOL    HW230894   5.530   4.521   6.720
 9999SOL     OW30895   0.046   3.103   5.300
 9999SOL    HW130896   0.010   3.050   5.223
 9999SOL    HW230897   0.068   3.195   5.270
10000SOL     OW30898   0.160   4.136   0.160
10000SOL    HW130899   0.179   4.124   0.062
10000SOL    HW230900   0.063   4.158   0.173
10001SOL     OW30901   4.531   6.876   2.284
10001SOL    HW130902   4.565   6.962   2.247
10001SOL    HW230903   4.460   6.895   2.353
10002SOL     OW30904   1.964   6.528   2.384
10002SOL    HW130905   1.894   6.541   2.314
10002SOL    HW230906   2.043   6.483   2.344
10003SOL     OW30907   4.011   1.610   3.289
10003SOL    HW130908   4.068   1.692   3.291
10003SOL    HW230909   4.069   1.529   3.282
10004SOL     OW30910   6.086   2.034   4.350
10004SOL    HW130911   6.099   2.133   4.343
10004SOL    HW230912   6.132   1.989   4.273
10005SOL     OW30913   4.631   0.324   4.708
10005SOL    HW130914   4.726   0.295   4.692
10005SOL    HW230915   4.629   0.387   4.786
10006SOL     OW30916   5.419   6.189   4.176
10006SOL    HW130917   5.411   6.089   4.172
10006SOL    HW230918   5.369   6.229   4.099
10007SOL     OW30919   6.784   4.853   5.689
10007SOL    HW130920   6.849   4.793   5.734
10007SOL    HW230921   6.706   4.869   5.749
10008SOL     OW30922   4.488   1.149   4.343
10008SOL    HW130923   4.569   1.121   4.394
10008SOL    HW230924   4.428   1.070   4.330
10009SOL     OW30925   1.966   3.532   1.421
10009SOL    HW130926   1.949   3.623   1.383
10009SOL    HW230927   1.909   3.466   1.373
10010SOL     OW30928   1.969   0.845   6.013
10010SOL    HW130929   1.958   0.799   6.101
10010SOL    HW230930   1.892   0.907   5.998
10011SOL     OW30931   5.291   1.168   5.579
10011SOL    HW130932   5.272   1.185   5.676
10011SOL    HW230933   5.324   1.075   5.568
10012SOL     OW30934   5.978   1.422   2.937
10012SOL    HW130935   5.937   1.423   2.846
10012SOL    HW230936   5.991   1.328   2.967
10013SOL     OW30937   0.327   1.125   3.332
10013SOL    HW130938   0.383   1.043   3.316
10013SOL    HW230939   0.299   1.164   3.244
10014SOL     OW30940   6.998   3.812   0.883
10014SOL    HW130941   7.024   3.718   0.907
10014SOL    HW230942   7.000   3.822   0.784
10015SOL     OW30943   2.470   4.790   0.625
10015SOL    HW130944   2.372   4.801   0.644
10015SOL    HW230945   2.522   4.860   0.673
10016SOL     OW30946   1.552   0.855   6.725
10016SOL    HW130947   1.551   0.925   6.796
10016SOL    HW230948   1.645   0.818   6.717
10017SOL     OW30949   2.777   1.296   3.215
10017SOL    HW130950   2.848   1.357   3.250
10017SOL    HW230951   2.689   1.321   3.256
10018SOL     OW30952   4.236   0.395   5.848
10018SOL    HW130953   4.188   0.407   5.761
10018SOL    HW230954   4.172   0.405   5.924
10019SOL     OW30955   0.389   1.806   2.987
10019SOL    HW130956   0.354   1.759   2.906
10019SOL    HW230957   0.409   1.739   3.059
10020SOL     OW30958   1.399   2.752   1.031
10020SOL    HW130959   1.407   2.659   0.997
10020SOL    HW230960   1.445   2.760   1.119
10021SOL     OW30961   0.015   2.608   1.497
10021SOL    HW130962   6.980   2.655   1.437
10021SOL    HW230963   0.006   2.509   1.483
10022SOL     OW30964   2.767   1.028   5.972
10022SOL    HW130965   2.755   1.095   5.899
10022SOL    HW230966   2.763   0.935   5.934
10023SOL     OW30967   0.884   4.792   0.596
10023SOL    HW130968   0.915   4.744   0.679
10023SOL    HW230969   0.962   4.814   0.538
10024SOL     OW30970   2.382   6.112   2.365
10024SOL    HW130971   2.297   6.163   2.378
10024SOL    HW230972   2.459   6.175   2.365
10025SOL     OW30973   1.412   2.252   0.975
10025SOL    HW130974   1.498   2.257   1.025
10025SOL    HW230975   1.336   2.255   1.040
10026SOL     OW30976   5.555   6.435   3.778
10026SOL    HW130977   5.650   6.409   3.796
10026SOL    HW230978   5.505   6.355   3.745
10027SOL     OW30979   6.473   4.455   4.604
10027SOL    HW130980   6.450   4.428   4.697
10027SOL    HW230981   6.548   4.521   4.606
10028SOL     OW30982   1.173   1.071   2.508
10028SOL    HW130983   1.253   1.111   2.554
10028SOL    HW230984   1.180   0.971   2.511
10029SOL     OW30985   5.227   1.735   5.067
10029SOL    HW130986   5.170   1.705   5.143
10029SOL    HW230987   5.196   1.691   4.983
10030SOL     OW30988   2.048   0.101   3.932
10030SOL    HW130989   2.069   0.035   4.004
10030SOL    HW230990   1.957   0.141   3.949
10031SOL     OW30991   5.312   4.872   5.154
10031SOL    HW130992   5.229   4.896   5.103
10031SOL    HW230993   5.303   4.900   5.249
10032SOL     OW30994   2.903   1.182   4.999
10032SOL    HW130995   2.947   1.263   4.958
10032SOL    HW230996   2.814   1.168   4.956
10033SOL     OW30997   6.731   3.137   4.581
10033SOL    HW130998   6.769   3.137   4.673
10033SOL    HW230999   6.719   3.231   4.549
10034SOL     OW31000   3.856   0.443   4.288
10034SOL    HW131001   3.934   0.395   4.247
10034SOL    HW231002   3.821   0.511   4.223
10035SOL     OW31003   6.815   5.012   1.565
10035SOL    HW131004   6.906   5.024   1.605
10035SOL    HW231005   6.823   5.001   1.465
10036SOL     OW31006   6.457   2.107   1.284
10036SOL    HW131007   6.486   2.013   1.268
10036SOL    HW231008   6.392   2.110   1.360
10037SOL     OW31009   0.473   1.468   0.025
10037SOL    HW131010   0.402   1.538   0.032
10037SOL    HW231011   0.430   1.379   0.007
10038SOL     OW31012   5.497   0.761   6.970
10038SOL    HW131013   5.418   0.712   7.007
10038SOL    HW231014   5.568   0.766   0.011
10039SOL     OW31015   4.010   0.690   4.068
10039SOL    HW131016   3.980   0.785   4.056
10039SOL    HW231017   4.013   0.668   4.165
10040SOL     OW31018   5.751   5.389   6.559
10040SOL    HW131019   5.801   5.396   6.645
10040SOL    HW231020   5.749   5.478   6.514
10041SOL     OW31021   4.377   5.569   0.035
10041SOL    HW131022   4.464   5.574   0.083
10041SOL    HW231023   4.308   5.529   0.096
10042SOL     OW31024   0.608   1.822   3.882
10042SOL    HW131025   0.547   1.900   3.867
10042SOL    HW231026   0.619   1.807   3.980
10043SOL     OW31027   5.844   1.980   5.049
10043SOL    HW131028   5.783   1.902   5.060
10043SOL    HW231029   5.829   2.044   5.124
10044SOL     OW31030   2.534   2.557   5.070
10044SOL    HW131031   2.467   2.492   5.108
10044SOL    HW231032   2.491   2.646   5.058
10045SOL     OW31033   3.701   0.899   1.389
10045SOL    HW131034   3.659   0.848   1.464
10045SOL    HW231035   3.647   0.982   1.370
10046SOL     OW31036   1.842   3.244   0.598
10046SOL    HW131037   1.858   3.341   0.578
10046SOL    HW231038   1.747   3.221   0.577
10047SOL     OW31039   0.917   2.935   5.035
10047SOL    HW131040   0.878   3.002   4.972
10047SOL    HW231041   1.010   2.963   5.059
10048SOL     OW31042   6.628   6.741   2.835
10048SOL    HW131043   6.643   6.725   2.738
10048SOL    HW231044   6.555   6.808   2.846
10049SOL     OW31045   1.806   1.607   5.705
10049SOL    HW131046   1.831   1.688   5.760
10049SOL    HW231047   1.881   1.585   5.643
10050SOL     OW31048   5.291   3.507   4.560
10050SOL    HW131049   5.300   3.504   4.460
10050SOL    HW231050   5.272   3.600   4.589
10051SOL     OW31051   0.928   4.411   4.981
10051SOL    HW131052   0.958   4.421   4.886
10051SOL    HW231053   0.831   4.387   4.983
10052SOL     OW31054   1.943   0.952   3.125
10052SOL    HW131055   1.964   0.890   3.049
10052SOL    HW231056   1.854   0.994   3.110
10053SOL     OW31057   4.329   6.216   4.121
10053SOL    HW131058   4.343   6.249   4.214
10053SOL    HW231059   4.239   6.172   4.114
10054SOL     OW31060   5.583   4.147   5.393
10054SOL    HW131061   5.514   4.127   5.324
10054SOL    HW231062   5.673   4.117   5.361
10055SOL     OW31063   6.373   2.694   6.094
10055SOL    HW131064   6.275   2.690   6.109
10055SOL    HW231065   6.408   2.602   6.077
10056SOL     OW31066   5.194   4.334   3.201
10056SOL    HW131067   5.197   4.251   3.145
10056SOL    HW231068   5.136   4.318   3.281
10057SOL     OW31069   5.660   3.550   5.353
10057SOL    HW131070   5.576   3.515   5.312
10057SOL    HW231071   5.645   3.571   5.449
10058SOL     OW31072   6.461   3.701   4.289
10058SOL    HW131073   6.404   3.694   4.207
10058SOL    HW231074   6.405   3.679   4.369
10059SOL     OW31075   6.984   1.763   0.917
10059SOL    HW131076   6.895   1.797   0.887
10059SOL    HW231077   6.986   1.663   0.908
10060SOL     OW31078   2.547   2.074   2.517
10060SOL    HW131079   2.466   2.123   2.550
10060SOL    HW231080   2.521   2.015   2.440
10061SOL     OW31081   4.334   1.281   3.869
10061SOL    HW131082   4.236   1.259   3.873
10061SOL    HW231083   4.364   1.316   3.958
10062SOL     OW31084   6.472   6.633   4.474
10062SOL    HW131085   6.472   6.730   4.501
10062SOL    HW231086   6.549   6.587   4.518
10063SOL     OW31087   2.427   1.873   4.474
10063SOL    HW131088   2.460   1.779   4.489
10063SOL    HW231089   2.420   1.891   4.376
10064SOL     OW31090   4.487   5.650   6.648
10064SOL    HW131091   4.473   5.737   6.695
10064SOL    HW231092   4.509   5.668   6.552
10065SOL     OW31093   1.569   0.794   1.971
10065SOL    HW131094   1.567   0.868   2.038
10065SOL    HW231095   1.570   0.706   2.019
10066SOL     OW31096   0.627   3.115   5.051
10066SOL    HW131097   0.612   3.063   5.135
10066SOL    HW231098   0.686   3.193   5.071
10067SOL     OW31099   0.884   3.039   6.187
10067SOL    HW131100   0.904   3.006   6.279
10067SOL    HW231101   0.912   2.970   6.120
10068SOL     OW31102   1.577   3.577   2.638
10068SOL    HW131103   1.583   3.510   2.564
10068SOL    HW231104   1.625   3.660   2.611
10069SOL     OW31105   3.584   5.016   1.597
10069SOL    HW131106   3.620   5.015   1.504
10069SOL    HW231107   3.648   5.063   1.658
10070SOL     OW31108   1.535   5.479   4.372
10070SOL    HW131109   1.467   5.415   4.409
10070SOL    HW231110   1.490   5.547   4.315
10071SOL     OW31111   0.548   0.063   3.879
10071SOL    HW131112   0.555   0.096   3.785
10071SOL    HW231113   0.610   0.116   3.937
10072SOL     OW31114   0.323   1.357   2.456
10072SOL    HW131115   0.256   1.423   2.490
10072SOL    HW231116   0.415   1.386   2.483
10073SOL     OW31117   6.239   3.257   3.359
10073SOL    HW131118   6.288   3.223   3.439
10073SOL    HW231119   6.304   3.271   3.284
10074SOL     OW31120   1.065   5.453   0.514
10074SOL    HW131121   0.988   5.449   0.579
10074SOL    HW231122   1.053   5.382   0.445
10075SOL     OW31123   2.381   0.762   2.546
10075SOL    HW131124   2.401   0.666   2.531
10075SOL    HW231125   2.292   0.771   2.590
10076SOL     OW31126   4.956   5.575   3.401
10076SOL    HW131127   4.900   5.521   3.338
10076SOL    HW231128   4.913   5.578   3.491
10077SOL     OW31129   5.769   3.054   0.227
10077SOL    HW131130   5.714   3.032   0.147
10077SOL    HW231131   5.860   3.014   0.217
10078SOL     OW31132   0.114   6.324   4.774
10078SOL    HW131133   0.094   6.415   4.808
10078SOL    HW231134   0.090   6.318   4.677
10079SOL     OW31135   5.727   2.504   3.889
10079SOL    HW131136   5.645   2.465   3.848
10079SOL    HW231137   5.731   2.602   3.869
10080SOL     OW31138   5.516   0.978   5.816
10080SOL    HW131139   5.608   0.953   5.846
10080SOL    HW231140   5.505   1.077   5.824
10081SOL     OW31141   1.354   1.647   6.934
10081SOL    HW131142   1.421   1.679   6.867
10081SOL    HW231143   1.308   1.725   6.976
10082SOL     OW31144   1.419   5.247   3.213
10082SOL    HW131145   1.325   5.247   3.180
10082SOL    HW231146   1.472   5.314   3.160
10083SOL     OW31147   3.453   5.758   3.477
10083SOL    HW131148   3.550   5.776   3.492
10083SOL    HW231149   3.402   5.844   3.478
10084SOL     OW31150   0.356   6.783   5.239
10084SOL    HW131151   0.313   6.866   5.204
10084SOL    HW231152   0.287   6.727   5.286
10085SOL     OW31153   4.037   6.551   0.085
10085SOL    HW131154   3.986   6.511   0.161
10085SOL    HW231155   4.130   6.571   0.115
10086SOL     OW31156   5.685   6.565   2.560
10086SOL    HW131157   5.725   6.649   2.596
10086SOL    HW231158   5.747   6.524   2.493
10087SOL     OW31159   0.554   6.956   4.619
10087SOL    HW131160   0.530   6.880   4.679
10087SOL    HW231161   0.639   6.998   4.651
10088SOL     OW31162   6.958   1.770   0.128
10088SOL    HW131163   7.025   1.827   0.175
10088SOL    HW231164   6.950   1.799   0.033
10089SOL     OW31165   3.778   1.432   2.594
10089SOL    HW131166   3.813   1.413   2.686
10089SOL    HW231167   3.779   1.349   2.539
10090SOL     OW31168   0.674   4.946   2.135
10090SOL    HW131169   0.741   4.941   2.209
10090SOL    HW231170   0.595   4.890   2.158
10091SOL     OW31171   6.609   5.884   6.507
10091SOL    HW131172   6.639   5.830   6.586
10091SOL    HW231173   6.537   5.835   6.459
10092SOL     OW31174   1.242   3.441   5.306
10092SOL    HW131175   1.184   3.411   5.382
10092SOL    HW231176   1.316   3.375   5.292
10093SOL     OW31177   5.117   3.487   5.576
10093SOL    HW131178   5.109   3.553   5.651
10093SOL    HW231179   5.050   3.414   5.588
10094SOL     OW31180   3.130   6.672   0.674
10094SOL    HW131181   3.176   6.583   0.682
10094SOL    HW231182   3.094   6.683   0.582
10095SOL     OW31183   5.401   2.315   4.673
10095SOL    HW131184   5.308   2.322   4.708
10095SOL    HW231185   5.433   2.406   4.645
10096SOL     OW31186   4.928   0.511   2.162
10096SOL    HW131187   4.970   0.545   2.246
10096SOL    HW231188   4.993   0.518   2.087
10097SOL     OW31189   2.001   2.019   6.406
10097SOL    HW131190   1.981   2.055   6.497
10097SOL    HW231191   1.938   1.945   6.385
10098SOL     OW31192   3.271   5.728   4.555
10098SOL    HW131193   3.259   5.758   4.460
10098SOL    HW231194   3.198   5.767   4.612
10099SOL     OW31195   6.546   4.337   1.450
10099SOL    HW131196   6.530   4.428   1.490
10099SOL    HW231197   6.519   4.338   1.354
10100SOL     OW31198   5.488   5.494   5.464
10100SOL    HW131199   5.477   5.480   5.563
10100SOL    HW231200   5.430   5.430   5.415
10101SOL     OW31201   6.654   2.752   1.779
10101SOL    HW131202   6.714   2.803   1.842
10101SOL    HW231203   6.698   2.666   1.753
10102SOL     OW31204   5.395   0.449   0.249
10102SOL    HW131205   5.490   0.471   0.273
10102SOL    HW231206   5.371   0.494   0.163
10103SOL     OW31207   0.617   0.415   6.189
10103SOL    HW131208   0.604   0.451   6.097
10103SOL    HW231209   0.547   0.453   6.249
10104SOL     OW31210   1.961   0.823   6.322
10104SOL    HW131211   1.985   0.825   6.419
10104SOL    HW231212   1.904   0.902   6.300
10105SOL     OW31213   2.737   1.214   5.798
10105SOL    HW131214   2.762   1.310   5.807
10105SOL    HW231215   2.639   1.206   5.781
10106SOL     OW31216   5.057   6.315   1.662
10106SOL    HW131217   4.960   6.313   1.687
10106SOL    HW231218   5.094   6.406   1.681
10107SOL     OW31219   5.071   4.385   6.594
10107SOL    HW131220   5.003   4.315   6.612
10107SOL    HW231221   5.064   4.416   6.500
10108SOL     OW31222   2.154   3.025   0.191
10108SOL    HW131223   2.213   3.091   0.237
10108SOL    HW231224   2.108   2.968   0.260
10109SOL     OW31225   0.563   0.866   0.076
10109SOL    HW131226   0.561   0.767   0.086
10109SOL    HW231227   0.579   0.890   7.009
10110SOL     OW31228   4.823   4.801   2.223
10110SOL    HW131229   4.827   4.728   2.155
10110SOL    HW231230   4.793   4.885   2.179
10111SOL     OW31231   0.996   2.829   2.098
10111SOL    HW131232   0.999   2.858   2.002
10111SOL    HW231233   0.903   2.839   2.133
10112SOL     OW31234   6.673   3.340   3.516
10112SOL    HW131235   6.711   3.330   3.424
10112SOL    HW231236   6.600   3.408   3.515
10113SOL     OW31237   4.901   1.150   6.675
10113SOL    HW131238   4.826   1.132   6.739
10113SOL    HW231239   4.943   1.238   6.696
10114SOL     OW31240   4.107   2.189   3.174
10114SOL    HW131241   4.162   2.114   3.137
10114SOL    HW231242   4.159   2.235   3.246
10115SOL     OW31243   3.227   1.235   4.126
10115SOL    HW131244   3.269   1.307   4.071
10115SOL    HW231245   3.136   1.265   4.156
10116SOL     OW31246   5.876   0.304   5.549
10116SOL    HW131247   5.886   0.244   5.628
10116SOL    HW231248   5.955   0.294   5.489
10117SOL     OW31249   6.416   5.170   5.267
10117SOL    HW131250   6.510   5.167   5.300
10117SOL    HW231251   6.390   5.082   5.229
10118SOL     OW31252   2.427   4.854   4.546
10118SOL    HW131253   2.391   4.846   4.639
10118SOL    HW231254   2.487   4.934   4.541
10119SOL     OW31255   0.485   4.948   4.093
10119SOL    HW131256   0.581   4.948   4.069
10119SOL    HW231257   0.470   4.885   4.170
10120SOL     OW31258   1.296   2.949   2.847
10120SOL    HW131259   1.387   2.988   2.851
10120SOL    HW231260   1.258   2.962   2.755
10121SOL     OW31261   6.757   4.798   0.730
10121SOL    HW131262   6.755   4.707   0.770
10121SOL    HW231263   6.751   4.791   0.630
10122SOL     OW31264   6.900   1.950   4.173
10122SOL    HW131265   6.829   1.978   4.238
10122SOL    HW231266   6.863   1.952   4.080
10123SOL     OW31267   5.622   6.324   0.968
10123SOL    HW131268   5.709   6.357   1.006
10123SOL    HW231269   5.639   6.245   0.910
10124SOL     OW31270   1.117   5.438   2.248
10124SOL    HW131271   1.059   5.503   2.199
10124SOL    HW231272   1.211   5.472   2.249
10125SOL     OW31273   1.821   1.777   1.107
10125SOL    HW131274   1.732   1.742   1.136
10125SOL    HW231275   1.844   1.741   1.017
10126SOL     OW31276   6.109   0.793   0.054
10126SOL    HW131277   6.189   0.802   7.024
10126SOL    HW231278   6.106   0.871   0.118
10127SOL     OW31279   1.410   4.670   5.662
10127SOL    HW131280   1.404   4.599   5.592
10127SOL    HW231281   1.321   4.716   5.671
10128SOL     OW31282   3.310   0.840   0.311
10128SOL    HW131283   3.340   0.907   0.379
10128SOL    HW231284   3.283   0.756   0.357
10129SOL     OW31285   5.869   1.685   2.990
10129SOL    HW131286   5.880   1.585   2.992
10129SOL    HW231287   5.840   1.717   3.080
10130SOL     OW31288   0.643   2.396   2.365
10130SOL    HW131289   0.551   2.430   2.348
10130SOL    HW231290   0.672   2.422   2.457
10131SOL     OW31291   2.032   0.731   4.742
10131SOL    HW131292   2.035   0.830   4.758
10131SOL    HW231293   1.941   0.705   4.710
10132SOL     OW31294   6.719   0.192   2.770
10132SOL    HW131295   6.762   0.245   2.843
10132SOL    HW231296   6.744   0.231   2.681
10133SOL     OW31297   4.846   5.370   0.961
10133SOL    HW131298   4.790   5.369   1.044
10133SOL    HW231299   4.830   5.287   0.908
10134SOL     OW31300   5.908   0.759   2.023
10134SOL    HW131301   5.860   0.680   1.985
10134SOL    HW231302   5.902   0.756   2.123
10135SOL     OW31303   5.467   0.456   3.975
10135SOL    HW131304   5.523   0.379   4.004
10135SOL    HW231305   5.519   0.541   3.983
10136SOL     OW31306   4.961   2.165   2.842
10136SOL    HW131307   4.952   2.137   2.938
10136SOL    HW231308   4.906   2.104   2.785
10137SOL     OW31309   0.083   5.707   5.872
10137SOL    HW131310   0.021   5.757   5.811
10137SOL    HW231311   0.129   5.635   5.821
10138SOL     OW31312   5.835   1.571   0.378
10138SOL    HW131313   5.785   1.654   0.353
10138SOL    HW231314   5.934   1.589   0.373
10139SOL     OW31315   3.075   3.597   6.018
10139SOL    HW131316   3.119   3.676   6.061
10139SOL    HW231317   3.142   3.547   5.963
10140SOL     OW31318   0.004   5.865   6.487
10140SOL    HW131319   0.080   5.867   6.423
10140SOL    HW231320   6.963   5.802   6.454
10141SOL     OW31321   3.547   1.313   3.942
10141SOL    HW131322   3.635   1.356   3.920
10141SOL    HW231323   3.527   1.242   3.874
10142SOL     OW31324   5.650   6.405   4.741
10142SOL    HW131325   5.589   6.482   4.722
10142SOL    HW231326   5.726   6.406   4.677
10143SOL     OW31327   5.745   3.287   0.377
10143SOL    HW131328   5.749   3.198   0.330
10143SOL    HW231329   5.684   3.280   0.456
10144SOL     OW31330   3.994   6.437   5.520
10144SOL    HW131331   4.093   6.437   5.508
10144SOL    HW231332   3.961   6.532   5.525
10145SOL     OW31333   4.727   5.979   1.419
10145SOL    HW131334   4.800   5.994   1.485
10145SOL    HW231335   4.738   5.890   1.375
10146SOL     OW31336   0.294   3.816   3.941
10146SOL    HW131337   0.379   3.774   3.910
10146SOL    HW231338   0.248   3.857   3.862
10147SOL     OW31339   4.626   5.366   6.602
10147SOL    HW131340   4.611   5.371   6.701
10147SOL    HW231341   4.553   5.415   6.555
10148SOL     OW31342   0.589   4.826   0.205
10148SOL    HW131343   0.575   4.764   0.282
10148SOL    HW231344   0.663   4.792   0.147
10149SOL     OW31345   4.877   5.002   1.644
10149SOL    HW131346   4.831   5.013   1.732
10149SOL    HW231347   4.813   5.026   1.570
10150SOL     OW31348   5.031   3.826   0.792
10150SOL    HW131349   5.121   3.784   0.795
10150SOL    HW231350   4.963   3.762   0.830
10151SOL     OW31351   6.766   0.219   5.867
10151SOL    HW131352   6.685   0.164   5.885
10151SOL    HW231353   6.768   0.297   5.929
10152SOL     OW31354   6.101   6.188   2.833
10152SOL    HW131355   6.047   6.136   2.766
10152SOL    HW231356   6.100   6.285   2.808
10153SOL     OW31357   4.611   5.565   3.860
10153SOL    HW131358   4.704   5.535   3.884
10153SOL    HW231359   4.590   5.534   3.767
10154SOL     OW31360   3.833   4.975   5.888
10154SOL    HW131361   3.924   4.945   5.915
10154SOL    HW231362   3.769   4.899   5.893
10155SOL     OW31363   4.601   2.246   5.988
10155SOL    HW131364   4.678   2.246   6.051
10155SOL    HW231365   4.517   2.223   6.037
10156SOL     OW31366   5.000   0.501   0.836
10156SOL    HW131367   4.942   0.515   0.756
10156SOL    HW231368   4.952   0.445   0.903
10157SOL     OW31369   6.906   2.494   1.167
10157SOL    HW131370   6.874   2.420   1.227
10157SOL    HW231371   6.830   2.528   1.112
10158SOL     OW31372   5.052   6.770   2.340
10158SOL    HW131373   4.953   6.761   2.328
10158SOL    HW231374   5.088   6.688   2.385
10159SOL     OW31375   3.516   3.325   2.817
10159SOL    HW131376   3.581   3.395   2.847
10159SOL    HW231377   3.423   3.360   2.826
10160SOL     OW31378   1.728   4.387   2.612
10160SOL    HW131379   1.700   4.465   2.556
10160SOL    HW231380   1.709   4.406   2.708
10161SOL     OW31381   3.660   4.742   6.515
10161SOL    HW131382   3.664   4.753   6.614
10161SOL    HW231383   3.708   4.818   6.471
10162SOL     OW31384   1.919   4.407   1.752
10162SOL    HW131385   1.899   4.356   1.669
10162SOL    HW231386   1.877   4.361   1.830
10163SOL     OW31387   1.648   6.371   5.263
10163SOL    HW131388   1.613   6.399   5.352
10163SOL    HW231389   1.674   6.274   5.266
10164SOL     OW31390   6.576   2.880   3.637
10164SOL    HW131391   6.581   2.922   3.728
10164SOL    HW231392   6.606   2.945   3.568
10165SOL     OW31393   6.010   2.726   4.065
10165SOL    HW131394   6.065   2.728   3.982
10165SOL    HW231395   5.919   2.762   4.045
10166SOL     OW31396   0.931   2.823   0.925
10166SOL    HW131397   1.018   2.871   0.916
10166SOL    HW231398   0.921   2.757   0.850
10167SOL     OW31399   0.489   5.544   6.358
10167SOL    HW131400   0.558   5.532   6.287
10167SOL    HW231401   0.436   5.459   6.368
10168SOL     OW31402   5.931   1.502   0.021
10168SOL    HW131403   5.989   1.452   0.085
10168SOL    HW231404   5.969   1.494   6.958
10169SOL     OW31405   6.886   4.006   3.118
10169SOL    HW131406   6.821   4.027   3.191
10169SOL    HW231407   6.870   3.914   3.083
10170SOL     OW31408   6.491   6.274   0.090
10170SOL    HW131409   6.399   6.250   0.119
10170SOL    HW231410   6.558   6.232   0.152
10171SOL     OW31411   1.796   3.006   5.029
10171SOL    HW131412   1.851   3.065   5.088
10171SOL    HW231413   1.855   2.934   4.991
10172SOL     OW31414   6.626   0.002   3.047
10172SOL    HW131415   6.713   0.034   3.084
10172SOL    HW231416   6.616   0.034   2.952
10173SOL     OW31417   3.645   4.934   6.826
10173SOL    HW131418   3.561   4.882   6.809
10173SOL    HW231419   3.724   4.881   6.797
10174SOL     OW31420   5.107   6.783   3.260
10174SOL    HW131421   5.158   6.830   3.188
10174SOL    HW231422   5.160   6.705   3.293
10175SOL     OW31423   6.646   2.086   3.674
10175SOL    HW131424   6.592   2.162   3.638
10175SOL    HW231425   6.648   2.012   3.608
10176SOL     OW31426   6.570   3.150   5.861
10176SOL    HW131427   6.648   3.091   5.883
10176SOL    HW231428   6.601   3.244   5.851
10177SOL     OW31429   2.642   0.514   1.820
10177SOL    HW131430   2.575   0.441   1.806
10177SOL    HW231431   2.723   0.495   1.765
10178SOL     OW31432   2.116   1.830   0.364
10178SOL    HW131433   2.102   1.851   0.267
10178SOL    HW231434   2.029   1.841   0.413
10179SOL     OW31435   0.088   4.298   0.627
10179SOL    HW131436   0.091   4.199   0.619
10179SOL    HW231437   0.159   4.339   0.569
10180SOL     OW31438   4.229   6.730   6.153
10180SOL    HW131439   4.304   6.795   6.149
10180SOL    HW231440   4.262   6.639   6.130
10181SOL     OW31441   6.446   3.917   1.176
10181SOL    HW131442   6.508   3.984   1.136
10181SOL    HW231443   6.361   3.914   1.124
10182SOL     OW31444   5.675   1.787   0.293
10182SOL    HW131445   5.641   1.718   0.228
10182SOL    HW231446   5.647   1.878   0.262
10183SOL     OW31447   6.710   2.326   6.077
10183SOL    HW131448   6.787   2.390   6.079
10183SOL    HW231449   6.720   2.263   6.000
10184SOL     OW31450   6.180   3.923   6.488
10184SOL    HW131451   6.242   3.863   6.538
10184SOL    HW231452   6.094   3.931   6.539
10185SOL     OW31453   3.892   5.859   2.135
10185SOL    HW131454   3.934   5.769   2.139
10185SOL    HW231455   3.872   5.891   2.228
10186SOL     OW31456   5.019   4.342   5.538
10186SOL    HW131457   4.972   4.424   5.505
10186SOL    HW231458   4.981   4.261   5.492
10187SOL     OW31459   2.530   4.184   5.589
10187SOL    HW131460   2.616   4.134   5.600
10187SOL    HW231461   2.540   4.251   5.515
10188SOL     OW31462   2.540   6.451   6.576
10188SOL    HW131463   2.542   6.551   6.580
10188SOL    HW231464   2.596   6.414   6.651
10189SOL     OW31465   1.358   1.056   6.503
10189SOL    HW131466   1.386   1.085   6.411
10189SOL    HW231467   1.411   1.106   6.571
10190SOL     OW31468   2.959   4.070   1.522
10190SOL    HW131469   2.870   4.102   1.555
10190SOL    HW231470   2.947   3.986   1.470
10191SOL     OW31471   6.085   5.361   0.117
10191SOL    HW131472   6.135   5.390   0.036
10191SOL    HW231473   6.050   5.442   0.165
10192SOL     OW31474   2.474   1.991   5.460
10192SOL    HW131475   2.376   1.979   5.472
10192SOL    HW231476   2.523   1.912   5.499
10193SOL     OW31477   4.120   3.253   2.399
10193SOL    HW131478   4.046   3.321   2.397
10193SOL    HW231479   4.208   3.299   2.393
10194SOL     OW31480   4.022   0.264   4.634
10194SOL    HW131481   4.017   0.324   4.714
10194SOL    HW231482   4.117   0.236   4.620
10195SOL     OW31483   5.572   0.200   1.903
10195SOL    HW131484   5.646   0.160   1.959
10195SOL    HW231485   5.525   0.270   1.956
10196SOL     OW31486   5.670   2.145   3.551
10196SOL    HW131487   5.744   2.102   3.499
10196SOL    HW231488   5.707   2.192   3.631
10197SOL     OW31489   6.038   0.198   3.137
10197SOL    HW131490   5.982   0.198   3.220
10197SOL    HW231491   5.980   0.178   3.058
10198SOL     OW31492   3.110   6.466   1.354
10198SOL    HW131493   3.042   6.490   1.423
10198SOL    HW231494   3.193   6.433   1.399
10199SOL     OW31495   1.351   1.970   6.705
10199SOL    HW131496   1.312   1.911   6.634
10199SOL    HW231497   1.447   1.987   6.684
10200SOL     OW31498   6.025   4.045   5.907
10200SOL    HW131499   5.964   4.116   5.942
10200SOL    HW231500   6.061   3.992   5.983
10201SOL     OW31501   0.523   5.517   2.461
10201SOL    HW131502   0.550   5.557   2.374
10201SOL    HW231503   0.541   5.581   2.535
10202SOL     OW31504   6.934   3.854   1.266
10202SOL    HW131505   6.876   3.824   1.191
10202SOL    HW231506   6.901   3.942   1.301
10203SOL     OW31507   1.906   3.175   2.399
10203SOL    HW131508   1.889   3.093   2.452
10203SOL    HW231509   1.997   3.211   2.422
10204SOL     OW31510   3.194   4.746   5.723
10204SOL    HW131511   3.146   4.744   5.635
10204SOL    HW231512   3.260   4.821   5.724
10205SOL     OW31513   5.075   1.391   3.734
10205SOL    HW131514   5.158   1.355   3.777
10205SOL    HW231515   5.100   1.443   3.653
10206SOL     OW31516   5.594   6.716   6.256
10206SOL    HW131517   5.675   6.728   6.315
10206SOL    HW231518   5.602   6.777   6.177
10207SOL     OW31519   2.067   1.318   2.186
10207SOL    HW131520   2.154   1.298   2.141
10207SOL    HW231521   2.063   1.270   2.274
10208SOL     OW31522   5.976   5.806   4.939
10208SOL    HW131523   5.939   5.716   4.918
10208SOL    HW231524   5.903   5.874   4.933
10209SOL     OW31525   0.084   1.203   6.233
10209SOL    HW131526   0.061   1.256   6.151
10209SOL    HW231527   0.165   1.148   6.216
10210SOL     OW31528   5.778   0.046   2.027
10210SOL    HW131529   5.842   0.117   2.057
10210SOL    HW231530   5.727   0.012   2.106
10211SOL     OW31531   3.917   6.275   5.254
10211SOL    HW131532   3.871   6.268   5.343
10211SOL    HW231533   4.008   6.314   5.267
10212SOL     OW31534   0.459   1.208   4.382
10212SOL    HW131535   0.510   1.240   4.303
10212SOL    HW231536   0.451   1.281   4.450
10213SOL     OW31537   5.515   1.903   2.738
10213SOL    HW131538   5.455   1.859   2.804
10213SOL    HW231539   5.575   1.834   2.697
10214SOL     OW31540   6.319   0.625   2.052
10214SOL    HW131541   6.300   0.531   2.023
10214SOL    HW231542   6.417   0.644   2.043
10215SOL     OW31543   2.830   3.548   5.889
10215SOL    HW131544   2.918   3.566   5.933
10215SOL    HW231545   2.823   3.602   5.805
10216SOL     OW31546   6.599   7.010   0.872
10216SOL    HW131547   6.614   7.026   0.774
10216SOL    HW231548   6.650   0.049   0.925
10217SOL     OW31549   2.470   1.603   4.440
10217SOL    HW131550   2.468   1.593   4.540
10217SOL    HW231551   2.386   1.567   4.401
10218SOL     OW31552   0.994   1.818   1.453
10218SOL    HW131553   0.992   1.723   1.421
10218SOL    HW231554   1.049   1.874   1.392
10219SOL     OW31555   0.452   2.065   2.223
10219SOL    HW131556   0.428   2.116   2.306
10219SOL    HW231557   0.506   1.985   2.249
10220SOL     OW31558   4.152   1.612   1.297
10220SOL    HW131559   4.113   1.574   1.380
10220SOL    HW231560   4.252   1.615   1.306
10221SOL     OW31561   2.620   1.004   5.127
10221SOL    HW131562   2.660   1.031   5.040
10221SOL    HW231563   2.635   0.907   5.142
10222SOL     OW31564   1.008   3.796   5.350
10222SOL    HW131565   0.935   3.863   5.363
10222SOL    HW231566   0.982   3.709   5.391
10223SOL     OW31567   1.191   4.828   6.837
10223SOL    HW131568   1.249   4.868   6.766
10223SOL    HW231569   1.102   4.805   6.798
10224SOL     OW31570   1.559   0.949   4.881
10224SOL    HW131571   1.626   1.022   4.892
10224SOL    HW231572   1.591   0.867   4.929
10225SOL     OW31573   0.598   6.125   4.642
10225SOL    HW131574   0.608   6.070   4.725
10225SOL    HW231575   0.627   6.072   4.563
10226SOL     OW31576   3.004   1.224   6.695
10226SOL    HW131577   3.035   1.214   6.600
10226SOL    HW231578   3.064   1.171   6.755
10227SOL     OW31579   4.732   4.453   0.560
10227SOL    HW131580   4.724   4.477   0.463
10227SOL    HW231581   4.788   4.370   0.569
10228SOL     OW31582   0.590   5.588   2.214
10228SOL    HW131583   0.570   5.665   2.152
10228SOL    HW231584   0.549   5.505   2.177
10229SOL     OW31585   0.905   0.703   3.457
10229SOL    HW131586   0.925   0.710   3.555
10229SOL    HW231587   0.897   0.607   3.431
10230SOL     OW31588   0.240   0.292   3.462
10230SOL    HW131589   0.282   0.274   3.551
10230SOL    HW231590   0.165   0.226   3.448
10231SOL     OW31591   6.732   6.804   4.964
10231SOL    HW131592   6.694   6.834   5.051
10231SOL    HW231593   6.663   6.753   4.913
10232SOL     OW31594   4.124   1.251   4.345
10232SOL    HW131595   4.077   1.195   4.414
10232SOL    HW231596   4.129   1.200   4.259
10233SOL     OW31597   4.460   2.753   5.856
10233SOL    HW131598   4.446   2.683   5.785
10233SOL    HW231599   4.405   2.833   5.834
10234SOL     OW31600   4.985   0.761   0.437
10234SOL    HW131601   4.931   0.702   0.497
10234SOL    HW231602   5.020   0.839   0.489
10235SOL     OW31603   4.546   0.884   0.503
10235SOL    HW131604   4.588   0.856   0.417
10235SOL    HW231605   4.485   0.812   0.536
10236SOL     OW31606   1.867   6.566   1.803
10236SOL    HW131607   1.940   6.544   1.738
10236SOL    HW231608   1.905   6.569   1.896
10237SOL     OW31609   6.486   4.254   1.689
10237SOL    HW131610   6.528   4.164   1.701
10237SOL    HW231611   6.498   4.284   1.594
10238SOL     OW31612   3.854   3.970   5.274
10238SOL    HW131613   3.927   3.907   5.300
10238SOL    HW231614   3.890   4.038   5.210
10239SOL     OW31615   0.849   4.283   5.642
10239SOL    HW131616   0.935   4.231   5.636
10239SOL    HW231617   0.802   4.278   5.555
10240SOL     OW31618   0.869   4.475   2.445
10240SOL    HW131619   0.883   4.522   2.532
10240SOL    HW231620   0.958   4.459   2.401
10241SOL     OW31621   0.309   1.108   1.840
10241SOL    HW131622   0.246   1.126   1.764
10241SOL    HW231623   0.310   1.010   1.859
10242SOL     OW31624   0.567   1.876   6.179
10242SOL    HW131625   0.631   1.891   6.254
10242SOL    HW231626   0.483   1.927   6.197
10243SOL     OW31627   0.123   5.264   1.510
10243SOL    HW131628   0.115   5.164   1.517
10243SOL    HW231629   0.204   5.287   1.456
10244SOL     OW31630   1.975   4.671   6.861
10244SOL    HW131631   2.003   4.601   6.927
10244SOL    HW231632   2.050   4.737   6.849
10245SOL     OW31633   2.398   3.742   6.873
10245SOL    HW131634   2.318   3.711   6.822
10245SOL    HW231635   2.478   3.741   6.813
10246SOL     OW31636   2.967   3.897   4.772
10246SOL    HW131637   2.962   3.967   4.844
10246SOL    HW231638   2.963   3.806   4.813
10247SOL     OW31639   0.534   5.300   5.387
10247SOL    HW131640   0.438   5.323   5.402
10247SOL    HW231641   0.592   5.368   5.431
10248SOL     OW31642   3.242   0.236   2.448
10248SOL    HW131643   3.242   0.260   2.351
10248SOL    HW231644   3.147   0.225   2.479
10249SOL     OW31645   3.313   0.587   5.374
10249SOL    HW131646   3.339   0.578   5.278
10249SOL    HW231647   3.253   0.511   5.399
10250SOL     OW31648   6.987   1.527   1.154
10250SOL    HW131649   0.046   1.564   1.182
10250SOL    HW231650   6.931   1.509   1.236
10251SOL     OW31651   2.383   2.829   5.830
10251SOL    HW131652   2.452   2.807   5.898
10251SOL    HW231653   2.419   2.898   5.766
10252SOL     OW31654   6.010   6.708   0.628
10252SOL    HW131655   5.955   6.781   0.669
10252SOL    HW231656   5.958   6.623   0.628
10253SOL     OW31657   4.780   5.158   0.119
10253SOL    HW131658   4.705   5.125   0.175
10253SOL    HW231659   4.829   5.230   0.168
10254SOL     OW31660   3.561   2.002   4.397
10254SOL    HW131661   3.465   2.005   4.424
10254SOL    HW231662   3.619   2.005   4.479
10255SOL     OW31663   1.917   6.189   1.767
10255SOL    HW131664   1.964   6.230   1.846
10255SOL    HW231665   1.977   6.122   1.725
10256SOL     OW31666   5.496   0.429   0.566
10256SOL    HW131667   5.478   0.331   0.564
10256SOL    HW231668   5.410   0.478   0.572
10257SOL     OW31669   0.713   4.648   5.066
10257SOL    HW131670   0.673   4.623   5.155
10257SOL    HW231671   0.705   4.570   5.004
10258SOL     OW31672   5.218   6.658   3.748
10258SOL    HW131673   5.256   6.636   3.658
10258SOL    HW231674   5.129   6.614   3.759
10259SOL     OW31675   0.994   5.235   3.652
10259SOL    HW131676   1.073   5.173   3.658
10259SOL    HW231677   0.974   5.253   3.556
10260SOL     OW31678   6.854   6.559   2.887
10260SOL    HW131679   6.910   6.584   2.966
10260SOL    HW231680   6.766   6.607   2.892
10261SOL     OW31681   0.054   6.327   2.078
10261SOL    HW131682   0.029   6.244   2.129
10261SOL    HW231683   7.016   6.399   2.097
10262SOL     OW31684   3.597   5.501   4.647
10262SOL    HW131685   3.647   5.431   4.698
10262SOL    HW231686   3.498   5.482   4.653
10263SOL     OW31687   4.756   1.731   6.812
10263SOL    HW131688   4.835   1.744   6.752
10263SOL    HW231689   4.786   1.697   6.901
10264SOL     OW31690   6.127   1.666   6.846
10264SOL    HW131691   6.211   1.715   6.821
10264SOL    HW231692   6.047   1.719   6.819
10265SOL     OW31693   3.098   1.566   2.995
10265SOL    HW131694   3.070   1.562   2.899
10265SOL    HW231695   3.068   1.653   3.035
10266SOL     OW31696   3.917   3.698   5.606
10266SOL    HW131697   3.838   3.644   5.576
10266SOL    HW231698   3.888   3.792   5.623
10267SOL     OW31699   6.583   1.876   7.025
10267SOL    HW131700   6.502   1.935   7.023
10267SOL    HW231701   6.664   1.930   7.000
10268SOL     OW31702   5.351   6.372   1.338
10268SOL    HW131703   5.266   6.330   1.370
10268SOL    HW231704   5.352   6.469   1.363
10269SOL     OW31705   2.268   1.482   5.549
10269SOL    HW131706   2.230   1.396   5.582
10269SOL    HW231707   2.337   1.464   5.479
10270SOL     OW31708   2.452   5.695   1.062
10270SOL    HW131709   2.460   5.689   1.161
10270SOL    HW231710   2.456   5.791   1.034
10271SOL     OW31711   3.047   3.601   0.210
10271SOL    HW131712   3.014   3.576   0.301
10271SOL    HW231713   3.126   3.544   0.187
10272SOL     OW31714   0.799   0.870   4.161
10272SOL    HW131715   0.811   0.919   4.247
10272SOL    HW231716   0.883   0.822   4.138
10273SOL     OW31717   4.099   5.798   4.066
10273SOL    HW131718   4.007   5.791   4.028
10273SOL    HW231719   4.107   5.738   4.145
10274SOL     OW31720   1.218   4.783   5.378
10274SOL    HW131721   1.285   4.841   5.425
10274SOL    HW231722   1.265   4.729   5.308
10275SOL     OW31723   1.140   0.171   2.791
10275SOL    HW131724   1.091   0.089   2.820
10275SOL    HW231725   1.231   0.173   2.833
10276SOL     OW31726   6.886   5.396   5.844
10276SOL    HW131727   6.824   5.460   5.800
10276SOL    HW231728   6.861   5.384   5.940
10277SOL     OW31729   3.058   6.206   4.065
10277SOL    HW131730   3.035   6.303   4.058
10277SOL    HW231731   3.110   6.190   4.148
10278SOL     OW31732   6.593   1.430   5.681
10278SOL    HW131733   6.650   1.352   5.653
10278SOL    HW231734   6.523   1.399   5.745
10279SOL     OW31735   3.573   0.474   4.088
10279SOL    HW131736   3.611   0.389   4.124
10279SOL    HW231737   3.500   0.453   4.022
10280SOL     OW31738   2.044   4.656   1.303
10280SOL    HW131739   2.110   4.679   1.231
10280SOL    HW231740   1.998   4.739   1.334
10281SOL     OW31741   5.117   2.104   2.545
10281SOL    HW131742   5.095   2.106   2.642
10281SOL    HW231743   5.216   2.093   2.533
10282SOL     OW31744   6.724   3.249   3.949
10282SOL    HW131745   6.720   3.342   3.912
10282SOL    HW231746   6.809   3.237   4.000
10283SOL     OW31747   1.177   3.155   1.214
10283SOL    HW131748   1.227   3.104   1.285
10283SOL    HW231749   1.140   3.090   1.147
10284SOL     OW31750   5.824   4.241   5.224
10284SOL    HW131751   5.791   4.316   5.168
10284SOL    HW231752   5.875   4.277   5.302
10285SOL     OW31753   4.542   0.292   1.364
10285SOL    HW131754   4.492   0.356   1.307
10285SOL    HW231755   4.546   0.326   1.458
10286SOL     OW31756   3.505   1.753   2.702
10286SOL    HW131757   3.422   1.775   2.754
10286SOL    HW231758   3.481   1.744   2.605
10287SOL     OW31759   2.081   0.013   1.751
10287SOL    HW131760   2.085   0.055   1.661
10287SOL    HW231761   2.151   6.970   1.757
10288SOL     OW31762   5.509   6.001   2.307
10288SOL    HW131763   5.510   6.040   2.215
10288SOL    HW231764   5.536   5.905   2.303
10289SOL     OW31765   3.526   1.183   1.465
10289SOL    HW131766   3.553   1.225   1.379
10289SOL    HW231767   3.431   1.151   1.458
10290SOL     OW31768   3.581   4.037   2.753
10290SOL    HW131769   3.673   4.043   2.792
10290SOL    HW231770   3.578   3.962   2.687
10291SOL     OW31771   4.243   0.584   3.934
10291SOL    HW131772   4.163   0.641   3.954
10291SOL    HW231773   4.213   0.493   3.907
10292SOL     OW31774   0.570   1.902   4.637
10292SOL    HW131775   0.624   1.977   4.675
10292SOL    HW231776   0.530   1.849   4.712
10293SOL     OW31777   1.495   6.734   3.151
10293SOL    HW131778   1.409   6.701   3.188
10293SOL    HW231779   1.517   6.683   3.067
10294SOL     OW31780   4.874   3.325   3.181
10294SOL    HW131781   4.853   3.238   3.226
10294SOL    HW231782   4.906   3.391   3.249
10295SOL     OW31783   5.720   4.811   5.673
10295SOL    HW131784   5.769   4.803   5.585
10295SOL    HW231785   5.705   4.719   5.710
10296SOL     OW31786   5.831   4.534   6.084
10296SOL    HW131787   5.879   4.575   6.006
10296SOL    HW231788   5.797   4.607   6.144
10297SOL     OW31789   2.520   6.637   4.462
10297SOL    HW131790   2.456   6.579   4.412
10297SOL    HW231791   2.536   6.721   4.411
10298SOL     OW31792   4.609   4.540   3.202
10298SOL    HW131793   4.698   4.513   3.241
10298SOL    HW231794   4.607   4.639   3.191
10299SOL     OW31795   4.317   4.618   3.155
10299SOL    HW131796   4.315   4.618   3.255
10299SOL    HW231797   4.401   4.575   3.123
10300SOL     OW31798   1.806   4.063   1.972
10300SOL    HW131799   1.877   4.128   2.002
10300SOL    HW231800   1.843   3.971   1.972
10301SOL     OW31801   5.532   1.739   3.199
10301SOL    HW131802   5.470   1.668   3.232
10301SOL    HW231803   5.508   1.826   3.240
10302SOL     OW31804   1.340   6.389   2.216
10302SOL    HW131805   1.349   6.486   2.238
10302SOL    HW231806   1.325   6.336   2.299
10303SOL     OW31807   3.804   3.709   1.357
10303SOL    HW131808   3.888   3.667   1.391
10303SOL    HW231809   3.742   3.724   1.433
10304SOL     OW31810   5.760   0.448   4.037
10304SOL    HW131811   5.801   0.369   4.082
10304SOL    HW231812   5.830   0.518   4.021
10305SOL     OW31813   1.272   6.135   0.037
10305SOL    HW131814   1.366   6.105   0.052
10305SOL    HW231815   1.270   6.211   7.002
10306SOL     OW31816   4.384   5.074   0.006
10306SOL    HW131817   4.373   5.091   6.937
10306SOL    HW231818   4.293   5.068   0.048
10307SOL     OW31819   1.689   1.237   4.860
10307SOL    HW131820   1.592   1.261   4.867
10307SOL    HW231821   1.734   1.299   4.796
10308SOL     OW31822   3.447   5.003   3.826
10308SOL    HW131823   3.472   5.100   3.834
10308SOL    HW231824   3.443   4.978   3.729
10309SOL     OW31825   6.269   6.631   3.316
10309SOL    HW131826   6.356   6.635   3.266
10309SOL    HW231827   6.230   6.723   3.323
10310SOL     OW31828   3.008   3.590   2.029
10310SOL    HW131829   3.091   3.583   1.973
10310SOL    HW231830   2.946   3.657   1.988
10311SOL     OW31831   0.801   5.616   0.951
10311SOL    HW131832   0.889   5.626   0.998
10311SOL    HW231833   0.731   5.587   1.016
10312SOL     OW31834   3.419   4.875   0.763
10312SOL    HW131835   3.428   4.920   0.852
10312SOL    HW231836   3.325   4.844   0.749
10313SOL     OW31837   4.263   7.003   2.420
10313SOL    HW131838   4.272   6.910   2.457
10313SOL    HW231839   4.170   7.016   2.388
10314SOL     OW31840   6.201   0.403   0.638
10314SOL    HW131841   6.295   0.436   0.635
10314SOL    HW231842   6.156   0.438   0.720
10315SOL     OW31843   5.782   6.286   5.427
10315SOL    HW131844   5.717   6.322   5.361
10315SOL    HW231845   5.732   6.255   5.509
10316SOL     OW31846   0.328   3.317   5.114
10316SOL    HW131847   0.384   3.286   5.037
10316SOL    HW231848   0.369   3.399   5.153
10317SOL     OW31849   3.799   4.969   6.453
10317SOL    HW131850   3.854   4.964   6.370
10317SOL    HW231851   3.845   5.028   6.520
10318SOL     OW31852   6.148   5.401   1.582
10318SOL    HW131853   6.126   5.470   1.650
10318SOL    HW231854   6.182   5.319   1.627
10319SOL     OW31855   0.197   4.637   4.414
10319SOL    HW131856   0.151   4.652   4.326
10319SOL    HW231857   0.263   4.562   4.404
10320SOL     OW31858   1.010   0.279   1.100
10320SOL    HW131859   1.011   0.181   1.078
10320SOL    HW231860   1.103   0.315   1.095
10321SOL     OW31861   3.862   6.020   5.093
10321SOL    HW131862   3.884   6.108   5.134
10321SOL    HW231863   3.765   6.000   5.105
10322SOL     OW31864   6.383   6.134   0.407
10322SOL    HW131865   6.443   6.176   0.474
10322SOL    HW231866   6.418   6.044   0.381
10323SOL     OW31867   6.728   3.437   6.476
10323SOL    HW131868   6.645   3.391   6.508
10323SOL    HW231869   6.705   3.528   6.443
10324SOL     OW31870   3.577   3.128   3.192
10324SOL    HW131871   3.676   3.137   3.191
10324SOL    HW231872   3.552   3.041   3.234
10325SOL     OW31873   6.993   4.492   3.602
10325SOL    HW131874   6.914   4.462   3.549
10325SOL    HW231875   6.988   4.454   3.694
10326SOL     OW31876   5.159   2.332   0.525
10326SOL    HW131877   5.074   2.346   0.474
10326SOL    HW231878   5.159   2.240   0.565
10327SOL     OW31879   1.957   1.361   3.097
10327SOL    HW131880   1.961   1.338   3.000
10327SOL    HW231881   1.974   1.459   3.109
10328SOL     OW31882   5.701   3.415   2.548
10328SOL    HW131883   5.630   3.399   2.616
10328SOL    HW231884   5.711   3.514   2.533
10329SOL     OW31885   3.078   0.293   3.634
10329SOL    HW131886   3.122   0.380   3.658
10329SOL    HW231887   2.987   0.312   3.595
10330SOL     OW31888   3.643   5.215   3.021
10330SOL    HW131889   3.550   5.213   2.985
10330SOL    HW231890   3.641   5.240   3.117
10331SOL     OW31891   5.721   0.618   3.462
10331SOL    HW131892   5.781   0.594   3.538
10331SOL    HW231893   5.720   0.717   3.451
10332SOL     OW31894   6.813   1.922   0.575
10332SOL    HW131895   6.782   1.890   0.664
10332SOL    HW231896   6.852   1.846   0.524
10333SOL     OW31897   5.656   5.101   3.911
10333SOL    HW131898   5.635   5.195   3.938
10333SOL    HW231899   5.582   5.064   3.855
10334SOL     OW31900   1.872   4.790   3.817
10334SOL    HW131901   1.931   4.867   3.794
10334SOL    HW231902   1.875   4.723   3.743
10335SOL     OW31903   2.200   5.184   6.455
10335SOL    HW131904   2.154   5.108   6.503
10335SOL    HW231905   2.133   5.256   6.436
10336SOL     OW31906   4.347   0.215   2.074
10336SOL    HW131907   4.322   0.264   2.157
10336SOL    HW231908   4.384   0.125   2.098
10337SOL     OW31909   0.029   5.024   4.998
10337SOL    HW131910   0.051   5.008   5.094
10337SOL    HW231911   0.113   5.025   4.944
10338SOL     OW31912   3.841   6.885   1.172
10338SOL    HW131913   3.933   6.880   1.133
10338SOL    HW231914   3.775   6.847   1.107
10339SOL     OW31915   3.547   5.658   0.779
10339SOL    HW131916   3.488   5.660   0.859
10339SOL    HW231917   3.635   5.700   0.801
10340SOL     OW31918   2.439   5.263   6.609
10340SOL    HW131919   2.520   5.242   6.554
10340SOL    HW231920   2.358   5.223   6.567
10341SOL     OW31921   2.404   2.444   2.294
10341SOL    HW131922   2.439   2.473   2.384
10341SOL    HW231923   2.481   2.420   2.235
10342SOL     OW31924   2.344   6.408   6.112
10342SOL    HW131925   2.259   6.381   6.158
10342SOL    HW231926   2.327   6.488   6.055
10343SOL     OW31927   2.192   4.151   6.438
10343SOL    HW131928   2.176   4.063   6.482
10343SOL    HW231929   2.283   4.185   6.464
10344SOL     OW31930   4.124   3.651   4.542
10344SOL    HW131931   4.189   3.725   4.558
10344SOL    HW231932   4.099   3.608   4.629
10345SOL     OW31933   2.695   1.412   0.252
10345SOL    HW131934   2.697   1.331   0.193
10345SOL    HW231935   2.684   1.384   0.347
10346SOL     OW31936   5.475   6.790   6.803
10346SOL    HW131937   5.481   6.887   6.826
10346SOL    HW231938   5.513   6.774   6.712
10347SOL     OW31939   5.329   1.705   1.024
10347SOL    HW131940   5.349   1.647   1.103
10347SOL    HW231941   5.415   1.726   0.976
10348SOL     OW31942   6.286   1.385   6.214
10348SOL    HW131943   6.327   1.301   6.248
10348SOL    HW231944   6.188   1.371   6.200
10349SOL     OW31945   5.923   0.895   0.959
10349SOL    HW131946   5.908   0.796   0.968
10349SOL    HW231947   5.880   0.943   1.035
10350SOL     OW31948   3.651   5.886   4.142
10350SOL    HW131949   3.700   5.804   4.110
10350SOL    HW231950   3.658   5.891   4.242
10351SOL     OW31951   6.023   5.340   5.039
10351SOL    HW131952   5.976   5.261   5.080
10351SOL    HW231953   6.086   5.379   5.106
10352SOL     OW31954   5.595   2.033   0.011
10352SOL    HW131955   5.527   1.988   6.983
10352SOL    HW231956   5.558   2.046   0.103
10353SOL     OW31957   7.018   3.373   3.405
10353SOL    HW131958   7.021   3.273   3.399
10353SOL    HW231959   6.957   3.399   3.480
10354SOL     OW31960   0.479   3.937   0.678
10354SOL    HW131961   0.451   3.874   0.750
10354SOL    HW231962   0.552   3.896   0.623
10355SOL     OW31963   1.101   1.679   1.185
10355SOL    HW131964   1.098   1.621   1.104
10355SOL    HW231965   1.196   1.694   1.212
10356SOL     OW31966   0.431   3.047   6.467
10356SOL    HW131967   0.392   3.137   6.450
10356SOL    HW231968   0.418   3.023   6.563
10357SOL     OW31969   1.614   2.298   6.534
10357SOL    HW131970   1.565   2.308   6.448
10357SOL    HW231971   1.701   2.346   6.529
10358SOL     OW31972   1.514   2.614   2.651
10358SOL    HW131973   1.473   2.671   2.579
10358SOL    HW231974   1.471   2.636   2.739
10359SOL     OW31975   4.998   2.437   2.939
10359SOL    HW131976   5.037   2.428   3.030
10359SOL    HW231977   5.001   2.349   2.892
10360SOL     OW31978   5.392   5.305   3.074
10360SOL    HW131979   5.446   5.317   3.157
10360SOL    HW231980   5.295   5.300   3.099
10361SOL     OW31981   1.988   1.520   1.602
10361SOL    HW131982   1.914   1.554   1.661
10361SOL    HW231983   2.076   1.538   1.647
10362SOL     OW31984   0.321   5.527   1.955
10362SOL    HW131985   0.411   5.493   1.984
10362SOL    HW231986   0.307   5.619   1.990
10363SOL     OW31987   4.623   3.576   0.737
10363SOL    HW131988   4.675   3.646   0.785
10363SOL    HW231989   4.637   3.487   0.781
10364SOL     OW31990   5.402   5.005   1.034
10364SOL    HW131991   5.383   5.103   1.025
10364SOL    HW231992   5.316   4.954   1.034
10365SOL     OW31993   5.681   5.041   0.034
10365SOL    HW131994   5.713   4.947   0.037
10365SOL    HW231995   5.675   5.072   6.969
10366SOL     OW31996   4.368   6.353   3.064
10366SOL    HW131997   4.307   6.316   3.134
10366SOL    HW231998   4.459   6.368   3.104
10367SOL     OW31999   6.760   1.904   1.711
10367SOL    HW132000   6.801   1.905   1.620
10367SOL    HW232001   6.677   1.960   1.710
10368SOL     OW32002   3.017   0.671   2.584
10368SOL    HW132003   3.045   0.734   2.656
10368SOL    HW232004   2.992   0.583   2.625
10369SOL     OW32005   2.941   6.049   5.608
10369SOL    HW132006   2.879   5.998   5.667
10369SOL    HW232007   2.943   6.008   5.517
10370SOL     OW32008   6.201   1.222   4.259
10370SOL    HW132009   6.218   1.256   4.167
10370SOL    HW232010   6.152   1.291   4.312
10371SOL     OW32011   3.645   6.711   3.130
10371SOL    HW132012   3.720   6.665   3.083
10371SOL    HW232013   3.562   6.704   3.075
10372SOL     OW32014   3.094   0.486   1.648
10372SOL    HW132015   3.161   0.440   1.590
10372SOL    HW232016   3.006   0.488   1.602
10373SOL     OW32017   0.519   0.026   4.912
10373SOL    HW132018   0.422   0.019   4.890
10373SOL    HW232019   0.561   6.965   4.908
10374SOL     OW32020   2.829   6.383   4.377
10374SOL    HW132021   2.801   6.399   4.472
10374SOL    HW232022   2.750   6.353   4.324
10375SOL     OW32023   2.915   2.863   6.131
10375SOL    HW132024   2.969   2.824   6.206
10375SOL    HW232025   2.891   2.957   6.153
10376SOL     OW32026   1.172   6.224   3.384
10376SOL    HW132027   1.158   6.293   3.314
10376SOL    HW232028   1.262   6.181   3.371
10377SOL     OW32029   0.141   1.682   1.729
10377SOL    HW132030   0.076   1.618   1.768
10377SOL    HW232031   0.200   1.719   1.801
10378SOL     OW32032   0.188   5.731   5.498
10378SOL    HW132033   0.261   5.701   5.560
10378SOL    HW232034   0.166   5.827   5.517
10379SOL     OW32035   2.478   6.246   4.489
10379SOL    HW132036   2.510   6.267   4.396
10379SOL    HW232037   2.438   6.329   4.529
10380SOL     OW32038   1.295   1.955   4.711
10380SOL    HW132039   1.262   1.885   4.774
10380SOL    HW232040   1.273   2.046   4.748
10381SOL     OW32041   3.910   4.325   1.410
10381SOL    HW132042   3.920   4.330   1.509
10381SOL    HW232043   3.988   4.274   1.371
10382SOL     OW32044   2.557   5.923   2.266
10382SOL    HW132045   2.516   6.002   2.311
10382SOL    HW232046   2.560   5.938   2.167
10383SOL     OW32047   2.073   4.472   0.026
10383SOL    HW132048   2.019   4.392   0.002
10383SOL    HW232049   2.170   4.452   0.010
10384SOL     OW32050   6.354   6.339   1.331
10384SOL    HW132051   6.437   6.393   1.337
10384SOL    HW232052   6.347   6.299   1.239
10385SOL     OW32053   3.712   5.354   5.903
10385SOL    HW132054   3.665   5.276   5.944
10385SOL    HW232055   3.667   5.378   5.816
10386SOL     OW32056   0.057   1.349   6.001
10386SOL    HW132057   0.087   1.442   5.978
10386SOL    HW232058   6.988   1.341   5.985
10387SOL     OW32059   5.366   3.068   3.613
10387SOL    HW132060   5.283   3.053   3.559
10387SOL    HW232061   5.440   3.097   3.553
10388SOL     OW32062   2.726   0.315   6.750
10388SOL    HW132063   2.713   0.280   6.658
10388SOL    HW232064   2.824   0.317   6.771
10389SOL     OW32065   6.551   3.874   0.261
10389SOL    HW132066   6.605   3.869   0.178
10389SOL    HW232067   6.554   3.785   0.308
10390SOL     OW32068   1.708   2.796   0.797
10390SOL    HW132069   1.759   2.797   0.711
10390SOL    HW232070   1.735   2.716   0.851
10391SOL     OW32071   1.543   6.375   3.522
10391SOL    HW132072   1.496   6.310   3.461
10391SOL    HW232073   1.631   6.337   3.549
10392SOL     OW32074   5.747   5.516   5.252
10392SOL    HW132075   5.682   5.535   5.325
10392SOL    HW232076   5.736   5.422   5.220
10393SOL     OW32077   1.851   3.635   3.658
10393SOL    HW132078   1.945   3.660   3.632
10393SOL    HW232079   1.809   3.582   3.584
10394SOL     OW32080   2.481   5.534   4.154
10394SOL    HW132081   2.576   5.561   4.171
10394SOL    HW232082   2.444   5.488   4.235
10395SOL     OW32083   0.360   6.406   1.670
10395SOL    HW132084   0.278   6.410   1.614
10395SOL    HW232085   0.420   6.482   1.647
10396SOL     OW32086   4.155   1.700   4.185
10396SOL    HW132087   4.135   1.759   4.107
10396SOL    HW232088   4.070   1.680   4.235
10397SOL     OW32089   3.098   2.149   3.110
10397SOL    HW132090   3.009   2.117   3.141
10397SOL    HW232091   3.160   2.158   3.188
10398SOL     OW32092   6.037   2.540   0.894
10398SOL    HW132093   6.009   2.627   0.934
10398SOL    HW232094   5.996   2.530   0.803
10399SOL     OW32095   5.115   2.137   3.721
10399SOL    HW132096   5.062   2.054   3.704
10399SOL    HW232097   5.199   2.135   3.666
10400SOL     OW32098   4.262   6.639   0.280
10400SOL    HW132099   4.344   6.595   0.318
10400SOL    HW232100   4.211   6.683   0.354
10401SOL     OW32101   6.851   0.358   3.356
10401SOL    HW132102   6.799   0.427   3.306
10401SOL    HW232103   6.811   0.345   3.447
10402SOL     OW32104   6.174   3.402   5.491
10402SOL    HW132105   6.156   3.386   5.588
10402SOL    HW232106   6.092   3.380   5.438
10403SOL     OW32107   4.797   1.036   3.691
10403SOL    HW132108   4.768   1.116   3.743
10403SOL    HW232109   4.740   0.958   3.715
10404SOL     OW32110   6.176   6.676   5.330
10404SOL    HW132111   6.189   6.603   5.397
10404SOL    HW232112   6.132   6.638   5.248
10405SOL     OW32113   0.550   0.865   5.337
10405SOL    HW132114   0.586   0.910   5.418
10405SOL    HW232115   0.602   0.894   5.256
10406SOL     OW32116   2.954   4.952   3.056
10406SOL    HW132117   3.022   4.980   3.124
10406SOL    HW232118   2.917   5.033   3.010
10407SOL     OW32119   2.954   6.932   5.861
10407SOL    HW132120   2.993   6.939   5.952
10407SOL    HW232121   2.854   6.935   5.867
10408SOL     OW32122   4.623   0.127   1.148
10408SOL    HW132123   4.713   0.088   1.129
10408SOL    HW232124   4.617   0.151   1.245
10409SOL     OW32125   0.156   4.520   1.028
10409SOL    HW132126   0.251   4.489   1.019
10409SOL    HW232127   0.110   4.509   0.940
10410SOL     OW32128   5.412   2.030   0.828
10410SOL    HW132129   5.330   2.029   0.770
10410SOL    HW232130   5.388   2.062   0.919
10411SOL     OW32131   3.589   6.709   3.830
10411SOL    HW132132   3.558   6.749   3.743
10411SOL    HW232133   3.581   6.778   3.902
10412SOL     OW32134   0.256   1.055   0.386
10412SOL    HW132135   0.221   0.961   0.384
10412SOL    HW232136   0.292   1.079   0.296
10413SOL     OW32137   6.370   3.077   0.844
10413SOL    HW132138   6.396   3.011   0.773
10413SOL    HW232139   6.288   3.045   0.892
10414SOL     OW32140   4.279   4.565   5.632
10414SOL    HW132141   4.185   4.586   5.659
10414SOL    HW232142   4.280   4.537   5.536
10415SOL     OW32143   1.424   3.515   4.612
10415SOL    HW132144   1.469   3.427   4.598
10415SOL    HW232145   1.442   3.547   4.705
10416SOL     OW32146   6.236   0.308   4.762
10416SOL    HW132147   6.138   0.304   4.782
10416SOL    HW232148   6.286   0.329   4.846
10417SOL     OW32149   3.065   5.344   4.338
10417SOL    HW132150   3.008   5.370   4.261
10417SOL    HW232151   3.008   5.333   4.420
10418SOL     OW32152   7.022   4.665   6.664
10418SOL    HW132153   0.079   4.697   6.625
10418SOL    HW232154   0.006   4.574   6.704
10419SOL     OW32155   1.716   6.920   6.320
10419SOL    HW132156   1.634   6.971   6.296
10419SOL    HW232157   1.767   6.970   6.391
10420SOL     OW32158   6.314   3.965   2.887
10420SOL    HW132159   6.306   3.934   2.982
10420SOL    HW232160   6.375   4.045   2.884
10421SOL     OW32161   0.222   1.708   3.328
10421SOL    HW132162   0.305   1.681   3.280
10421SOL    HW232163   0.145   1.653   3.296
10422SOL     OW32164   6.607   3.355   5.230
10422SOL    HW132165   6.601   3.300   5.313
10422SOL    HW232166   6.634   3.296   5.153
10423SOL     OW32167   6.168   5.597   4.776
10423SOL    HW132168   6.091   5.550   4.819
10423SOL    HW232169   6.216   5.653   4.845
10424SOL     OW32170   5.527   2.546   0.734
10424SOL    HW132171   5.519   2.627   0.791
10424SOL    HW232172   5.623   2.519   0.726
10425SOL     OW32173   0.889   0.195   1.722
10425SOL    HW132174   0.790   0.207   1.725
10425SOL    HW232175   0.929   0.220   1.810
10426SOL     OW32176   6.746   4.815   0.429
10426SOL    HW132177   6.744   4.915   0.423
10426SOL    HW232178   6.662   4.777   0.392
10427SOL     OW32179   3.673   0.311   6.476
10427SOL    HW132180   3.613   0.299   6.556
10427SOL    HW232181   3.768   0.316   6.506
10428SOL     OW32182   2.936   1.285   4.279
10428SOL    HW132183   2.855   1.291   4.337
10428SOL    HW232184   2.909   1.290   4.183
10429SOL     OW32185   0.240   5.013   0.798
10429SOL    HW132186   0.228   4.939   0.864
10429SOL    HW232187   0.260   5.098   0.847
10430SOL     OW32188   4.851   6.331   3.886
10430SOL    HW132189   4.837   6.233   3.878
10430SOL    HW232190   4.926   6.349   3.950
10431SOL     OW32191   3.173   5.840   4.049
10431SOL    HW132192   3.256   5.805   4.092
10431SOL    HW232193   3.114   5.880   4.119
10432SOL     OW32194   6.294   6.749   4.838
10432SOL    HW132195   6.260   6.838   4.869
10432SOL    HW232196   6.221   6.700   4.791
10433SOL     OW32197   2.203   6.038   1.449
10433SOL    HW132198   2.299   6.020   1.471
10433SOL    HW232199   2.153   5.952   1.439
10434SOL     OW32200   3.916   6.805   3.527
10434SOL    HW132201   3.989   6.853   3.480
10434SOL    HW232202   3.847   6.870   3.559
10435SOL     OW32203   0.456   0.248   4.619
10435SOL    HW132204   0.430   0.152   4.631
10435SOL    HW232205   0.417   0.303   4.693
10436SOL     OW32206   0.899   5.274   5.894
10436SOL    HW132207   0.883   5.176   5.907
10436SOL    HW232208   0.814   5.317   5.862
10437SOL     OW32209   6.504   5.525   6.100
10437SOL    HW132210   6.479   5.462   6.173
10437SOL    HW232211   6.498   5.478   6.012
10438SOL     OW32212   5.864   6.450   0.632
10438SOL    HW132213   5.792   6.391   0.594
10438SOL    HW232214   5.940   6.394   0.664
10439SOL     OW32215   4.107   1.529   6.575
10439SOL    HW132216   4.115   1.441   6.528
10439SOL    HW232217   4.185   1.542   6.636
10440SOL     OW32218   1.001   6.362   0.343
10440SOL    HW132219   0.911   6.357   0.302
10440SOL    HW232220   1.071   6.346   0.273
10441SOL     OW32221   3.962   0.428   0.126
10441SOL    HW132222   3.955   0.371   0.044
10441SOL    HW232223   3.891   0.400   0.192
10442SOL     OW32224   3.492   6.272   5.898
10442SOL    HW132225   3.571   6.330   5.917
10442SOL    HW232226   3.410   6.329   5.886
10443SOL     OW32227   5.000   3.923   4.977
10443SOL    HW132228   4.987   3.855   5.049
10443SOL    HW232229   4.955   4.008   5.002
10444SOL     OW32230   3.951   6.578   4.470
10444SOL    HW132231   3.911   6.565   4.379
10444SOL    HW232232   4.048   6.596   4.461
10445SOL     OW32233   1.060   5.648   4.371
10445SOL    HW132234   0.974   5.613   4.408
10445SOL    HW232235   1.057   5.643   4.271
10446SOL     OW32236   0.815   2.874   5.584
10446SOL    HW132237   0.820   2.871   5.484
10446SOL    HW232238   0.843   2.785   5.621
10447SOL     OW32239   0.373   0.909   2.163
10447SOL    HW132240   0.345   0.998   2.200
10447SOL    HW232241   0.367   0.840   2.235
10448SOL     OW32242   3.645   1.581   1.447
10448SOL    HW132243   3.597   1.594   1.534
10448SOL    HW232244   3.738   1.619   1.455
10449SOL     OW32245   2.229   5.264   4.566
10449SOL    HW132246   2.145   5.221   4.598
10449SOL    HW232247   2.291   5.277   4.642
10450SOL     OW32248   0.822   2.380   0.339
10450SOL    HW132249   0.839   2.397   0.242
10450SOL    HW232250   0.733   2.418   0.364
10451SOL     OW32251   1.952   5.378   2.623
10451SOL    HW132252   1.972   5.282   2.645
10451SOL    HW232253   1.991   5.437   2.693
10452SOL     OW32254   5.692   3.506   3.351
10452SOL    HW132255   5.645   3.590   3.322
10452SOL    HW232256   5.679   3.493   3.449
10453SOL     OW32257   4.854   5.784   1.762
10453SOL    HW132258   4.802   5.869   1.766
10453SOL    HW232259   4.803   5.717   1.708
10454SOL     OW32260   4.521   2.715   1.237
10454SOL    HW132261   4.528   2.794   1.299
10454SOL    HW232262   4.433   2.669   1.252
10455SOL     OW32263   6.685   5.787   2.106
10455SOL    HW132264   6.591   5.755   2.111
10455SOL    HW232265   6.705   5.816   2.012
10456SOL     OW32266   3.394   6.161   1.123
10456SOL    HW132267   3.399   6.226   1.047
10456SOL    HW232268   3.306   6.114   1.122
10457SOL     OW32269   3.321   2.903   2.746
10457SOL    HW132270   3.364   2.881   2.659
10457SOL    HW232271   3.228   2.936   2.730
10458SOL     OW32272   0.047   0.993   6.598
10458SOL    HW132273   0.020   0.980   6.693
10458SOL    HW232274   0.068   0.905   6.557
10459SOL     OW32275   5.359   4.934   2.837
10459SOL    HW132276   5.269   4.907   2.804
10459SOL    HW232277   5.409   4.853   2.869
10460SOL     OW32278   1.593   5.367   1.421
10460SOL    HW132279   1.519   5.424   1.385
10460SOL    HW232280   1.632   5.409   1.503
10461SOL     OW32281   1.255   5.802   4.985
10461SOL    HW132282   1.201   5.797   4.901
10461SOL    HW232283   1.200   5.841   5.058
10462SOL     OW32284   5.332   1.940   2.961
10462SOL    HW132285   5.338   1.907   3.055
10462SOL    HW232286   5.356   2.037   2.958
10463SOL     OW32287   4.045   2.819   5.574
10463SOL    HW132288   3.993   2.733   5.576
10463SOL    HW232289   4.122   2.809   5.510
10464SOL     OW32290   5.674   6.590   0.795
10464SOL    HW132291   5.730   6.596   0.878
10464SOL    HW232292   5.727   6.546   0.722
10465SOL     OW32293   5.828   6.892   0.696
10465SOL    HW132294   5.755   6.881   0.628
10465SOL    HW232295   5.826   6.985   0.732
10466SOL     OW32296   4.604   5.071   5.088
10466SOL    HW132297   4.541   5.143   5.118
10466SOL    HW232298   4.552   4.989   5.065
10467SOL     OW32299   0.675   1.819   5.176
10467SOL    HW132300   0.577   1.823   5.196
10467SOL    HW232301   0.715   1.910   5.188
10468SOL     OW32302   3.673   4.945   3.078
10468SOL    HW132303   3.582   4.927   3.114
10468SOL    HW232304   3.682   5.043   3.058
10469SOL     OW32305   3.517   2.531   6.729
10469SOL    HW132306   3.479   2.608   6.781
10469SOL    HW232307   3.444   2.464   6.710
10470SOL     OW32308   2.558   1.963   3.204
10470SOL    HW132309   2.540   2.061   3.196
10470SOL    HW232310   2.549   1.935   3.300
10471SOL     OW32311   2.149   3.260   0.935
10471SOL    HW132312   2.204   3.343   0.925
10471SOL    HW232313   2.077   3.276   1.003
10472SOL     OW32314   3.398   5.871   0.649
10472SOL    HW132315   3.442   5.785   0.675
10472SOL    HW232316   3.461   5.927   0.596
10473SOL     OW32317   5.672   0.213   0.232
10473SOL    HW132318   5.658   0.151   0.309
10473SOL    HW232319   5.649   0.306   0.260
10474SOL     OW32320   4.587   0.997   4.787
10474SOL    HW132321   4.578   0.908   4.831
10474SOL    HW232322   4.681   1.030   4.799
10475SOL     OW32323   4.548   6.177   2.070
10475SOL    HW132324   4.519   6.106   2.006
10475SOL    HW232325   4.594   6.250   2.020
10476SOL     OW32326   0.102   5.337   6.283
10476SOL    HW132327   0.011   5.297   6.296
10476SOL    HW232328   0.157   5.275   6.227
10477SOL     OW32329   6.102   2.389   4.891
10477SOL    HW132330   6.166   2.327   4.847
10477SOL    HW232331   6.035   2.337   4.943
10478SOL     OW32332   0.259   0.276   0.713
10478SOL    HW132333   0.307   0.204   0.664
10478SOL    HW232334   0.182   0.237   0.764
10479SOL     OW32335   0.278   2.679   2.013
10479SOL    HW132336   0.377   2.694   2.009
10479SOL    HW232337   0.255   2.599   1.958
10480SOL     OW32338   5.861   0.235   1.155
10480SOL    HW132339   5.909   0.284   1.228
10480SOL    HW232340   5.866   0.137   1.172
10481SOL     OW32341   2.546   0.879   5.617
10481SOL    HW132342   2.551   0.938   5.537
10481SOL    HW232343   2.462   0.825   5.613
10482SOL     OW32344   0.615   6.019   4.382
10482SOL    HW132345   0.558   5.943   4.352
10482SOL    HW232346   0.564   6.105   4.370
10483SOL     OW32347   6.930   5.132   0.469
10483SOL    HW132348   6.896   5.169   0.383
10483SOL    HW232349   6.955   5.207   0.530
10484SOL     OW32350   6.915   0.458   0.974
10484SOL    HW132351   6.971   0.540   0.989
10484SOL    HW232352   6.947   0.385   1.034
10485SOL     OW32353   3.404   2.935   2.476
10485SOL    HW132354   3.407   3.032   2.452
10485SOL    HW232355   3.490   2.891   2.449
10486SOL     OW32356   6.111   1.125   6.091
10486SOL    HW132357   6.115   1.079   6.180
10486SOL    HW232358   6.017   1.153   6.072
10487SOL     OW32359   4.383   2.100   1.369
10487SOL    HW132360   4.410   2.004   1.376
10487SOL    HW232361   4.437   2.155   1.433
10488SOL     OW32362   1.805   2.320   5.871
10488SOL    HW132363   1.776   2.333   5.776
10488SOL    HW232364   1.779   2.399   5.925
10489SOL     OW32365   5.731   6.032   4.114
10489SOL    HW132366   5.646   6.071   4.149
10489SOL    HW232367   5.711   5.972   4.037
10490SOL     OW32368   5.938   1.129   0.759
10490SOL    HW132369   5.913   1.184   0.839
10490SOL    HW232370   5.958   1.036   0.788
10491SOL     OW32371   2.345   3.070   6.214
10491SOL    HW132372   2.398   2.986   6.200
10491SOL    HW232373   2.349   3.096   6.310
10492SOL     OW32374   3.897   5.816   0.671
10492SOL    HW132375   3.859   5.808   0.578
10492SOL    HW232376   3.994   5.839   0.665
10493SOL     OW32377   3.211   5.488   1.191
10493SOL    HW132378   3.216   5.585   1.215
10493SOL    HW232379   3.116   5.458   1.190
10494SOL     OW32380   0.028   4.383   5.565
10494SOL    HW132381   0.030   4.318   5.641
10494SOL    HW232382   7.026   4.472   5.598
10495SOL     OW32383   6.265   6.584   0.357
10495SOL    HW132384   6.200   6.653   0.389
10495SOL    HW232385   6.297   6.608   0.265
10496SOL     OW32386   6.295   4.581   5.000
10496SOL    HW132387   6.325   4.497   5.046
10496SOL    HW232388   6.196   4.589   5.005
10497SOL     OW32389   1.201   0.092   1.741
10497SOL    HW132390   1.182   0.119   1.646
10497SOL    HW232391   1.162   0.002   1.758
10498SOL     OW32392   5.485   5.959   0.989
10498SOL    HW132393   5.477   5.954   1.088
10498SOL    HW232394   5.397   5.933   0.947
10499SOL     OW32395   4.920   6.042   0.811
10499SOL    HW132396   4.972   6.127   0.821
10499SOL    HW232397   4.823   6.064   0.802
10500SOL     OW32398   5.437   2.659   5.528
10500SOL    HW132399   5.533   2.685   5.519
10500SOL    HW232400   5.380   2.725   5.478
10501SOL     OW32401   2.205   6.097   2.620
10501SOL    HW132402   2.290   6.062   2.582
10501SOL    HW232403   2.141   6.022   2.637
10502SOL     OW32404   2.353   3.502   0.910
10502SOL    HW132405   2.452   3.508   0.915
10502SOL    HW232406   2.313   3.520   1.001
10503SOL     OW32407   6.136   4.205   0.001
10503SOL    HW132408   6.195   4.284   0.019
10503SOL    HW232409   6.044   4.237   7.009
10504SOL     OW32410   0.709   2.394   5.590
10504SOL    HW132411   0.747   2.419   5.501
10504SOL    HW232412   0.720   2.296   5.604
10505SOL     OW32413   5.482   6.206   1.703
10505SOL    HW132414   5.510   6.185   1.797
10505SOL    HW232415   5.490   6.305   1.687
10506SOL     OW32416   0.371   3.515   0.106
10506SOL    HW132417   0.292   3.553   0.153
10506SOL    HW232418   0.347   3.427   0.065
10507SOL     OW32419   1.931   5.585   6.903
10507SOL    HW132420   1.872   5.554   6.978
10507SOL    HW232421   2.007   5.638   6.940
10508SOL     OW32422   1.322   6.110   3.940
10508SOL    HW132423   1.417   6.094   3.965
10508SOL    HW232424   1.292   6.040   3.876
10509SOL     OW32425   5.996   4.130   4.531
10509SOL    HW132426   6.041   4.219   4.524
10509SOL    HW232427   6.057   4.059   4.497
10510SOL     OW32428   4.876   6.673   6.889
10510SOL    HW132429   4.808   6.615   6.844
10510SOL    HW232430   4.967   6.648   6.858
10511SOL     OW32431   2.679   1.720   2.273
10511SOL    HW132432   2.597   1.776   2.288
10511SOL    HW232433   2.747   1.774   2.224
10512SOL     OW32434   4.124   6.860   5.547
10512SOL    HW132435   4.111   6.939   5.486
10512SOL    HW232436   4.217   6.861   5.583
10513SOL     OW32437   6.517   2.653   2.956
10513SOL    HW132438   6.466   2.672   3.040
10513SOL    HW232439   6.561   2.737   2.924
10514SOL     OW32440   1.444   1.731   1.740
10514SOL    HW132441   1.351   1.729   1.778
10514SOL    HW232442   1.457   1.815   1.687
10515SOL     OW32443   2.656   2.403   3.712
10515SOL    HW132444   2.603   2.485   3.733
10515SOL    HW232445   2.656   2.387   3.614
10516SOL     OW32446   2.801   1.864   0.169
10516SOL    HW132447   2.790   1.936   0.100
10516SOL    HW232448   2.806   1.775   0.124
10517SOL     OW32449   1.663   4.286   1.260
10517SOL    HW132450   1.584   4.228   1.242
10517SOL    HW232451   1.633   4.379   1.281
10518SOL     OW32452   0.123   5.794   2.093
10518SOL    HW132453   0.034   5.813   2.133
10518SOL    HW232454   0.185   5.871   2.112
10519SOL     OW32455   2.911   4.388   1.486
10519SOL    HW132456   2.846   4.446   1.535
10519SOL    HW232457   3.004   4.425   1.497
10520SOL     OW32458   0.012   2.104   6.176
10520SOL    HW132459   0.006   2.203   6.175
10520SOL    HW232460   0.042   2.073   6.266
10521SOL     OW32461   6.344   5.263   1.319
10521SOL    HW132462   6.385   5.343   1.276
10521SOL    HW232463   6.299   5.206   1.250
10522SOL     OW32464   0.441   2.653   2.952
10522SOL    HW132465   0.494   2.568   2.954
10522SOL    HW232466   0.499   2.727   2.917
10523SOL     OW32467   0.283   4.592   3.179
10523SOL    HW132468   0.228   4.671   3.153
10523SOL    HW232469   0.373   4.624   3.209
10524SOL     OW32470   0.572   5.940   4.094
10524SOL    HW132471   0.585   6.037   4.074
10524SOL    HW232472   0.499   5.904   4.036
10525SOL     OW32473   3.793   6.818   5.339
10525SOL    HW132474   3.801   6.772   5.251
10525SOL    HW232475   3.871   6.879   5.352
10526SOL     OW32476   0.526   6.520   1.266
10526SOL    HW132477   0.541   6.429   1.307
10526SOL    HW232478   0.568   6.523   1.176
10527SOL     OW32479   0.888   0.207   5.839
10527SOL    HW132480   0.902   0.203   5.740
10527SOL    HW232481   0.913   0.297   5.873
10528SOL     OW32482   0.455   3.973   6.617
10528SOL    HW132483   0.355   3.971   6.620
10528SOL    HW232484   0.489   4.034   6.688
10529SOL     OW32485   1.379   6.087   4.597
10529SOL    HW132486   1.377   6.179   4.558
10529SOL    HW232487   1.353   6.091   4.693
10530SOL     OW32488   0.742   6.577   5.853
10530SOL    HW132489   0.737   6.532   5.764
10530SOL    HW232490   0.790   6.518   5.918
10531SOL     OW32491   2.819   2.289   4.379
10531SOL    HW132492   2.878   2.275   4.300
10531SOL    HW232493   2.755   2.363   4.360
10532SOL     OW32494   5.906   6.770   6.926
10532SOL    HW132495   5.845   6.812   6.993
10532SOL    HW232496   5.985   6.730   6.973
10533SOL     OW32497   3.170   5.886   4.363
10533SOL    HW132498   3.218   5.959   4.412
10533SOL    HW232499   3.235   5.836   4.306
10534SOL     OW32500   6.984   6.073   2.188
10534SOL    HW132501   6.939   6.086   2.100
10534SOL    HW232502   6.925   6.021   2.250
10535SOL     OW32503   2.051   1.470   1.931
10535SOL    HW132504   2.046   1.534   2.007
10535SOL    HW232505   1.982   1.494   1.863
10536SOL     OW32506   4.028   6.997   3.883
10536SOL    HW132507   3.968   6.917   3.891
10536SOL    HW232508   4.089   6.985   3.805
10537SOL     OW32509   5.008   6.516   3.805
10537SOL    HW132510   5.016   6.562   3.893
10537SOL    HW232511   4.945   6.438   3.814
10538SOL     OW32512   5.659   4.285   2.522
10538SOL    HW132513   5.626   4.204   2.570
10538SOL    HW232514   5.703   4.347   2.588
10539SOL     OW32515   5.886   5.309   1.538
10539SOL    HW132516   5.830   5.329   1.458
10539SOL    HW232517   5.980   5.338   1.520
10540SOL     OW32518   2.508   4.320   6.144
10540SOL    HW132519   2.516   4.307   6.045
10540SOL    HW232520   2.573   4.259   6.190
10541SOL     OW32521   3.345   2.980   3.984
10541SOL    HW132522   3.334   2.956   3.888
10541SOL    HW232523   3.280   2.927   4.039
10542SOL     OW32524   6.740   0.164   4.552
10542SOL    HW132525   6.685   0.199   4.628
10542SOL    HW232526   6.812   0.105   4.588
10543SOL     OW32527   0.477   2.353   5.114
10543SOL    HW132528   0.393   2.307   5.142
10543SOL    HW232529   0.511   2.410   5.189
10544SOL     OW32530   2.131   6.358   3.350
10544SOL    HW132531   2.195   6.339   3.425
10544SOL    HW232532   2.048   6.400   3.387
10545SOL     OW32533   1.147   2.835   2.336
10545SOL    HW132534   1.078   2.797   2.273
10545SOL    HW232535   1.230   2.856   2.285
10546SOL     OW32536   3.639   6.029   1.149
10546SOL    HW132537   3.674   6.026   1.056
10546SOL    HW232538   3.539   6.038   1.147
10547SOL     OW32539   5.133   0.862   4.401
10547SOL    HW132540   5.163   0.774   4.438
10547SOL    HW232541   5.156   0.935   4.466
10548SOL     OW32542   0.744   4.227   4.485
10548SOL    HW132543   0.799   4.196   4.407
10548SOL    HW232544   0.739   4.327   4.484
10549SOL     OW32545   0.835   1.325   0.494
10549SOL    HW132546   0.788   1.411   0.475
10549SOL    HW232547   0.892   1.300   0.416
10550SOL     OW32548   3.956   6.562   3.271
10550SOL    HW132549   3.969   6.660   3.289
10550SOL    HW232550   3.943   6.548   3.173
10551SOL     OW32551   2.336   1.729   6.287
10551SOL    HW132552   2.325   1.797   6.359
10551SOL    HW232553   2.305   1.640   6.320
10552SOL     OW32554   2.369   0.642   5.391
10552SOL    HW132555   2.324   0.703   5.456
10552SOL    HW232556   2.301   0.590   5.340
10553SOL     OW32557   0.031   4.488   0.806
10553SOL    HW132558   0.037   4.396   0.765
10553SOL    HW232559   6.964   4.511   0.821
10554SOL     OW32560   5.730   5.470   2.456
10554SOL    HW132561   5.729   5.547   2.520
10554SOL    HW232562   5.818   5.422   2.464
10555SOL     OW32563   3.139   2.404   0.546
10555SOL    HW132564   3.141   2.383   0.644
10555SOL    HW232565   3.046   2.390   0.511
10556SOL     OW32566   2.939   1.439   3.816
10556SOL    HW132567   2.910   1.534   3.807
10556SOL    HW232568   3.029   1.428   3.774
10557SOL     OW32569   1.863   3.211   4.356
10557SOL    HW132570   1.818   3.123   4.341
10557SOL    HW232571   1.957   3.207   4.320
10558SOL     OW32572   3.230   5.489   5.969
10558SOL    HW132573   3.311   5.544   5.951
10558SOL    HW232574   3.148   5.541   5.944
10559SOL     OW32575   3.500   1.023   0.694
10559SOL    HW132576   3.403   1.000   0.701
10559SOL    HW232577   3.551   0.942   0.665
10560SOL     OW32578   4.334   6.261   1.604
10560SOL    HW132579   4.265   6.300   1.664
10560SOL    HW232580   4.424   6.298   1.627
10561SOL     OW32581   3.785   4.711   1.502
10561SOL    HW132582   3.880   4.679   1.496
10561SOL    HW232583   3.728   4.654   1.443
10562SOL     OW32584   3.455   5.800   0.254
10562SOL    HW132585   3.373   5.744   0.269
10562SOL    HW232586   3.495   5.778   0.166
10563SOL     OW32587   1.276   0.651   0.877
10563SOL    HW132588   1.292   0.638   0.779
10563SOL    HW232589   1.222   0.734   0.891
10564SOL     OW32590   6.378   5.847   3.880
10564SOL    HW132591   6.323   5.916   3.928
10564SOL    HW232592   6.421   5.889   3.799
10565SOL     OW32593   6.555   6.771   5.615
10565SOL    HW132594   6.643   6.809   5.643
10565SOL    HW232595   6.521   6.821   5.535
10566SOL     OW32596   2.783   2.613   0.114
10566SOL    HW132597   2.686   2.607   0.093
10566SOL    HW232598   2.828   2.527   0.088
10567SOL     OW32599   2.290   2.582   5.774
10567SOL    HW132600   2.335   2.569   5.686
10567SOL    HW232601   2.331   2.661   5.821
10568SOL     OW32602   6.020   2.593   6.946
10568SOL    HW132603   6.001   2.495   6.953
10568SOL    HW232604   5.958   2.634   6.880
10569SOL     OW32605   5.458   0.905   1.750
10569SOL    HW132606   5.530   0.914   1.682
10569SOL    HW232607   5.371   0.884   1.705
10570SOL     OW32608   1.606   4.719   3.316
10570SOL    HW132609   1.695   4.702   3.273
10570SOL    HW232610   1.577   4.813   3.297
10571SOL     OW32611   0.421   4.106   5.945
10571SOL    HW132612   0.357   4.136   5.875
10571SOL    HW232613   0.465   4.186   5.987
10572SOL     OW32614   6.874   5.205   2.220
10572SOL    HW132615   6.839   5.117   2.187
10572SOL    HW232616   6.957   5.228   2.170
10573SOL     OW32617   4.705   0.558   5.397
10573SOL    HW132618   4.765   0.626   5.353
10573SOL    HW232619   4.742   0.534   5.486
10574SOL     OW32620   6.748   1.134   3.822
10574SOL    HW132621   6.680   1.070   3.859
10574SOL    HW232622   6.809   1.164   3.895
10575SOL     OW32623   5.889   0.516   3.636
10575SOL    HW132624   5.975   0.467   3.621
10575SOL    HW232625   5.820   0.452   3.670
10576SOL     OW32626   1.252   5.375   2.773
10576SOL    HW132627   1.206   5.346   2.689
10576SOL    HW232628   1.187   5.421   2.833
10577SOL     OW32629   2.155   5.154   0.408
10577SOL    HW132630   2.082   5.143   0.341
10577SOL    HW232631   2.160   5.250   0.436
10578SOL     OW32632   5.120   1.038   2.807
10578SOL    HW132633   5.078   1.017   2.719
10578SOL    HW232634   5.066   0.996   2.880
10579SOL     OW32635   3.329   3.061   1.243
10579SOL    HW132636   3.366   2.969   1.237
10579SOL    HW232637   3.235   3.057   1.278
10580SOL     OW32638   6.315   6.545   6.319
10580SOL    HW132639   6.317   6.640   6.349
10580SOL    HW232640   6.378   6.491   6.376
10581SOL     OW32641   4.865   6.933   2.942
10581SOL    HW132642   4.780   6.977   2.916
10581SOL    HW232643   4.941   6.970   2.888
10582SOL     OW32644   5.727   4.993   6.702
10582SOL    HW132645   5.750   5.091   6.699
10582SOL    HW232646   5.657   4.974   6.633
10583SOL     OW32647   4.273   0.210   4.536
10583SOL    HW132648   4.212   0.140   4.497
10583SOL    HW232649   4.361   0.167   4.560
10584SOL     OW32650   6.693   0.240   6.513
10584SOL    HW132651   6.624   0.310   6.530
10584SOL    HW232652   6.657   0.150   6.540
10585SOL     OW32653   1.802   1.907   5.706
10585SOL    HW132654   1.719   1.870   5.664
10585SOL    HW232655   1.872   1.918   5.636
10586SOL     OW32656   4.882   4.503   5.317
10586SOL    HW132657   4.975   4.533   5.293
10586SOL    HW232658   4.832   4.580   5.359
10587SOL     OW32659   0.080   5.796   6.740
10587SOL    HW132660   0.012   5.801   6.667
10587SOL    HW232661   0.155   5.859   6.720
10588SOL     OW32662   2.070   2.165   5.136
10588SOL    HW132663   2.042   2.074   5.106
10588SOL    HW232664   2.065   2.171   5.236
10589SOL     OW32665   5.128   6.479   4.350
10589SOL    HW132666   5.176   6.547   4.295
10589SOL    HW232667   5.193   6.410   4.382
10590SOL     OW32668   0.704   6.134   1.625
10590SOL    HW132669   0.797   6.160   1.651
10590SOL    HW232670   0.693   6.035   1.636
10591SOL     OW32671   2.331   1.736   1.345
10591SOL    HW132672   2.385   1.652   1.349
10591SOL    HW232673   2.238   1.714   1.316
10592SOL     OW32674   5.834   2.794   4.351
10592SOL    HW132675   5.773   2.860   4.395
10592SOL    HW232676   5.788   2.753   4.273
10593SOL     OW32677   1.292   6.464   0.721
10593SOL    HW132678   1.193   6.476   0.723
10593SOL    HW232679   1.321   6.443   0.628
10594SOL     OW32680   4.316   1.535   3.188
10594SOL    HW132681   4.267   1.463   3.238
10594SOL    HW232682   4.407   1.503   3.164
10595SOL     OW32683   6.237   0.622   0.292
10595SOL    HW132684   6.208   0.643   0.198
10595SOL    HW232685   6.336   0.610   0.295
10596SOL     OW32686   4.910   1.487   6.953
10596SOL    HW132687   4.945   1.457   0.013
10596SOL    HW232688   4.811   1.470   6.950
10597SOL     OW32689   2.043   0.718   5.717
10597SOL    HW132690   1.976   0.743   5.647
10597SOL    HW232691   1.997   0.710   5.805
10598SOL     OW32692   2.604   2.439   6.493
10598SOL    HW132693   2.545   2.493   6.554
10598SOL    HW232694   2.548   2.381   6.435
10599SOL     OW32695   6.514   4.191   6.349
10599SOL    HW132696   6.415   4.194   6.339
10599SOL    HW232697   6.540   4.221   6.441
10600SOL     OW32698   3.923   1.666   1.494
10600SOL    HW132699   3.962   1.743   1.444
10600SOL    HW232700   3.993   1.627   1.555
10601SOL     OW32701   0.990   5.367   5.610
10601SOL    HW132702   1.008   5.346   5.707
10601SOL    HW232703   1.064   5.424   5.574
10602SOL     OW32704   1.077   1.193   0.979
10602SOL    HW132705   0.993   1.217   0.930
10602SOL    HW232706   1.082   1.246   1.064
10603SOL     OW32707   4.784   6.631   3.029
10603SOL    HW132708   4.819   6.595   3.115
10603SOL    HW232709   4.852   6.691   2.988
10604SOL     OW32710   0.077   5.980   4.645
10604SOL    HW132711   0.120   5.899   4.686
10604SOL    HW232712   0.140   6.021   4.579
10605SOL     OW32713   1.785   0.065   6.541
10605SOL    HW132714   1.841   7.018   6.574
10605SOL    HW232715   1.830   0.151   6.565
10606SOL     OW32716   6.816   0.745   1.862
10606SOL    HW132717   6.754   0.794   1.924
10606SOL    HW232718   6.776   0.656   1.839
10607SOL     OW32719   4.393   4.505   0.617
10607SOL    HW132720   4.355   4.582   0.668
10607SOL    HW232721   4.366   4.419   0.660
10608SOL     OW32722   6.737   3.683   3.297
10608SOL    HW132723   6.796   3.634   3.233
10608SOL    HW232724   6.767   3.664   3.391
10609SOL     OW32725   2.426   6.651   6.822
10609SOL    HW132726   2.453   6.561   6.856
10609SOL    HW232727   2.507   6.700   6.790
10610SOL     OW32728   6.923   2.392   4.549
10610SOL    HW132729   6.944   2.482   4.512
10610SOL    HW232730   6.937   2.323   4.478
10611SOL     OW32731   2.509   5.404   5.797
10611SOL    HW132732   2.428   5.457   5.769
10611SOL    HW232733   2.562   5.378   5.716
10612SOL     OW32734   5.136   1.767   4.603
10612SOL    HW132735   5.232   1.766   4.631
10612SOL    HW232736   5.107   1.675   4.578
10613SOL     OW32737   5.744   5.962   4.899
10613SOL    HW132738   5.675   5.890   4.903
10613SOL    HW232739   5.707   6.047   4.938
10614SOL     OW32740   5.140   1.090   4.891
10614SOL    HW132741   5.224   1.097   4.945
10614SOL    HW232742   5.092   1.177   4.892
10615SOL     OW32743   3.706   1.091   5.607
10615SOL    HW132744   3.630   1.035   5.640
10615SOL    HW232745   3.717   1.171   5.666
10616SOL     OW32746   2.849   6.111   6.257
10616SOL    HW132747   2.870   6.205   6.230
10616SOL    HW232748   2.906   6.047   6.206
10617SOL     OW32749   2.213   4.442   1.506
10617SOL    HW132750   2.208   4.428   1.605
10617SOL    HW232751   2.138   4.502   1.477
10618SOL     OW32752   0.839   5.458   5.097
10618SOL    HW132753   0.888   5.381   5.139
10618SOL    HW232754   0.774   5.422   5.029
10619SOL     OW32755   0.620   2.611   3.259
10619SOL    HW132756   0.679   2.596   3.338
10619SOL    HW232757   0.525   2.620   3.290
10620SOL     OW32758   0.986   0.228   5.126
10620SOL    HW132759   0.913   0.290   5.154
10620SOL    HW232760   0.950   0.164   5.058
10621SOL     OW32761   0.067   4.755   1.988
10621SOL    HW132762   0.009   4.686   1.945
10621SOL    HW232763   0.155   4.715   2.012
10622SOL     OW32764   4.757   2.683   1.375
10622SOL    HW132765   4.820   2.754   1.345
10622SOL    HW232766   4.681   2.676   1.310
10623SOL     OW32767   5.901   6.232   5.108
10623SOL    HW132768   5.812   6.257   5.069
10623SOL    HW232769   5.925   6.298   5.179
10624SOL     OW32770   0.200   3.113   4.823
10624SOL    HW132771   0.238   3.133   4.732
10624SOL    HW232772   0.263   3.146   4.893
10625SOL     OW32773   0.654   3.841   1.554
10625SOL    HW132774   0.709   3.890   1.622
10625SOL    HW232775   0.670   3.881   1.464
10626SOL     OW32776   3.408   2.806   1.236
10626SOL    HW132777   3.495   2.766   1.206
10626SOL    HW232778   3.398   2.794   1.335
10627SOL     OW32779   5.999   1.267   6.578
10627SOL    HW132780   5.922   1.280   6.641
10627SOL    HW232781   6.056   1.349   6.579
10628SOL     OW32782   4.737   6.900   0.778
10628SOL    HW132783   4.687   6.855   0.705
10628SOL    HW232784   4.741   6.999   0.760
10629SOL     OW32785   3.219   4.976   4.725
10629SOL    HW132786   3.318   4.975   4.743
10629SOL    HW232787   3.183   5.067   4.743
10630SOL     OW32788   5.755   1.076   2.140
10630SOL    HW132789   5.761   1.087   2.041
10630SOL    HW232790   5.728   1.163   2.181
10631SOL     OW32791   3.892   4.486   5.484
10631SOL    HW132792   3.803   4.461   5.521
10631SOL    HW232793   3.950   4.405   5.478
10632SOL     OW32794   4.752   5.885   2.929
10632SOL    HW132795   4.658   5.882   2.895
10632SOL    HW232796   4.752   5.908   3.026
10633SOL     OW32797   2.782   2.505   1.722
10633SOL    HW132798   2.870   2.459   1.737
10633SOL    HW232799   2.724   2.495   1.803
10634SOL     OW32800   1.808   5.236   0.438
10634SOL    HW132801   1.723   5.278   0.468
10634SOL    HW232802   1.837   5.168   0.507
10635SOL     OW32803   2.201   3.447   0.020
10635SOL    HW132804   2.282   3.474   0.072
10635SOL    HW232805   2.224   3.371   6.988
10636SOL     OW32806   0.150   1.810   1.224
10636SOL    HW132807   0.056   1.843   1.215
10636SOL    HW232808   0.213   1.884   1.202
10637SOL     OW32809   1.594   6.017   6.472
10637SOL    HW132810   1.691   5.995   6.476
10637SOL    HW232811   1.581   6.099   6.416
10638SOL     OW32812   5.439   6.267   2.742
10638SOL    HW132813   5.426   6.266   2.642
10638SOL    HW232814   5.524   6.315   2.764
10639SOL     OW32815   1.870   3.661   2.233
10639SOL    HW132816   1.797   3.728   2.224
10639SOL    HW232817   1.873   3.628   2.327
10640SOL     OW32818   4.809   0.359   3.201
10640SOL    HW132819   4.797   0.270   3.245
10640SOL    HW232820   4.759   0.428   3.253
10641SOL     OW32821   2.315   1.460   3.534
10641SOL    HW132822   2.311   1.372   3.488
10641SOL    HW232823   2.222   1.494   3.550
10642SOL     OW32824   6.092   1.765   0.671
10642SOL    HW132825   6.088   1.694   0.602
10642SOL    HW232826   6.153   1.839   0.641
10643SOL     OW32827   2.234   6.184   5.012
10643SOL    HW132828   2.189   6.255   4.958
10643SOL    HW232829   2.226   6.204   5.109
10644SOL     OW32830   5.690   3.312   1.372
10644SOL    HW132831   5.784   3.325   1.404
10644SOL    HW232832   5.679   3.219   1.338
10645SOL     OW32833   2.188   2.401   3.803
10645SOL    HW132834   2.273   2.421   3.853
10645SOL    HW232835   2.112   2.448   3.846
10646SOL     OW32836   6.335   1.016   5.934
10646SOL    HW132837   6.424   1.060   5.938
10646SOL    HW232838   6.270   1.065   5.992
10647SOL     OW32839   3.419   5.205   4.967
10647SOL    HW132840   3.487   5.278   4.969
10647SOL    HW232841   3.330   5.243   4.945
10648SOL     OW32842   5.881   5.520   6.776
10648SOL    HW132843   5.863   5.592   6.844
10648SOL    HW232844   5.907   5.436   6.823
10649SOL     OW32845   0.936   3.768   3.323
10649SOL    HW132846   1.002   3.750   3.250
10649SOL    HW232847   0.909   3.865   3.321
10650SOL     OW32848   0.671   0.348   4.110
10650SOL    HW132849   0.662   0.276   4.178
10650SOL    HW232850   0.582   0.366   4.068
10651SOL     OW32851   6.316   5.953   5.887
10651SOL    HW132852   6.223   5.991   5.896
10651SOL    HW232853   6.350   5.927   5.977
10652SOL     OW32854   2.094   6.604   6.129
10652SOL    HW132855   2.111   6.590   6.226
10652SOL    HW232856   1.999   6.633   6.116
10653SOL     OW32857   3.524   5.954   5.305
10653SOL    HW132858   3.571   5.868   5.324
10653SOL    HW232859   3.524   5.971   5.206
10654SOL     OW32860   4.677   0.777   6.112
10654SOL    HW132861   4.605   0.811   6.173
10654SOL    HW232862   4.731   0.855   6.080
10655SOL     OW32863   1.798   4.677   0.234
10655SOL    HW132864   1.873   4.627   0.191
10655SOL    HW232865   1.803   4.665   0.334
10656SOL     OW32866   6.766   1.359   2.610
10656SOL    HW132867   6.705   1.304   2.667
10656SOL    HW232868   6.729   1.366   2.518
10657SOL     OW32869   6.150   0.777   4.722
10657SOL    HW132870   6.096   0.740   4.647
10657SOL    HW232871   6.247   0.755   4.707
10658SOL     OW32872   6.113   4.459   4.751
10658SOL    HW132873   6.102   4.438   4.848
10658SOL    HW232874   6.090   4.555   4.735
10659SOL     OW32875   1.238   4.646   0.841
10659SOL    HW132876   1.240   4.743   0.863
10659SOL    HW232877   1.296   4.629   0.761
10660SOL     OW32878   5.987   3.855   5.674
10660SOL    HW132879   5.967   3.892   5.764
10660SOL    HW232880   5.952   3.917   5.603
10661SOL     OW32881   1.614   6.066   0.950
10661SOL    HW132882   1.713   6.059   0.933
10661SOL    HW232883   1.587   5.999   1.018
10662SOL     OW32884   4.349   0.616   2.423
10662SOL    HW132885   4.422   0.636   2.488
10662SOL    HW232886   4.389   0.588   2.336
10663SOL     OW32887   0.721   1.062   2.859
10663SOL    HW132888   0.664   1.013   2.925
10663SOL    HW232889   0.666   1.089   2.780
10664SOL     OW32890   6.384   4.385   5.546
10664SOL    HW132891   6.436   4.439   5.480
10664SOL    HW232892   6.424   4.294   5.552
10665SOL     OW32893   1.885   2.542   6.959
10665SOL    HW132894   1.914   2.529   6.864
10665SOL    HW232895   1.798   2.494   6.974
10666SOL     OW32896   3.118   4.027   2.662
10666SOL    HW132897   3.149   4.100   2.602
10666SOL    HW232898   3.064   3.960   2.609
10667SOL     OW32899   4.677   1.910   3.658
10667SOL    HW132900   4.657   2.007   3.640
10667SOL    HW232901   4.699   1.864   3.572
10668SOL     OW32902   3.440   1.339   4.740
10668SOL    HW132903   3.399   1.415   4.689
10668SOL    HW232904   3.420   1.350   4.837
10669SOL     OW32905   6.489   0.290   1.287
10669SOL    HW132906   6.461   0.220   1.222
10669SOL    HW232907   6.412   0.315   1.345
10670SOL     OW32908   5.587   4.774   4.931
10670SOL    HW132909   5.523   4.851   4.918
10670SOL    HW232910   5.635   4.786   5.018
10671SOL     OW32911   1.435   1.645   4.339
10671SOL    HW132912   1.510   1.651   4.404
10671SOL    HW232913   1.439   1.722   4.276
10672SOL     OW32914   6.475   4.370   1.938
10672SOL    HW132915   6.457   4.373   1.840
10672SOL    HW232916   6.389   4.381   1.988
10673SOL     OW32917   0.655   0.442   0.407
10673SOL    HW132918   0.663   0.529   0.455
10673SOL    HW232919   0.687   0.452   0.313
10674SOL     OW32920   4.147   3.495   3.985
10674SOL    HW132921   4.047   3.501   3.990
10674SOL    HW232922   4.182   3.457   4.070
10675SOL     OW32923   2.378   0.392   6.612
10675SOL    HW132924   2.457   0.449   6.589
10675SOL    HW232925   2.325   0.436   6.685
10676SOL     OW32926   0.291   6.158   4.978
10676SOL    HW132927   0.265   6.116   5.065
10676SOL    HW232928   0.209   6.172   4.922
10677SOL     OW32929   1.533   0.616   1.556
10677SOL    HW132930   1.463   0.579   1.617
10677SOL    HW232931   1.517   0.713   1.541
10678SOL     OW32932   4.313   5.224   4.543
10678SOL    HW132933   4.399   5.176   4.561
10678SOL    HW232934   4.237   5.159   4.553
10679SOL     OW32935   3.975   5.456   6.335
10679SOL    HW132936   3.895   5.461   6.275
10679SOL    HW232937   4.039   5.387   6.301
10680SOL     OW32938   3.641   2.110   3.815
10680SOL    HW132939   3.655   2.017   3.782
10680SOL    HW232940   3.558   2.148   3.775
10681SOL     OW32941   6.898   3.606   0.406
10681SOL    HW132942   6.947   3.636   0.325
10681SOL    HW232943   6.958   3.610   0.485
10682SOL     OW32944   7.005   2.724   5.290
10682SOL    HW132945   6.906   2.723   5.298
10682SOL    HW232946   0.006   2.655   5.224
10683SOL     OW32947   4.880   0.542   3.657
10683SOL    HW132948   4.838   0.523   3.746
10683SOL    HW232949   4.832   0.617   3.613
10684SOL     OW32950   4.035   4.754   2.434
10684SOL    HW132951   4.082   4.828   2.483
10684SOL    HW232952   4.092   4.672   2.435
10685SOL     OW32953   0.673   5.666   1.204
10685SOL    HW132954   0.733   5.738   1.171
10685SOL    HW232955   0.663   5.673   1.303
10686SOL     OW32956   1.351   3.933   5.806
10686SOL    HW132957   1.335   4.028   5.832
10686SOL    HW232958   1.280   3.904   5.742
10687SOL     OW32959   6.147   5.443   4.386
10687SOL    HW132960   6.172   5.364   4.330
10687SOL    HW232961   6.088   5.413   4.461
10688SOL     OW32962   5.802   3.230   2.977
10688SOL    HW132963   5.897   3.260   2.968
10688SOL    HW232964   5.795   3.133   2.951
10689SOL     OW32965   6.677   0.522   2.820
10689SOL    HW132966   6.591   0.568   2.841
10689SOL    HW232967   6.677   0.431   2.862
10690SOL     OW32968   0.235   5.553   3.777
10690SOL    HW132969   0.215   5.651   3.776
10690SOL    HW232970   0.291   5.531   3.857
10691SOL     OW32971   1.625   1.868   2.283
10691SOL    HW132972   1.600   1.891   2.377
10691SOL    HW232973   1.568   1.792   2.251
10692SOL     OW32974   2.451   0.245   3.913
10692SOL    HW132975   2.435   0.158   3.867
10692SOL    HW232976   2.547   0.271   3.907
10693SOL     OW32977   1.455   5.962   1.388
10693SOL    HW132978   1.409   5.908   1.459
10693SOL    HW232979   1.538   6.002   1.426
10694SOL     OW32980   5.082   5.818   6.893
10694SOL    HW132981   5.087   5.895   6.828
10694SOL    HW232982   5.014   5.752   6.861
10695SOL     OW32983   1.610   2.223   2.792
10695SOL    HW132984   1.623   2.309   2.841
10695SOL    HW232985   1.575   2.242   2.700
10696SOL     OW32986   6.358   4.535   3.508
10696SOL    HW132987   6.407   4.574   3.586
10696SOL    HW232988   6.313   4.450   3.536
10697SOL     OW32989   0.527   0.115   5.228
10697SOL    HW132990   0.439   0.160   5.247
10697SOL    HW232991   0.534   0.095   5.131
10698SOL     OW32992   5.136   4.750   6.822
10698SOL    HW132993   5.225   4.780   6.854
10698SOL    HW232994   5.066   4.771   6.890
10699SOL     OW32995   4.025   4.582   1.558
10699SOL    HW132996   4.094   4.519   1.523
10699SOL    HW232997   4.070   4.656   1.609
10700SOL     OW32998   5.462   6.259   0.376
10700SOL    HW132999   5.394   6.282   0.445
10700SOL    HW233000   5.512   6.342   0.350
10701SOL     OW33001   2.568   6.461   6.255
10701SOL    HW133002   2.532   6.431   6.344
10701SOL    HW233003   2.493   6.474   6.191
10702SOL     OW33004   5.564   3.312   1.878
10702SOL    HW133005   5.640   3.253   1.852
10702SOL    HW233006   5.529   3.285   1.968
10703SOL     OW33007   2.676   3.184   5.344
10703SOL    HW133008   2.591   3.151   5.302
10703SOL    HW233009   2.739   3.107   5.355
10704SOL     OW33010   6.183   5.456   1.976
10704SOL    HW133011   6.253   5.449   1.905
10704SOL    HW233012   6.103   5.504   1.938
10705SOL     OW33013   6.247   5.175   1.689
10705SOL    HW133014   6.225   5.079   1.678
10705SOL    HW233015   6.256   5.197   1.787
10706SOL     OW33016   4.476   0.464   3.054
10706SOL    HW133017   4.380   0.462   3.025
10706SOL    HW233018   4.496   0.384   3.109
10707SOL     OW33019   0.341   6.804   4.450
10707SOL    HW133020   0.430   6.848   4.438
10707SOL    HW233021   0.322   6.745   4.372
10708SOL     OW33022   3.890   1.308   1.234
10708SOL    HW133023   3.898   1.286   1.331
10708SOL    HW233024   3.831   1.388   1.223
10709SOL     OW33025   5.851   5.764   5.571
10709SOL    HW133026   5.793   5.755   5.490
10709SOL    HW233027   5.817   5.839   5.627
10710SOL     OW33028   6.451   0.684   4.147
10710SOL    HW133029   6.410   0.773   4.126
10710SOL    HW233030   6.393   0.635   4.211
10711SOL     OW33031   2.028   6.464   4.412
10711SOL    HW133032   1.979   6.520   4.345
10711SOL    HW233033   2.038   6.371   4.377
10712SOL     OW33034   2.947   0.731   2.063
10712SOL    HW133035   2.932   0.752   1.967
10712SOL    HW233036   3.028   0.672   2.072
10713SOL     OW33037   0.717   3.306   1.645
10713SOL    HW133038   0.727   3.405   1.632
10713SOL    HW233039   0.642   3.272   1.587
10714SOL     OW33040   5.672   3.684   5.099
10714SOL    HW133041   5.670   3.686   5.199
10714SOL    HW233042   5.647   3.593   5.067
10715SOL     OW33043   4.599   0.448   2.255
10715SOL    HW133044   4.525   0.468   2.191
10715SOL    HW233045   4.651   0.369   2.223
10716SOL     OW33046   5.760   1.679   3.552
10716SOL    HW133047   5.800   1.602   3.601
10716SOL    HW233048   5.668   1.696   3.587
10717SOL     OW33049   1.265   2.590   1.381
10717SOL    HW133050   1.296   2.559   1.291
10717SOL    HW233051   1.257   2.512   1.443
10718SOL     OW33052   1.042   3.149   6.637
10718SOL    HW133053   1.029   3.211   6.715
10718SOL    HW233054   1.059   3.056   6.671
10719SOL     OW33055   6.649   5.700   2.656
10719SOL    HW133056   6.583   5.758   2.609
10719SOL    HW233057   6.710   5.657   2.589
10720SOL     OW33058   0.316   4.447   5.160
10720SOL    HW133059   0.229   4.400   5.173
10720SOL    HW233060   0.300   4.545   5.144
10721SOL     OW33061   5.476   4.084   4.981
10721SOL    HW133062   5.492   4.163   4.922
10721SOL    HW233063   5.562   4.057   5.025
10722SOL     OW33064   0.954   4.790   6.701
10722SOL    HW133065   0.974   4.824   6.609
10722SOL    HW233066   0.860   4.755   6.704
10723SOL     OW33067   0.644   2.976   5.778
10723SOL    HW133068   0.565   3.018   5.733
10723SOL    HW233069   0.705   2.937   5.708
10724SOL     OW33070   6.607   1.590   6.880
10724SOL    HW133071   6.572   1.636   6.798
10724SOL    HW233072   6.576   1.639   6.961
10725SOL     OW33073   1.479   5.355   4.074
10725SOL    HW133074   1.407   5.309   4.127
10725SOL    HW233075   1.533   5.287   4.025
10726SOL     OW33076   5.400   0.254   5.299
10726SOL    HW133077   5.333   0.327   5.289
10726SOL    HW233078   5.440   0.257   5.390
10727SOL     OW33079   0.548   5.059   5.220
10727SOL    HW133080   0.563   4.986   5.287
10727SOL    HW233081   0.549   5.148   5.266
10728SOL     OW33082   0.597   6.043   6.405
10728SOL    HW133083   0.637   6.125   6.365
10728SOL    HW233084   0.580   5.976   6.333
10729SOL     OW33085   5.616   1.915   2.086
10729SOL    HW133086   5.547   1.856   2.044
10729SOL    HW233087   5.570   1.984   2.141
10730SOL     OW33088   1.875   1.225   1.260
10730SOL    HW133089   1.801   1.166   1.293
10730SOL    HW233090   1.929   1.257   1.338
10731SOL     OW33091   3.451   6.622   0.740
10731SOL    HW133092   3.418   6.690   0.674
10731SOL    HW233093   3.534   6.579   0.705
10732SOL     OW33094   5.856   5.088   4.734
10732SOL    HW133095   5.848   4.989   4.722
10732SOL    HW233096   5.863   5.131   4.644
10733SOL     OW33097   6.621   1.589   1.077
10733SOL    HW133098   6.661   1.564   0.989
10733SOL    HW233099   6.596   1.686   1.076
10734SOL     OW33100   0.960   0.847   0.097
10734SOL    HW133101   0.913   0.871   0.182
10734SOL    HW233102   0.894   0.823   0.027
10735SOL     OW33103   0.468   2.907   3.198
10735SOL    HW133104   0.442   2.829   3.255
10735SOL    HW233105   0.488   2.985   3.257
10736SOL     OW33106   1.431   0.207   3.700
10736SOL    HW133107   1.437   0.291   3.646
10736SOL    HW233108   1.336   0.177   3.705
10737SOL     OW33109   1.572   2.023   1.321
10737SOL    HW133110   1.489   1.972   1.302
10737SOL    HW233111   1.632   2.020   1.240
10738SOL     OW33112   2.608   0.429   3.348
10738SOL    HW133113   2.517   0.465   3.367
10738SOL    HW233114   2.656   0.491   3.286
10739SOL     OW33115   1.214   1.810   0.889
10739SOL    HW133116   1.276   1.814   0.967
10739SOL    HW233117   1.243   1.737   0.827
10740SOL     OW33118   6.816   4.536   5.040
10740SOL    HW133119   6.905   4.532   5.086
10740SOL    HW233120   6.795   4.630   5.016
10741SOL     OW33121   5.644   0.352   1.015
10741SOL    HW133122   5.737   0.316   1.026
10741SOL    HW233123   5.615   0.396   1.100
10742SOL     OW33124   5.415   0.735   0.745
10742SOL    HW133125   5.345   0.676   0.705
10742SOL    HW233126   5.489   0.749   0.679
10743SOL     OW33127   2.508   1.088   5.780
10743SOL    HW133128   2.519   1.003   5.728
10743SOL    HW233129   2.410   1.106   5.794
10744SOL     OW33130   3.743   1.527   1.189
10744SOL    HW133131   3.717   1.537   1.285
10744SOL    HW233132   3.662   1.541   1.131
10745SOL     OW33133   0.279   5.980   6.716
10745SOL    HW133134   0.279   6.061   6.775
10745SOL    HW233135   0.373   5.954   6.695
10746SOL     OW33136   1.722   4.798   1.341
10746SOL    HW133137   1.813   4.838   1.331
10746SOL    HW233138   1.654   4.871   1.345
10747SOL     OW33139   3.821   1.281   4.291
10747SOL    HW133140   3.883   1.217   4.335
10747SOL    HW233141   3.745   1.303   4.353
10748SOL     OW33142   5.060   0.901   1.109
10748SOL    HW133143   5.112   0.966   1.054
10748SOL    HW233144   5.082   0.808   1.079
10749SOL     OW33145   0.645   5.732   2.958
10749SOL    HW133146   0.596   5.771   3.036
10749SOL    HW233147   0.696   5.651   2.988
10750SOL     OW33148   4.111   6.145   5.002
10750SOL    HW133149   4.031   6.086   5.004
10750SOL    HW233150   4.180   6.106   4.940
10751SOL     OW33151   1.738   3.901   4.642
10751SOL    HW133152   1.727   3.987   4.591
10751SOL    HW233153   1.666   3.893   4.710
10752SOL     OW33154   6.262   4.137   6.361
10752SOL    HW133155   6.182   4.196   6.351
10752SOL    HW233156   6.236   4.053   6.409
10753SOL     OW33157   4.641   6.190   4.160
10753SOL    HW133158   4.543   6.188   4.137
10753SOL    HW233159   4.683   6.104   4.132
10754SOL     OW33160   0.797   1.325   2.905
10754SOL    HW133161   0.894   1.332   2.929
10754SOL    HW233162   0.776   1.231   2.880
10755SOL     OW33163   6.536   0.977   6.351
10755SOL    HW133164   6.588   0.936   6.425
10755SOL    HW233165   6.494   0.904   6.296
10756SOL     OW33166   6.852   4.689   0.119
10756SOL    HW133167   6.921   4.717   0.052
10756SOL    HW233168   6.765   4.674   0.073
10757SOL     OW33169   2.338   3.193   0.405
10757SOL    HW133170   2.248   3.202   0.447
10757SOL    HW233171   2.369   3.098   0.414
10758SOL     OW33172   0.416   6.692   3.999
10758SOL    HW133173   0.499   6.713   3.947
10758SOL    HW233174   0.434   6.617   4.062
10759SOL     OW33175   1.816   3.311   1.331
10759SOL    HW133176   1.734   3.347   1.286
10759SOL    HW233177   1.789   3.242   1.399
10760SOL     OW33178   6.215   1.545   2.211
10760SOL    HW133179   6.163   1.464   2.185
10760SOL    HW233180   6.206   1.615   2.140
10761SOL     OW33181   0.953   6.768   6.053
10761SOL    HW133182   0.881   6.740   6.116
10761SOL    HW233183   0.920   6.760   5.959
10762SOL     OW33184   3.794   2.061   4.038
10762SOL    HW133185   3.747   2.073   3.951
10762SOL    HW233186   3.741   1.999   4.096
10763SOL     OW33187   5.139   6.566   2.476
10763SOL    HW133188   5.105   6.510   2.552
10763SOL    HW233189   5.238   6.570   2.478
10764SOL     OW33190   4.938   2.561   6.035
10764SOL    HW133191   4.859   2.596   5.985
10764SOL    HW233192   5.018   2.619   6.014
10765SOL     OW33193   5.491   2.009   0.253
10765SOL    HW133194   5.429   1.933   0.273
10765SOL    HW233195   5.471   2.086   0.314
10766SOL     OW33196   4.862   3.800   0.381
10766SOL    HW133197   4.808   3.885   0.382
10766SOL    HW233198   4.939   3.810   0.444
10767SOL     OW33199   1.222   0.825   0.227
10767SOL    HW133200   1.156   0.822   0.152
10767SOL    HW233201   1.179   0.792   0.310
10768SOL     OW33202   4.664   4.054   1.702
10768SOL    HW133203   4.665   4.153   1.713
10768SOL    HW233204   4.579   4.017   1.740
10769SOL     OW33205   2.537   4.205   5.292
10769SOL    HW133206   2.490   4.133   5.240
10769SOL    HW233207   2.471   4.275   5.318
10770SOL     OW33208   5.724   1.009   5.083
10770SOL    HW133209   5.742   1.070   5.161
10770SOL    HW233210   5.681   1.060   5.009
10771SOL     OW33211   6.125   0.386   3.557
10771SOL    HW133212   6.055   0.323   3.524
10771SOL    HW233213   6.170   0.347   3.637
10772SOL     OW33214   5.832   6.795   4.355
10772SOL    HW133215   5.866   6.728   4.289
10772SOL    HW233216   5.890   6.876   4.354
10773SOL     OW33217   6.496   6.003   7.014
10773SOL    HW133218   6.595   5.987   7.019
10773SOL    HW233219   6.479   6.101   7.023
10774SOL     OW33220   2.449   1.562   0.150
10774SOL    HW133221   2.526   1.501   0.133
10774SOL    HW233222   2.482   1.651   0.180
10775SOL     OW33223   0.316   4.485   1.519
10775SOL    HW133224   0.355   4.574   1.496
10775SOL    HW233225   0.229   4.473   1.470
10776SOL     OW33226   7.017   0.906   6.852
10776SOL    HW133227   6.977   0.816   6.867
10776SOL    HW233228   0.076   0.911   6.897
10777SOL     OW33229   3.653   5.575   2.990
10777SOL    HW133230   3.669   5.635   3.069
10777SOL    HW233231   3.727   5.508   2.984
10778SOL     OW33232   5.908   0.232   4.157
10778SOL    HW133233   6.005   0.255   4.146
10778SOL    HW233234   5.892   0.140   4.123
10779SOL     OW33235   6.718   3.513   3.848
10779SOL    HW133236   6.815   3.523   3.830
10779SOL    HW233237   6.677   3.602   3.867
10780SOL     OW33238   2.080   0.777   3.713
10780SOL    HW133239   2.153   0.760   3.647
10780SOL    HW233240   2.105   0.739   3.802
10781SOL     OW33241   4.574   0.977   4.118
10781SOL    HW133242   4.635   0.910   4.161
10781SOL    HW233243   4.479   0.955   4.140
10782SOL     OW33244   6.239   1.939   1.696
10782SOL    HW133245   6.317   1.922   1.636
10782SOL    HW233246   6.265   2.002   1.769
10783SOL     OW33247   0.458   3.151   2.749
10783SOL    HW133248   0.435   3.073   2.807
10783SOL    HW233249   0.389   3.222   2.760
10784SOL     OW33250   3.403   6.431   4.255
10784SOL    HW133251   3.353   6.345   4.269
10784SOL    HW233252   3.430   6.438   4.159
10785SOL     OW33253   0.051   4.563   1.263
10785SOL    HW133254   0.111   4.642   1.273
10785SOL    HW233255   0.082   4.506   1.187
10786SOL     OW33256   6.001   4.270   3.506
10786SOL    HW133257   6.099   4.289   3.514
10786SOL    HW233258   5.950   4.335   3.562
10787SOL     OW33259   2.276   1.354   5.224
10787SOL    HW133260   2.363   1.391   5.191
10787SOL    HW233261   2.286   1.256   5.240
10788SOL     OW33262   2.078   4.566   6.000
10788SOL    HW133263   2.158   4.513   6.029
10788SOL    HW233264   2.046   4.533   5.911
10789SOL     OW33265   6.973   2.973   6.382
10789SOL    HW133266   7.018   2.944   6.466
10789SOL    HW233267   0.004   2.953   6.304
10790SOL     OW33268   1.147   0.517   1.982
10790SOL    HW133269   1.156   0.609   2.020
10790SOL    HW233270   1.132   0.523   1.884
10791SOL     OW33271   6.567   0.132   1.712
10791SOL    HW133272   6.582   0.227   1.686
10791SOL    HW233273   6.563   0.125   1.812
10792SOL     OW33274   3.029   3.759   4.364
10792SOL    HW133275   3.022   3.682   4.428
10792SOL    HW233276   3.054   3.842   4.414
10793SOL     OW33277   5.332   3.295   4.715
10793SOL    HW133278   5.431   3.282   4.704
10793SOL    HW233279   5.302   3.369   4.655
10794SOL     OW33280   3.039   3.630   3.781
10794SOL    HW133281   3.066   3.727   3.780
10794SOL    HW233282   3.070   3.586   3.697
10795SOL     OW33283   6.607   5.069   1.712
10795SOL    HW133284   6.589   5.167   1.714
10795SOL    HW233285   6.686   5.051   1.653
10796SOL     OW33286   5.624   0.511   6.406
10796SOL    HW133287   5.598   0.525   6.501
10796SOL    HW233288   5.565   0.565   6.346
10797SOL     OW33289   3.693   2.610   1.425
10797SOL    HW133290   3.639   2.614   1.509
10797SOL    HW233291   3.663   2.532   1.370
10798SOL     OW33292   2.599   0.275   0.124
10798SOL    HW133293   2.627   0.371   0.130
10798SOL    HW233294   2.566   0.256   0.031
10799SOL     OW33295   3.711   0.881   1.701
10799SOL    HW133296   3.782   0.870   1.771
10799SOL    HW233297   3.723   0.968   1.655
10800SOL     OW33298   0.044   6.676   6.135
10800SOL    HW133299   0.116   6.644   6.073
10800SOL    HW233300   0.025   6.605   6.203
10801SOL     OW33301   0.737   6.230   5.812
10801SOL    HW133302   0.799   6.301   5.844
10801SOL    HW233303   0.657   6.273   5.769
10802SOL     OW33304   0.946   0.352   2.859
10802SOL    HW133305   0.947   0.420   2.933
10802SOL    HW233306   1.040   0.324   2.839
10803SOL     OW33307   2.063   4.851   5.981
10803SOL    HW133308   2.052   4.752   5.978
10803SOL    HW233309   2.151   4.874   6.024
10804SOL     OW33310   5.436   3.295   2.127
10804SOL    HW133311   5.489   3.284   2.212
10804SOL    HW233312   5.359   3.355   2.144
10805SOL     OW33313   4.573   6.509   6.240
10805SOL    HW133314   4.556   6.600   6.201
10805SOL    HW233315   4.656   6.512   6.295
10806SOL     OW33316   4.195   4.178   6.694
10806SOL    HW133317   4.275   4.226   6.732
10806SOL    HW233318   4.226   4.097   6.645
10807SOL     OW33319   1.453   0.082   2.341
10807SOL    HW133320   1.374   0.120   2.388
10807SOL    HW233321   1.508   0.029   2.406
10808SOL     OW33322   0.148   3.073   5.553
10808SOL    HW133323   0.140   3.116   5.463
10808SOL    HW233324   0.238   3.093   5.592
10809SOL     OW33325   3.076   4.910   3.721
10809SOL    HW133326   3.026   4.985   3.678
10809SOL    HW233327   3.109   4.938   3.811
10810SOL     OW33328   1.147   0.116   4.237
10810SOL    HW133329   1.209   0.054   4.285
10810SOL    HW233330   1.189   0.206   4.229
10811SOL     OW33331   4.450   4.284   5.986
10811SOL    HW133332   4.385   4.217   6.022
10811SOL    HW233333   4.536   4.277   6.037
10812SOL     OW33334   0.867   3.731   0.717
10812SOL    HW133335   0.937   3.802   0.712
10812SOL    HW233336   0.795   3.751   0.650
10813SOL     OW33337   1.826   3.870   6.587
10813SOL    HW133338   1.823   3.946   6.523
10813SOL    HW233339   1.802   3.785   6.539
10814SOL     OW33340   1.452   6.679   6.203
10814SOL    HW133341   1.361   6.696   6.166
10814SOL    HW233342   1.507   6.762   6.193
10815SOL     OW33343   5.171   4.041   3.142
10815SOL    HW133344   5.139   4.011   3.051
10815SOL    HW233345   5.267   4.017   3.153
10816SOL     OW33346   3.269   3.825   2.804
10816SOL    HW133347   3.228   3.819   2.895
10816SOL    HW233348   3.214   3.885   2.746
10817SOL     OW33349   4.345   0.366   3.577
10817SOL    HW133350   4.303   0.395   3.491
10817SOL    HW233351   4.440   0.396   3.580
10818SOL     OW33352   4.699   4.602   4.944
10818SOL    HW133353   4.705   4.677   4.879
10818SOL    HW233354   4.743   4.520   4.905
10819SOL     OW33355   6.893   5.190   6.279
10819SOL    HW133356   6.914   5.098   6.246
10819SOL    HW233357   6.831   5.183   6.357
10820SOL     OW33358   0.159   4.883   4.523
10820SOL    HW133359   0.155   4.795   4.476
10820SOL    HW233360   0.195   4.870   4.616
10821SOL     OW33361   4.616   0.404   3.571
10821SOL    HW133362   4.678   0.329   3.593
10821SOL    HW233363   4.655   0.458   3.496
10822SOL     OW33364   6.211   2.336   2.942
10822SOL    HW133365   6.166   2.247   2.955
10822SOL    HW233366   6.142   2.406   2.924
10823SOL     OW33367   0.995   0.833   2.053
10823SOL    HW133368   0.926   0.904   2.070
10823SOL    HW233369   0.951   0.744   2.049
10824SOL     OW33370   6.801   1.478   2.947
10824SOL    HW133371   6.780   1.575   2.959
10824SOL    HW233372   6.768   1.448   2.858
10825SOL     OW33373   2.228   2.151   6.295
10825SOL    HW133374   2.159   2.093   6.339
10825SOL    HW233375   2.247   2.118   6.203
10826SOL     OW33376   0.773   2.452   3.616
10826SOL    HW133377   0.792   2.546   3.589
10826SOL    HW233378   0.828   2.390   3.560
10827SOL     OW33379   0.152   3.413   4.774
10827SOL    HW133380   0.086   3.371   4.837
10827SOL    HW233381   0.202   3.341   4.726
10828SOL     OW33382   1.548   4.400   0.942
10828SOL    HW133383   1.606   4.460   0.888
10828SOL    HW233384   1.483   4.353   0.881
10829SOL     OW33385   4.548   2.962   0.278
10829SOL    HW133386   4.641   2.997   0.269
10829SOL    HW233387   4.548   2.881   0.337
10830SOL     OW33388   4.660   1.773   3.049
10830SOL    HW133389   4.642   1.682   3.085
10830SOL    HW233390   4.576   1.813   3.012
10831SOL     OW33391   2.997   6.428   3.075
10831SOL    HW133392   3.023   6.336   3.104
10831SOL    HW233393   2.996   6.433   2.975
10832SOL     OW33394   0.687   3.427   5.904
10832SOL    HW133395   0.684   3.524   5.882
10832SOL    HW233396   0.774   3.389   5.875
10833SOL     OW33397   0.653   1.170   2.238
10833SOL    HW133398   0.625   1.080   2.272
10833SOL    HW233399   0.601   1.192   2.156
10834SOL     OW33400   0.194   1.616   0.719
10834SOL    HW133401   0.250   1.593   0.640
10834SOL    HW233402   0.175   1.533   0.772
10835SOL     OW33403   6.146   2.588   0.500
10835SOL    HW133404   6.157   2.688   0.507
10835SOL    HW233405   6.207   2.544   0.566
10836SOL     OW33406   6.397   1.463   4.694
10836SOL    HW133407   6.324   1.405   4.731
10836SOL    HW233408   6.434   1.520   4.768
10837SOL     OW33409   6.500   5.472   0.954
10837SOL    HW133410   6.537   5.380   0.953
10837SOL    HW233411   6.460   5.493   0.864
10838SOL     OW33412   6.902   5.832   3.402
10838SOL    HW133413   6.813   5.821   3.446
10838SOL    HW233414   6.962   5.756   3.430
10839SOL     OW33415   4.395   3.095   1.685
10839SOL    HW133416   4.398   2.999   1.660
10839SOL    HW233417   4.473   3.117   1.743
10840SOL     OW33418   3.182   6.148   2.649
10840SOL    HW133419   3.187   6.075   2.581
10840SOL    HW233420   3.273   6.188   2.662
10841SOL     OW33421   6.420   5.037   5.642
10841SOL    HW133422   6.406   4.983   5.559
10841SOL    HW233423   6.461   5.125   5.618
10842SOL     OW33424   4.989   2.252   1.646
10842SOL    HW133425   4.956   2.259   1.552
10842SOL    HW233426   4.916   2.217   1.704
10843SOL     OW33427   0.799   1.738   1.888
10843SOL    HW133428   0.744   1.800   1.944
10843SOL    HW233429   0.803   1.773   1.794
10844SOL     OW33430   0.714   5.935   3.300
10844SOL    HW133431   0.651   5.867   3.265
10844SOL    HW233432   0.749   5.907   3.389
10845SOL     OW33433   3.348   6.564   5.378
10845SOL    HW133434   3.321   6.526   5.467
10845SOL    HW233435   3.443   6.595   5.383
10846SOL     OW33436   6.098   1.164   0.532
10846SOL    HW133437   6.032   1.139   0.603
10846SOL    HW233438   6.190   1.144   0.564
10847SOL     OW33439   3.418   2.903   0.271
10847SOL    HW133440   3.413   2.922   0.369
10847SOL    HW233441   3.488   2.833   0.254
10848SOL     OW33442   2.658   4.015   0.772
10848SOL    HW133443   2.753   4.037   0.793
10848SOL    HW233444   2.644   3.916   0.777
10849SOL     OW33445   2.324   4.821   3.811
10849SOL    HW133446   2.298   4.792   3.904
10849SOL    HW233447   2.379   4.749   3.768
10850SOL     OW33448   2.386   6.122   5.959
10850SOL    HW133449   2.482   6.094   5.958
10850SOL    HW233450   2.374   6.202   6.017
10851SOL     OW33451   2.152   3.507   0.529
10851SOL    HW133452   2.075   3.558   0.490
10851SOL    HW233453   2.210   3.569   0.582
10852SOL     OW33454   1.108   0.112   6.924
10852SOL    HW133455   1.079   0.171   6.848
10852SOL    HW233456   1.050   0.031   6.928
10853SOL     OW33457   1.681   2.597   4.941
10853SOL    HW133458   1.666   2.519   4.879
10853SOL    HW233459   1.717   2.674   4.888
10854SOL     OW33460   4.714   4.753   5.537
10854SOL    HW133461   4.643   4.807   5.584
10854SOL    HW233462   4.772   4.708   5.605
10855SOL     OW33463   3.613   0.786   0.634
10855SOL    HW133464   3.610   0.690   0.661
10855SOL    HW233465   3.639   0.793   0.538
10856SOL     OW33466   5.220   1.129   0.387
10856SOL    HW133467   5.206   1.220   0.425
10856SOL    HW233468   5.196   1.129   0.290
10857SOL     OW33469   0.417   2.076   2.902
10857SOL    HW133470   0.325   2.079   2.865
10857SOL    HW233471   0.434   1.986   2.942
10858SOL     OW33472   1.031   1.690   6.863
10858SOL    HW133473   0.989   1.699   6.773
10858SOL    HW233474   1.083   1.772   6.884
10859SOL     OW33475   1.070   4.057   4.512
10859SOL    HW133476   1.170   4.058   4.519
10859SOL    HW233477   1.043   4.091   4.422
10860SOL     OW33478   0.235   2.855   4.941
10860SOL    HW133479   0.209   2.779   4.880
10860SOL    HW233480   0.176   2.933   4.924
10861SOL     OW33481   3.282   4.134   3.805
10861SOL    HW133482   3.270   4.155   3.708
10861SOL    HW233483   3.199   4.092   3.840
10862SOL     OW33484   2.162   1.515   6.346
10862SOL    HW133485   2.104   1.493   6.424
10862SOL    HW233486   2.109   1.562   6.276
10863SOL     OW33487   3.519   0.795   3.814
10863SOL    HW133488   3.451   0.868   3.813
10863SOL    HW233489   3.517   0.748   3.903
10864SOL     OW33490   2.041   6.503   0.633
10864SOL    HW133491   2.007   6.492   0.540
10864SOL    HW233492   2.109   6.432   0.652
10865SOL     OW33493   0.366   1.397   1.420
10865SOL    HW133494   0.332   1.351   1.338
10865SOL    HW233495   0.333   1.491   1.422
10866SOL     OW33496   5.606   4.036   0.589
10866SOL    HW133497   5.615   3.940   0.614
10866SOL    HW233498   5.634   4.093   0.666
10867SOL     OW33499   3.611   3.661   6.798
10867SOL    HW133500   3.698   3.672   6.750
10867SOL    HW233501   3.546   3.611   6.740
10868SOL     OW33502   4.984   1.267   3.995
10868SOL    HW133503   4.981   1.331   4.072
10868SOL    HW233504   5.029   1.310   3.917
10869NA      NA33505   6.260   2.797   5.355
10870NA      NA33506   4.505   4.613   5.101
10871NA      NA33507   1.869   3.174   2.165
10872NA      NA33508   5.133   3.809   4.815
10873NA      NA33509   4.338   2.389   5.280
10874NA      NA33510   3.568   4.770   1.649
10875NA      NA33511   6.958   4.723   0.334
10876NA      NA33512   3.458   3.709   4.230
10877NA      NA33513   4.962   6.039   0.321
10878NA      NA33514   3.211   6.513   5.186
10879NA      NA33515   5.777   5.366   1.745
10880NA      NA33516   2.050   0.351   4.438
10881NA      NA33517   3.643   5.351   2.608
10882NA      NA33518   3.921   3.808   2.186
   7.02927   7.02927   7.02927
